 Entering Gaussian System, Link 0=g16
 Input=294.n.pdb.xyz.mst.wat.gau
 Output=294.n.pdb.xyz.mst.wat.log
 Initial command:
 /dades/curu/g16A03_MST/g16/l1.exe "/tmp/ubator01/1955176/Gau-159071.inp" -scrdir="/tmp/ubator01/1955176/"
 Entering Link 1 = /dades/curu/g16A03_MST/g16/l1.exe PID=    159075.
  
 Copyright (c) 1988,1990,1992,1993,1995,1998,2003,2009,2016,
            Gaussian, Inc.  All Rights Reserved.
  
 This is part of the Gaussian(R) 16 program.  It is based on
 the Gaussian(R) 09 system (copyright 2009, Gaussian, Inc.),
 the Gaussian(R) 03 system (copyright 2003, Gaussian, Inc.),
 the Gaussian(R) 98 system (copyright 1998, Gaussian, Inc.),
 the Gaussian(R) 94 system (copyright 1995, Gaussian, Inc.),
 the Gaussian 92(TM) system (copyright 1992, Gaussian, Inc.),
 the Gaussian 90(TM) system (copyright 1990, Gaussian, Inc.),
 the Gaussian 88(TM) system (copyright 1988, Gaussian, Inc.),
 the Gaussian 86(TM) system (copyright 1986, Carnegie Mellon
 University), and the Gaussian 82(TM) system (copyright 1983,
 Carnegie Mellon University). Gaussian is a federally registered
 trademark of Gaussian, Inc.
  
 This software contains proprietary and confidential information,
 including trade secrets, belonging to Gaussian, Inc.
  
 This software is provided under written license and may be
 used, copied, transmitted, or stored only in accord with that
 written license.
  
 The following legend is applicable only to US Government
 contracts under FAR:
  
                    RESTRICTED RIGHTS LEGEND
  
 Use, reproduction and disclosure by the US Government is
 subject to restrictions as set forth in subparagraphs (a)
 and (c) of the Commercial Computer Software - Restricted
 Rights clause in FAR 52.227-19.
  
 Gaussian, Inc.
 340 Quinnipiac St., Bldg. 40, Wallingford CT 06492
  
  
 ---------------------------------------------------------------
 Warning -- This program may not be used in any manner that
 competes with the business of Gaussian, Inc. or will provide
 assistance to any competitor of Gaussian, Inc.  The licensee
 of this program is prohibited from giving any competitor of
 Gaussian, Inc. access to this program.  By using this program,
 the user acknowledges that Gaussian, Inc. is engaged in the
 business of creating and licensing software in the field of
 computational chemistry and represents and warrants to the
 licensee that it is not a competitor of Gaussian, Inc. and that
 it will not use this program in any manner prohibited above.
 ---------------------------------------------------------------
  

 Cite this work as:
 Gaussian 16, Revision A.03,
 M. J. Frisch, G. W. Trucks, H. B. Schlegel, G. E. Scuseria, 
 M. A. Robb, J. R. Cheeseman, G. Scalmani, V. Barone, 
 G. A. Petersson, H. Nakatsuji, X. Li, M. Caricato, A. V. Marenich, 
 J. Bloino, B. G. Janesko, R. Gomperts, B. Mennucci, H. P. Hratchian, 
 J. V. Ortiz, A. F. Izmaylov, J. L. Sonnenberg, D. Williams-Young, 
 F. Ding, F. Lipparini, F. Egidi, J. Goings, B. Peng, A. Petrone, 
 T. Henderson, D. Ranasinghe, V. G. Zakrzewski, J. Gao, N. Rega, 
 G. Zheng, W. Liang, M. Hada, M. Ehara, K. Toyota, R. Fukuda, 
 J. Hasegawa, M. Ishida, T. Nakajima, Y. Honda, O. Kitao, H. Nakai, 
 T. Vreven, K. Throssell, J. A. Montgomery, Jr., J. E. Peralta, 
 F. Ogliaro, M. J. Bearpark, J. J. Heyd, E. N. Brothers, K. N. Kudin, 
 V. N. Staroverov, T. A. Keith, R. Kobayashi, J. Normand, 
 K. Raghavachari, A. P. Rendell, J. C. Burant, S. S. Iyengar, 
 J. Tomasi, M. Cossi, J. M. Millam, M. Klene, C. Adamo, R. Cammi, 
 J. W. Ochterski, R. L. Martin, K. Morokuma, O. Farkas, 
 J. B. Foresman, and D. J. Fox, Gaussian, Inc., Wallingford CT, 2016.
 
 ******************************************
 Gaussian 16:  ES64L-G16RevA.03 25-Dec-2016
                 1-Mar-2022 
 ******************************************
 %nproc=4
 Will use up to    4 processors via shared memory.
 %Chk=294.n.pdb.xyz.mst.wat.chk
 %mem=800MB
 ----------------------------------------------------------------------
 #p b3lyp/6-31G(d) opt=(MaxStep=10,MaxCycles=1000) freq scf=(MaxCycle=2
 000,NoVarAcc,NoIncFock) scrf=(iefpcm,read,solvent=water)
 ----------------------------------------------------------------------
 1/6=1000,8=10,18=20,19=15,26=3,38=1,40=2/1,3;
 2/9=110,12=2,17=6,18=5,40=1/2;
 3/5=1,6=6,7=1,11=2,25=1,30=1,70=2203,71=1,72=1,74=-5/1,2,3;
 4//1;
 5/5=100002,7=2000,38=1,53=1/2;
 6/7=2,8=2,9=2,10=2,28=1/1;
 7//1,2,3,16;
 1/6=1000,8=10,18=20,19=15,26=3/3(2);
 2/9=110/2;
 99//99;
 2/9=110/2;
 3/5=1,6=6,7=1,11=2,25=1,30=1,70=2205,71=1,72=1,74=-5/1,2,3;
 4/5=5,16=3,69=1/1;
 5/5=100002,7=2000,38=1,53=1/2;
 7//1,2,3,16;
 1/6=1000,8=10,18=20,19=15,26=3/3(-5);
 2/9=110/2;
 6/7=2,8=2,9=2,10=2,19=2,28=1/1;
 99/9=1/99;
 Leave Link    1 at Tue Mar  1 20:00:21 2022, MaxMem=   104857600 cpu:               0.0 elap:               0.0
 (Enter /dades/curu/g16A03_MST/g16/l101.exe)
 -------------
 294.n.pdb.xyz
 -------------
 Symbolic Z-matrix:
 Charge =  0 Multiplicity = 1
 C                    -7.209    -1.409     0.613 
 N                    -5.798    -1.138     0.735 
 C                    -5.005    -0.395    -0.093 
 N                    -3.708    -0.564     0.313 
 C                    -2.58      0.123    -0.305 
 C                    -1.329    -0.025     0.565 
 S                     0.104     0.791    -0.204 
 C                     1.328     0.473     1.107 
 C                     2.688     0.941     0.705 
 C                     3.128     2.248     0.647 
 S                     4.761     2.296     0.15 
 C                     4.795     0.575     0.049 
 N                     5.855    -0.175    -0.331 
 C                     7.137     0.157    -0.626 
 N                     7.863    -0.884    -1.089 
 N                     7.682     1.314    -0.497 
 N                     3.652    -0.002     0.37 
 N                    -5.272     0.364    -1.103 
 C                    -6.527     0.553    -1.507 
 N                    -7.618     0.72     -1.866 
 H                    -7.798    -0.5       0.763 
 H                    -7.443    -1.855    -0.357 
 H                    -7.51     -2.126     1.384 
 H                    -5.394    -1.419     1.618 
 H                    -3.492    -1.406     0.828 
 H                    -2.409    -0.303    -1.301 
 H                    -2.818     1.187    -0.423 
 H                    -1.096    -1.086     0.708 
 H                    -1.508     0.418     1.55 
 H                     1.015     0.988     2.022 
 H                     1.355    -0.602     1.315 
 H                     2.578     3.154     0.858 
 H                     5.64     -1.159    -0.347 
 H                     7.441    -1.766    -1.338 
 H                     8.834    -0.764    -1.338 
 H                     8.657     1.276    -0.79 
 
 ITRead=  0  0  0  0  0  0  0  0  0  0  0  0  0  0  0  0  0  0  0  0
 ITRead=  0  0  0  0  0  0  0  0  0  0  0  0  0  0  0  0
 MicOpt= -1 -1 -1 -1 -1 -1 -1 -1 -1 -1 -1 -1 -1 -1 -1 -1 -1 -1 -1 -1
 MicOpt= -1 -1 -1 -1 -1 -1 -1 -1 -1 -1 -1 -1 -1 -1 -1 -1
 NAtoms=     36 NQM=       36 NQMF=       0 NMMI=      0 NMMIF=      0
                NMic=       0 NMicF=      0.
                    Isotopes and Nuclear Properties:
 (Nuclear quadrupole moments (NQMom) in fm**2, nuclear magnetic moments (NMagM)
  in nuclear magnetons)

  Atom         1           2           3           4           5           6           7           8           9          10
 IAtWgt=          12          14          12          14          12          12          32          12          12          12
 AtmWgt=  12.0000000  14.0030740  12.0000000  14.0030740  12.0000000  12.0000000  31.9720718  12.0000000  12.0000000  12.0000000
 NucSpn=           0           2           0           2           0           0           0           0           0           0
 AtZEff=  -0.0000000  -0.0000000  -0.0000000  -0.0000000  -0.0000000  -0.0000000  -0.0000000  -0.0000000  -0.0000000  -0.0000000
 NQMom=    0.0000000   2.0440000   0.0000000   2.0440000   0.0000000   0.0000000   0.0000000   0.0000000   0.0000000   0.0000000
 NMagM=    0.0000000   0.4037610   0.0000000   0.4037610   0.0000000   0.0000000   0.0000000   0.0000000   0.0000000   0.0000000
 AtZNuc=   6.0000000   7.0000000   6.0000000   7.0000000   6.0000000   6.0000000  16.0000000   6.0000000   6.0000000   6.0000000

  Atom        11          12          13          14          15          16          17          18          19          20
 IAtWgt=          32          12          14          12          14          14          14          14          12          14
 AtmWgt=  31.9720718  12.0000000  14.0030740  12.0000000  14.0030740  14.0030740  14.0030740  14.0030740  12.0000000  14.0030740
 NucSpn=           0           0           2           0           2           2           2           2           0           2
 AtZEff=  -0.0000000  -0.0000000  -0.0000000  -0.0000000  -0.0000000  -0.0000000  -0.0000000  -0.0000000  -0.0000000  -0.0000000
 NQMom=    0.0000000   0.0000000   2.0440000   0.0000000   2.0440000   2.0440000   2.0440000   2.0440000   0.0000000   2.0440000
 NMagM=    0.0000000   0.0000000   0.4037610   0.0000000   0.4037610   0.4037610   0.4037610   0.4037610   0.0000000   0.4037610
 AtZNuc=  16.0000000   6.0000000   7.0000000   6.0000000   7.0000000   7.0000000   7.0000000   7.0000000   6.0000000   7.0000000

  Atom        21          22          23          24          25          26          27          28          29          30
 IAtWgt=           1           1           1           1           1           1           1           1           1           1
 AtmWgt=   1.0078250   1.0078250   1.0078250   1.0078250   1.0078250   1.0078250   1.0078250   1.0078250   1.0078250   1.0078250
 NucSpn=           1           1           1           1           1           1           1           1           1           1
 AtZEff=  -0.0000000  -0.0000000  -0.0000000  -0.0000000  -0.0000000  -0.0000000  -0.0000000  -0.0000000  -0.0000000  -0.0000000
 NQMom=    0.0000000   0.0000000   0.0000000   0.0000000   0.0000000   0.0000000   0.0000000   0.0000000   0.0000000   0.0000000
 NMagM=    2.7928460   2.7928460   2.7928460   2.7928460   2.7928460   2.7928460   2.7928460   2.7928460   2.7928460   2.7928460
 AtZNuc=   1.0000000   1.0000000   1.0000000   1.0000000   1.0000000   1.0000000   1.0000000   1.0000000   1.0000000   1.0000000

  Atom        31          32          33          34          35          36
 IAtWgt=           1           1           1           1           1           1
 AtmWgt=   1.0078250   1.0078250   1.0078250   1.0078250   1.0078250   1.0078250
 NucSpn=           1           1           1           1           1           1
 AtZEff=  -0.0000000  -0.0000000  -0.0000000  -0.0000000  -0.0000000  -0.0000000
 NQMom=    0.0000000   0.0000000   0.0000000   0.0000000   0.0000000   0.0000000
 NMagM=    2.7928460   2.7928460   2.7928460   2.7928460   2.7928460   2.7928460
 AtZNuc=   1.0000000   1.0000000   1.0000000   1.0000000   1.0000000   1.0000000
 Leave Link  101 at Tue Mar  1 20:00:21 2022, MaxMem=   104857600 cpu:               0.1 elap:               0.1
 (Enter /dades/curu/g16A03_MST/g16/l103.exe)

 GradGradGradGradGradGradGradGradGradGradGradGradGradGradGradGradGradGrad
 Berny optimization.
 Initialization pass.
                           ----------------------------
                           !    Initial Parameters    !
                           ! (Angstroms and Degrees)  !
 --------------------------                            --------------------------
 ! Name  Definition              Value          Derivative Info.                !
 --------------------------------------------------------------------------------
 ! R1    R(1,2)                  1.442          estimate D2E/DX2                !
 ! R2    R(1,21)                 1.0935         estimate D2E/DX2                !
 ! R3    R(1,22)                 1.093          estimate D2E/DX2                !
 ! R4    R(1,23)                 1.095          estimate D2E/DX2                !
 ! R5    R(2,3)                  1.3662         estimate D2E/DX2                !
 ! R6    R(2,24)                 1.0109         estimate D2E/DX2                !
 ! R7    R(3,4)                  1.3695         estimate D2E/DX2                !
 ! R8    R(3,18)                 1.2913         estimate D2E/DX2                !
 ! R9    R(4,5)                  1.4582         estimate D2E/DX2                !
 ! R10   R(4,25)                 1.0104         estimate D2E/DX2                !
 ! R11   R(5,6)                  1.5309         estimate D2E/DX2                !
 ! R12   R(5,26)                 1.0967         estimate D2E/DX2                !
 ! R13   R(5,27)                 1.0967         estimate D2E/DX2                !
 ! R14   R(6,7)                  1.8195         estimate D2E/DX2                !
 ! R15   R(6,28)                 1.0957         estimate D2E/DX2                !
 ! R16   R(6,29)                 1.0948         estimate D2E/DX2                !
 ! R17   R(7,8)                  1.8215         estimate D2E/DX2                !
 ! R18   R(8,9)                  1.4934         estimate D2E/DX2                !
 ! R19   R(8,30)                 1.0956         estimate D2E/DX2                !
 ! R20   R(8,31)                 1.0953         estimate D2E/DX2                !
 ! R21   R(9,10)                 1.3803         estimate D2E/DX2                !
 ! R22   R(9,17)                 1.3895         estimate D2E/DX2                !
 ! R23   R(10,11)                1.7076         estimate D2E/DX2                !
 ! R24   R(10,32)                1.0807         estimate D2E/DX2                !
 ! R25   R(11,12)                1.7243         estimate D2E/DX2                !
 ! R26   R(12,13)                1.353          estimate D2E/DX2                !
 ! R27   R(12,17)                1.32           estimate D2E/DX2                !
 ! R28   R(13,14)                1.3568         estimate D2E/DX2                !
 ! R29   R(13,33)                1.0073         estimate D2E/DX2                !
 ! R30   R(14,15)                1.351          estimate D2E/DX2                !
 ! R31   R(14,16)                1.2854         estimate D2E/DX2                !
 ! R32   R(15,34)                1.009          estimate D2E/DX2                !
 ! R33   R(15,35)                1.0096         estimate D2E/DX2                !
 ! R34   R(16,36)                1.0188         estimate D2E/DX2                !
 ! R35   R(18,19)                1.3319         estimate D2E/DX2                !
 ! R36   R(19,20)                1.1606         estimate D2E/DX2                !
 ! A1    A(2,1,21)             111.0538         estimate D2E/DX2                !
 ! A2    A(2,1,22)             111.1788         estimate D2E/DX2                !
 ! A3    A(2,1,23)             109.418          estimate D2E/DX2                !
 ! A4    A(21,1,22)            110.2209         estimate D2E/DX2                !
 ! A5    A(21,1,23)            107.437          estimate D2E/DX2                !
 ! A6    A(22,1,23)            107.3873         estimate D2E/DX2                !
 ! A7    A(1,2,3)              128.237          estimate D2E/DX2                !
 ! A8    A(1,2,24)             114.3768         estimate D2E/DX2                !
 ! A9    A(3,2,24)             116.6537         estimate D2E/DX2                !
 ! A10   A(2,3,4)              107.6334         estimate D2E/DX2                !
 ! A11   A(2,3,18)             132.3517         estimate D2E/DX2                !
 ! A12   A(4,3,18)             120.0146         estimate D2E/DX2                !
 ! A13   A(3,4,5)              123.2863         estimate D2E/DX2                !
 ! A14   A(3,4,25)             117.1554         estimate D2E/DX2                !
 ! A15   A(5,4,25)             116.3131         estimate D2E/DX2                !
 ! A16   A(4,5,6)              110.226          estimate D2E/DX2                !
 ! A17   A(4,5,26)             108.815          estimate D2E/DX2                !
 ! A18   A(4,5,27)             109.5619         estimate D2E/DX2                !
 ! A19   A(6,5,26)             110.5568         estimate D2E/DX2                !
 ! A20   A(6,5,27)             109.407          estimate D2E/DX2                !
 ! A21   A(26,5,27)            108.2396         estimate D2E/DX2                !
 ! A22   A(5,6,7)              111.1016         estimate D2E/DX2                !
 ! A23   A(5,6,28)             109.9716         estimate D2E/DX2                !
 ! A24   A(5,6,29)             109.7899         estimate D2E/DX2                !
 ! A25   A(7,6,28)             108.7815         estimate D2E/DX2                !
 ! A26   A(7,6,29)             109.1206         estimate D2E/DX2                !
 ! A27   A(28,6,29)            108.0107         estimate D2E/DX2                !
 ! A28   A(6,7,8)               98.438          estimate D2E/DX2                !
 ! A29   A(7,8,9)              111.3146         estimate D2E/DX2                !
 ! A30   A(7,8,30)             109.089          estimate D2E/DX2                !
 ! A31   A(7,8,31)             108.9408         estimate D2E/DX2                !
 ! A32   A(9,8,30)             109.7345         estimate D2E/DX2                !
 ! A33   A(9,8,31)             109.6486         estimate D2E/DX2                !
 ! A34   A(30,8,31)            108.0467         estimate D2E/DX2                !
 ! A35   A(8,9,10)             126.7518         estimate D2E/DX2                !
 ! A36   A(8,9,17)             118.9481         estimate D2E/DX2                !
 ! A37   A(10,9,17)            114.2884         estimate D2E/DX2                !
 ! A38   A(9,10,11)            110.1017         estimate D2E/DX2                !
 ! A39   A(9,10,32)            128.5653         estimate D2E/DX2                !
 ! A40   A(11,10,32)           121.3295         estimate D2E/DX2                !
 ! A41   A(10,11,12)            90.4497         estimate D2E/DX2                !
 ! A42   A(11,12,13)           125.8158         estimate D2E/DX2                !
 ! A43   A(11,12,17)           113.8889         estimate D2E/DX2                !
 ! A44   A(13,12,17)           120.2913         estimate D2E/DX2                !
 ! A45   A(12,13,14)           131.7378         estimate D2E/DX2                !
 ! A46   A(12,13,33)           112.2556         estimate D2E/DX2                !
 ! A47   A(14,13,33)           115.9287         estimate D2E/DX2                !
 ! A48   A(13,14,15)           113.1876         estimate D2E/DX2                !
 ! A49   A(13,14,16)           126.8025         estimate D2E/DX2                !
 ! A50   A(15,14,16)           120.0079         estimate D2E/DX2                !
 ! A51   A(14,15,34)           122.2359         estimate D2E/DX2                !
 ! A52   A(14,15,35)           120.6502         estimate D2E/DX2                !
 ! A53   A(34,15,35)           116.443          estimate D2E/DX2                !
 ! A54   A(14,16,36)           110.0798         estimate D2E/DX2                !
 ! A55   A(9,17,12)            111.2668         estimate D2E/DX2                !
 ! A56   A(3,18,19)            121.0298         estimate D2E/DX2                !
 ! A57   L(18,19,20,1,-1)      180.3517         estimate D2E/DX2                !
 ! A58   L(18,19,20,1,-2)      180.1547         estimate D2E/DX2                !
 ! D1    D(21,1,2,3)           -67.6583         estimate D2E/DX2                !
 ! D2    D(21,1,2,24)          102.1048         estimate D2E/DX2                !
 ! D3    D(22,1,2,3)            55.4578         estimate D2E/DX2                !
 ! D4    D(22,1,2,24)         -134.7791         estimate D2E/DX2                !
 ! D5    D(23,1,2,3)           173.9072         estimate D2E/DX2                !
 ! D6    D(23,1,2,24)          -16.3296         estimate D2E/DX2                !
 ! D7    D(1,2,3,4)           -171.9159         estimate D2E/DX2                !
 ! D8    D(1,2,3,18)             7.8816         estimate D2E/DX2                !
 ! D9    D(24,2,3,4)            18.5192         estimate D2E/DX2                !
 ! D10   D(24,2,3,18)         -161.6833         estimate D2E/DX2                !
 ! D11   D(2,3,4,5)           -177.4114         estimate D2E/DX2                !
 ! D12   D(2,3,4,25)            23.7241         estimate D2E/DX2                !
 ! D13   D(18,3,4,5)             2.7615         estimate D2E/DX2                !
 ! D14   D(18,3,4,25)         -156.1031         estimate D2E/DX2                !
 ! D15   D(2,3,18,19)            0.8831         estimate D2E/DX2                !
 ! D16   D(4,3,18,19)         -179.3398         estimate D2E/DX2                !
 ! D17   D(3,4,5,6)            167.0758         estimate D2E/DX2                !
 ! D18   D(3,4,5,26)           -71.5334         estimate D2E/DX2                !
 ! D19   D(3,4,5,27)            46.6299         estimate D2E/DX2                !
 ! D20   D(25,4,5,6)           -33.8963         estimate D2E/DX2                !
 ! D21   D(25,4,5,26)           87.4945         estimate D2E/DX2                !
 ! D22   D(25,4,5,27)         -154.3422         estimate D2E/DX2                !
 ! D23   D(4,5,6,7)            178.6616         estimate D2E/DX2                !
 ! D24   D(4,5,6,28)            58.1693         estimate D2E/DX2                !
 ! D25   D(4,5,6,29)           -60.5416         estimate D2E/DX2                !
 ! D26   D(26,5,6,7)            58.3134         estimate D2E/DX2                !
 ! D27   D(26,5,6,28)          -62.179          estimate D2E/DX2                !
 ! D28   D(26,5,6,29)          179.1101         estimate D2E/DX2                !
 ! D29   D(27,5,6,7)           -60.7993         estimate D2E/DX2                !
 ! D30   D(27,5,6,28)          178.7083         estimate D2E/DX2                !
 ! D31   D(27,5,6,29)           59.9974         estimate D2E/DX2                !
 ! D32   D(5,6,7,8)            177.7441         estimate D2E/DX2                !
 ! D33   D(28,6,7,8)           -61.0626         estimate D2E/DX2                !
 ! D34   D(29,6,7,8)            56.5538         estimate D2E/DX2                !
 ! D35   D(6,7,8,9)            175.1291         estimate D2E/DX2                !
 ! D36   D(6,7,8,30)           -63.6343         estimate D2E/DX2                !
 ! D37   D(6,7,8,31)            54.0982         estimate D2E/DX2                !
 ! D38   D(7,8,9,10)            74.5504         estimate D2E/DX2                !
 ! D39   D(7,8,9,17)          -106.7695         estimate D2E/DX2                !
 ! D40   D(30,8,9,10)          -46.3083         estimate D2E/DX2                !
 ! D41   D(30,8,9,17)          132.3717         estimate D2E/DX2                !
 ! D42   D(31,8,9,10)         -164.834          estimate D2E/DX2                !
 ! D43   D(31,8,9,17)           13.846          estimate D2E/DX2                !
 ! D44   D(8,9,10,11)          179.3967         estimate D2E/DX2                !
 ! D45   D(8,9,10,32)           -1.2822         estimate D2E/DX2                !
 ! D46   D(17,9,10,11)           0.6639         estimate D2E/DX2                !
 ! D47   D(17,9,10,32)         179.985          estimate D2E/DX2                !
 ! D48   D(8,9,17,12)         -179.5711         estimate D2E/DX2                !
 ! D49   D(10,9,17,12)          -0.7314         estimate D2E/DX2                !
 ! D50   D(9,10,11,12)          -0.3288         estimate D2E/DX2                !
 ! D51   D(32,10,11,12)       -179.7073         estimate D2E/DX2                !
 ! D52   D(10,11,12,13)        179.1886         estimate D2E/DX2                !
 ! D53   D(10,11,12,17)         -0.0788         estimate D2E/DX2                !
 ! D54   D(11,12,13,14)          5.3749         estimate D2E/DX2                !
 ! D55   D(11,12,13,33)       -178.0353         estimate D2E/DX2                !
 ! D56   D(17,12,13,14)       -175.401          estimate D2E/DX2                !
 ! D57   D(17,12,13,33)          1.1889         estimate D2E/DX2                !
 ! D58   D(11,12,17,9)           0.4625         estimate D2E/DX2                !
 ! D59   D(13,12,17,9)        -178.8495         estimate D2E/DX2                !
 ! D60   D(12,13,14,15)       -174.1193         estimate D2E/DX2                !
 ! D61   D(12,13,14,16)          6.3906         estimate D2E/DX2                !
 ! D62   D(33,13,14,15)          9.3902         estimate D2E/DX2                !
 ! D63   D(33,13,14,16)       -170.0999         estimate D2E/DX2                !
 ! D64   D(13,14,15,34)         10.0997         estimate D2E/DX2                !
 ! D65   D(13,14,15,35)       -179.6242         estimate D2E/DX2                !
 ! D66   D(16,14,15,34)       -170.3718         estimate D2E/DX2                !
 ! D67   D(16,14,15,35)         -0.0957         estimate D2E/DX2                !
 ! D68   D(13,14,16,36)        179.7706         estimate D2E/DX2                !
 ! D69   D(15,14,16,36)          0.3119         estimate D2E/DX2                !
 --------------------------------------------------------------------------------
 Trust Radius=1.00D-01 FncErr=1.00D-07 GrdErr=1.00D-06 EigMax=2.50D+02 EigMin=1.00D-04
 Number of steps in this run=    216 maximum allowed number of steps=    216.
 GradGradGradGradGradGradGradGradGradGradGradGradGradGradGradGradGradGrad

 Leave Link  103 at Tue Mar  1 20:00:21 2022, MaxMem=   104857600 cpu:               0.0 elap:               0.0
 (Enter /dades/curu/g16A03_MST/g16/l202.exe)
                          Input orientation:                          
 ---------------------------------------------------------------------
 Center     Atomic      Atomic             Coordinates (Angstroms)
 Number     Number       Type             X           Y           Z
 ---------------------------------------------------------------------
      1          6           0       -7.209000   -1.409000    0.613000
      2          7           0       -5.798000   -1.138000    0.735000
      3          6           0       -5.005000   -0.395000   -0.093000
      4          7           0       -3.708000   -0.564000    0.313000
      5          6           0       -2.580000    0.123000   -0.305000
      6          6           0       -1.329000   -0.025000    0.565000
      7         16           0        0.104000    0.791000   -0.204000
      8          6           0        1.328000    0.473000    1.107000
      9          6           0        2.688000    0.941000    0.705000
     10          6           0        3.128000    2.248000    0.647000
     11         16           0        4.761000    2.296000    0.150000
     12          6           0        4.795000    0.575000    0.049000
     13          7           0        5.855000   -0.175000   -0.331000
     14          6           0        7.137000    0.157000   -0.626000
     15          7           0        7.863000   -0.884000   -1.089000
     16          7           0        7.682000    1.314000   -0.497000
     17          7           0        3.652000   -0.002000    0.370000
     18          7           0       -5.272000    0.364000   -1.103000
     19          6           0       -6.527000    0.553000   -1.507000
     20          7           0       -7.618000    0.720000   -1.866000
     21          1           0       -7.798000   -0.500000    0.763000
     22          1           0       -7.443000   -1.855000   -0.357000
     23          1           0       -7.510000   -2.126000    1.384000
     24          1           0       -5.394000   -1.419000    1.618000
     25          1           0       -3.492000   -1.406000    0.828000
     26          1           0       -2.409000   -0.303000   -1.301000
     27          1           0       -2.818000    1.187000   -0.423000
     28          1           0       -1.096000   -1.086000    0.708000
     29          1           0       -1.508000    0.418000    1.550000
     30          1           0        1.015000    0.988000    2.022000
     31          1           0        1.355000   -0.602000    1.315000
     32          1           0        2.578000    3.154000    0.858000
     33          1           0        5.640000   -1.159000   -0.347000
     34          1           0        7.441000   -1.766000   -1.338000
     35          1           0        8.834000   -0.764000   -1.338000
     36          1           0        8.657000    1.276000   -0.790000
 ---------------------------------------------------------------------
                    Distance matrix (angstroms):
                    1          2          3          4          5
     1  C    0.000000
     2  N    1.441959   0.000000
     3  C    2.526707   1.366193   0.000000
     4  N    3.614004   2.208090   1.369528   0.000000
     5  C    4.961591   3.609327   2.488753   1.458176   0.000000
     6  C    6.040874   4.608647   3.752711   2.452278   1.530949
     7  S    7.680329   6.279838   5.246027   4.078561   2.767721
     8  C    8.755931   7.315298   6.503869   5.202605   4.169977
     9  C   10.172589   8.737010   7.848818   6.582363   5.425961
    10  C   10.964870   9.547053   8.583632   7.399311   6.164673
    11  S   12.538831  11.118771  10.132881   8.940365   7.669370
    12  C   12.179917  10.752517   9.848912   8.583008   7.397313
    13  N   13.156063  11.741215  10.864835   9.592551   8.440302
    14  C   14.484309  13.070714  12.166222  10.909427   9.722360
    15  N   15.176878  13.784572  12.915749  11.660019  10.520692
    16  N   15.178561  13.756472  12.807961  11.572169  10.332666
    17  N   10.954452   9.525031   8.678276   7.381646   6.269695
    18  N    3.136902   2.431239   1.291306   2.304851   2.818111
    19  C    2.967991   2.901290   2.283546   3.536503   4.148314
    20  N    3.293230   3.678283   3.348809   4.656694   5.307973
    21  H    1.093482   2.099483   2.923116   4.115179   5.362488
    22  H    1.092965   2.100614   2.853969   4.008217   5.250139
    23  H    1.095048   2.080454   3.384216   4.247598   5.675881
    24  H    2.074693   1.010874   2.031605   2.297095   3.740894
    25  H    3.723214   2.323383   2.039493   1.010369   2.110278
    26  H    5.284565   4.040772   2.864776   2.088185   1.096692
    27  H    5.205131   3.953099   2.719300   2.097569   1.096660
    28  H    6.122265   4.702365   4.049613   2.692778   2.165665
    29  H    6.059480   4.635673   3.948345   2.708227   2.162691
    30  H    8.681306   7.252118   6.528883   5.257006   4.368888
    31  H    8.630536   7.196465   6.517278   5.161339   4.316741
    32  H   10.801220   9.412426   8.426250   7.323547   6.094628
    33  H   12.887238  11.489082  10.675403   9.390140   8.319476
    34  H   14.783651  13.415023  12.583028  11.334496  10.249676
    35  H   16.174062  14.782849  13.899788  12.651781  11.494923
    36  H   16.152634  14.734315  13.781447  12.549718  11.306405
                    6          7          8          9         10
     6  C    0.000000
     7  S    1.819535   0.000000
     8  C    2.757067   1.821544   0.000000
     9  C    4.133890   2.743326   1.493395   0.000000
    10  C    5.003809   3.462893   2.569480   1.380295   0.000000
    11  S    6.530495   4.906933   4.003082   2.537987   1.707631
    12  C    6.174920   4.702781   3.626273   2.236904   2.436272
    13  N    7.241213   5.832948   4.793900   3.514063   3.776763
    14  C    8.551302   7.074117   6.070225   4.709545   4.697328
    15  N    9.379044   7.986922   7.026385   5.773187   5.936611
    16  N    9.171635   7.601675   6.607073   5.150143   4.787485
    17  N    4.984869   3.680575   2.483902   1.389522   2.326758
    18  N    4.298929   5.467349   6.961033   8.183116   8.784757
    19  C    5.625520   6.761998   8.278914   9.484709  10.036522
    20  N    6.783532   7.899150   9.430305  10.624148  11.141206
    21  H    6.489437   8.064947   9.184168  10.584708  11.266873
    22  H    6.448254   7.998871   9.192025  10.563268  11.383702
    23  H    6.579493   8.306842   9.216386  10.670836  11.525714
    24  H    4.424508   6.199338   7.001862   8.468878   9.328141
    25  H    2.579709   4.338554   5.180819   6.611803   7.563655
    26  H    2.173854   2.952188   4.512849   5.617026   6.400053
    27  H    2.159215   2.956833   4.476607   5.625739   6.133966
    28  H    1.095655   2.407254   2.909546   4.292714   5.381585
    29  H    1.094767   2.411263   2.870918   4.312073   5.065255
    30  H    2.939958   2.413256   1.095636   2.129701   2.818332
    31  H    2.845924   2.410977   1.095271   2.128342   3.422317
    32  H    5.045447   3.582218   2.968545   2.221008   1.080674
    33  H    7.119316   5.871137   4.834344   3.772401   4.348083
    34  H    9.141411   7.852119   6.954129   5.838896   6.217265
    35  H   10.366007   8.939624   7.990509   6.697327   6.750615
    36  H   10.161143   8.586759   7.612993   6.162484   5.794790
                   11         12         13         14         15
    11  S    0.000000
    12  C    1.724296   0.000000
    13  N    2.744820   1.352960   0.000000
    14  C    3.289814   2.472916   1.356751   0.000000
    15  N    4.611933   3.582785   2.260378   1.350972   0.000000
    16  N    3.148837   3.029687   2.362754   1.285424   2.283512
    17  N    2.561071   1.320007   2.318305   3.628019   4.543030
    18  N   10.293868  10.134896  11.166765  12.419890  13.194163
    19  C   11.541345  11.428443  12.459008  13.698097  14.467612
    20  N   12.640715  12.560685  13.589664  14.817712  15.583257
    21  H   12.881066  12.658952  13.700616  15.013833  15.774799
    22  H   12.900599  12.483524  13.403726  14.720629  15.354227
    23  H   13.101690  12.668490  13.615096  14.959505  15.620097
    24  H   10.912391  10.500168  11.484169  12.827520  13.541127
    25  H    9.070639   8.556025   9.498687  10.841251  11.527506
    26  H    7.763318   7.381802   8.321717   9.580884  10.290602
    27  H    7.681110   7.652130   8.779774  10.010201  10.900292
    28  H    6.786290   6.156061   7.087019   8.432490   9.139677
    29  H    6.692327   6.481162   7.622570   8.918471   9.822177
    30  H    4.387227   4.283888   5.505886   6.721707   7.750988
    31  H    4.621306   3.849894   4.810576   6.146144   6.943544
    32  H    2.450085   3.495828   4.820238   5.654091   6.930186
    33  H    3.599538   1.969161   1.007342   2.012637   2.359644
    34  H    5.088849   3.795440   2.461854   2.072990   1.008964
    35  H    5.307266   4.475512   3.199283   2.057910   1.009575
    36  H    4.135555   4.013772   3.188618   1.894586   2.320654
                   16         17         18         19         20
    16  N    0.000000
    17  N    4.327175   0.000000
    18  N   13.002917   9.052152   0.000000
    19  C   14.265164  10.365481   1.331902   0.000000
    20  N   15.372605  11.512336   2.492513   1.160625   0.000000
    21  H   15.636771  11.467561   3.257166   2.806626   2.903867
    22  H   15.454054  11.272141   3.192760   2.821351   2.989704
    23  H   15.689762  11.407446   4.170601   4.062168   4.321328
    24  H   13.524951   9.240969   3.255428   3.864984   4.654004
    25  H   11.576368   7.295047   3.167027   4.301294   5.366692
    26  H   10.251311   6.294328   2.946330   4.211068   5.338486
    27  H   10.501029   6.625969   2.676162   3.915826   5.033919
    28  H    9.179614   4.881885   4.777154   6.090017   7.240414
    29  H    9.457755   5.309840   4.605325   5.878251   7.006594
    30  H    7.134460   3.265421   7.048501   8.338155   9.471909
    31  H    6.854585   2.555237   7.120183   8.451250   9.611513
    32  H    5.592177   3.369266   8.558745   9.760095  10.830649
    33  H    3.210606   2.409332  11.043677  12.341492  13.476371
    34  H    3.201837   4.515028  12.892342  14.160203  15.271950
    35  H    2.520410   5.509177  14.152980  15.418280  16.527230
    36  H    1.018783   5.294234  13.962333  15.218103  16.320004
                   21         22         23         24         25
    21  H    0.000000
    22  H    1.793446   0.000000
    23  H    1.764217   1.763239   0.000000
    24  H    2.711974   2.879084   2.243226   0.000000
    25  H    4.400761   4.149244   4.119692   2.059581   0.000000
    26  H    5.774100   5.351728   6.045887   4.321602   2.630996
    27  H    5.390080   5.536131   6.021302   4.194364   2.956844
    28  H    6.727795   6.481512   6.532838   4.405882   2.420251
    29  H    6.405169   6.635315   6.521004   4.298859   2.790075
    30  H    9.025973   9.234720   9.098333   6.857999   5.241176
    31  H    9.170197   9.042699   8.995308   6.805020   4.937306
    32  H   11.001005  11.268840  11.398369   9.221861   7.592062
    33  H   13.499860  13.101504  13.298645  11.210619   9.210595
    34  H   15.435157  14.916559  15.201029  13.175567  11.151307
    35  H   16.766255  16.342991  16.625001  14.546578  12.531321
    36  H   16.623267  16.407335  16.663486  14.508346  12.546284
                   26         27         28         29         30
    26  H    0.000000
    27  H    1.777151   0.000000
    28  H    2.524508   3.067731   0.000000
    29  H    3.075686   2.490018   1.772209   0.000000
    30  H    4.942953   4.550771   3.237961   2.629299   0.000000
    31  H    4.593534   4.861594   2.571013   3.048343   1.773006
    32  H    6.440675   5.884460   5.612341   4.965879   2.913661
    33  H    8.150414   8.777657   6.818508   7.561709   5.622490
    34  H    9.958124  10.714687   8.805049   9.653756   7.756777
    35  H   11.252508  11.849588  10.143702  10.802529   8.688836
    36  H   11.189760  11.481212  10.146135  10.466088   8.148034
                   31         32         33         34         35
    31  H    0.000000
    32  H    3.976445   0.000000
    33  H    4.629656   5.424927   0.000000
    34  H    6.740378   7.257933   2.143392   0.000000
    35  H    7.937260   7.701342   3.367453   1.715941   0.000000
    36  H    7.827970   6.572445   3.902277   3.321554   2.119725
                   36
    36  H    0.000000
 Stoichiometry    C10H16N8S2
 Framework group  C1[X(C10H16N8S2)]
 Deg. of freedom   102
 Full point group                 C1      NOp   1
 Largest Abelian subgroup         C1      NOp   1
 Largest concise Abelian subgroup C1      NOp   1
                         Standard orientation:                         
 ---------------------------------------------------------------------
 Center     Atomic      Atomic             Coordinates (Angstroms)
 Number     Number       Type             X           Y           Z
 ---------------------------------------------------------------------
      1          6           0       -7.760825    1.188573   -0.629624
      2          7           0       -6.331418    1.048002   -0.757223
      3          6           0       -5.483053    0.302887    0.011909
      4          7           0       -4.202769    0.614823   -0.361154
      5          6           0       -3.024214   -0.028105    0.207994
      6          6           0       -1.785590    0.300468   -0.629655
      7         16           0       -0.293055   -0.458534    0.082358
      8          6           0        0.906658    0.075785   -1.179866
      9          6           0        2.299093   -0.311218   -0.803590
     10          6           0        2.847146   -1.576975   -0.855646
     11         16           0        4.475793   -1.532828   -0.344217
     12          6           0        4.364411    0.169171   -0.091250
     13          7           0        5.355592    0.968047    0.366852
     14          6           0        6.659422    0.719058    0.647575
     15          7           0        7.292886    1.771548    1.209815
     16          7           0        7.300458   -0.372422    0.423834
     17          7           0        3.178617    0.675227   -0.374483
     18          7           0       -5.690518   -0.562617    0.947499
     19          6           0       -6.927259   -0.890727    1.317335
     20          7           0       -8.002199   -1.179332    1.646366
     21          1           0       -8.270504    0.250643   -0.866725
     22          1           0       -8.036541    1.525387    0.372927
     23          1           0       -8.117049    1.943793   -1.338057
     24          1           0       -5.947900    1.439179   -1.606787
     25          1           0       -4.055674    1.514388   -0.797034
     26          1           0       -2.894823    0.320283    1.239796
     27          1           0       -3.172498   -1.114499    0.228579
     28          1           0       -1.641906    1.385693   -0.675469
     29          1           0       -1.921580   -0.066440   -1.652104
     30          1           0        0.642837   -0.379980   -2.140644
     31          1           0        0.844235    1.163533   -1.291789
     32          1           0        2.376392   -2.503247   -1.152746
     33          1           0        5.058519    1.925369    0.466943
     34          1           0        6.796917    2.589642    1.530355
     35          1           0        8.269232    1.711164    1.459506
     36          1           0        8.267272   -0.279569    0.731350
 ---------------------------------------------------------------------
 Rotational constants (GHZ):           1.0603156           0.0612344           0.0604334
 Leave Link  202 at Tue Mar  1 20:00:21 2022, MaxMem=   104857600 cpu:               0.1 elap:               0.0
 (Enter /dades/curu/g16A03_MST/g16/l301.exe)
 Standard basis: 6-31G(d) (6D, 7F)
 Ernie: Thresh=  0.10000D-02 Tol=  0.10000D-05 Strict=F.
 There are   340 symmetry adapted cartesian basis functions of A   symmetry.
 There are   340 symmetry adapted basis functions of A   symmetry.
   340 basis functions,   672 primitive gaussians,   340 cartesian basis functions
    82 alpha electrons       82 beta electrons
       nuclear repulsion energy      1617.6203525800 Hartrees.
 IExCor=  402 DFT=T Ex+Corr=B3LYP ExCW=0 ScaHFX=  0.200000
 ScaDFX=  0.800000  0.720000  1.000000  0.810000 ScalE2=  1.000000  1.000000
 IRadAn=      5 IRanWt=     -1 IRanGd=            0 ICorTp=0 IEmpDi=  4
 NAtoms=   36 NActive=   36 NUniq=   36 SFac= 1.00D+00 NAtFMM=   60 NAOKFM=F Big=F
 Integral buffers will be    131072 words long.
 Raffenetti 2 integral format.
 Two-electron integral symmetry is turned on.
 Using the following non-standard input for PCM:
 MSTModel=DFT cav
 --- end of non-standard input.
 MST model for solvation energy: B3LYP parametrization.
 MST cavity parameters:
 ISph   IAn     Re0     Alpha   Atom Type   QCorr
 ------------------------------------------------
   1      6     1.50     1.25      CH3        F
   2      7     1.40     1.25      NH         F
   3      6     1.50     1.25      C          F
   4      7     1.40     1.25      NH         F
   5      6     1.50     1.25      CH2        F
   6      6     1.50     1.25      CH2        F
   7     16     1.75     1.25      S          F
   8      6     1.50     1.25      CH2        F
   9      6     1.50     1.25      C          F
  10      6     1.50     1.25      CH         F
  11     16     1.75     1.25      S          F
  12      6     1.50     1.25      C          F
  13      7     1.40     1.25      NH         F
  14      6     1.50     1.25      C          F
  15      7     1.40     1.25      NH         F
  16      7     1.40     1.25      NH         F
  17      7     1.40     1.25      N          F
  18      7     1.40     1.25      N          F
  19      6     1.50     1.25      C          F
  20      7     1.40     1.25      N          F
  21      1     1.20     1.25      CH3        F
  22      1     1.20     1.25      CH3        F
  23      1     1.20     1.25      CH3        F
  24      1     0.90     1.25      NH         F
  25      1     0.90     1.25      NH         F
  26      1     1.20     1.25      CH2        F
  27      1     1.20     1.25      CH2        F
  28      1     1.20     1.25      CH2        F
  29      1     1.20     1.25      CH2        F
  30      1     1.20     1.25      CH2        F
  31      1     1.20     1.25      CH2        F
  32      1     1.20     1.25      CH         F
  33      1     0.90     1.25      NH         F
  34      1     0.90     1.25      NH         F
  35      1     0.90     1.25      NH         F
  36      1     0.90     1.25      NH         F
 ------------------------------------------------------------------------------
 Polarizable Continuum Model (PCM)
 =================================
 Model                : PCM.
 Atomic radii         : MST.
 Polarization charges : Total charges.
 Charge compensation  : None.
 Solution method      : On-the-fly selection.
 Cavity type          : Scaled VdW (van der Waals Surface) (Alpha=1.250).
 Cavity algorithm     : GePol (No added spheres)
                        Default sphere list used, NSphG=   36.
                        Lebedev-Laikov grids with approx.  5.0 points / Ang**2.
                        Smoothing algorithm: York/Karplus (Gamma=1.0000).
                        Polarization charges: spherical gaussians, with
                                              point-specific exponents (IZeta= 3).
                        Self-potential: point-specific (ISelfS= 7).
                        Self-field    : sphere-specific E.n sum rule (ISelfD= 2).
 1st derivatives      : Analytical E(r).r(x)/FMM algorithm (CHGder, D1EAlg=3).
                        Cavity 1st derivative terms included.
 Solvent              : Water, Eps=  78.355300 Eps(inf)=   1.777849
 ------------------------------------------------------------------------------
 GePol: Number of generator spheres                  =      36
 GePol: Total number of spheres                      =      36
 GePol: Number of exposed spheres                    =      36 (100.00%)
 GePol: Number of points                             =    2670
 GePol: Average weight of points                     =       0.14
 GePol: Minimum weight of points                     =   0.16D-10
 GePol: Maximum weight of points                     =    0.22001
 GePol: Number of points with low weight             =     172
 GePol: Fraction of low-weight points (<1% of avg)   =       6.44%
 GePol: Cavity surface area                          =    370.983 Ang**2
 GePol: Cavity volume                                =    341.240 Ang**3
 Surface areas from nonelectrostatic (unscaled) cavity and vdw tensions:
 Sphere =    1 Type =  CH3 Surf =        5.792 Tension =       -0.140
 Sphere =    2 Type =  NH  Surf =        7.384 Tension =       -0.159
 Sphere =    3 Type =  C   Surf =        7.639 Tension =       -0.101
 Sphere =    4 Type =  NH  Surf =        7.389 Tension =       -0.159
 Sphere =    5 Type =  CH2 Surf =        4.129 Tension =       -0.139
 Sphere =    6 Type =  CH2 Surf =        3.594 Tension =       -0.139
 Sphere =    7 Type =  S   Surf =       23.404 Tension =       -0.125
 Sphere =    8 Type =  CH2 Surf =        3.737 Tension =       -0.139
 Sphere =    9 Type =  C   Surf =        6.428 Tension =       -0.101
 Sphere =   10 Type =  CH  Surf =        7.568 Tension =       -0.140
 Sphere =   11 Type =  S   Surf =       24.085 Tension =       -0.125
 Sphere =   12 Type =  C   Surf =        6.751 Tension =       -0.101
 Sphere =   13 Type =  NH  Surf =        7.165 Tension =       -0.159
 Sphere =   14 Type =  C   Surf =        7.937 Tension =       -0.101
 Sphere =   15 Type =  NH  Surf =       11.325 Tension =       -0.159
 Sphere =   16 Type =  NH  Surf =       13.991 Tension =       -0.159
 Sphere =   17 Type =  N   Surf =       10.608 Tension =       -0.105
 Sphere =   18 Type =  N   Surf =        9.874 Tension =       -0.105
 Sphere =   19 Type =  C   Surf =       13.173 Tension =       -0.101
 Sphere =   20 Type =  N   Surf =       16.322 Tension =       -0.105
 Sphere =   21 Type =  CH3 Surf =       10.194 Tension =       -0.140
 Sphere =   22 Type =  CH3 Surf =       10.190 Tension =       -0.140
 Sphere =   23 Type =  CH3 Surf =       10.159 Tension =       -0.140
 Sphere =   24 Type =  NH  Surf =        4.694 Tension =       -0.159
 Sphere =   25 Type =  NH  Surf =        4.701 Tension =       -0.159
 Sphere =   26 Type =  CH2 Surf =       10.112 Tension =       -0.139
 Sphere =   27 Type =  CH2 Surf =       10.079 Tension =       -0.139
 Sphere =   28 Type =  CH2 Surf =        9.982 Tension =       -0.139
 Sphere =   29 Type =  CH2 Surf =        9.979 Tension =       -0.139
 Sphere =   30 Type =  CH2 Surf =        9.981 Tension =       -0.139
 Sphere =   31 Type =  CH2 Surf =        9.930 Tension =       -0.139
 Sphere =   32 Type =  CH  Surf =       10.232 Tension =       -0.140
 Sphere =   33 Type =  NH  Surf =        4.653 Tension =       -0.159
 Sphere =   34 Type =  NH  Surf =        4.728 Tension =       -0.159
 Sphere =   35 Type =  NH  Surf =        4.732 Tension =       -0.159
 Sphere =   36 Type =  NH  Surf =        4.713 Tension =       -0.159
 PCM non-electrostatic energy =         0.0037298135 Hartrees.
 Nuclear repulsion after PCM non-electrostatic terms =     1617.6240823935 Hartrees.
 Leave Link  301 at Tue Mar  1 20:00:21 2022, MaxMem=   104857600 cpu:               0.1 elap:               0.1
 (Enter /dades/curu/g16A03_MST/g16/l302.exe)
 NPDir=0 NMtPBC=     1 NCelOv=     1 NCel=       1 NClECP=     1 NCelD=      1
         NCelK=      1 NCelE2=     1 NClLst=     1 CellRange=     0.0.
 One-electron integrals computed using PRISM.
 One-electron integral symmetry used in STVInt
 NBasis=   340 RedAO= T EigKep=  1.01D-03  NBF=   340
 NBsUse=   340 1.00D-06 EigRej= -1.00D+00 NBFU=   340
 Precomputing XC quadrature grid using
 IXCGrd= 4 IRadAn=           5 IRanWt=          -1 IRanGd=           0 AccXCQ= 0.00D+00.
 Generated NRdTot=       0 NPtTot=           0 NUsed=           0 NTot=          32
 NSgBfM=   324   324   324   324   324 MxSgAt=    36 MxSgA2=    36.
 Leave Link  302 at Tue Mar  1 20:00:22 2022, MaxMem=   104857600 cpu:               3.7 elap:               1.0
 (Enter /dades/curu/g16A03_MST/g16/l303.exe)
 DipDrv:  MaxL=1.
 Leave Link  303 at Tue Mar  1 20:00:22 2022, MaxMem=   104857600 cpu:               0.1 elap:               0.1
 (Enter /dades/curu/g16A03_MST/g16/l401.exe)
 ExpMin= 1.17D-01 ExpMax= 2.19D+04 ExpMxC= 3.30D+03 IAcc=3 IRadAn=         5 AccDes= 0.00D+00
 Harris functional with IExCor=  402 and IRadAn=       5 diagonalized for initial guess.
 HarFok:  IExCor=  402 AccDes= 0.00D+00 IRadAn=         5 IDoV= 1 UseB2=F ITyADJ=14
 ICtDFT=  3500011 ScaDFX=  1.000000  1.000000  1.000000  1.000000
 FoFCou: FMM=F IPFlag=           0 FMFlag=      100000 FMFlg1=           0
         NFxFlg=           0 DoJE=T BraDBF=F KetDBF=T FulRan=T
         wScrn=  0.000000 ICntrl=       500 IOpCl=  0 I1Cent=   200000004 NGrid=           0
         NMat0=    1 NMatS0=      1 NMatT0=    0 NMatD0=    1 NMtDS0=    0 NMtDT0=    0
 Petite list used in FoFCou.
 Harris En= -1624.90595881411    
 JPrj=0 DoOrth=F DoCkMO=F.
 Leave Link  401 at Tue Mar  1 20:00:29 2022, MaxMem=   104857600 cpu:              25.4 elap:               6.4
 (Enter /dades/curu/g16A03_MST/g16/l502.exe)
 Integral symmetry usage will be decided dynamically.
 Closed shell SCF:
 Using DIIS extrapolation, IDIIS=  1040.
 NGot=   104857600 LenX=   104620578 LenY=   104504537
 Requested convergence on RMS density matrix=1.00D-08 within2000 cycles.
 Requested convergence on MAX density matrix=1.00D-06.
 Requested convergence on             energy=1.00D-06.
 No special actions if energy rises.

 Cycle   1  Pass 1  IDiag  1:
 FoFJK:  IHMeth= 1 ICntrl=       0 DoSepK=F KAlg= 0 I1Cent=           0 FoldK=F
 IRaf= 600000000 NMat=       1 IRICut=       1 DoRegI=T DoRafI=F ISym2E= 0 IDoP0=0 IntGTp=1.
 FoFCou: FMM=F IPFlag=           0 FMFlag=      100000 FMFlg1=           0
         NFxFlg=           0 DoJE=F BraDBF=F KetDBF=F FulRan=T
         wScrn=  0.000000 ICntrl=         0 IOpCl=  0 I1Cent=           0 NGrid=           0
         NMat0=    1 NMatS0=      1 NMatT0=    0 NMatD0=    1 NMtDS0=    0 NMtDT0=    0
 Symmetry not used in FoFCou.
 Inv3:  Mode=1 IEnd=    21386700.
 Iteration    1 A*A^-1 deviation from unit magnitude is 7.33D-15 for   2669.
 Iteration    1 A*A^-1 deviation from orthogonality  is 2.05D-15 for   2023    847.
 Iteration    1 A^-1*A deviation from unit magnitude is 7.33D-15 for   2643.
 Iteration    1 A^-1*A deviation from orthogonality  is 1.01D-14 for   1768   1762.
 E= -1624.59245937877    
 DIIS: error= 2.78D-02 at cycle   1 NSaved=   1.
 NSaved= 1 IEnMin= 1 EnMin= -1624.59245937877     IErMin= 1 ErrMin= 2.78D-02
 ErrMax= 2.78D-02  0.00D+00 EMaxC= 1.00D-01 BMatC= 5.58D-01 BMatP= 5.58D-01
 IDIUse=3 WtCom= 7.22D-01 WtEn= 2.78D-01
 Coeff-Com:  0.100D+01
 Coeff-En:   0.100D+01
 Coeff:      0.100D+01
 Gap=     0.257 Goal=   None    Shift=    0.000
 GapD=    0.257 DampG=1.000 DampE=0.500 DampFc=0.5000 IDamp=-1.
 Damping current iteration by 5.00D-01
 RMSDP=5.24D-03 MaxDP=3.15D-01              OVMax= 2.68D-01

 Cycle   2  Pass 1  IDiag  1:
 E= -1624.77156209431     Delta-E=       -0.179102715536 Rises=F Damp=T
 DIIS: error= 7.26D-03 at cycle   2 NSaved=   2.
 NSaved= 2 IEnMin= 2 EnMin= -1624.77156209431     IErMin= 2 ErrMin= 7.26D-03
 ErrMax= 7.26D-03  0.00D+00 EMaxC= 1.00D-01 BMatC= 5.20D-02 BMatP= 5.58D-01
 IDIUse=3 WtCom= 9.27D-01 WtEn= 7.26D-02
 Coeff-Com:  0.147D+00 0.853D+00
 Coeff-En:   0.267D+00 0.733D+00
 Coeff:      0.156D+00 0.844D+00
 Gap=     0.257 Goal=   None    Shift=    0.000
 RMSDP=1.34D-03 MaxDP=6.16D-02 DE=-1.79D-01 OVMax= 1.65D-01

 Cycle   3  Pass 1  IDiag  1:
 E= -1625.05610650904     Delta-E=       -0.284544414727 Rises=F Damp=F
 DIIS: error= 8.86D-03 at cycle   3 NSaved=   3.
 NSaved= 3 IEnMin= 3 EnMin= -1625.05610650904     IErMin= 2 ErrMin= 7.26D-03
 ErrMax= 8.86D-03  0.00D+00 EMaxC= 1.00D-01 BMatC= 4.29D-02 BMatP= 5.20D-02
 IDIUse=3 WtCom= 9.11D-01 WtEn= 8.86D-02
 Coeff-Com:  0.329D-01 0.473D+00 0.494D+00
 Coeff-En:   0.000D+00 0.000D+00 0.100D+01
 Coeff:      0.300D-01 0.431D+00 0.539D+00
 Gap=     0.195 Goal=   None    Shift=    0.000
 RMSDP=8.06D-04 MaxDP=4.80D-02 DE=-2.85D-01 OVMax= 7.06D-02

 Cycle   4  Pass 1  IDiag  1:
 E= -1625.08616376886     Delta-E=       -0.030057259822 Rises=F Damp=F
 DIIS: error= 4.99D-03 at cycle   4 NSaved=   4.
 NSaved= 4 IEnMin= 4 EnMin= -1625.08616376886     IErMin= 4 ErrMin= 4.99D-03
 ErrMax= 4.99D-03  0.00D+00 EMaxC= 1.00D-01 BMatC= 1.11D-02 BMatP= 4.29D-02
 IDIUse=3 WtCom= 9.50D-01 WtEn= 4.99D-02
 Coeff-Com: -0.466D-02 0.968D-01 0.346D+00 0.562D+00
 Coeff-En:   0.000D+00 0.000D+00 0.231D+00 0.769D+00
 Coeff:     -0.443D-02 0.920D-01 0.340D+00 0.573D+00
 Gap=     0.192 Goal=   None    Shift=    0.000
 RMSDP=3.49D-04 MaxDP=3.01D-02 DE=-3.01D-02 OVMax= 3.08D-02

 Cycle   5  Pass 1  IDiag  1:
 E= -1625.09515618944     Delta-E=       -0.008992420577 Rises=F Damp=F
 DIIS: error= 1.48D-03 at cycle   5 NSaved=   5.
 NSaved= 5 IEnMin= 5 EnMin= -1625.09515618944     IErMin= 5 ErrMin= 1.48D-03
 ErrMax= 1.48D-03  0.00D+00 EMaxC= 1.00D-01 BMatC= 8.70D-04 BMatP= 1.11D-02
 IDIUse=3 WtCom= 9.85D-01 WtEn= 1.48D-02
 Coeff-Com: -0.453D-02 0.210D-01 0.161D+00 0.336D+00 0.486D+00
 Coeff-En:   0.000D+00 0.000D+00 0.000D+00 0.000D+00 0.100D+01
 Coeff:     -0.446D-02 0.207D-01 0.158D+00 0.332D+00 0.494D+00
 Gap=     0.193 Goal=   None    Shift=    0.000
 RMSDP=1.08D-04 MaxDP=9.31D-03 DE=-8.99D-03 OVMax= 8.75D-03

 Cycle   6  Pass 1  IDiag  1:
 E= -1625.09583861400     Delta-E=       -0.000682424564 Rises=F Damp=F
 DIIS: error= 4.31D-04 at cycle   6 NSaved=   6.
 NSaved= 6 IEnMin= 6 EnMin= -1625.09583861400     IErMin= 6 ErrMin= 4.31D-04
 ErrMax= 4.31D-04  0.00D+00 EMaxC= 1.00D-01 BMatC= 1.05D-04 BMatP= 8.70D-04
 IDIUse=3 WtCom= 9.96D-01 WtEn= 4.31D-03
 Coeff-Com: -0.217D-02 0.374D-02 0.675D-01 0.156D+00 0.316D+00 0.459D+00
 Coeff-En:   0.000D+00 0.000D+00 0.000D+00 0.000D+00 0.707D-01 0.929D+00
 Coeff:     -0.216D-02 0.372D-02 0.672D-01 0.156D+00 0.315D+00 0.461D+00
 Gap=     0.193 Goal=   None    Shift=    0.000
 RMSDP=3.03D-05 MaxDP=1.36D-03 DE=-6.82D-04 OVMax= 2.39D-03

 Cycle   7  Pass 1  IDiag  1:
 E= -1625.09593031875     Delta-E=       -0.000091704753 Rises=F Damp=F
 DIIS: error= 5.48D-05 at cycle   7 NSaved=   7.
 NSaved= 7 IEnMin= 7 EnMin= -1625.09593031875     IErMin= 7 ErrMin= 5.48D-05
 ErrMax= 5.48D-05  0.00D+00 EMaxC= 1.00D-01 BMatC= 2.94D-06 BMatP= 1.05D-04
 IDIUse=1 WtCom= 1.00D+00 WtEn= 0.00D+00
 Coeff-Com: -0.593D-03-0.195D-03 0.153D-01 0.385D-01 0.960D-01 0.205D+00
 Coeff-Com:  0.645D+00
 Coeff:     -0.593D-03-0.195D-03 0.153D-01 0.385D-01 0.960D-01 0.205D+00
 Coeff:      0.645D+00
 Gap=     0.193 Goal=   None    Shift=    0.000
 RMSDP=5.78D-06 MaxDP=2.77D-04 DE=-9.17D-05 OVMax= 3.55D-04

 Cycle   8  Pass 1  IDiag  1:
 E= -1625.09593279252     Delta-E=       -0.000002473772 Rises=F Damp=F
 DIIS: error= 1.93D-05 at cycle   8 NSaved=   8.
 NSaved= 8 IEnMin= 8 EnMin= -1625.09593279252     IErMin= 8 ErrMin= 1.93D-05
 ErrMax= 1.93D-05  0.00D+00 EMaxC= 1.00D-01 BMatC= 2.91D-07 BMatP= 2.94D-06
 IDIUse=1 WtCom= 1.00D+00 WtEn= 0.00D+00
 Coeff-Com: -0.135D-03-0.349D-03 0.256D-02 0.730D-02 0.228D-01 0.613D-01
 Coeff-Com:  0.301D+00 0.606D+00
 Coeff:     -0.135D-03-0.349D-03 0.256D-02 0.730D-02 0.228D-01 0.613D-01
 Coeff:      0.301D+00 0.606D+00
 Gap=     0.193 Goal=   None    Shift=    0.000
 RMSDP=2.31D-06 MaxDP=1.33D-04 DE=-2.47D-06 OVMax= 2.04D-04

 Cycle   9  Pass 1  IDiag  1:
 E= -1625.09593303946     Delta-E=       -0.000000246931 Rises=F Damp=F
 DIIS: error= 6.52D-06 at cycle   9 NSaved=   9.
 NSaved= 9 IEnMin= 9 EnMin= -1625.09593303946     IErMin= 9 ErrMin= 6.52D-06
 ErrMax= 6.52D-06  0.00D+00 EMaxC= 1.00D-01 BMatC= 4.50D-08 BMatP= 2.91D-07
 IDIUse=1 WtCom= 1.00D+00 WtEn= 0.00D+00
 Coeff-Com:  0.218D-05-0.153D-03-0.526D-03-0.907D-03 0.337D-03 0.636D-02
 Coeff-Com:  0.795D-01 0.321D+00 0.594D+00
 Coeff:      0.218D-05-0.153D-03-0.526D-03-0.907D-03 0.337D-03 0.636D-02
 Coeff:      0.795D-01 0.321D+00 0.594D+00
 Gap=     0.193 Goal=   None    Shift=    0.000
 RMSDP=8.17D-07 MaxDP=4.52D-05 DE=-2.47D-07 OVMax= 6.63D-05

 Cycle  10  Pass 1  IDiag  1:
 E= -1625.09593307895     Delta-E=       -0.000000039490 Rises=F Damp=F
 DIIS: error= 2.33D-06 at cycle  10 NSaved=  10.
 NSaved=10 IEnMin=10 EnMin= -1625.09593307895     IErMin=10 ErrMin= 2.33D-06
 ErrMax= 2.33D-06  0.00D+00 EMaxC= 1.00D-01 BMatC= 5.70D-09 BMatP= 4.50D-08
 IDIUse=1 WtCom= 1.00D+00 WtEn= 0.00D+00
 Coeff-Com:  0.136D-04-0.531D-04-0.539D-03-0.120D-02-0.206D-02-0.306D-02
 Coeff-Com:  0.135D-01 0.119D+00 0.331D+00 0.543D+00
 Coeff:      0.136D-04-0.531D-04-0.539D-03-0.120D-02-0.206D-02-0.306D-02
 Coeff:      0.135D-01 0.119D+00 0.331D+00 0.543D+00
 Gap=     0.193 Goal=   None    Shift=    0.000
 RMSDP=2.65D-07 MaxDP=1.39D-05 DE=-3.95D-08 OVMax= 3.23D-05

 Cycle  11  Pass 1  IDiag  1:
 E= -1625.09593308444     Delta-E=       -0.000000005495 Rises=F Damp=F
 DIIS: error= 6.53D-07 at cycle  11 NSaved=  11.
 NSaved=11 IEnMin=11 EnMin= -1625.09593308444     IErMin=11 ErrMin= 6.53D-07
 ErrMax= 6.53D-07  0.00D+00 EMaxC= 1.00D-01 BMatC= 3.37D-10 BMatP= 5.70D-09
 IDIUse=1 WtCom= 1.00D+00 WtEn= 0.00D+00
 Coeff-Com:  0.526D-05-0.502D-05-0.179D-03-0.417D-03-0.929D-03-0.218D-02
 Coeff-Com: -0.279D-02 0.159D-01 0.784D-01 0.241D+00 0.672D+00
 Coeff:      0.526D-05-0.502D-05-0.179D-03-0.417D-03-0.929D-03-0.218D-02
 Coeff:     -0.279D-02 0.159D-01 0.784D-01 0.241D+00 0.672D+00
 Gap=     0.193 Goal=   None    Shift=    0.000
 RMSDP=7.39D-08 MaxDP=3.18D-06 DE=-5.49D-09 OVMax= 7.83D-06

 Cycle  12  Pass 1  IDiag  1:
 E= -1625.09593308470     Delta-E=       -0.000000000259 Rises=F Damp=F
 DIIS: error= 2.88D-07 at cycle  12 NSaved=  12.
 NSaved=12 IEnMin=12 EnMin= -1625.09593308470     IErMin=12 ErrMin= 2.88D-07
 ErrMax= 2.88D-07  0.00D+00 EMaxC= 1.00D-01 BMatC= 6.17D-11 BMatP= 3.37D-10
 IDIUse=1 WtCom= 1.00D+00 WtEn= 0.00D+00
 Coeff-Com:  0.135D-05 0.261D-05-0.437D-04-0.102D-03-0.291D-03-0.892D-03
 Coeff-Com: -0.271D-02-0.334D-02 0.908D-02 0.780D-01 0.366D+00 0.555D+00
 Coeff:      0.135D-05 0.261D-05-0.437D-04-0.102D-03-0.291D-03-0.892D-03
 Coeff:     -0.271D-02-0.334D-02 0.908D-02 0.780D-01 0.366D+00 0.555D+00
 Gap=     0.193 Goal=   None    Shift=    0.000
 RMSDP=2.54D-08 MaxDP=1.48D-06 DE=-2.59D-10 OVMax= 3.17D-06

 Cycle  13  Pass 1  IDiag  1:
 E= -1625.09593308471     Delta-E=       -0.000000000011 Rises=F Damp=F
 DIIS: error= 7.09D-08 at cycle  13 NSaved=  13.
 NSaved=13 IEnMin=13 EnMin= -1625.09593308471     IErMin=13 ErrMin= 7.09D-08
 ErrMax= 7.09D-08  0.00D+00 EMaxC= 1.00D-01 BMatC= 4.19D-12 BMatP= 6.17D-11
 IDIUse=1 WtCom= 1.00D+00 WtEn= 0.00D+00
 Coeff-Com: -0.130D-06 0.177D-05 0.292D-05 0.902D-05-0.108D-04-0.128D-03
 Coeff-Com: -0.778D-03-0.342D-02-0.583D-02 0.486D-02 0.726D-01 0.245D+00
 Coeff-Com:  0.687D+00
 Coeff:     -0.130D-06 0.177D-05 0.292D-05 0.902D-05-0.108D-04-0.128D-03
 Coeff:     -0.778D-03-0.342D-02-0.583D-02 0.486D-02 0.726D-01 0.245D+00
 Coeff:      0.687D+00
 Gap=     0.193 Goal=   None    Shift=    0.000
 RMSDP=7.38D-09 MaxDP=2.96D-07 DE=-1.11D-11 OVMax= 6.31D-07

 Error on total polarization charges =  0.03249
 SCF Done:  E(RB3LYP) =  -1625.09593308     A.U. after   13 cycles
            NFock= 13  Conv=0.74D-08     -V/T= 2.0063
 KE= 1.614923764354D+03 PE=-7.053890496484D+03 EE= 2.196246716652D+03
 Leave Link  502 at Tue Mar  1 20:03:31 2022, MaxMem=   104857600 cpu:             700.4 elap:             182.6
 (Enter /dades/curu/g16A03_MST/g16/l601.exe)
 Copying SCF densities to generalized density rwf, IOpCl= 0 IROHF=0.

 **********************************************************************

            Population analysis using the SCF density.

 **********************************************************************

 Orbital symmetries:
       Occupied  (A) (A) (A) (A) (A) (A) (A) (A) (A) (A) (A) (A)
                 (A) (A) (A) (A) (A) (A) (A) (A) (A) (A) (A) (A)
                 (A) (A) (A) (A) (A) (A) (A) (A) (A) (A) (A) (A)
                 (A) (A) (A) (A) (A) (A) (A) (A) (A) (A) (A) (A)
                 (A) (A) (A) (A) (A) (A) (A) (A) (A) (A) (A) (A)
                 (A) (A) (A) (A) (A) (A) (A) (A) (A) (A) (A) (A)
                 (A) (A) (A) (A) (A) (A) (A) (A) (A) (A)
       Virtual   (A) (A) (A) (A) (A) (A) (A) (A) (A) (A) (A) (A)
                 (A) (A) (A) (A) (A) (A) (A) (A) (A) (A) (A) (A)
                 (A) (A) (A) (A) (A) (A) (A) (A) (A) (A) (A) (A)
                 (A) (A) (A) (A) (A) (A) (A) (A) (A) (A) (A) (A)
                 (A) (A) (A) (A) (A) (A) (A) (A) (A) (A) (A) (A)
                 (A) (A) (A) (A) (A) (A) (A) (A) (A) (A) (A) (A)
                 (A) (A) (A) (A) (A) (A) (A) (A) (A) (A) (A) (A)
                 (A) (A) (A) (A) (A) (A) (A) (A) (A) (A) (A) (A)
                 (A) (A) (A) (A) (A) (A) (A) (A) (A) (A) (A) (A)
                 (A) (A) (A) (A) (A) (A) (A) (A) (A) (A) (A) (A)
                 (A) (A) (A) (A) (A) (A) (A) (A) (A) (A) (A) (A)
                 (A) (A) (A) (A) (A) (A) (A) (A) (A) (A) (A) (A)
                 (A) (A) (A) (A) (A) (A) (A) (A) (A) (A) (A) (A)
                 (A) (A) (A) (A) (A) (A) (A) (A) (A) (A) (A) (A)
                 (A) (A) (A) (A) (A) (A) (A) (A) (A) (A) (A) (A)
                 (A) (A) (A) (A) (A) (A) (A) (A) (A) (A) (A) (A)
                 (A) (A) (A) (A) (A) (A) (A) (A) (A) (A) (A) (A)
                 (A) (A) (A) (A) (A) (A) (A) (A) (A) (A) (A) (A)
                 (A) (A) (A) (A) (A) (A) (A) (A) (A) (A) (A) (A)
                 (A) (A) (A) (A) (A) (A) (A) (A) (A) (A) (A) (A)
                 (A) (A) (A) (A) (A) (A) (A) (A) (A) (A) (A) (A)
                 (A) (A) (A) (A) (A) (A)
 The electronic state is 1-A.
 Alpha  occ. eigenvalues --  -88.91697 -88.87650 -14.38037 -14.36087 -14.35674
 Alpha  occ. eigenvalues --  -14.34370 -14.33500 -14.32999 -14.31108 -14.28146
 Alpha  occ. eigenvalues --  -10.31823 -10.29123 -10.29082 -10.24786 -10.23063
 Alpha  occ. eigenvalues --  -10.22806 -10.22035 -10.21763 -10.21415 -10.20921
 Alpha  occ. eigenvalues --   -7.97874  -7.93811  -5.94284  -5.93897  -5.93559
 Alpha  occ. eigenvalues --   -5.90328  -5.89968  -5.89256  -1.01604  -1.01251
 Alpha  occ. eigenvalues --   -0.96243  -0.92861  -0.90548  -0.90051  -0.87558
 Alpha  occ. eigenvalues --   -0.83675  -0.81907  -0.80333  -0.77388  -0.73059
 Alpha  occ. eigenvalues --   -0.69831  -0.66060  -0.65288  -0.64324  -0.60310
 Alpha  occ. eigenvalues --   -0.58338  -0.56443  -0.56001  -0.53865  -0.53106
 Alpha  occ. eigenvalues --   -0.51813  -0.49330  -0.48722  -0.47719  -0.46157
 Alpha  occ. eigenvalues --   -0.46039  -0.45250  -0.45013  -0.43997  -0.42526
 Alpha  occ. eigenvalues --   -0.41486  -0.41387  -0.39960  -0.39594  -0.38894
 Alpha  occ. eigenvalues --   -0.38182  -0.37639  -0.37513  -0.36004  -0.35623
 Alpha  occ. eigenvalues --   -0.34117  -0.32273  -0.30930  -0.28481  -0.27809
 Alpha  occ. eigenvalues --   -0.27622  -0.26720  -0.24407  -0.24198  -0.22927
 Alpha  occ. eigenvalues --   -0.22810  -0.21031
 Alpha virt. eigenvalues --   -0.01708   0.00479   0.02523   0.03271   0.03753
 Alpha virt. eigenvalues --    0.06690   0.07703   0.08247   0.08887   0.09361
 Alpha virt. eigenvalues --    0.11254   0.11736   0.12050   0.12766   0.13056
 Alpha virt. eigenvalues --    0.13506   0.14013   0.14115   0.15255   0.15515
 Alpha virt. eigenvalues --    0.16282   0.16454   0.17917   0.18487   0.19010
 Alpha virt. eigenvalues --    0.19387   0.19589   0.20624   0.21810   0.22534
 Alpha virt. eigenvalues --    0.23718   0.24752   0.26739   0.28970   0.29800
 Alpha virt. eigenvalues --    0.31804   0.32425   0.32786   0.35087   0.35895
 Alpha virt. eigenvalues --    0.36814   0.38674   0.39938   0.40351   0.41139
 Alpha virt. eigenvalues --    0.42654   0.43585   0.45156   0.47627   0.48303
 Alpha virt. eigenvalues --    0.50295   0.50850   0.51562   0.52156   0.52510
 Alpha virt. eigenvalues --    0.52668   0.55050   0.55909   0.57200   0.57660
 Alpha virt. eigenvalues --    0.58499   0.58667   0.58735   0.59193   0.59328
 Alpha virt. eigenvalues --    0.60454   0.61270   0.61687   0.62376   0.63473
 Alpha virt. eigenvalues --    0.64506   0.65219   0.65698   0.67362   0.68083
 Alpha virt. eigenvalues --    0.68635   0.69625   0.71270   0.72434   0.73887
 Alpha virt. eigenvalues --    0.74473   0.74971   0.75919   0.76387   0.78366
 Alpha virt. eigenvalues --    0.79632   0.80239   0.80654   0.81290   0.82383
 Alpha virt. eigenvalues --    0.82606   0.83129   0.83648   0.84133   0.84369
 Alpha virt. eigenvalues --    0.85272   0.87051   0.88115   0.88325   0.89029
 Alpha virt. eigenvalues --    0.89871   0.89980   0.90588   0.90822   0.91301
 Alpha virt. eigenvalues --    0.91742   0.92047   0.92204   0.92903   0.93184
 Alpha virt. eigenvalues --    0.93454   0.94841   0.95450   0.96200   0.96924
 Alpha virt. eigenvalues --    0.97579   0.98520   1.00862   1.01790   1.02457
 Alpha virt. eigenvalues --    1.03092   1.05356   1.06563   1.07682   1.08932
 Alpha virt. eigenvalues --    1.11021   1.12495   1.12689   1.14567   1.16598
 Alpha virt. eigenvalues --    1.18180   1.19196   1.20677   1.27653   1.28818
 Alpha virt. eigenvalues --    1.28866   1.29660   1.32486   1.33523   1.35497
 Alpha virt. eigenvalues --    1.37028   1.38211   1.38555   1.39779   1.40963
 Alpha virt. eigenvalues --    1.42670   1.44505   1.45250   1.45370   1.47957
 Alpha virt. eigenvalues --    1.50000   1.53679   1.56244   1.56802   1.59370
 Alpha virt. eigenvalues --    1.61119   1.61989   1.63935   1.66527   1.67525
 Alpha virt. eigenvalues --    1.69710   1.71765   1.74625   1.75936   1.76913
 Alpha virt. eigenvalues --    1.78613   1.78997   1.80322   1.83872   1.84287
 Alpha virt. eigenvalues --    1.85326   1.88121   1.89585   1.91451   1.91718
 Alpha virt. eigenvalues --    1.93154   1.94299   1.95776   1.96102   1.97447
 Alpha virt. eigenvalues --    1.97985   2.00077   2.01310   2.01529   2.01890
 Alpha virt. eigenvalues --    2.03504   2.07101   2.08888   2.11437   2.13101
 Alpha virt. eigenvalues --    2.14031   2.15539   2.17321   2.17493   2.20452
 Alpha virt. eigenvalues --    2.21440   2.22553   2.24239   2.25790   2.27596
 Alpha virt. eigenvalues --    2.28325   2.31108   2.32892   2.35771   2.37236
 Alpha virt. eigenvalues --    2.37883   2.39206   2.41242   2.42287   2.43547
 Alpha virt. eigenvalues --    2.44222   2.48164   2.49292   2.53114   2.53729
 Alpha virt. eigenvalues --    2.54797   2.55977   2.57615   2.62081   2.62231
 Alpha virt. eigenvalues --    2.65720   2.66164   2.68381   2.68712   2.70057
 Alpha virt. eigenvalues --    2.72536   2.77659   2.79712   2.82014   2.91518
 Alpha virt. eigenvalues --    2.93735   2.99833   3.02054   3.09323   3.19416
 Alpha virt. eigenvalues --    3.25905   3.29036   3.38355   3.81634   3.91462
 Alpha virt. eigenvalues --    3.92842   3.94562   3.95105   3.96349   4.00786
 Alpha virt. eigenvalues --    4.07258   4.09686   4.16313   4.19382   4.21826
 Alpha virt. eigenvalues --    4.23891   4.31238   4.37142   4.42667   4.44843
 Alpha virt. eigenvalues --    4.48083   4.48961   4.64029
          Condensed to atoms (all electrons):
               1          2          3          4          5          6
     1  C    4.945777   0.279606  -0.031064   0.004425  -0.000148   0.000002
     2  N    0.279606   6.977066   0.369426  -0.108409   0.004841  -0.000113
     3  C   -0.031064   0.369426   4.138097   0.352795  -0.028448   0.004159
     4  N    0.004425  -0.108409   0.352795   7.049948   0.258663  -0.035733
     5  C   -0.000148   0.004841  -0.028448   0.258663   4.873880   0.349593
     6  C    0.000002  -0.000113   0.004159  -0.035733   0.349593   5.252298
     7  S   -0.000000   0.000003  -0.000085   0.002703  -0.034593   0.233494
     8  C    0.000000  -0.000000   0.000000  -0.000030   0.001600  -0.016544
     9  C   -0.000000   0.000000  -0.000000   0.000000  -0.000033   0.002460
    10  C    0.000000   0.000000   0.000000   0.000000   0.000001   0.000035
    11  S   -0.000000   0.000000  -0.000000  -0.000000  -0.000000  -0.000000
    12  C   -0.000000   0.000000   0.000000  -0.000000  -0.000000   0.000000
    13  N    0.000000   0.000000   0.000000  -0.000000  -0.000000  -0.000000
    14  C    0.000000   0.000000  -0.000000   0.000000  -0.000000   0.000000
    15  N    0.000000   0.000000   0.000000   0.000000   0.000000  -0.000000
    16  N    0.000000   0.000000   0.000000  -0.000000  -0.000000   0.000000
    17  N   -0.000000   0.000000  -0.000000  -0.000000   0.000000  -0.000012
    18  N   -0.000874  -0.085547   0.542236  -0.087156  -0.000493   0.000591
    19  C    0.002786  -0.005722  -0.055972  -0.001649   0.000524  -0.000002
    20  N   -0.004538   0.001981  -0.009437  -0.000217   0.000011   0.000000
    21  H    0.386169  -0.048197  -0.003203   0.000053   0.000008  -0.000000
    22  H    0.385812  -0.041449  -0.003329   0.000111   0.000004   0.000000
    23  H    0.372670  -0.024307   0.003263  -0.000171   0.000002  -0.000000
    24  H   -0.027378   0.314103  -0.021625   0.000277   0.000170  -0.000070
    25  H    0.000071  -0.001195  -0.022413   0.314370  -0.027879  -0.002986
    26  H    0.000011   0.000120  -0.001366  -0.054082   0.384676  -0.042908
    27  H   -0.000002   0.000161  -0.004343  -0.040846   0.382912  -0.034378
    28  H    0.000000  -0.000019  -0.000057  -0.003416  -0.030485   0.366912
    29  H    0.000000  -0.000018   0.000040   0.001429  -0.030761   0.363823
    30  H   -0.000000   0.000000  -0.000000  -0.000002   0.000026  -0.002592
    31  H    0.000000   0.000000   0.000000  -0.000000   0.000064  -0.003680
    32  H    0.000000  -0.000000   0.000000  -0.000000   0.000000  -0.000008
    33  H    0.000000  -0.000000   0.000000  -0.000000   0.000000   0.000000
    34  H    0.000000   0.000000   0.000000   0.000000   0.000000   0.000000
    35  H    0.000000   0.000000   0.000000   0.000000  -0.000000   0.000000
    36  H    0.000000   0.000000   0.000000   0.000000   0.000000  -0.000000
               7          8          9         10         11         12
     1  C   -0.000000   0.000000  -0.000000   0.000000  -0.000000  -0.000000
     2  N    0.000003  -0.000000   0.000000   0.000000   0.000000   0.000000
     3  C   -0.000085   0.000000  -0.000000   0.000000  -0.000000   0.000000
     4  N    0.002703  -0.000030   0.000000   0.000000  -0.000000  -0.000000
     5  C   -0.034593   0.001600  -0.000033   0.000001  -0.000000  -0.000000
     6  C    0.233494  -0.016544   0.002460   0.000035  -0.000000   0.000000
     7  S   15.727322   0.235412  -0.038773   0.003554   0.000005  -0.000488
     8  C    0.235412   5.345521   0.347922  -0.079876   0.006126   0.007152
     9  C   -0.038773   0.347922   4.569774   0.582784  -0.069294  -0.065646
    10  C    0.003554  -0.079876   0.582784   5.409662   0.257728  -0.050286
    11  S    0.000005   0.006126  -0.069294   0.257728  15.396994   0.329236
    12  C   -0.000488   0.007152  -0.065646  -0.050286   0.329236   4.748681
    13  N    0.000000  -0.000172   0.003411   0.003574  -0.080306   0.274472
    14  C   -0.000000   0.000003  -0.000057   0.000408   0.002904  -0.026566
    15  N    0.000000  -0.000000   0.000001   0.000002   0.000728   0.003909
    16  N   -0.000000   0.000000   0.000013   0.000314   0.025665  -0.003226
    17  N    0.002064  -0.064196   0.435220  -0.080411  -0.096429   0.478463
    18  N   -0.000008   0.000000   0.000000   0.000000  -0.000000  -0.000000
    19  C    0.000000  -0.000000   0.000000   0.000000  -0.000000  -0.000000
    20  N    0.000000   0.000000   0.000000   0.000000  -0.000000   0.000000
    21  H    0.000000  -0.000000   0.000000   0.000000   0.000000   0.000000
    22  H   -0.000000   0.000000  -0.000000  -0.000000   0.000000  -0.000000
    23  H    0.000000  -0.000000   0.000000  -0.000000   0.000000   0.000000
    24  H    0.000001  -0.000000   0.000000   0.000000   0.000000   0.000000
    25  H   -0.000013  -0.000004   0.000000  -0.000000   0.000000  -0.000000
    26  H    0.004443  -0.000012   0.000003   0.000000   0.000000   0.000000
    27  H    0.001841  -0.000043   0.000001  -0.000000   0.000000  -0.000000
    28  H   -0.049404  -0.002963   0.000040   0.000004  -0.000000   0.000000
    29  H   -0.047625  -0.002547   0.000098  -0.000002   0.000000   0.000000
    30  H   -0.051783   0.360146  -0.026817  -0.003424   0.000218  -0.000178
    31  H   -0.046320   0.349487  -0.025401   0.005827  -0.000002   0.000142
    32  H    0.001343  -0.003264  -0.015257   0.349267  -0.029578   0.001983
    33  H    0.000004  -0.000031   0.000270   0.000029   0.005147  -0.018268
    34  H    0.000000  -0.000000   0.000000  -0.000000  -0.000089  -0.000074
    35  H    0.000000   0.000000  -0.000000  -0.000000   0.000007  -0.000096
    36  H    0.000000  -0.000000  -0.000000  -0.000004  -0.000695   0.000004
              13         14         15         16         17         18
     1  C    0.000000   0.000000   0.000000   0.000000  -0.000000  -0.000874
     2  N    0.000000   0.000000   0.000000   0.000000   0.000000  -0.085547
     3  C    0.000000  -0.000000   0.000000   0.000000  -0.000000   0.542236
     4  N   -0.000000   0.000000   0.000000  -0.000000  -0.000000  -0.087156
     5  C   -0.000000  -0.000000   0.000000  -0.000000   0.000000  -0.000493
     6  C   -0.000000   0.000000  -0.000000   0.000000  -0.000012   0.000591
     7  S    0.000000  -0.000000   0.000000  -0.000000   0.002064  -0.000008
     8  C   -0.000172   0.000003  -0.000000   0.000000  -0.064196   0.000000
     9  C    0.003411  -0.000057   0.000001   0.000013   0.435220   0.000000
    10  C    0.003574   0.000408   0.000002   0.000314  -0.080411   0.000000
    11  S   -0.080306   0.002904   0.000728   0.025665  -0.096429  -0.000000
    12  C    0.274472  -0.026566   0.003909  -0.003226   0.478463  -0.000000
    13  N    7.063665   0.313642  -0.089037  -0.073963  -0.060781   0.000000
    14  C    0.313642   4.139284   0.371747   0.615004   0.001622   0.000000
    15  N   -0.089037   0.371747   7.046247  -0.125016  -0.000151   0.000000
    16  N   -0.073963   0.615004  -0.125016   7.034752   0.000097   0.000000
    17  N   -0.060781   0.001622  -0.000151   0.000097   6.912463  -0.000000
    18  N    0.000000   0.000000   0.000000   0.000000  -0.000000   6.917710
    19  C    0.000000   0.000000   0.000000   0.000000   0.000000   0.367091
    20  N    0.000000   0.000000   0.000000   0.000000  -0.000000  -0.078073
    21  H    0.000000   0.000000   0.000000   0.000000  -0.000000   0.001182
    22  H    0.000000   0.000000   0.000000   0.000000   0.000000   0.000603
    23  H    0.000000   0.000000   0.000000   0.000000   0.000000  -0.000095
    24  H   -0.000000   0.000000   0.000000   0.000000  -0.000000   0.003252
    25  H   -0.000000   0.000000   0.000000   0.000000   0.000000   0.002944
    26  H    0.000000  -0.000000  -0.000000  -0.000000  -0.000000   0.002934
    27  H   -0.000000   0.000000   0.000000   0.000000   0.000000   0.006457
    28  H    0.000000   0.000000  -0.000000   0.000000  -0.000001  -0.000009
    29  H    0.000000  -0.000000   0.000000   0.000000  -0.000002  -0.000012
    30  H    0.000001  -0.000000   0.000000   0.000000   0.002108   0.000000
    31  H   -0.000024  -0.000000  -0.000000  -0.000000   0.003147  -0.000000
    32  H   -0.000043  -0.000002   0.000000   0.000001   0.004843  -0.000000
    33  H    0.294773  -0.020409  -0.002662   0.002771   0.007882   0.000000
    34  H   -0.000673  -0.012370   0.295461   0.006182  -0.000016   0.000000
    35  H    0.003646  -0.015559   0.318229  -0.003485   0.000001   0.000000
    36  H    0.007204  -0.045953  -0.014867   0.300959   0.000003   0.000000
              19         20         21         22         23         24
     1  C    0.002786  -0.004538   0.386169   0.385812   0.372670  -0.027378
     2  N   -0.005722   0.001981  -0.048197  -0.041449  -0.024307   0.314103
     3  C   -0.055972  -0.009437  -0.003203  -0.003329   0.003263  -0.021625
     4  N   -0.001649  -0.000217   0.000053   0.000111  -0.000171   0.000277
     5  C    0.000524   0.000011   0.000008   0.000004   0.000002   0.000170
     6  C   -0.000002   0.000000  -0.000000   0.000000  -0.000000  -0.000070
     7  S    0.000000   0.000000   0.000000  -0.000000   0.000000   0.000001
     8  C   -0.000000   0.000000  -0.000000   0.000000  -0.000000  -0.000000
     9  C    0.000000   0.000000   0.000000  -0.000000   0.000000   0.000000
    10  C    0.000000   0.000000   0.000000  -0.000000  -0.000000   0.000000
    11  S   -0.000000  -0.000000   0.000000   0.000000   0.000000   0.000000
    12  C   -0.000000   0.000000   0.000000  -0.000000   0.000000   0.000000
    13  N    0.000000   0.000000   0.000000   0.000000   0.000000  -0.000000
    14  C    0.000000   0.000000   0.000000   0.000000   0.000000   0.000000
    15  N    0.000000   0.000000   0.000000   0.000000   0.000000   0.000000
    16  N    0.000000   0.000000   0.000000   0.000000   0.000000   0.000000
    17  N    0.000000  -0.000000  -0.000000   0.000000   0.000000  -0.000000
    18  N    0.367091  -0.078073   0.001182   0.000603  -0.000095   0.003252
    19  C    4.332886   0.890388   0.001240   0.002056   0.000388  -0.000152
    20  N    0.890388   6.796957   0.000525  -0.000362   0.000293  -0.000039
    21  H    0.001240   0.000525   0.553305  -0.037605  -0.029957   0.002039
    22  H    0.002056  -0.000362  -0.037605   0.537609  -0.025573   0.002886
    23  H    0.000388   0.000293  -0.029957  -0.025573   0.528931  -0.006528
    24  H   -0.000152  -0.000039   0.002039   0.002886  -0.006528   0.330712
    25  H   -0.000037   0.000001   0.000016  -0.000010  -0.000042   0.002447
    26  H   -0.000071  -0.000000   0.000001  -0.000004  -0.000000   0.000027
    27  H    0.000338   0.000002  -0.000003   0.000001   0.000000  -0.000040
    28  H    0.000000  -0.000000  -0.000000   0.000000   0.000000  -0.000005
    29  H   -0.000000   0.000000   0.000000  -0.000000  -0.000000   0.000019
    30  H    0.000000  -0.000000  -0.000000   0.000000   0.000000   0.000000
    31  H    0.000000  -0.000000   0.000000  -0.000000  -0.000000  -0.000000
[...]
    34  H    0.000000   0.000000   0.000000  -0.000000  -0.000000  -0.000000
    35  H    0.000000   0.000000   0.000000  -0.000000   0.000000  -0.000000
    36  H    0.000000   0.000000  -0.000000  -0.000000   0.000000  -0.000000
               7          8          9         10         11         12
     1  C    0.000000   0.000000   0.000000   0.000000   0.000000   0.000000
     2  N   -0.000001   0.000000  -0.000000  -0.000000   0.000000  -0.000000
     3  C   -0.000077  -0.000000   0.000000  -0.000000  -0.000000   0.000000
     4  N    0.003999  -0.000033   0.000000   0.000000   0.000000  -0.000000
     5  C   -0.036192   0.001369  -0.000026   0.000000  -0.000000  -0.000000
     6  C    0.227587  -0.013630   0.002025  -0.000013   0.000000  -0.000000
     7  S   15.757406   0.230544  -0.043068   0.002589   0.000169  -0.000088
     8  C    0.230544   5.328599   0.358992  -0.069981   0.005144   0.006066
     9  C   -0.043068   0.358992   4.553980   0.609367  -0.069607  -0.063359
    10  C    0.002589  -0.069981   0.609367   5.424559   0.228666  -0.046575
    11  S    0.000169   0.005144  -0.069607   0.228666  15.417401   0.324791
    12  C   -0.000088   0.006066  -0.063359  -0.046575   0.324791   4.735191
    13  N   -0.000033  -0.000177   0.003211   0.003357  -0.075684   0.278154
    14  C   -0.000000   0.000003  -0.000052   0.000661  -0.001331  -0.025818
    15  N    0.000000  -0.000000   0.000001   0.000004   0.001027   0.002963
    16  N   -0.000000   0.000000   0.000032   0.001091   0.028758  -0.004606
    17  N    0.007117  -0.073955   0.405121  -0.080174  -0.090452   0.487430
    18  N   -0.000067   0.000000  -0.000000   0.000000   0.000000  -0.000000
    19  C   -0.000006  -0.000000   0.000000  -0.000000   0.000000  -0.000000
    20  N    0.000000  -0.000000   0.000000  -0.000000   0.000000   0.000000
    21  H    0.000000  -0.000000   0.000000  -0.000000   0.000000  -0.000000
    22  H   -0.000000   0.000000  -0.000000   0.000000  -0.000000   0.000000
    23  H   -0.000000  -0.000000  -0.000000  -0.000000  -0.000000   0.000000
    24  H    0.000000   0.000000   0.000000  -0.000000  -0.000000   0.000000
    25  H   -0.000052   0.000000  -0.000000  -0.000000   0.000000   0.000000
    26  H    0.005469  -0.000036   0.000003   0.000000  -0.000000   0.000000
    27  H    0.003183  -0.000019   0.000001  -0.000000   0.000000   0.000000
    28  H   -0.047358  -0.003285   0.000124  -0.000000   0.000000  -0.000000
    29  H   -0.046313  -0.001765   0.000005   0.000000  -0.000000   0.000000
    30  H   -0.046920   0.361162  -0.027259  -0.003025   0.000163  -0.000136
    31  H   -0.051778   0.350864  -0.024272   0.002660   0.000013   0.000149
    32  H   -0.000033  -0.003580  -0.015434   0.345763  -0.025953   0.001813
    33  H    0.000014  -0.000014   0.000147   0.000007   0.004562  -0.016785
    34  H   -0.000000  -0.000000   0.000000  -0.000000  -0.000073   0.000010
    35  H    0.000000   0.000000  -0.000000  -0.000000   0.000002  -0.000093
    36  H    0.000000  -0.000000  -0.000001  -0.000017  -0.000816   0.000107
              13         14         15         16         17         18
     1  C    0.000000   0.000000   0.000000   0.000000  -0.000000  -0.002737
     2  N   -0.000000   0.000000   0.000000   0.000000   0.000000  -0.092816
     3  C   -0.000000   0.000000   0.000000   0.000000  -0.000000   0.507886
     4  N    0.000000   0.000000  -0.000000   0.000000   0.000000  -0.092261
     5  C   -0.000000  -0.000000   0.000000  -0.000000   0.000001  -0.006420
     6  C    0.000000   0.000000  -0.000000   0.000000   0.000021  -0.001019
     7  S   -0.000033  -0.000000   0.000000  -0.000000   0.007117  -0.000067
     8  C   -0.000177   0.000003  -0.000000   0.000000  -0.073955   0.000000
     9  C    0.003211  -0.000052   0.000001   0.000032   0.405121  -0.000000
    10  C    0.003357   0.000661   0.000004   0.001091  -0.080174   0.000000
    11  S   -0.075684  -0.001331   0.001027   0.028758  -0.090452   0.000000
    12  C    0.278154  -0.025818   0.002963  -0.004606   0.487430  -0.000000
    13  N    7.084924   0.300904  -0.096350  -0.089987  -0.060750  -0.000000
    14  C    0.300904   4.222256   0.342502   0.611198   0.001667  -0.000000
    15  N   -0.096350   0.342502   7.051428  -0.100291  -0.000119   0.000000
    16  N   -0.089987   0.611198  -0.100291   6.988898   0.000240   0.000000
    17  N   -0.060750   0.001667  -0.000119   0.000240   6.927972   0.000000
    18  N   -0.000000  -0.000000   0.000000   0.000000   0.000000   6.986198
    19  C    0.000000   0.000000   0.000000   0.000000   0.000000   0.352288
    20  N    0.000000   0.000000   0.000000   0.000000   0.000000  -0.080451
    21  H    0.000000   0.000000   0.000000   0.000000   0.000000   0.000822
    22  H    0.000000   0.000000   0.000000   0.000000  -0.000000   0.001222
    23  H    0.000000   0.000000   0.000000   0.000000   0.000000   0.000053
    24  H    0.000000   0.000000   0.000000   0.000000   0.000000   0.003951
    25  H   -0.000000  -0.000000   0.000000  -0.000000   0.000000   0.003628
    26  H    0.000000   0.000000  -0.000000  -0.000000  -0.000000   0.000475
    27  H   -0.000000   0.000000   0.000000   0.000000   0.000000   0.017627
    28  H   -0.000000  -0.000000   0.000000  -0.000000   0.000000   0.000027
    29  H    0.000000   0.000000  -0.000000   0.000000  -0.000000   0.002124
    30  H    0.000001  -0.000000   0.000000   0.000000   0.003515  -0.000000
    31  H   -0.000010  -0.000000  -0.000000  -0.000000  -0.000038   0.000000
    32  H   -0.000041  -0.000003  -0.000000  -0.000000   0.005014  -0.000000
    33  H    0.296548  -0.020234  -0.001459   0.003109   0.005963   0.000000
    34  H   -0.000960  -0.011663   0.295204   0.004103  -0.000012  -0.000000
    35  H    0.004090  -0.017715   0.312220  -0.002956   0.000001   0.000000
    36  H    0.008073  -0.036948  -0.014017   0.290406   0.000001   0.000000
              19         20         21         22         23         24
     1  C    0.001012  -0.003591   0.385612   0.385712   0.374105  -0.024770
     2  N   -0.006130   0.001503  -0.042645  -0.039389  -0.027375   0.306417
     3  C   -0.047389  -0.005311  -0.002683  -0.003831   0.002941  -0.016499
     4  N   -0.001278  -0.000163  -0.000040   0.000142  -0.000106  -0.001498
     5  C    0.000914   0.000003   0.000007  -0.000001   0.000002  -0.000106
     6  C    0.000065   0.000001  -0.000001   0.000001   0.000000   0.000005
     7  S   -0.000006   0.000000   0.000000  -0.000000  -0.000000   0.000000
     8  C   -0.000000  -0.000000  -0.000000   0.000000  -0.000000   0.000000
     9  C    0.000000   0.000000   0.000000  -0.000000  -0.000000   0.000000
    10  C   -0.000000  -0.000000  -0.000000   0.000000  -0.000000  -0.000000
    11  S    0.000000   0.000000   0.000000  -0.000000  -0.000000  -0.000000
    12  C   -0.000000   0.000000  -0.000000   0.000000   0.000000   0.000000
    13  N    0.000000   0.000000   0.000000   0.000000   0.000000   0.000000
    14  C    0.000000   0.000000   0.000000   0.000000   0.000000   0.000000
    15  N    0.000000   0.000000   0.000000   0.000000   0.000000   0.000000
    16  N    0.000000   0.000000   0.000000   0.000000   0.000000   0.000000
    17  N    0.000000   0.000000   0.000000  -0.000000   0.000000   0.000000
    18  N    0.352288  -0.080451   0.000822   0.001222   0.000053   0.003951
    19  C    4.335894   0.898635   0.001014   0.003510   0.000560   0.000060
    20  N    0.898635   6.825534   0.000976  -0.000569   0.000156  -0.000018
    21  H    0.001014   0.000976   0.539291  -0.037548  -0.029657   0.001584
    22  H    0.003510  -0.000569  -0.037548   0.521731  -0.022307   0.002630
    23  H    0.000560   0.000156  -0.029657  -0.022307   0.520250  -0.005471
    24  H    0.000060  -0.000018   0.001584   0.002630  -0.005471   0.328328
    25  H   -0.000022   0.000001   0.000007   0.000006  -0.000031   0.004552
    26  H   -0.000029  -0.000000   0.000000  -0.000000  -0.000000  -0.000021
    27  H    0.000378   0.000010   0.000001  -0.000003   0.000000  -0.000008
    28  H    0.000001  -0.000000   0.000000  -0.000000  -0.000000   0.000003
    29  H   -0.000056  -0.000006   0.000001  -0.000000  -0.000000  -0.000010
    30  H    0.000000   0.000000  -0.000000   0.000000   0.000000   0.000000
    31  H   -0.000000  -0.000000  -0.000000   0.000000   0.000000  -0.000000
    32  H    0.000000   0.000000  -0.000000   0.000000   0.000000   0.000000
    33  H   -0.000000  -0.000000  -0.000000   0.000000   0.000000  -0.000000
    34  H    0.000000   0.000000   0.000000   0.000000   0.000000   0.000000
    35  H    0.000000   0.000000   0.000000   0.000000   0.000000   0.000000
    36  H    0.000000   0.000000   0.000000   0.000000   0.000000   0.000000
              25         26         27         28         29         30
     1  C    0.000046   0.000003   0.000007   0.000000   0.000002  -0.000000
     2  N   -0.002196  -0.000066   0.000354  -0.000011  -0.000101  -0.000000
     3  C   -0.022063   0.004185  -0.007580  -0.000190   0.003907  -0.000000
     4  N    0.313536  -0.036402  -0.037041  -0.001008  -0.003805   0.000000
     5  C   -0.024882   0.380634   0.378588  -0.030121  -0.030428  -0.000006
     6  C    0.000079  -0.047486  -0.041304   0.366859   0.364618  -0.002127
     7  S   -0.000052   0.005469   0.003183  -0.047358  -0.046313  -0.046920
     8  C    0.000000  -0.000036  -0.000019  -0.003285  -0.001765   0.361162
     9  C   -0.000000   0.000003   0.000001   0.000124   0.000005  -0.027259
    10  C   -0.000000   0.000000  -0.000000  -0.000000   0.000000  -0.003025
    11  S    0.000000  -0.000000   0.000000   0.000000  -0.000000   0.000163
    12  C    0.000000   0.000000   0.000000  -0.000000   0.000000  -0.000136
    13  N   -0.000000   0.000000  -0.000000  -0.000000   0.000000   0.000001
    14  C   -0.000000   0.000000   0.000000  -0.000000   0.000000  -0.000000
    15  N    0.000000  -0.000000   0.000000   0.000000  -0.000000   0.000000
    16  N   -0.000000  -0.000000   0.000000  -0.000000   0.000000   0.000000
    17  N    0.000000  -0.000000   0.000000   0.000000  -0.000000   0.003515
    18  N    0.003628   0.000475   0.017627   0.000027   0.002124  -0.000000
    19  C   -0.000022  -0.000029   0.000378   0.000001  -0.000056   0.000000
    20  N    0.000001  -0.000000   0.000010  -0.000000  -0.000006   0.000000
    21  H    0.000007   0.000000   0.000001   0.000000   0.000001  -0.000000
    22  H    0.000006  -0.000000  -0.000003  -0.000000  -0.000000   0.000000
    23  H   -0.000031  -0.000000   0.000000  -0.000000  -0.000000   0.000000
    24  H    0.004552  -0.000021  -0.000008   0.000003  -0.000010   0.000000
    25  H    0.328707  -0.003319   0.003623   0.001963  -0.000163   0.000000
    26  H   -0.003319   0.544896  -0.028517  -0.004993   0.005110   0.000007
    27  H    0.003623  -0.028517   0.518604   0.004753  -0.004952  -0.000008
    28  H    0.001963  -0.004993   0.004753   0.557575  -0.038798  -0.001134
    29  H   -0.000163   0.005110  -0.004952  -0.038798   0.557270   0.004687
    30  H    0.000000   0.000007  -0.000008  -0.001134   0.004687   0.545402
    31  H   -0.000000  -0.000015   0.000008   0.007678  -0.001037  -0.033981
    32  H   -0.000000   0.000000  -0.000000  -0.000000   0.000001   0.002307
    33  H    0.000000  -0.000000   0.000000   0.000000  -0.000000   0.000000
    34  H   -0.000000   0.000000  -0.000000  -0.000000   0.000000  -0.000000
    35  H    0.000000  -0.000000   0.000000   0.000000  -0.000000  -0.000000
    36  H   -0.000000  -0.000000  -0.000000   0.000000  -0.000000  -0.000000
              31         32         33         34         35         36
     1  C   -0.000000  -0.000000   0.000000   0.000000   0.000000   0.000000
     2  N   -0.000000   0.000000   0.000000   0.000000   0.000000   0.000000
     3  C    0.000000   0.000000  -0.000000   0.000000   0.000000  -0.000000
     4  N   -0.000002  -0.000000  -0.000000  -0.000000  -0.000000  -0.000000
     5  C    0.000065   0.000000   0.000000  -0.000000   0.000000   0.000000
     6  C   -0.003382  -0.000002  -0.000000  -0.000000  -0.000000  -0.000000
     7  S   -0.051778  -0.000033   0.000014  -0.000000   0.000000   0.000000
     8  C    0.350864  -0.003580  -0.000014  -0.000000   0.000000  -0.000000
     9  C   -0.024272  -0.015434   0.000147   0.000000  -0.000000  -0.000001
    10  C    0.002660   0.345763   0.000007  -0.000000  -0.000000  -0.000017
    11  S    0.000013  -0.025953   0.004562  -0.000073   0.000002  -0.000816
    12  C    0.000149   0.001813  -0.016785   0.000010  -0.000093   0.000107
    13  N   -0.000010  -0.000041   0.296548  -0.000960   0.004090   0.008073
    14  C   -0.000000  -0.000003  -0.020234  -0.011663  -0.017715  -0.036948
    15  N   -0.000000  -0.000000  -0.001459   0.295204   0.312220  -0.014017
    16  N   -0.000000  -0.000000   0.003109   0.004103  -0.002956   0.290406
    17  N   -0.000038   0.005014   0.005963  -0.000012   0.000001   0.000001
    18  N    0.000000  -0.000000   0.000000  -0.000000   0.000000   0.000000
    19  C   -0.000000   0.000000  -0.000000   0.000000   0.000000   0.000000
    20  N   -0.000000   0.000000  -0.000000   0.000000   0.000000   0.000000
    21  H   -0.000000  -0.000000  -0.000000   0.000000   0.000000   0.000000
    22  H    0.000000   0.000000   0.000000   0.000000   0.000000   0.000000
    23  H    0.000000   0.000000   0.000000   0.000000   0.000000   0.000000
    24  H   -0.000000   0.000000  -0.000000   0.000000   0.000000   0.000000
    25  H   -0.000000  -0.000000   0.000000  -0.000000   0.000000  -0.000000
    26  H   -0.000015   0.000000  -0.000000   0.000000  -0.000000  -0.000000
    27  H    0.000008  -0.000000   0.000000  -0.000000   0.000000  -0.000000
    28  H    0.007678  -0.000000   0.000000  -0.000000   0.000000   0.000000
    29  H   -0.001037   0.000001  -0.000000   0.000000  -0.000000  -0.000000
    30  H   -0.033981   0.002307   0.000000  -0.000000  -0.000000  -0.000000
    31  H    0.556341  -0.000033   0.000005   0.000000  -0.000000   0.000000
    32  H   -0.000033   0.496744   0.000000   0.000000   0.000000   0.000000
    33  H    0.000005   0.000000   0.324677   0.002349  -0.000005  -0.000154
    34  H    0.000000   0.000000   0.002349   0.347711  -0.019385   0.000257
    35  H   -0.000000   0.000000  -0.000005  -0.019385   0.336456   0.004767
    36  H    0.000000   0.000000  -0.000154   0.000257   0.004767   0.420900
 Mulliken charges:
               1
     1  C   -0.315906
     2  N   -0.610091
     3  C    0.747133
     4  N   -0.623028
     5  C   -0.141386
     6  C   -0.408129
     7  S    0.033908
     8  C   -0.476268
     9  C    0.310069
    10  C   -0.418939
    11  S    0.253222
    12  C    0.320788
    13  N   -0.655268
    14  C    0.634573
    15  N   -0.793111
    16  N   -0.729995
    17  N   -0.538561
    18  N   -0.600530
    19  C    0.460578
    20  N   -0.636709
    21  H    0.183260
    22  H    0.188696
    23  H    0.186880
    24  H    0.400871
    25  H    0.396578
    26  H    0.180100
    27  H    0.192295
    28  H    0.187915
    29  H    0.189710
    30  H    0.197353
    31  H    0.196766
    32  H    0.193437
    33  H    0.401269
    34  H    0.382460
    35  H    0.382617
    36  H    0.327442
 Sum of Mulliken charges =  -0.00000
 Mulliken charges with hydrogens summed into heavy atoms:
               1
     1  C    0.242930
     2  N   -0.209220
     3  C    0.747133
     4  N   -0.226450
     5  C    0.231009
     6  C   -0.030505
     7  S    0.033908
     8  C   -0.082149
     9  C    0.310069
    10  C   -0.225502
    11  S    0.253222
    12  C    0.320788
    13  N   -0.253999
    14  C    0.634573
    15  N   -0.028035
    16  N   -0.402553
    17  N   -0.538561
    18  N   -0.600530
    19  C    0.460578
    20  N   -0.636709
 Electronic spatial extent (au):  <R**2>=          14914.0738
 Charge=             -0.0000 electrons
 Dipole moment (field-independent basis, Debye):
    X=              4.7768    Y=             14.1824    Z=             -5.1502  Tot=             15.8267
 Quadrupole moment (field-independent basis, Debye-Ang):
   XX=           -104.6079   YY=           -126.2099   ZZ=           -130.8670
   XY=            -32.5603   XZ=             52.5976   YZ=              7.5145
 Traceless Quadrupole moment (field-independent basis, Debye-Ang):
   XX=             15.9537   YY=             -5.6483   ZZ=            -10.3054
   XY=            -32.5603   XZ=             52.5976   YZ=              7.5145
 Octapole moment (field-independent basis, Debye-Ang**2):
  XXX=            503.9241  YYY=             99.4313  ZZZ=             -9.5227  XYY=            113.5713
  XXY=            599.2222  XXZ=            -72.2112  XZZ=             11.0482  YZZ=             25.6747
  YYZ=            -21.4399  XYZ=             25.8957
 Hexadecapole moment (field-independent basis, Debye-Ang**3):
 XXXX=         -14942.1930 YYYY=          -1183.0412 ZZZZ=           -453.8417 XXXY=          -1251.1491
 XXXZ=           2571.7323 YYYX=           -260.8817 YYYZ=             61.2162 ZZZX=            119.7929
 ZZZY=              2.2869 XXYY=          -3399.2804 XXZZ=          -3021.2592 YYZZ=           -277.0195
 XXYZ=            356.6591 YYXZ=            264.3408 ZZXY=            -46.8634
 N-N= 1.640932083239D+03 E-N=-7.101177884726D+03  KE= 1.614564582255D+03
 No NMR shielding tensors so no spin-rotation constants.
 Leave Link  601 at Tue Mar  1 23:03:39 2022, MaxMem=   104857600 cpu:               0.5 elap:               0.2
 (Enter /dades/curu/g16A03_MST/g16/l9999.exe)
 1\1\GINC-PIRINEUS1\SP\RB3LYP\6-31G(d)\C10H16N8S2\UBATOR01\01-Mar-2022\
 0\\#p b3lyp/6-31G(d) scrf=(iefpcm,read,solvent=water) geom=allcheck gu
 ess=read\\294.n.pdb.xyz\\0,1\C,0,-7.0571713803,-0.779845242,0.75955249
 57\N,0,-5.659944252,-1.1905166207,0.8044817657\C,0,-4.6881799954,-0.77
 72757119,-0.0346683917\N,0,-3.5651029102,-1.5330255861,-0.0758238526\C
 ,0,-2.3112509615,-1.0974631656,-0.6701749069\C,0,-1.4176189674,-0.3720
 143512,0.3428188533\S,0,0.1627189324,0.1099184935,-0.4595766137\C,0,1.
 0628818746,0.7650457403,1.0182200478\C,0,2.4668021917,1.1358577705,0.6
 575884419\C,0,2.9501255896,2.4059494139,0.5699307774\S,0,4.6412855312,
 2.3931083408,0.1301131549\C,0,4.5517130965,0.6325138968,0.0891533429\N
 ,0,5.613259102,-0.1783817541,-0.2196683209\C,0,6.8960080557,0.22613778
 05,-0.5721699704\N,0,7.7503722502,-0.8322182719,-0.8098450612\N,0,7.18
 41677652,1.4820795245,-0.5838988023\N,0,3.3786919797,0.1299259878,0.38
 30128256\N,0,-4.7448582558,0.2789201807,-0.8459926551\C,0,-5.639456501
 2,1.2293394111,-0.7688168998\N,0,-6.3500181782,2.1677274022,-0.8130173
 635\H,0,-7.2357270577,0.1383539393,1.3225234604\H,0,-7.3826862743,-0.6
 276365453,-0.2704440657\H,0,-7.6533579823,-1.5803412789,1.1978335141\H
 ,0,-5.4363770833,-1.9731027044,1.4078881343\H,0,-3.5314393679,-2.35280
 00843,0.5180134957\H,0,-1.8008550231,-1.9826973178,-1.0568974446\H,0,-
 2.5463035095,-0.4449576069,-1.5108539075\H,0,-1.1959054434,-1.02895670
 41,1.1885186494\H,0,-1.924221246,0.5210607811,0.7175372611\H,0,0.52475
 20914,1.6336664595,1.4007002884\H,0,1.0589540079,-0.0174622492,1.78178
 28089\H,0,2.4265799012,3.3369298859,0.7371330685\H,0,5.4120110183,-1.1
 723515283,-0.1866068883\H,0,7.3215326649,-1.6840947924,-1.159371188\H,
 0,8.584429233,-0.5787733675,-1.3280565772\H,0,8.1531891039,1.617379874
 3,-0.8759194765\\Version=ES64L-G16RevA.03\State=1-A\HF=-1625.1172405\R
 MSD=6.378e-09\Dipole=2.4095458,-5.4603766,1.7748277\Quadrupole=5.77322
 88,0.0827862,-5.856015,26.7365967,-38.7699262,1.7823287\PG=C01 [X(C10H
 16N8S2)]\\@


 One man practicing sportsmanship is far better than 50 preaching it.
 -- Knute K. Rockne
 Job cpu time:       0 days  0 hours 10 minutes 54.0 seconds.
 Elapsed time:       0 days  0 hours  2 minutes 51.2 seconds.
 File lengths (MBytes):  RWF=    219 Int=      0 D2E=      0 Chk=     20 Scr=      1
 Normal termination of Gaussian 16 at Tue Mar  1 23:03:39 2022.
