 Entering Gaussian System, Link 0=g16
 Input=312.n.pdb.xyz.mst.wat.gau
 Output=312.n.pdb.xyz.mst.wat.log
 Initial command:
 /dades/curu/g16A03_MST/g16/l1.exe "/tmp/ubator01/1954993/Gau-86055.inp" -scrdir="/tmp/ubator01/1954993/"
 Entering Link 1 = /dades/curu/g16A03_MST/g16/l1.exe PID=     86056.
  
 Copyright (c) 1988,1990,1992,1993,1995,1998,2003,2009,2016,
            Gaussian, Inc.  All Rights Reserved.
  
 This is part of the Gaussian(R) 16 program.  It is based on
 the Gaussian(R) 09 system (copyright 2009, Gaussian, Inc.),
 the Gaussian(R) 03 system (copyright 2003, Gaussian, Inc.),
 the Gaussian(R) 98 system (copyright 1998, Gaussian, Inc.),
 the Gaussian(R) 94 system (copyright 1995, Gaussian, Inc.),
 the Gaussian 92(TM) system (copyright 1992, Gaussian, Inc.),
 the Gaussian 90(TM) system (copyright 1990, Gaussian, Inc.),
 the Gaussian 88(TM) system (copyright 1988, Gaussian, Inc.),
 the Gaussian 86(TM) system (copyright 1986, Carnegie Mellon
 University), and the Gaussian 82(TM) system (copyright 1983,
 Carnegie Mellon University). Gaussian is a federally registered
 trademark of Gaussian, Inc.
  
 This software contains proprietary and confidential information,
 including trade secrets, belonging to Gaussian, Inc.
  
 This software is provided under written license and may be
 used, copied, transmitted, or stored only in accord with that
 written license.
  
 The following legend is applicable only to US Government
 contracts under FAR:
  
                    RESTRICTED RIGHTS LEGEND
  
 Use, reproduction and disclosure by the US Government is
 subject to restrictions as set forth in subparagraphs (a)
 and (c) of the Commercial Computer Software - Restricted
 Rights clause in FAR 52.227-19.
  
 Gaussian, Inc.
 340 Quinnipiac St., Bldg. 40, Wallingford CT 06492
  
  
 ---------------------------------------------------------------
 Warning -- This program may not be used in any manner that
 competes with the business of Gaussian, Inc. or will provide
 assistance to any competitor of Gaussian, Inc.  The licensee
 of this program is prohibited from giving any competitor of
 Gaussian, Inc. access to this program.  By using this program,
 the user acknowledges that Gaussian, Inc. is engaged in the
 business of creating and licensing software in the field of
 computational chemistry and represents and warrants to the
 licensee that it is not a competitor of Gaussian, Inc. and that
 it will not use this program in any manner prohibited above.
 ---------------------------------------------------------------
  

 Cite this work as:
 Gaussian 16, Revision A.03,
 M. J. Frisch, G. W. Trucks, H. B. Schlegel, G. E. Scuseria, 
 M. A. Robb, J. R. Cheeseman, G. Scalmani, V. Barone, 
 G. A. Petersson, H. Nakatsuji, X. Li, M. Caricato, A. V. Marenich, 
 J. Bloino, B. G. Janesko, R. Gomperts, B. Mennucci, H. P. Hratchian, 
 J. V. Ortiz, A. F. Izmaylov, J. L. Sonnenberg, D. Williams-Young, 
 F. Ding, F. Lipparini, F. Egidi, J. Goings, B. Peng, A. Petrone, 
 T. Henderson, D. Ranasinghe, V. G. Zakrzewski, J. Gao, N. Rega, 
 G. Zheng, W. Liang, M. Hada, M. Ehara, K. Toyota, R. Fukuda, 
 J. Hasegawa, M. Ishida, T. Nakajima, Y. Honda, O. Kitao, H. Nakai, 
 T. Vreven, K. Throssell, J. A. Montgomery, Jr., J. E. Peralta, 
 F. Ogliaro, M. J. Bearpark, J. J. Heyd, E. N. Brothers, K. N. Kudin, 
 V. N. Staroverov, T. A. Keith, R. Kobayashi, J. Normand, 
 K. Raghavachari, A. P. Rendell, J. C. Burant, S. S. Iyengar, 
 J. Tomasi, M. Cossi, J. M. Millam, M. Klene, C. Adamo, R. Cammi, 
 J. W. Ochterski, R. L. Martin, K. Morokuma, O. Farkas, 
 J. B. Foresman, and D. J. Fox, Gaussian, Inc., Wallingford CT, 2016.
 
 ******************************************
 Gaussian 16:  ES64L-G16RevA.03 25-Dec-2016
                 1-Mar-2022 
 ******************************************
 %nproc=4
 Will use up to    4 processors via shared memory.
 %Chk=312.n.pdb.xyz.mst.wat.chk
 %mem=800MB
 ----------------------------------------------------------------------
 #p b3lyp/6-31G(d) opt=(MaxStep=10,MaxCycles=1000) freq scf=(MaxCycle=2
 000,NoVarAcc,NoIncFock) scrf=(iefpcm,read,solvent=water)
 ----------------------------------------------------------------------
 1/6=1000,8=10,18=20,19=15,26=3,38=1,40=2/1,3;
 2/9=110,12=2,17=6,18=5,40=1/2;
 3/5=1,6=6,7=1,11=2,25=1,30=1,70=2203,71=1,72=1,74=-5/1,2,3;
 4//1;
 5/5=100002,7=2000,38=1,53=1/2;
 6/7=2,8=2,9=2,10=2,28=1/1;
 7//1,2,3,16;
 1/6=1000,8=10,18=20,19=15,26=3/3(2);
 2/9=110/2;
 99//99;
 2/9=110/2;
 3/5=1,6=6,7=1,11=2,25=1,30=1,70=2205,71=1,72=1,74=-5/1,2,3;
 4/5=5,16=3,69=1/1;
 5/5=100002,7=2000,38=1,53=1/2;
 7//1,2,3,16;
 1/6=1000,8=10,18=20,19=15,26=3/3(-5);
 2/9=110/2;
 6/7=2,8=2,9=2,10=2,19=2,28=1/1;
 99/9=1/99;
 Leave Link    1 at Tue Mar  1 15:28:00 2022, MaxMem=   104857600 cpu:               0.1 elap:               0.0
 (Enter /dades/curu/g16A03_MST/g16/l101.exe)
 -------------
 312.n.pdb.xyz
 -------------
 Symbolic Z-matrix:
 Charge =  0 Multiplicity = 1
 C                    -2.684    -2.442    -2.001 
 N                    -2.488    -1.196    -1.281 
 C                    -1.129    -0.736    -1.213 
 C                    -0.872     0.208    -0.096 
 C                     0.386     0.579     0.373 
 N                     0.283     1.435     1.424 
 C                    -1.003     1.614     1.591 
 N                    -1.785     0.893     0.702 
 C                    -3.222     0.922     0.688 
 C                    -3.897     1.514     1.782 
 C                    -5.29      1.596     1.827 
 C                    -6.047     1.072     0.79 
 C                    -5.412     0.469    -0.298 
 Cl                   -6.458    -0.25     -1.475 
 C                    -4.003     0.407    -0.366 
 C                    -3.405    -0.203    -1.564 
 O                    -3.732     0.123    -2.697 
 C                     1.715     0.176    -0.118 
 N                     1.929    -0.476    -1.277 
 O                     3.318    -0.611    -1.312 
 C                     3.798    -0.049    -0.159 
 N                     2.849     0.442     0.607 
 C                     5.277    -0.121     0.071 
 C                     5.713     0.841     1.185 
 C                     5.699    -1.559     0.396 
 O                     5.925     0.275    -1.147 
 H                    -2.376    -2.318    -3.045 
 H                    -2.1      -3.237    -1.524 
 H                    -3.745    -2.709    -1.98 
 H                    -0.872    -0.258    -2.169 
 H                    -0.492    -1.621    -1.084 
 H                    -1.407     2.285     2.34 
 H                    -3.376     1.909     2.652 
 H                    -5.785     2.056     2.687 
 H                    -7.132     1.119     0.843 
 H                     6.798     0.804     1.333 
 H                     5.232     0.606     2.145 
 H                     5.47      1.882     0.923 
 H                     5.234    -1.917     1.324 
 H                     6.787    -1.639     0.501 
 H                     5.418    -2.24     -0.418 
 H                     6.876     0.356    -0.962 
 
 ITRead=  0  0  0  0  0  0  0  0  0  0  0  0  0  0  0  0  0  0  0  0
 ITRead=  0  0  0  0  0  0  0  0  0  0  0  0  0  0  0  0  0  0  0  0
 ITRead=  0  0
 MicOpt= -1 -1 -1 -1 -1 -1 -1 -1 -1 -1 -1 -1 -1 -1 -1 -1 -1 -1 -1 -1
 MicOpt= -1 -1 -1 -1 -1 -1 -1 -1 -1 -1 -1 -1 -1 -1 -1 -1 -1 -1 -1 -1
 MicOpt= -1 -1
 NAtoms=     42 NQM=       42 NQMF=       0 NMMI=      0 NMMIF=      0
                NMic=       0 NMicF=      0.
                    Isotopes and Nuclear Properties:
 (Nuclear quadrupole moments (NQMom) in fm**2, nuclear magnetic moments (NMagM)
  in nuclear magnetons)

  Atom         1           2           3           4           5           6           7           8           9          10
 IAtWgt=          12          14          12          12          12          14          12          14          12          12
 AtmWgt=  12.0000000  14.0030740  12.0000000  12.0000000  12.0000000  14.0030740  12.0000000  14.0030740  12.0000000  12.0000000
 NucSpn=           0           2           0           0           0           2           0           2           0           0
 AtZEff=  -0.0000000  -0.0000000  -0.0000000  -0.0000000  -0.0000000  -0.0000000  -0.0000000  -0.0000000  -0.0000000  -0.0000000
 NQMom=    0.0000000   2.0440000   0.0000000   0.0000000   0.0000000   2.0440000   0.0000000   2.0440000   0.0000000   0.0000000
 NMagM=    0.0000000   0.4037610   0.0000000   0.0000000   0.0000000   0.4037610   0.0000000   0.4037610   0.0000000   0.0000000
 AtZNuc=   6.0000000   7.0000000   6.0000000   6.0000000   6.0000000   7.0000000   6.0000000   7.0000000   6.0000000   6.0000000

  Atom        11          12          13          14          15          16          17          18          19          20
 IAtWgt=          12          12          12          35          12          12          16          12          14          16
 AtmWgt=  12.0000000  12.0000000  12.0000000  34.9688527  12.0000000  12.0000000  15.9949146  12.0000000  14.0030740  15.9949146
 NucSpn=           0           0           0           3           0           0           0           0           2           0
 AtZEff=  -0.0000000  -0.0000000  -0.0000000  -0.0000000  -0.0000000  -0.0000000  -0.0000000  -0.0000000  -0.0000000  -0.0000000
 NQMom=    0.0000000   0.0000000   0.0000000  -8.1650000   0.0000000   0.0000000   0.0000000   0.0000000   2.0440000   0.0000000
 NMagM=    0.0000000   0.0000000   0.0000000   0.8218740   0.0000000   0.0000000   0.0000000   0.0000000   0.4037610   0.0000000
 AtZNuc=   6.0000000   6.0000000   6.0000000  17.0000000   6.0000000   6.0000000   8.0000000   6.0000000   7.0000000   8.0000000

  Atom        21          22          23          24          25          26          27          28          29          30
 IAtWgt=          12          14          12          12          12          16           1           1           1           1
 AtmWgt=  12.0000000  14.0030740  12.0000000  12.0000000  12.0000000  15.9949146   1.0078250   1.0078250   1.0078250   1.0078250
 NucSpn=           0           2           0           0           0           0           1           1           1           1
 AtZEff=  -0.0000000  -0.0000000  -0.0000000  -0.0000000  -0.0000000  -0.0000000  -0.0000000  -0.0000000  -0.0000000  -0.0000000
 NQMom=    0.0000000   2.0440000   0.0000000   0.0000000   0.0000000   0.0000000   0.0000000   0.0000000   0.0000000   0.0000000
 NMagM=    0.0000000   0.4037610   0.0000000   0.0000000   0.0000000   0.0000000   2.7928460   2.7928460   2.7928460   2.7928460
 AtZNuc=   6.0000000   7.0000000   6.0000000   6.0000000   6.0000000   8.0000000   1.0000000   1.0000000   1.0000000   1.0000000

  Atom        31          32          33          34          35          36          37          38          39          40
 IAtWgt=           1           1           1           1           1           1           1           1           1           1
 AtmWgt=   1.0078250   1.0078250   1.0078250   1.0078250   1.0078250   1.0078250   1.0078250   1.0078250   1.0078250   1.0078250
 NucSpn=           1           1           1           1           1           1           1           1           1           1
 AtZEff=  -0.0000000  -0.0000000  -0.0000000  -0.0000000  -0.0000000  -0.0000000  -0.0000000  -0.0000000  -0.0000000  -0.0000000
 NQMom=    0.0000000   0.0000000   0.0000000   0.0000000   0.0000000   0.0000000   0.0000000   0.0000000   0.0000000   0.0000000
 NMagM=    2.7928460   2.7928460   2.7928460   2.7928460   2.7928460   2.7928460   2.7928460   2.7928460   2.7928460   2.7928460
 AtZNuc=   1.0000000   1.0000000   1.0000000   1.0000000   1.0000000   1.0000000   1.0000000   1.0000000   1.0000000   1.0000000

  Atom        41          42
 IAtWgt=           1           1
 AtmWgt=   1.0078250   1.0078250
 NucSpn=           1           1
 AtZEff=  -0.0000000  -0.0000000
 NQMom=    0.0000000   0.0000000
 NMagM=    2.7928460   2.7928460
 AtZNuc=   1.0000000   1.0000000
 Leave Link  101 at Tue Mar  1 15:28:00 2022, MaxMem=   104857600 cpu:               0.1 elap:               0.1
 (Enter /dades/curu/g16A03_MST/g16/l103.exe)

 GradGradGradGradGradGradGradGradGradGradGradGradGradGradGradGradGradGrad
 Berny optimization.
 Initialization pass.
                           ----------------------------
                           !    Initial Parameters    !
                           ! (Angstroms and Degrees)  !
 --------------------------                            --------------------------
 ! Name  Definition              Value          Derivative Info.                !
 --------------------------------------------------------------------------------
 ! R1    R(1,2)                  1.4524         estimate D2E/DX2                !
 ! R2    R(1,27)                 1.0955         estimate D2E/DX2                !
 ! R3    R(1,28)                 1.0957         estimate D2E/DX2                !
 ! R4    R(1,29)                 1.0943         estimate D2E/DX2                !
 ! R5    R(2,3)                  1.4364         estimate D2E/DX2                !
 ! R6    R(2,16)                 1.381          estimate D2E/DX2                !
 ! R7    R(3,4)                  1.4849         estimate D2E/DX2                !
 ! R8    R(3,30)                 1.0993         estimate D2E/DX2                !
 ! R9    R(3,31)                 1.098          estimate D2E/DX2                !
 ! R10   R(4,5)                  1.3929         estimate D2E/DX2                !
 ! R11   R(4,8)                  1.3927         estimate D2E/DX2                !
 ! R12   R(5,6)                  1.3594         estimate D2E/DX2                !
 ! R13   R(5,18)                 1.473          estimate D2E/DX2                !
 ! R14   R(6,7)                  1.3091         estimate D2E/DX2                !
 ! R15   R(7,8)                  1.3862         estimate D2E/DX2                !
 ! R16   R(7,32)                 1.0837         estimate D2E/DX2                !
 ! R17   R(8,9)                  1.4374         estimate D2E/DX2                !
 ! R18   R(9,10)                 1.4152         estimate D2E/DX2                !
 ! R19   R(9,15)                 1.4093         estimate D2E/DX2                !
 ! R20   R(10,11)                1.3961         estimate D2E/DX2                !
 ! R21   R(10,33)                1.0883         estimate D2E/DX2                !
 ! R22   R(11,12)                1.3867         estimate D2E/DX2                !
 ! R23   R(11,34)                1.0937         estimate D2E/DX2                !
 ! R24   R(12,13)                1.3966         estimate D2E/DX2                !
 ! R25   R(12,35)                1.0873         estimate D2E/DX2                !
 ! R26   R(13,14)                1.731          estimate D2E/DX2                !
 ! R27   R(13,15)                1.412          estimate D2E/DX2                !
 ! R28   R(15,16)                1.4714         estimate D2E/DX2                !
 ! R29   R(16,17)                1.2235         estimate D2E/DX2                !
 ! R30   R(18,19)                1.3469         estimate D2E/DX2                !
 ! R31   R(18,22)                1.372          estimate D2E/DX2                !
 ! R32   R(19,20)                1.396          estimate D2E/DX2                !
 ! R33   R(20,21)                1.3695         estimate D2E/DX2                !
 ! R34   R(21,22)                1.3147         estimate D2E/DX2                !
 ! R35   R(21,23)                1.4985         estimate D2E/DX2                !
 ! R36   R(23,24)                1.5351         estimate D2E/DX2                !
 ! R37   R(23,25)                1.5335         estimate D2E/DX2                !
 ! R38   R(23,26)                1.4354         estimate D2E/DX2                !
 ! R39   R(24,36)                1.0957         estimate D2E/DX2                !
 ! R40   R(24,37)                1.0992         estimate D2E/DX2                !
 ! R41   R(24,38)                1.1006         estimate D2E/DX2                !
 ! R42   R(25,39)                1.098          estimate D2E/DX2                !
 ! R43   R(25,40)                1.096          estimate D2E/DX2                !
 ! R44   R(25,41)                1.0979         estimate D2E/DX2                !
 ! R45   R(26,42)                0.9722         estimate D2E/DX2                !
 ! A1    A(2,1,27)             109.7176         estimate D2E/DX2                !
 ! A2    A(2,1,28)             109.5555         estimate D2E/DX2                !
 ! A3    A(2,1,29)             109.3091         estimate D2E/DX2                !
 ! A4    A(27,1,28)            110.3121         estimate D2E/DX2                !
 ! A5    A(27,1,29)            108.5721         estimate D2E/DX2                !
 ! A6    A(28,1,29)            109.3529         estimate D2E/DX2                !
 ! A7    A(1,2,3)              115.2082         estimate D2E/DX2                !
 ! A8    A(1,2,16)             115.1946         estimate D2E/DX2                !
 ! A9    A(3,2,16)             114.0598         estimate D2E/DX2                !
 ! A10   A(2,3,4)              113.764          estimate D2E/DX2                !
 ! A11   A(2,3,30)             108.6192         estimate D2E/DX2                !
 ! A12   A(2,3,31)             107.2374         estimate D2E/DX2                !
 ! A13   A(4,3,30)             109.7119         estimate D2E/DX2                !
 ! A14   A(4,3,31)             108.882          estimate D2E/DX2                !
 ! A15   A(30,3,31)            108.4821         estimate D2E/DX2                !
 ! A16   A(3,4,5)              125.3756         estimate D2E/DX2                !
 ! A17   A(3,4,8)              129.0692         estimate D2E/DX2                !
 ! A18   A(5,4,8)              105.5535         estimate D2E/DX2                !
 ! A19   A(4,5,6)              111.0763         estimate D2E/DX2                !
 ! A20   A(4,5,18)             129.0319         estimate D2E/DX2                !
 ! A21   A(6,5,18)             119.8911         estimate D2E/DX2                !
 ! A22   A(5,6,7)              105.0204         estimate D2E/DX2                !
 ! A23   A(6,7,8)              113.6553         estimate D2E/DX2                !
 ! A24   A(6,7,32)             122.6184         estimate D2E/DX2                !
 ! A25   A(8,7,32)             123.708          estimate D2E/DX2                !
 ! A26   A(4,8,7)              104.6825         estimate D2E/DX2                !
 ! A27   A(4,8,9)              131.2802         estimate D2E/DX2                !
 ! A28   A(7,8,9)              124.0367         estimate D2E/DX2                !
 ! A29   A(8,9,10)             118.5378         estimate D2E/DX2                !
 ! A30   A(8,9,15)             123.6385         estimate D2E/DX2                !
 ! A31   A(10,9,15)            117.8187         estimate D2E/DX2                !
 ! A32   A(9,10,11)            121.6925         estimate D2E/DX2                !
 ! A33   A(9,10,33)            122.7827         estimate D2E/DX2                !
 ! A34   A(11,10,33)           115.504          estimate D2E/DX2                !
 ! A35   A(10,11,12)           119.8921         estimate D2E/DX2                !
 ! A36   A(10,11,34)           120.1068         estimate D2E/DX2                !
 ! A37   A(12,11,34)           119.9914         estimate D2E/DX2                !
 ! A38   A(11,12,13)           119.835          estimate D2E/DX2                !
 ! A39   A(11,12,35)           119.4687         estimate D2E/DX2                !
 ! A40   A(13,12,35)           120.6862         estimate D2E/DX2                !
 ! A41   A(12,13,14)           115.7398         estimate D2E/DX2                !
 ! A42   A(12,13,15)           120.6754         estimate D2E/DX2                !
 ! A43   A(14,13,15)           123.5045         estimate D2E/DX2                !
 ! A44   A(9,15,13)            120.0621         estimate D2E/DX2                !
 ! A45   A(9,15,16)            122.3583         estimate D2E/DX2                !
 ! A46   A(13,15,16)           117.5794         estimate D2E/DX2                !
 ! A47   A(2,16,15)            113.6493         estimate D2E/DX2                !
 ! A48   A(2,16,17)            123.9765         estimate D2E/DX2                !
 ! A49   A(15,16,17)           122.3376         estimate D2E/DX2                !
 ! A50   A(5,18,19)            124.2368         estimate D2E/DX2                !
 ! A51   A(5,18,22)            121.1011         estimate D2E/DX2                !
 ! A52   A(19,18,22)           114.6603         estimate D2E/DX2                !
 ! A53   A(18,19,20)           103.0895         estimate D2E/DX2                !
 ! A54   A(19,20,21)           106.7345         estimate D2E/DX2                !
 ! A55   A(20,21,22)           113.0032         estimate D2E/DX2                !
 ! A56   A(20,21,23)           117.092          estimate D2E/DX2                !
 ! A57   A(22,21,23)           129.8632         estimate D2E/DX2                !
 ! A58   A(18,22,21)           102.4937         estimate D2E/DX2                !
 ! A59   A(21,23,24)           111.1982         estimate D2E/DX2                !
 ! A60   A(21,23,25)           110.4381         estimate D2E/DX2                !
 ! A61   A(21,23,26)           107.5825         estimate D2E/DX2                !
 ! A62   A(24,23,25)           110.8359         estimate D2E/DX2                !
 ! A63   A(24,23,26)           108.3415         estimate D2E/DX2                !
 ! A64   A(25,23,26)           108.3197         estimate D2E/DX2                !
 ! A65   A(23,24,36)           110.9845         estimate D2E/DX2                !
 ! A66   A(23,24,37)           112.0573         estimate D2E/DX2                !
 ! A67   A(23,24,38)           110.9324         estimate D2E/DX2                !
 ! A68   A(36,24,37)           107.9475         estimate D2E/DX2                !
 ! A69   A(36,24,38)           106.4231         estimate D2E/DX2                !
 ! A70   A(37,24,38)           108.2706         estimate D2E/DX2                !
 ! A71   A(23,25,39)           111.6128         estimate D2E/DX2                !
 ! A72   A(23,25,40)           111.2195         estimate D2E/DX2                !
 ! A73   A(23,25,41)           110.7382         estimate D2E/DX2                !
 ! A74   A(39,25,40)           108.3999         estimate D2E/DX2                !
 ! A75   A(39,25,41)           108.4216         estimate D2E/DX2                !
 ! A76   A(40,25,41)           106.2508         estimate D2E/DX2                !
 ! A77   A(23,26,42)           107.6452         estimate D2E/DX2                !
 ! D1    D(27,1,2,3)           -61.9257         estimate D2E/DX2                !
 ! D2    D(27,1,2,16)           74.0822         estimate D2E/DX2                !
 ! D3    D(28,1,2,3)            59.3148         estimate D2E/DX2                !
 ! D4    D(28,1,2,16)         -164.6772         estimate D2E/DX2                !
 ! D5    D(29,1,2,3)           179.1224         estimate D2E/DX2                !
 ! D6    D(29,1,2,16)          -44.8696         estimate D2E/DX2                !
 ! D7    D(1,2,3,4)           -158.4305         estimate D2E/DX2                !
 ! D8    D(1,2,3,30)            79.074          estimate D2E/DX2                !
 ! D9    D(1,2,3,31)           -37.9768         estimate D2E/DX2                !
 ! D10   D(16,2,3,4)            65.0637         estimate D2E/DX2                !
 ! D11   D(16,2,3,30)          -57.4319         estimate D2E/DX2                !
 ! D12   D(16,2,3,31)         -174.4827         estimate D2E/DX2                !
 ! D13   D(1,2,16,15)          130.083          estimate D2E/DX2                !
 ! D14   D(1,2,16,17)          -47.7569         estimate D2E/DX2                !
 ! D15   D(3,2,16,15)          -93.4051         estimate D2E/DX2                !
 ! D16   D(3,2,16,17)           88.755          estimate D2E/DX2                !
 ! D17   D(2,3,4,5)            165.4975         estimate D2E/DX2                !
 ! D18   D(2,3,4,8)            -13.954          estimate D2E/DX2                !
 ! D19   D(30,3,4,5)           -72.6102         estimate D2E/DX2                !
 ! D20   D(30,3,4,8)           107.9383         estimate D2E/DX2                !
 ! D21   D(31,3,4,5)            45.9731         estimate D2E/DX2                !
 ! D22   D(31,3,4,8)          -133.4784         estimate D2E/DX2                !
 ! D23   D(3,4,5,6)           -178.6295         estimate D2E/DX2                !
 ! D24   D(3,4,5,18)             1.6691         estimate D2E/DX2                !
 ! D25   D(8,4,5,6)              0.9284         estimate D2E/DX2                !
 ! D26   D(8,4,5,18)          -178.7729         estimate D2E/DX2                !
 ! D27   D(3,4,8,7)            179.1937         estimate D2E/DX2                !
 ! D28   D(3,4,8,9)             -1.0919         estimate D2E/DX2                !
 ! D29   D(5,4,8,7)             -0.342          estimate D2E/DX2                !
 ! D30   D(5,4,8,9)            179.3723         estimate D2E/DX2                !
 ! D31   D(4,5,6,7)             -1.1351         estimate D2E/DX2                !
 ! D32   D(18,5,6,7)           178.5973         estimate D2E/DX2                !
 ! D33   D(4,5,18,19)           11.4198         estimate D2E/DX2                !
 ! D34   D(4,5,18,22)         -168.0663         estimate D2E/DX2                !
 ! D35   D(6,5,18,19)         -168.2588         estimate D2E/DX2                !
 ! D36   D(6,5,18,22)           12.2552         estimate D2E/DX2                !
 ! D37   D(5,6,7,8)              0.9238         estimate D2E/DX2                !
 ! D38   D(5,6,7,32)          -177.5737         estimate D2E/DX2                !
 ! D39   D(6,7,8,4)             -0.368          estimate D2E/DX2                !
 ! D40   D(6,7,8,9)            179.8911         estimate D2E/DX2                !
 ! D41   D(32,7,8,4)           178.1107         estimate D2E/DX2                !
 ! D42   D(32,7,8,9)            -1.6303         estimate D2E/DX2                !
 ! D43   D(4,8,9,10)           168.1657         estimate D2E/DX2                !
 ! D44   D(4,8,9,15)           -12.6615         estimate D2E/DX2                !
 ! D45   D(7,8,9,10)           -12.1677         estimate D2E/DX2                !
 ! D46   D(7,8,9,15)           167.005          estimate D2E/DX2                !
 ! D47   D(8,9,10,11)          179.0136         estimate D2E/DX2                !
 ! D48   D(8,9,10,33)           -2.7178         estimate D2E/DX2                !
 ! D49   D(15,9,10,11)          -0.2077         estimate D2E/DX2                !
 ! D50   D(15,9,10,33)         178.0609         estimate D2E/DX2                !
 ! D51   D(8,9,15,13)          179.6702         estimate D2E/DX2                !
 ! D52   D(8,9,15,16)           -0.5214         estimate D2E/DX2                !
 ! D53   D(10,9,15,13)          -1.1515         estimate D2E/DX2                !
 ! D54   D(10,9,15,16)         178.6569         estimate D2E/DX2                !
 ! D55   D(9,10,11,12)           0.9242         estimate D2E/DX2                !
 ! D56   D(9,10,11,34)         179.7918         estimate D2E/DX2                !
 ! D57   D(33,10,11,12)       -177.463          estimate D2E/DX2                !
 ! D58   D(33,10,11,34)          1.4046         estimate D2E/DX2                !
 ! D59   D(10,11,12,13)         -0.2571         estimate D2E/DX2                !
 ! D60   D(10,11,12,35)        178.5878         estimate D2E/DX2                !
 ! D61   D(34,11,12,13)       -179.1261         estimate D2E/DX2                !
 ! D62   D(34,11,12,35)         -0.2811         estimate D2E/DX2                !
 ! D63   D(11,12,13,14)        175.7426         estimate D2E/DX2                !
 ! D64   D(11,12,13,15)         -1.1107         estimate D2E/DX2                !
 ! D65   D(35,12,13,14)         -3.0881         estimate D2E/DX2                !
 ! D66   D(35,12,13,15)       -179.9414         estimate D2E/DX2                !
 ! D67   D(12,13,15,9)           1.831          estimate D2E/DX2                !
 ! D68   D(12,13,15,16)       -177.9864         estimate D2E/DX2                !
 ! D69   D(14,13,15,9)        -174.7695         estimate D2E/DX2                !
 ! D70   D(14,13,15,16)          5.4131         estimate D2E/DX2                !
 ! D71   D(9,15,16,2)           52.3002         estimate D2E/DX2                !
 ! D72   D(9,15,16,17)        -129.8199         estimate D2E/DX2                !
 ! D73   D(13,15,16,2)        -127.8869         estimate D2E/DX2                !
 ! D74   D(13,15,16,17)         49.9931         estimate D2E/DX2                !
 ! D75   D(5,18,19,20)         179.0325         estimate D2E/DX2                !
 ! D76   D(22,18,19,20)         -1.4518         estimate D2E/DX2                !
 ! D77   D(5,18,22,21)        -179.2852         estimate D2E/DX2                !
 ! D78   D(19,18,22,21)          1.1823         estimate D2E/DX2                !
 ! D79   D(18,19,20,21)          1.1022         estimate D2E/DX2                !
 ! D80   D(19,20,21,22)         -0.4643         estimate D2E/DX2                !
 ! D81   D(19,20,21,23)        177.4225         estimate D2E/DX2                !
 ! D82   D(20,21,22,18)         -0.3839         estimate D2E/DX2                !
 ! D83   D(23,21,22,18)       -177.9327         estimate D2E/DX2                !
 ! D84   D(20,21,23,24)        165.327          estimate D2E/DX2                !
 ! D85   D(20,21,23,25)        -71.1917         estimate D2E/DX2                !
 ! D86   D(20,21,23,26)         46.8401         estimate D2E/DX2                !
 ! D87   D(22,21,23,24)        -17.2074         estimate D2E/DX2                !
 ! D88   D(22,21,23,25)        106.2739         estimate D2E/DX2                !
 ! D89   D(22,21,23,26)       -135.6944         estimate D2E/DX2                !
 ! D90   D(21,23,24,36)       -178.5735         estimate D2E/DX2                !
 ! D91   D(21,23,24,37)         60.6622         estimate D2E/DX2                !
 ! D92   D(21,23,24,38)        -60.4794         estimate D2E/DX2                !
 ! D93   D(25,23,24,36)         58.1727         estimate D2E/DX2                !
 ! D94   D(25,23,24,37)        -62.5916         estimate D2E/DX2                !
 ! D95   D(25,23,24,38)        176.2668         estimate D2E/DX2                !
 ! D96   D(26,23,24,36)        -60.5442         estimate D2E/DX2                !
 ! D97   D(26,23,24,37)        178.6914         estimate D2E/DX2                !
 ! D98   D(26,23,24,38)         57.5498         estimate D2E/DX2                !
 ! D99   D(21,23,25,39)        -62.5773         estimate D2E/DX2                !
 ! D100  D(21,23,25,40)        176.2221         estimate D2E/DX2                !
 ! D101  D(21,23,25,41)         58.3174         estimate D2E/DX2                !
 ! D102  D(24,23,25,39)         61.1137         estimate D2E/DX2                !
 ! D103  D(24,23,25,40)        -60.0869         estimate D2E/DX2                !
 ! D104  D(24,23,25,41)       -177.9917         estimate D2E/DX2                !
 ! D105  D(26,23,25,39)        179.8439         estimate D2E/DX2                !
 ! D106  D(26,23,25,40)         58.6433         estimate D2E/DX2                !
 ! D107  D(26,23,25,41)        -59.2615         estimate D2E/DX2                !
 ! D108  D(21,23,26,42)        171.7753         estimate D2E/DX2                !
 ! D109  D(24,23,26,42)         51.4658         estimate D2E/DX2                !
 ! D110  D(25,23,26,42)        -68.8325         estimate D2E/DX2                !
 --------------------------------------------------------------------------------
 Trust Radius=1.00D-01 FncErr=1.00D-07 GrdErr=1.00D-06 EigMax=2.50D+02 EigMin=1.00D-04
 Number of steps in this run=    252 maximum allowed number of steps=    252.
 GradGradGradGradGradGradGradGradGradGradGradGradGradGradGradGradGradGrad

 Leave Link  103 at Tue Mar  1 15:28:00 2022, MaxMem=   104857600 cpu:               0.0 elap:               0.0
 (Enter /dades/curu/g16A03_MST/g16/l202.exe)
                          Input orientation:                          
 ---------------------------------------------------------------------
 Center     Atomic      Atomic             Coordinates (Angstroms)
 Number     Number       Type             X           Y           Z
 ---------------------------------------------------------------------
      1          6           0       -2.684000   -2.442000   -2.001000
      2          7           0       -2.488000   -1.196000   -1.281000
      3          6           0       -1.129000   -0.736000   -1.213000
      4          6           0       -0.872000    0.208000   -0.096000
      5          6           0        0.386000    0.579000    0.373000
      6          7           0        0.283000    1.435000    1.424000
      7          6           0       -1.003000    1.614000    1.591000
      8          7           0       -1.785000    0.893000    0.702000
      9          6           0       -3.222000    0.922000    0.688000
     10          6           0       -3.897000    1.514000    1.782000
     11          6           0       -5.290000    1.596000    1.827000
     12          6           0       -6.047000    1.072000    0.790000
     13          6           0       -5.412000    0.469000   -0.298000
     14         17           0       -6.458000   -0.250000   -1.475000
     15          6           0       -4.003000    0.407000   -0.366000
     16          6           0       -3.405000   -0.203000   -1.564000
     17          8           0       -3.732000    0.123000   -2.697000
     18          6           0        1.715000    0.176000   -0.118000
     19          7           0        1.929000   -0.476000   -1.277000
     20          8           0        3.318000   -0.611000   -1.312000
     21          6           0        3.798000   -0.049000   -0.159000
     22          7           0        2.849000    0.442000    0.607000
     23          6           0        5.277000   -0.121000    0.071000
     24          6           0        5.713000    0.841000    1.185000
     25          6           0        5.699000   -1.559000    0.396000
     26          8           0        5.925000    0.275000   -1.147000
     27          1           0       -2.376000   -2.318000   -3.045000
     28          1           0       -2.100000   -3.237000   -1.524000
     29          1           0       -3.745000   -2.709000   -1.980000
     30          1           0       -0.872000   -0.258000   -2.169000
     31          1           0       -0.492000   -1.621000   -1.084000
     32          1           0       -1.407000    2.285000    2.340000
     33          1           0       -3.376000    1.909000    2.652000
     34          1           0       -5.785000    2.056000    2.687000
     35          1           0       -7.132000    1.119000    0.843000
     36          1           0        6.798000    0.804000    1.333000
     37          1           0        5.232000    0.606000    2.145000
     38          1           0        5.470000    1.882000    0.923000
     39          1           0        5.234000   -1.917000    1.324000
     40          1           0        6.787000   -1.639000    0.501000
     41          1           0        5.418000   -2.240000   -0.418000
     42          1           0        6.876000    0.356000   -0.962000
 ---------------------------------------------------------------------
                    Distance matrix (angstroms):
                    1          2          3          4          5
     1  C    0.000000
     2  N    1.452354   0.000000
     3  C    2.439140   1.436351   0.000000
     4  C    3.732944   2.446814   1.484882   0.000000
     5  C    4.918050   3.761146   2.557312   1.392898   0.000000
     6  N    5.963627   4.681627   3.696046   2.269351   1.359392
     7  C    5.672686   4.283656   3.660709   2.199992   2.117562
     8  N    4.385959   2.964864   2.598308   1.392695   2.218125
     9  C    4.340122   2.983562   3.277715   2.578168   3.637930
    10  C    5.606460   4.325662   4.657719   3.792512   4.604736
    11  C    6.144124   5.030520   5.656301   5.014299   5.946880
    12  C    5.607820   4.700994   5.609599   5.320913   6.465325
    13  C    4.337754   3.505466   4.542394   4.551980   5.837735
    14  Cl   4.395977   4.085762   5.357526   5.771898   7.137414
    15  C    3.539744   2.387898   3.206826   3.148914   4.454102
    16  C    2.392474   1.380951   2.363782   2.956355   4.328415
    17  O    2.856912   2.300511   3.117009   3.866785   5.156623
    18  C    5.454431   4.571669   3.181054   2.587291   1.473001
    19  N    5.066468   4.475299   3.069700   3.115801   2.493266
    20  O    6.312787   5.835480   4.449858   4.439090   3.584962
    21  C    7.150926   6.487549   5.085097   4.677491   3.509865
    22  N    6.762633   5.893315   4.530405   3.794049   2.477881
    23  C    8.547382   7.954794   6.562295   6.160059   4.950059
    24  C    9.562337   8.802666   7.419589   6.738240   5.394897
    25  C    8.763560   8.364871   7.063129   6.822199   5.727088
    26  O    9.067871   8.541684   7.126387   6.878103   5.751812
    27  H    1.095525   2.093591   2.722858   4.164048   5.263457
    28  H    1.095724   2.091716   2.700845   3.926219   4.933626
    29  H    1.094281   2.087539   3.365186   4.506936   5.780373
    30  H    2.842785   2.068778   1.099304   2.124732   2.957177
    31  H    2.513920   2.050232   1.098014   2.113240   2.780959
    32  H    6.543664   5.137856   4.671995   3.245651   3.161388
    33  H    6.407845   5.089013   5.194541   4.088389   4.595148
    34  H    7.198996   6.098421   6.684579   5.941192   6.754063
    35  H    6.368183   5.606901   6.610913   6.395252   7.552008
    36  H   10.562215   9.852045   8.467056   7.824714   6.487370
    37  H    9.441540   8.636150   7.317066   6.514545   5.159887
    38  H    9.681656   8.812574   7.413718   6.637891   5.277060
    39  H    8.603835   8.181390   6.951180   6.619310   5.535117
    40  H    9.828767   9.455020   8.149617   7.901145   6.775597
    41  H    8.257669   8.021193   6.764411   6.757254   5.821810
    42  H   10.015085   9.497103   8.083037   7.797651   6.629635
                    6          7          8          9         10
     6  N    0.000000
     7  C    1.309094   0.000000
     8  N    2.256473   1.386249   0.000000
     9  C    3.617995   2.493639   1.437361   0.000000
    10  C    4.196046   2.902019   2.452057   1.415247   0.000000
    11  C    5.589871   4.293529   3.747647   2.455244   1.396137
    12  C    6.372019   5.135884   4.266665   2.830818   2.408719
    13  C    6.027559   4.931392   3.786146   2.444075   2.777346
    14  Cl   7.528911   6.529309   5.280408   4.064954   4.503162
    15  C    4.757171   3.779775   2.509252   1.409291   2.418799
    16  C    5.021208   4.361779   2.993388   2.524008   3.792871
    17  O    5.901204   5.296930   3.992106   3.515214   4.692925
    18  C    2.452238   3.517961   3.665582   5.057679   6.074108
    19  N    3.695489   4.603276   4.425426   5.687568   6.874580
    20  O    4.569796   5.661190   5.688481   7.008687   8.132938
    21  C    4.130783   5.373795   5.727004   7.137272   8.088478
    22  N    2.870173   4.144845   4.656864   6.090485   6.930969
    23  C    5.402942   6.690219   7.162276   8.584960   9.474335
    24  C    5.467619   6.772520   7.513721   8.949178   9.652017
    25  C    6.273267   7.510843   7.881383   9.264171  10.170916
    26  O    6.307758   7.568801   7.952662   9.351655  10.324042
    27  H    6.413053   6.232034   4.969890   5.014838   6.348039
    28  H    6.016392   5.868461   4.702255   4.842428   6.060598
    29  H    6.707066   6.241709   4.899911   4.536068   5.657692
    30  H    4.136414   4.202279   3.225060   3.882956   5.282141
    31  H    4.028626   4.228708   3.343926   4.130343   5.443915
    32  H    2.101822   1.083724   2.182565   2.807329   2.665690
    33  H    3.888565   2.616080   2.714044   2.203448   1.088286
    34  H    6.229080   4.925861   4.614412   3.442517   2.162714
    35  H    7.444437   6.194285   5.353631   3.918027   3.391603
    36  H    6.546118   7.847182   8.606624  10.041432  10.727941
    37  H    5.069485   6.340205   7.169582   8.584452   9.181224
    38  H    5.230275   6.512893   7.325434   8.748011   9.413501
    39  H    5.979825   7.172128   7.586128   8.942503   9.765075
    40  H    7.252822   8.512004   8.940392  10.333139  11.212949
    41  H    6.577751   7.753621   7.934311   9.266665  10.281135
    42  H    7.094004   8.377292   8.835733  10.247559  11.177121
                   11         12         13         14         15
    11  C    0.000000
    12  C    1.386721   0.000000
    13  C    2.408451   1.396631   0.000000
    14  Cl   3.959185   2.654587   1.731013   0.000000
    15  C    2.807016   2.440594   1.412002   2.772824   0.000000
    16  C    4.276506   3.761264   2.466250   3.054659   1.471363
    17  O    5.006363   4.291736   2.949121   3.010563   2.363823
    18  C    7.407392   7.866125   7.135291   8.295834   5.728035
    19  N    8.126621   8.383637   7.466040   8.392380   6.066155
    20  O    9.424534   9.744440   8.854801   9.784021   7.451730
    21  C    9.446797   9.953957   9.225603  10.342040   7.817057
    22  N    8.310441   8.920157   8.310468   9.562104   6.920828
    23  C   10.848646  11.409346  10.711628  11.837102   9.305276
    24  C   11.047543  11.768899  11.229572  12.505963   9.848584
    25  C   11.522149  12.043501  11.315862  12.369591   9.928474
    26  O   11.677583  12.153846  11.370400  12.398464   9.959547
    27  H    6.895446   6.298854   4.952845   4.837794   4.153287
    28  H    6.690530   6.284973   5.119263   5.283629   4.270961
    29  H    5.950907   5.221883   3.963294   3.696224   3.518667
    30  H    6.238915   6.107799   4.963947   5.628952   3.673717
    31  H    6.468679   6.451523   5.402990   6.133977   4.117697
    32  H    3.976881   5.040185   5.128053   6.818581   4.193869
    33  H    2.107603   3.361823   3.862822   5.584992   3.428915
    34  H    1.093721   2.153023   3.401165   4.805498   3.900709
    35  H    2.142137   1.087310   2.163973   2.775169   3.429179
    36  H   12.123986  12.859265  12.323006  13.591075  10.941015
    37  H   10.573254  11.369654  10.921619  12.267568   9.572353
    38  H   10.801695  11.546215  11.041075  12.352045   9.673411
    39  H   11.106248  11.682476  11.030013  12.137387   9.673637
    40  H   12.572885  13.120389  12.405550  13.463429  11.016438
    41  H   11.593799  11.994784  11.164317  12.087875   9.785937
    42  H   12.543033  13.060861  12.306446  13.357618  10.895433
                   16         17         18         19         20
    16  C    0.000000
    17  O    1.223476   0.000000
    18  C    5.333756   6.026928   0.000000
    19  N    5.348687   5.867037   1.346915   0.000000
    20  O    6.740081   7.222152   2.148165   1.395984   0.000000
    21  C    7.340364   7.948077   2.095518   2.219327   1.369545
    22  N    6.651450   7.370735   1.371983   2.288794   2.238600
    23  C    8.834991   9.427801   3.579354   3.626601   2.447544
    24  C    9.580442  10.236868   4.257234   4.702615   3.752244
    25  C    9.410800  10.066754   4.375692   4.264354   3.079794
    26  O    9.351539   9.781782   4.335060   4.068036   2.758382
    27  H    2.779465   2.813951   5.614592   5.005179   6.191831
    28  H    3.302996   3.915221   5.308449   4.890498   6.024578
    29  H    2.562946   2.921384   6.449951   6.137978   7.398229
    30  H    2.604830   2.933180   3.329794   2.947675   4.291289
    31  H    3.275163   4.017575   3.005531   2.685054   3.948187
    32  H    5.042159   5.954094   4.498503   5.642225   6.636983
    33  H    4.715511   5.650516   6.049336   7.019137   8.177612
    34  H    5.370147   6.077726   8.225109   9.034939  10.294149
    35  H    4.629456   5.008355   8.948865   9.441406  10.809229
    36  H   10.654007  11.295378   5.323220   5.670773   4.594415
    37  H    9.434454  10.199586   4.204207   4.877563   4.134650
    38  H    9.449763  10.043669   4.253721   4.789451   3.980123
    39  H    9.268800  10.035895   4.340896   4.445752   3.510725
    40  H   10.497770  11.134685   5.422414   5.302265   4.046939
    41  H    9.127322   9.721117   4.431621   4.002836   2.804082
    42  H   10.313770  10.751473   5.232653   5.026356   3.703641
                   21         22         23         24         25
    21  C    0.000000
    22  N    1.314701   0.000000
    23  C    1.498508   2.549402   0.000000
    24  C    2.503130   2.948861   1.535101   0.000000
    25  C    2.490367   3.488699   1.533477   2.526404   0.000000
    26  O    2.367541   3.544881   1.435355   2.409050   2.407381
    27  H    7.183010   6.946606   8.550127   9.659405   8.810345
    28  H    6.842001   6.524477   8.165391   9.220181   8.205272
    29  H    8.202956   7.752561   9.607332  10.586477   9.805968
    30  H    5.088485   4.694893   6.545729   7.471234   7.172856
    31  H    4.661642   4.275246   6.071687   7.050662   6.365746
    32  H    6.227727   4.951108   7.457416   7.356192   8.309676
    33  H    7.949954   6.714517   9.255100   9.268367   9.973574
    34  H   10.215901   9.026481  11.573704  11.659169  12.255577
    35  H   11.037804  10.006717  12.494673  12.852559  13.115108
    36  H    3.457408   4.031466   2.182134   1.095672   2.769393
    37  H    2.791737   2.840956   2.198188   1.099175   2.822112
    38  H    2.773999   3.007174   2.185214   1.100624   3.488646
    39  H    2.784027   3.430335   2.190314   2.802735   1.097986
    40  H    3.449322   4.455294   2.183878   2.787783   1.095979
    41  H    2.737145   3.852728   2.179257   3.485570   1.097870
    42  H    3.206699   4.322717   1.962503   2.489458   2.626160
                   26         27         28         29         30
    26  O    0.000000
    27  H    8.901273   0.000000
    28  H    8.767947   1.798382   0.000000
    29  H   10.154164   1.777995   1.786825   0.000000
    30  H    6.894040   2.696849   3.286100   3.781171   0.000000
    31  H    6.691537   2.807274   2.321792   3.545218   1.783086
    32  H    8.364060   7.150160   6.775192   7.004904   5.204244
    33  H   10.178947   7.164031   6.748961   6.551146   5.848756
    34  H   12.449724   7.975524   7.702441   6.974791   7.285115
    35  H   13.234715   7.039109   7.063883   5.839065   7.082081
    36  H    2.681859  10.633722  10.181676  11.596206   8.498279
    37  H    3.380396   9.662688   9.054746  10.420719   7.524354
    38  H    2.659770   9.743959   9.460279  10.696771   7.372993
    39  H    3.374639   8.784137   7.977535   9.600319   7.227487
    40  H    2.668772   9.848641   9.253810  10.873053   8.227779
    41  H    2.667155   8.225184   7.664044   9.307007   6.823373
    42  H    0.972207   9.853358   9.684734  11.101180   7.865453
                   31         32         33         34         35
    31  H    0.000000
    32  H    5.274262   0.000000
    33  H    5.893730   2.028714   0.000000
    34  H    7.467035   4.397696   2.413735   0.000000
    35  H    7.437105   6.031268   4.243126   2.468342   0.000000
    36  H    8.053981   8.398180  10.318482  12.717418  13.942174
    37  H    6.939031   6.850795   8.720810  11.125221  12.442945
    38  H    7.200313   7.033024   9.013428  11.393726  12.625331
    39  H    6.218774   7.924137   9.514934  11.792407  12.742316
    40  H    7.449590   9.269376  10.977325  13.284834  14.193734
    41  H    5.979533   8.640765  10.196741  12.393702  13.052797
    42  H    7.629603   9.123176  10.980724  13.285561  14.144407
                   36         37         38         39         40
    36  H    0.000000
    37  H    1.775079   0.000000
    38  H    1.758911   1.782724   0.000000
    39  H    3.138474   2.653220   3.827388   0.000000
    40  H    2.580813   3.187599   3.782858   1.779444   0.000000
    41  H    3.773107   3.834486   4.334959   1.781221   1.754971
    42  H    2.339618   3.524015   2.803344   3.617802   2.475543
                   41         42
    41  H    0.000000
    42  H    3.026701   0.000000
 Stoichiometry    C17H16ClN5O3
 Framework group  C1[X(C17H16ClN5O3)]
 Deg. of freedom   120
 Full point group                 C1      NOp   1
 Largest Abelian subgroup         C1      NOp   1
 Largest concise Abelian subgroup C1      NOp   1
                         Standard orientation:                         
 ---------------------------------------------------------------------
 Center     Atomic      Atomic             Coordinates (Angstroms)
 Number     Number       Type             X           Y           Z
 ---------------------------------------------------------------------
      1          6           0       -1.984370   -2.922405    1.107424
      2          7           0       -1.803140   -1.603284    0.527417
      3          6           0       -0.460886   -1.292777    0.121162
      4          6           0       -0.189191    0.163254    0.016135
      5          6           0        1.073914    0.743432   -0.073994
      6          7           0        0.986571    2.098975   -0.127119
      7          6           0       -0.296335    2.357734   -0.096748
      8          7           0       -1.090163    1.225063   -0.004125
      9          6           0       -2.526369    1.251181    0.047198
     10          6           0       -3.172726    2.491378    0.264125
     11          6           0       -4.564330    2.595856    0.305632
     12          6           0       -5.347429    1.461931    0.150826
     13          6           0       -4.740310    0.220526   -0.051408
     14         17           0       -5.810889   -1.138145   -0.116826
     15          6           0       -3.334543    0.109341   -0.123565
     16          6           0       -2.769113   -1.223912   -0.383626
     17          8           0       -3.159600   -1.932779   -1.301189
     18          6           0        2.393460    0.090471   -0.120580
     19          7           0        2.578940   -1.231273   -0.301608
     20          8           0        3.969018   -1.359354   -0.294478
     21          6           0        4.479456   -0.105872   -0.084981
     22          7           0        3.548448    0.814842    0.033128
     23          6           0        5.969075    0.014879    0.024461
     24          6           0        6.418635    1.476770   -0.107095
     25          6           0        6.459721   -0.589886    1.345476
     26          8           0        6.545335   -0.733867   -1.056070
     27          1           0       -1.729252   -3.689493    0.368055
     28          1           0       -1.349472   -3.023288    1.994744
     29          1           0       -3.032412   -3.050370    1.394974
     30          1           0       -0.266094   -1.777043   -0.846315
     31          1           0        0.214456   -1.727156    0.870070
     32          1           0       -0.690908    3.364808   -0.164364
     33          1           0       -2.627937    3.417619    0.436312
     34          1           0       -5.036672    3.567075    0.478410
     35          1           0       -6.429882    1.547615    0.207364
     36          1           0        7.509879    1.558192   -0.051832
     37          1           0        5.991200    2.112591    0.681079
     38          1           0        6.124611    1.892279   -1.082942
     39          1           0        6.051464   -0.053451    2.212158
     40          1           0        7.553629   -0.568676    1.409371
     41          1           0        6.167914   -1.645505    1.421870
     42          1           0        7.500027   -0.550397   -1.065524
 ---------------------------------------------------------------------
 Rotational constants (GHZ):           0.5366072           0.0811787           0.0728092
 Leave Link  202 at Tue Mar  1 15:28:00 2022, MaxMem=   104857600 cpu:               0.0 elap:               0.0
 (Enter /dades/curu/g16A03_MST/g16/l301.exe)
 Standard basis: 6-31G(d) (6D, 7F)
 Ernie: Thresh=  0.10000D-02 Tol=  0.10000D-05 Strict=F.
 There are   426 symmetry adapted cartesian basis functions of A   symmetry.
 There are   426 symmetry adapted basis functions of A   symmetry.
   426 basis functions,   816 primitive gaussians,   426 cartesian basis functions
    97 alpha electrons       97 beta electrons
       nuclear repulsion energy      2407.0540759083 Hartrees.
 IExCor=  402 DFT=T Ex+Corr=B3LYP ExCW=0 ScaHFX=  0.200000
 ScaDFX=  0.800000  0.720000  1.000000  0.810000 ScalE2=  1.000000  1.000000
 IRadAn=      5 IRanWt=     -1 IRanGd=            0 ICorTp=0 IEmpDi=  4
 NAtoms=   42 NActive=   42 NUniq=   42 SFac= 1.00D+00 NAtFMM=   60 NAOKFM=F Big=F
 Integral buffers will be    131072 words long.
 Raffenetti 2 integral format.
 Two-electron integral symmetry is turned on.
 Using the following non-standard input for PCM:
 MSTModel=DFT cav
 --- end of non-standard input.
 MST model for solvation energy: B3LYP parametrization.
 MST cavity parameters:
 ISph   IAn     Re0     Alpha   Atom Type   QCorr
 ------------------------------------------------
   1      6     1.50     1.25      CH3        F
   2      7     1.40     1.25      N          F
   3      6     1.50     1.25      CH2        F
   4      6     1.50     1.25      C          F
   5      6     1.50     1.25      C          F
   6      7     1.40     1.25      N          F
   7      6     1.50     1.25      CH         F
   8      7     1.40     1.25      N          F
   9      6     1.50     1.25      C          F
  10      6     1.50     1.25      CH         F
  11      6     1.50     1.25      CH         F
  12      6     1.50     1.25      CH         F
  13      6     1.50     1.25      C          F
  14     17     1.80     1.25      Cl         F
  15      6     1.50     1.25      C          F
  16      6     1.50     1.25      C          F
  17      8     1.40     1.25      O          F
  18      6     1.50     1.25      C          F
  19      7     1.40     1.25      N          F
  20      8     1.40     1.25      O          F
  21      6     1.50     1.25      C          F
  22      7     1.40     1.25      N          F
  23      6     1.50     1.25      C          F
  24      6     1.50     1.25      CH3        F
  25      6     1.50     1.25      CH3        F
  26      8     1.40     1.25      OH         F
  27      1     1.20     1.25      CH3        F
  28      1     1.20     1.25      CH3        F
  29      1     1.20     1.25      CH3        F
  30      1     1.20     1.25      CH2        F
  31      1     1.20     1.25      CH2        F
  32      1     1.20     1.25      CH         F
  33      1     1.20     1.25      CH         F
  34      1     1.20     1.25      CH         F
  35      1     1.20     1.25      CH         F
  36      1     1.20     1.25      CH3        F
  37      1     1.20     1.25      CH3        F
  38      1     1.20     1.25      CH3        F
  39      1     1.20     1.25      CH3        F
  40      1     1.20     1.25      CH3        F
  41      1     1.20     1.25      CH3        F
  42      1     0.90     1.25      OH         F
 ------------------------------------------------------------------------------
 Polarizable Continuum Model (PCM)
 =================================
 Model                : PCM.
 Atomic radii         : MST.
 Polarization charges : Total charges.
 Charge compensation  : None.
 Solution method      : On-the-fly selection.
 Cavity type          : Scaled VdW (van der Waals Surface) (Alpha=1.250).
 Cavity algorithm     : GePol (No added spheres)
                        Default sphere list used, NSphG=   42.
                        Lebedev-Laikov grids with approx.  5.0 points / Ang**2.
                        Smoothing algorithm: York/Karplus (Gamma=1.0000).
                        Polarization charges: spherical gaussians, with
                                              point-specific exponents (IZeta= 3).
                        Self-potential: point-specific (ISelfS= 7).
                        Self-field    : sphere-specific E.n sum rule (ISelfD= 2).
 1st derivatives      : Analytical E(r).r(x)/FMM algorithm (CHGder, D1EAlg=3).
                        Cavity 1st derivative terms included.
 Solvent              : Water, Eps=  78.355300 Eps(inf)=   1.777849
 ------------------------------------------------------------------------------
 GePol: Number of generator spheres                  =      42
 GePol: Total number of spheres                      =      42
 GePol: Number of exposed spheres                    =      42 (100.00%)
 GePol: Number of points                             =    3121
 GePol: Average weight of points                     =       0.13
 GePol: Minimum weight of points                     =   0.35D-11
 GePol: Maximum weight of points                     =    0.22001
 GePol: Number of points with low weight             =     188
 GePol: Fraction of low-weight points (<1% of avg)   =       6.02%
 GePol: Cavity surface area                          =    409.406 Ang**2
 GePol: Cavity volume                                =    406.083 Ang**3
 Surface areas from nonelectrostatic (unscaled) cavity and vdw tensions:
 Sphere =    1 Type =  CH3 Surf =        5.178 Tension =       -0.140
 Sphere =    2 Type =  N   Surf =        4.516 Tension =       -0.105
 Sphere =    3 Type =  CH2 Surf =        3.904 Tension =       -0.139
 Sphere =    4 Type =  C   Surf =        6.964 Tension =       -0.101
 Sphere =    5 Type =  C   Surf =        6.938 Tension =       -0.101
 Sphere =    6 Type =  N   Surf =       10.852 Tension =       -0.105
 Sphere =    7 Type =  CH  Surf =        8.589 Tension =       -0.140
 Sphere =    8 Type =  N   Surf =        4.698 Tension =       -0.105
 Sphere =    9 Type =  C   Surf =        6.949 Tension =       -0.101
 Sphere =   10 Type =  CH  Surf =        7.618 Tension =       -0.140
 Sphere =   11 Type =  CH  Surf =        7.757 Tension =       -0.140
 Sphere =   12 Type =  CH  Surf =        7.417 Tension =       -0.140
 Sphere =   13 Type =  C   Surf =        5.300 Tension =       -0.101
 Sphere =   14 Type =  Cl  Surf =       31.089 Tension =       -0.112
 Sphere =   15 Type =  C   Surf =        6.138 Tension =       -0.101
 Sphere =   16 Type =  C   Surf =        5.676 Tension =       -0.101
 Sphere =   17 Type =  O   Surf =       15.738 Tension =       -0.117
 Sphere =   18 Type =  C   Surf =        7.373 Tension =       -0.101
 Sphere =   19 Type =  N   Surf =       11.860 Tension =       -0.105
 Sphere =   20 Type =  O   Surf =       11.657 Tension =       -0.117
 Sphere =   21 Type =  C   Surf =        6.750 Tension =       -0.101
 Sphere =   22 Type =  N   Surf =       11.047 Tension =       -0.105
 Sphere =   23 Type =  C   Surf =        2.147 Tension =       -0.101
 Sphere =   24 Type =  CH3 Surf =        4.928 Tension =       -0.140
 Sphere =   25 Type =  CH3 Surf =        4.937 Tension =       -0.140
 Sphere =   26 Type =  OH  Surf =       14.053 Tension =       -0.156
 Sphere =   27 Type =  CH3 Surf =       10.181 Tension =       -0.140
 Sphere =   28 Type =  CH3 Surf =       10.003 Tension =       -0.140
 Sphere =   29 Type =  CH3 Surf =       10.093 Tension =       -0.140
 Sphere =   30 Type =  CH2 Surf =       10.072 Tension =       -0.139
 Sphere =   31 Type =  CH2 Surf =        9.657 Tension =       -0.139
 Sphere =   32 Type =  CH  Surf =        8.969 Tension =       -0.140
 Sphere =   33 Type =  CH  Surf =        8.828 Tension =       -0.140
 Sphere =   34 Type =  CH  Surf =       10.276 Tension =       -0.140
 Sphere =   35 Type =  CH  Surf =        9.956 Tension =       -0.140
 Sphere =   36 Type =  CH3 Surf =       10.126 Tension =       -0.140
 Sphere =   37 Type =  CH3 Surf =       10.187 Tension =       -0.140
 Sphere =   38 Type =  CH3 Surf =       10.164 Tension =       -0.140
 Sphere =   39 Type =  CH3 Surf =       10.177 Tension =       -0.140
 Sphere =   40 Type =  CH3 Surf =       10.135 Tension =       -0.140
 Sphere =   41 Type =  CH3 Surf =       10.136 Tension =       -0.140
 Sphere =   42 Type =  OH  Surf =        4.447 Tension =       -0.156
 PCM non-electrostatic energy =         0.0068985232 Hartrees.
 Nuclear repulsion after PCM non-electrostatic terms =     2407.0609744315 Hartrees.
 Leave Link  301 at Tue Mar  1 15:28:00 2022, MaxMem=   104857600 cpu:               0.1 elap:               0.1
 (Enter /dades/curu/g16A03_MST/g16/l302.exe)
 NPDir=0 NMtPBC=     1 NCelOv=     1 NCel=       1 NClECP=     1 NCelD=      1
         NCelK=      1 NCelE2=     1 NClLst=     1 CellRange=     0.0.
 One-electron integrals computed using PRISM.
 One-electron integral symmetry used in STVInt
 NBasis=   426 RedAO= T EigKep=  3.61D-04  NBF=   426
 NBsUse=   426 1.00D-06 EigRej= -1.00D+00 NBFU=   426
 Precomputing XC quadrature grid using
 IXCGrd= 4 IRadAn=           5 IRanWt=          -1 IRanGd=           0 AccXCQ= 0.00D+00.
 Generated NRdTot=       0 NPtTot=           0 NUsed=           0 NTot=          32
 NSgBfM=   417   417   417   417   417 MxSgAt=    42 MxSgA2=    42.
 Leave Link  302 at Tue Mar  1 15:28:02 2022, MaxMem=   104857600 cpu:               6.1 elap:               1.7
 (Enter /dades/curu/g16A03_MST/g16/l303.exe)
 DipDrv:  MaxL=1.
 Leave Link  303 at Tue Mar  1 15:28:02 2022, MaxMem=   104857600 cpu:               0.1 elap:               0.1
 (Enter /dades/curu/g16A03_MST/g16/l401.exe)
 ExpMin= 1.43D-01 ExpMax= 2.52D+04 ExpMxC= 3.78D+03 IAcc=3 IRadAn=         5 AccDes= 0.00D+00
 Harris functional with IExCor=  402 and IRadAn=       5 diagonalized for initial guess.
 HarFok:  IExCor=  402 AccDes= 0.00D+00 IRadAn=         5 IDoV= 1 UseB2=F ITyADJ=14
 ICtDFT=  3500011 ScaDFX=  1.000000  1.000000  1.000000  1.000000
 FoFCou: FMM=F IPFlag=           0 FMFlag=      100000 FMFlg1=           0
         NFxFlg=           0 DoJE=T BraDBF=F KetDBF=T FulRan=T
         wScrn=  0.000000 ICntrl=       500 IOpCl=  0 I1Cent=   200000004 NGrid=           0
         NMat0=    1 NMatS0=      1 NMatT0=    0 NMatD0=    1 NMtDS0=    0 NMtDT0=    0
 Petite list used in FoFCou.
 Harris En= -1616.83805951081    
 JPrj=0 DoOrth=F DoCkMO=F.
 Leave Link  401 at Tue Mar  1 15:28:13 2022, MaxMem=   104857600 cpu:              45.3 elap:              11.5
 (Enter /dades/curu/g16A03_MST/g16/l502.exe)
 Integral symmetry usage will be decided dynamically.
 Closed shell SCF:
 Using DIIS extrapolation, IDIIS=  1040.
 NGot=   104857600 LenX=   104487499 LenY=   104305582
 Requested convergence on RMS density matrix=1.00D-08 within2000 cycles.
 Requested convergence on MAX density matrix=1.00D-06.
 Requested convergence on             energy=1.00D-06.
 No special actions if energy rises.

 Cycle   1  Pass 1  IDiag  1:
 FoFJK:  IHMeth= 1 ICntrl=       0 DoSepK=F KAlg= 0 I1Cent=           0 FoldK=F
 IRaf= 660000000 NMat=       1 IRICut=       1 DoRegI=T DoRafI=F ISym2E= 0 IDoP0=0 IntGTp=1.
 FoFCou: FMM=F IPFlag=           0 FMFlag=      100000 FMFlg1=           0
         NFxFlg=           0 DoJE=F BraDBF=F KetDBF=F FulRan=T
         wScrn=  0.000000 ICntrl=         0 IOpCl=  0 I1Cent=           0 NGrid=           0
         NMat0=    1 NMatS0=      1 NMatT0=    0 NMatD0=    1 NMtDS0=    0 NMtDT0=    0
 Symmetry not used in FoFCou.
 Inv3:  Mode=1 IEnd=    29221923.
 Iteration    1 A*A^-1 deviation from unit magnitude is 8.88D-15 for   3112.
 Iteration    1 A*A^-1 deviation from orthogonality  is 3.31D-15 for   3109   2978.
 Iteration    1 A^-1*A deviation from unit magnitude is 8.44D-15 for   3112.
 Iteration    1 A^-1*A deviation from orthogonality  is 3.49D-15 for   3120   2988.
 E= -1616.48800950165    
 DIIS: error= 2.78D-02 at cycle   1 NSaved=   1.
 NSaved= 1 IEnMin= 1 EnMin= -1616.48800950165     IErMin= 1 ErrMin= 2.78D-02
 ErrMax= 2.78D-02  0.00D+00 EMaxC= 1.00D-01 BMatC= 5.73D-01 BMatP= 5.73D-01
 IDIUse=3 WtCom= 7.22D-01 WtEn= 2.78D-01
 Coeff-Com:  0.100D+01
 Coeff-En:   0.100D+01
 Coeff:      0.100D+01
 Gap=     0.201 Goal=   None    Shift=    0.000
 GapD=    0.201 DampG=1.000 DampE=0.500 DampFc=0.5000 IDamp=-1.
 Damping current iteration by 5.00D-01
 RMSDP=4.06D-03 MaxDP=1.67D-01              OVMax= 2.58D-01

 Cycle   2  Pass 1  IDiag  1:
 E= -1616.68087617870     Delta-E=       -0.192866677055 Rises=F Damp=T
 DIIS: error= 8.84D-03 at cycle   2 NSaved=   2.
 NSaved= 2 IEnMin= 2 EnMin= -1616.68087617870     IErMin= 2 ErrMin= 8.84D-03
 ErrMax= 8.84D-03  0.00D+00 EMaxC= 1.00D-01 BMatC= 6.66D-02 BMatP= 5.73D-01
 IDIUse=3 WtCom= 9.12D-01 WtEn= 8.84D-02
 Coeff-Com:  0.151D+00 0.849D+00
 Coeff-En:   0.243D+00 0.757D+00
 Coeff:      0.159D+00 0.841D+00
 Gap=     0.207 Goal=   None    Shift=    0.000
 RMSDP=1.17D-03 MaxDP=6.63D-02 DE=-1.93D-01 OVMax= 1.89D-01

 Cycle   3  Pass 1  IDiag  1:
 E= -1616.96003828679     Delta-E=       -0.279162108084 Rises=F Damp=F
 DIIS: error= 9.31D-03 at cycle   3 NSaved=   3.
 NSaved= 3 IEnMin= 3 EnMin= -1616.96003828679     IErMin= 2 ErrMin= 8.84D-03
 ErrMax= 9.31D-03  0.00D+00 EMaxC= 1.00D-01 BMatC= 5.91D-02 BMatP= 6.66D-02
 IDIUse=3 WtCom= 9.07D-01 WtEn= 9.31D-02
 Coeff-Com:  0.203D-01 0.480D+00 0.500D+00
 Coeff-En:   0.000D+00 0.000D+00 0.100D+01
 Coeff:      0.184D-01 0.435D+00 0.546D+00
 Gap=     0.170 Goal=   None    Shift=    0.000
 RMSDP=7.83D-04 MaxDP=4.49D-02 DE=-2.79D-01 OVMax= 7.59D-02

 Cycle   4  Pass 1  IDiag  1:
 E= -1616.99949540854     Delta-E=       -0.039457121749 Rises=F Damp=F
 DIIS: error= 4.52D-03 at cycle   4 NSaved=   4.
 NSaved= 4 IEnMin= 4 EnMin= -1616.99949540854     IErMin= 4 ErrMin= 4.52D-03
 ErrMax= 4.52D-03  0.00D+00 EMaxC= 1.00D-01 BMatC= 1.54D-02 BMatP= 5.91D-02
 IDIUse=3 WtCom= 9.55D-01 WtEn= 4.52D-02
 Coeff-Com: -0.392D-02 0.954D-01 0.349D+00 0.560D+00
 Coeff-En:   0.000D+00 0.000D+00 0.242D+00 0.758D+00
 Coeff:     -0.374D-02 0.911D-01 0.344D+00 0.569D+00
 Gap=     0.161 Goal=   None    Shift=    0.000
 RMSDP=3.06D-04 MaxDP=1.93D-02 DE=-3.95D-02 OVMax= 2.24D-02

 Cycle   5  Pass 1  IDiag  1:
 E= -1617.01238308878     Delta-E=       -0.012887680243 Rises=F Damp=F
 DIIS: error= 6.58D-04 at cycle   5 NSaved=   5.
 NSaved= 5 IEnMin= 5 EnMin= -1617.01238308878     IErMin= 5 ErrMin= 6.58D-04
 ErrMax= 6.58D-04  0.00D+00 EMaxC= 1.00D-01 BMatC= 6.84D-04 BMatP= 1.54D-02
 IDIUse=3 WtCom= 9.93D-01 WtEn= 6.58D-03
 Coeff-Com: -0.238D-02 0.163D-01 0.147D+00 0.304D+00 0.535D+00
 Coeff-En:   0.000D+00 0.000D+00 0.000D+00 0.000D+00 0.100D+01
 Coeff:     -0.237D-02 0.162D-01 0.146D+00 0.302D+00 0.538D+00
 Gap=     0.162 Goal=   None    Shift=    0.000
 RMSDP=6.95D-05 MaxDP=3.82D-03 DE=-1.29D-02 OVMax= 4.97D-03

 Cycle   6  Pass 1  IDiag  1:
 E= -1617.01290365483     Delta-E=       -0.000520566045 Rises=F Damp=F
 DIIS: error= 2.06D-04 at cycle   6 NSaved=   6.
 NSaved= 6 IEnMin= 6 EnMin= -1617.01290365483     IErMin= 6 ErrMin= 2.06D-04
 ErrMax= 2.06D-04  0.00D+00 EMaxC= 1.00D-01 BMatC= 7.31D-05 BMatP= 6.84D-04
 IDIUse=3 WtCom= 9.98D-01 WtEn= 2.06D-03
 Coeff-Com: -0.908D-03 0.874D-03 0.524D-01 0.122D+00 0.309D+00 0.516D+00
 Coeff-En:   0.000D+00 0.000D+00 0.000D+00 0.000D+00 0.226D-01 0.977D+00
 Coeff:     -0.906D-03 0.872D-03 0.523D-01 0.122D+00 0.309D+00 0.517D+00
 Gap=     0.161 Goal=   None    Shift=    0.000
 RMSDP=2.23D-05 MaxDP=1.10D-03 DE=-5.21D-04 OVMax= 1.44D-03

 Cycle   7  Pass 1  IDiag  1:
 E= -1617.01296324046     Delta-E=       -0.000059585630 Rises=F Damp=F
 DIIS: error= 5.65D-05 at cycle   7 NSaved=   7.
 NSaved= 7 IEnMin= 7 EnMin= -1617.01296324046     IErMin= 7 ErrMin= 5.65D-05
 ErrMax= 5.65D-05  0.00D+00 EMaxC= 1.00D-01 BMatC= 4.56D-06 BMatP= 7.31D-05
 IDIUse=1 WtCom= 1.00D+00 WtEn= 0.00D+00
 Coeff-Com: -0.278D-03-0.808D-03 0.169D-01 0.415D-01 0.123D+00 0.273D+00
 Coeff-Com:  0.548D+00
 Coeff:     -0.278D-03-0.808D-03 0.169D-01 0.415D-01 0.123D+00 0.273D+00
 Coeff:      0.548D+00
 Gap=     0.161 Goal=   None    Shift=    0.000
 RMSDP=6.21D-06 MaxDP=3.44D-04 DE=-5.96D-05 OVMax= 5.45D-04

 Cycle   8  Pass 1  IDiag  1:
 E= -1617.01296677355     Delta-E=       -0.000003533091 Rises=F Damp=F
 DIIS: error= 2.20D-05 at cycle   8 NSaved=   8.
 NSaved= 8 IEnMin= 8 EnMin= -1617.01296677355     IErMin= 8 ErrMin= 2.20D-05
 ErrMax= 2.20D-05  0.00D+00 EMaxC= 1.00D-01 BMatC= 7.60D-07 BMatP= 4.56D-06
 IDIUse=1 WtCom= 1.00D+00 WtEn= 0.00D+00
 Coeff-Com: -0.285D-04-0.622D-03 0.397D-02 0.103D-01 0.374D-01 0.103D+00
 Coeff-Com:  0.333D+00 0.513D+00
 Coeff:     -0.285D-04-0.622D-03 0.397D-02 0.103D-01 0.374D-01 0.103D+00
 Coeff:      0.333D+00 0.513D+00
 Gap=     0.161 Goal=   None    Shift=    0.000
 RMSDP=2.12D-06 MaxDP=1.21D-04 DE=-3.53D-06 OVMax= 1.67D-04

 Cycle   9  Pass 1  IDiag  1:
 E= -1617.01296737406     Delta-E=       -0.000000600510 Rises=F Damp=F
 DIIS: error= 6.39D-06 at cycle   9 NSaved=   9.
 NSaved= 9 IEnMin= 9 EnMin= -1617.01296737406     IErMin= 9 ErrMin= 6.39D-06
 ErrMax= 6.39D-06  0.00D+00 EMaxC= 1.00D-01 BMatC= 4.89D-08 BMatP= 7.60D-07
 IDIUse=1 WtCom= 1.00D+00 WtEn= 0.00D+00
 Coeff-Com:  0.333D-04-0.221D-03-0.175D-03-0.404D-03 0.209D-02 0.148D-01
 Coeff-Com:  0.953D-01 0.248D+00 0.640D+00
 Coeff:      0.333D-04-0.221D-03-0.175D-03-0.404D-03 0.209D-02 0.148D-01
 Coeff:      0.953D-01 0.248D+00 0.640D+00
 Gap=     0.161 Goal=   None    Shift=    0.000
 RMSDP=6.42D-07 MaxDP=4.47D-05 DE=-6.01D-07 OVMax= 5.91D-05

 Cycle  10  Pass 1  IDiag  1:
 E= -1617.01296741046     Delta-E=       -0.000000036401 Rises=F Damp=F
 DIIS: error= 2.77D-06 at cycle  10 NSaved=  10.
 NSaved=10 IEnMin=10 EnMin= -1617.01296741046     IErMin=10 ErrMin= 2.77D-06
 ErrMax= 2.77D-06  0.00D+00 EMaxC= 1.00D-01 BMatC= 8.82D-09 BMatP= 4.89D-08
 IDIUse=1 WtCom= 1.00D+00 WtEn= 0.00D+00
 Coeff-Com:  0.254D-04-0.808D-04-0.382D-03-0.102D-02-0.184D-02-0.488D-04
 Coeff-Com:  0.264D-01 0.935D-01 0.371D+00 0.513D+00
 Coeff:      0.254D-04-0.808D-04-0.382D-03-0.102D-02-0.184D-02-0.488D-04
 Coeff:      0.264D-01 0.935D-01 0.371D+00 0.513D+00
 Gap=     0.161 Goal=   None    Shift=    0.000
 RMSDP=2.49D-07 MaxDP=1.70D-05 DE=-3.64D-08 OVMax= 2.37D-05

 Cycle  11  Pass 1  IDiag  1:
 E= -1617.01296741819     Delta-E=       -0.000000007736 Rises=F Damp=F
 DIIS: error= 9.31D-07 at cycle  11 NSaved=  11.
 NSaved=11 IEnMin=11 EnMin= -1617.01296741819     IErMin=11 ErrMin= 9.31D-07
 ErrMax= 9.31D-07  0.00D+00 EMaxC= 1.00D-01 BMatC= 6.38D-10 BMatP= 8.82D-09
 IDIUse=1 WtCom= 1.00D+00 WtEn= 0.00D+00
 Coeff-Com:  0.112D-04-0.204D-04-0.182D-03-0.505D-03-0.130D-02-0.168D-02
 Coeff-Com:  0.359D-02 0.201D-01 0.119D+00 0.264D+00 0.597D+00
 Coeff:      0.112D-04-0.204D-04-0.182D-03-0.505D-03-0.130D-02-0.168D-02
 Coeff:      0.359D-02 0.201D-01 0.119D+00 0.264D+00 0.597D+00
 Gap=     0.161 Goal=   None    Shift=    0.000
 RMSDP=7.76D-08 MaxDP=4.75D-06 DE=-7.74D-09 OVMax= 8.94D-06

 Cycle  12  Pass 1  IDiag  1:
 E= -1617.01296741871     Delta-E=       -0.000000000514 Rises=F Damp=F
 DIIS: error= 3.85D-07 at cycle  12 NSaved=  12.
 NSaved=12 IEnMin=12 EnMin= -1617.01296741871     IErMin=12 ErrMin= 3.85D-07
 ErrMax= 3.85D-07  0.00D+00 EMaxC= 1.00D-01 BMatC= 1.12D-10 BMatP= 6.38D-10
 IDIUse=1 WtCom= 1.00D+00 WtEn= 0.00D+00
 Coeff-Com:  0.370D-05-0.275D-05-0.537D-04-0.156D-03-0.525D-03-0.943D-03
 Coeff-Com: -0.140D-02-0.145D-02 0.187D-01 0.887D-01 0.349D+00 0.548D+00
 Coeff:      0.370D-05-0.275D-05-0.537D-04-0.156D-03-0.525D-03-0.943D-03
 Coeff:     -0.140D-02-0.145D-02 0.187D-01 0.887D-01 0.349D+00 0.548D+00
 Gap=     0.161 Goal=   None    Shift=    0.000
 RMSDP=3.18D-08 MaxDP=2.52D-06 DE=-5.14D-10 OVMax= 4.25D-06

 Cycle  13  Pass 1  IDiag  1:
 E= -1617.01296741876     Delta-E=       -0.000000000051 Rises=F Damp=F
 DIIS: error= 1.54D-07 at cycle  13 NSaved=  13.
 NSaved=13 IEnMin=13 EnMin= -1617.01296741876     IErMin=13 ErrMin= 1.54D-07
 ErrMax= 1.54D-07  0.00D+00 EMaxC= 1.00D-01 BMatC= 1.21D-11 BMatP= 1.12D-10
 IDIUse=1 WtCom= 1.00D+00 WtEn= 0.00D+00
 Coeff-Com:  0.648D-06 0.100D-05-0.367D-05-0.144D-04-0.113D-03-0.260D-03
 Coeff-Com: -0.116D-02-0.366D-02-0.658D-02 0.141D-01 0.106D+00 0.296D+00
 Coeff-Com:  0.595D+00
 Coeff:      0.648D-06 0.100D-05-0.367D-05-0.144D-04-0.113D-03-0.260D-03
 Coeff:     -0.116D-02-0.366D-02-0.658D-02 0.141D-01 0.106D+00 0.296D+00
 Coeff:      0.595D+00
 Gap=     0.161 Goal=   None    Shift=    0.000
 RMSDP=1.06D-08 MaxDP=6.82D-07 DE=-5.14D-11 OVMax= 1.04D-06

 Cycle  14  Pass 1  IDiag  1:
 E= -1617.01296741878     Delta-E=       -0.000000000025 Rises=F Damp=F
 DIIS: error= 3.73D-08 at cycle  14 NSaved=  14.
 NSaved=14 IEnMin=14 EnMin= -1617.01296741878     IErMin=14 ErrMin= 3.73D-08
 ErrMax= 3.73D-08  0.00D+00 EMaxC= 1.00D-01 BMatC= 1.42D-12 BMatP= 1.21D-11
 IDIUse=1 WtCom= 1.00D+00 WtEn= 0.00D+00
 Coeff-Com:  0.574D-08 0.590D-06 0.406D-05 0.104D-04-0.400D-06-0.151D-04
 Coeff-Com: -0.380D-03-0.167D-02-0.530D-02-0.148D-02 0.154D-01 0.893D-01
 Coeff-Com:  0.313D+00 0.591D+00
 Coeff:      0.574D-08 0.590D-06 0.406D-05 0.104D-04-0.400D-06-0.151D-04
 Coeff:     -0.380D-03-0.167D-02-0.530D-02-0.148D-02 0.154D-01 0.893D-01
 Coeff:      0.313D+00 0.591D+00
 Gap=     0.161 Goal=   None    Shift=    0.000
 RMSDP=3.35D-09 MaxDP=2.09D-07 DE=-2.55D-11 OVMax= 4.16D-07

 Error on total polarization charges =  0.02195
 SCF Done:  E(RB3LYP) =  -1617.01296742     A.U. after   14 cycles
            NFock= 14  Conv=0.33D-08     -V/T= 2.0075
 KE= 1.604964588946D+03 PE=-8.599912353430D+03 EE= 2.970873822634D+03
 Leave Link  502 at Tue Mar  1 15:35:04 2022, MaxMem=   104857600 cpu:            1598.6 elap:             410.3
 (Enter /dades/curu/g16A03_MST/g16/l601.exe)
 Copying SCF densities to generalized density rwf, IOpCl= 0 IROHF=0.

 **********************************************************************

            Population analysis using the SCF density.

 **********************************************************************

 Orbital symmetries:
       Occupied  (A) (A) (A) (A) (A) (A) (A) (A) (A) (A) (A) (A)
                 (A) (A) (A) (A) (A) (A) (A) (A) (A) (A) (A) (A)
                 (A) (A) (A) (A) (A) (A) (A) (A) (A) (A) (A) (A)
                 (A) (A) (A) (A) (A) (A) (A) (A) (A) (A) (A) (A)
                 (A) (A) (A) (A) (A) (A) (A) (A) (A) (A) (A) (A)
                 (A) (A) (A) (A) (A) (A) (A) (A) (A) (A) (A) (A)
                 (A) (A) (A) (A) (A) (A) (A) (A) (A) (A) (A) (A)
                 (A) (A) (A) (A) (A) (A) (A) (A) (A) (A) (A) (A)
                 (A)
       Virtual   (A) (A) (A) (A) (A) (A) (A) (A) (A) (A) (A) (A)
                 (A) (A) (A) (A) (A) (A) (A) (A) (A) (A) (A) (A)
                 (A) (A) (A) (A) (A) (A) (A) (A) (A) (A) (A) (A)
                 (A) (A) (A) (A) (A) (A) (A) (A) (A) (A) (A) (A)
                 (A) (A) (A) (A) (A) (A) (A) (A) (A) (A) (A) (A)
                 (A) (A) (A) (A) (A) (A) (A) (A) (A) (A) (A) (A)
                 (A) (A) (A) (A) (A) (A) (A) (A) (A) (A) (A) (A)
                 (A) (A) (A) (A) (A) (A) (A) (A) (A) (A) (A) (A)
                 (A) (A) (A) (A) (A) (A) (A) (A) (A) (A) (A) (A)
                 (A) (A) (A) (A) (A) (A) (A) (A) (A) (A) (A) (A)
                 (A) (A) (A) (A) (A) (A) (A) (A) (A) (A) (A) (A)
                 (A) (A) (A) (A) (A) (A) (A) (A) (A) (A) (A) (A)
                 (A) (A) (A) (A) (A) (A) (A) (A) (A) (A) (A) (A)
                 (A) (A) (A) (A) (A) (A) (A) (A) (A) (A) (A) (A)
                 (A) (A) (A) (A) (A) (A) (A) (A) (A) (A) (A) (A)
                 (A) (A) (A) (A) (A) (A) (A) (A) (A) (A) (A) (A)
                 (A) (A) (A) (A) (A) (A) (A) (A) (A) (A) (A) (A)
                 (A) (A) (A) (A) (A) (A) (A) (A) (A) (A) (A) (A)
                 (A) (A) (A) (A) (A) (A) (A) (A) (A) (A) (A) (A)
                 (A) (A) (A) (A) (A) (A) (A) (A) (A) (A) (A) (A)
                 (A) (A) (A) (A) (A) (A) (A) (A) (A) (A) (A) (A)
                 (A) (A) (A) (A) (A) (A) (A) (A) (A) (A) (A) (A)
                 (A) (A) (A) (A) (A) (A) (A) (A) (A) (A) (A) (A)
                 (A) (A) (A) (A) (A) (A) (A) (A) (A) (A) (A) (A)
                 (A) (A) (A) (A) (A) (A) (A) (A) (A) (A) (A) (A)
                 (A) (A) (A) (A) (A) (A) (A) (A) (A) (A) (A) (A)
                 (A) (A) (A) (A) (A) (A) (A) (A) (A) (A) (A) (A)
                 (A) (A) (A) (A) (A)
 The electronic state is 1-A.
 Alpha  occ. eigenvalues -- -101.56209 -19.25826 -19.16086 -19.14993 -14.43144
 Alpha  occ. eigenvalues --  -14.39924 -14.35765 -14.34824 -14.33847 -10.31492
 Alpha  occ. eigenvalues --  -10.30652 -10.27643 -10.27603 -10.27228 -10.27183
 Alpha  occ. eigenvalues --  -10.25839 -10.24917 -10.24125 -10.23314 -10.23095
 Alpha  occ. eigenvalues --  -10.21620 -10.21439 -10.21338 -10.21149 -10.18349
 Alpha  occ. eigenvalues --  -10.18293  -9.47864  -7.24275  -7.23297  -7.23231
 Alpha  occ. eigenvalues --   -1.16755  -1.07168  -1.04444  -1.02762  -0.95554
 Alpha  occ. eigenvalues --   -0.95173  -0.92585  -0.90367  -0.87451  -0.84953
 Alpha  occ. eigenvalues --   -0.80084  -0.78893  -0.78326  -0.75169  -0.72528
 Alpha  occ. eigenvalues --   -0.70374  -0.69882  -0.68002  -0.67007  -0.65273
 Alpha  occ. eigenvalues --   -0.62894  -0.60137  -0.59608  -0.57757  -0.57451
 Alpha  occ. eigenvalues --   -0.53868  -0.52586  -0.51732  -0.50679  -0.49859
 Alpha  occ. eigenvalues --   -0.48928  -0.48319  -0.47961  -0.47803  -0.46777
 Alpha  occ. eigenvalues --   -0.46473  -0.45796  -0.44784  -0.44181  -0.43740
 Alpha  occ. eigenvalues --   -0.41905  -0.41741  -0.41701  -0.41631  -0.40663
 Alpha  occ. eigenvalues --   -0.39480  -0.39478  -0.39017  -0.38698  -0.38332
 Alpha  occ. eigenvalues --   -0.37836  -0.36717  -0.36244  -0.35588  -0.34539
 Alpha  occ. eigenvalues --   -0.33414  -0.32515  -0.32010  -0.31625  -0.29839
 Alpha  occ. eigenvalues --   -0.29676  -0.28594  -0.27629  -0.27335  -0.25466
 Alpha  occ. eigenvalues --   -0.23386  -0.23035
 Alpha virt. eigenvalues --   -0.06930  -0.04791  -0.03646  -0.00401   0.00052
 Alpha virt. eigenvalues --    0.02261   0.02848   0.07138   0.08357   0.09296
 Alpha virt. eigenvalues --    0.09887   0.10230   0.12132   0.12825   0.13530
 Alpha virt. eigenvalues --    0.13762   0.13802   0.14882   0.15487   0.16091
 Alpha virt. eigenvalues --    0.16366   0.16726   0.17219   0.18069   0.18165
 Alpha virt. eigenvalues --    0.18885   0.19197   0.19461   0.20339   0.20824
 Alpha virt. eigenvalues --    0.21719   0.22491   0.22772   0.24239   0.24805
 Alpha virt. eigenvalues --    0.25180   0.26439   0.26873   0.28222   0.29267
 Alpha virt. eigenvalues --    0.30288   0.31205   0.32706   0.33322   0.34306
 Alpha virt. eigenvalues --    0.36278   0.37440   0.38639   0.39859   0.41210
 Alpha virt. eigenvalues --    0.41986   0.42364   0.43525   0.44681   0.45743
 Alpha virt. eigenvalues --    0.47693   0.48823   0.49630   0.50619   0.51249
 Alpha virt. eigenvalues --    0.51321   0.52164   0.53044   0.53534   0.54356
 Alpha virt. eigenvalues --    0.54639   0.55077   0.55511   0.56264   0.56873
 Alpha virt. eigenvalues --    0.57374   0.57883   0.58267   0.58418   0.58897
 Alpha virt. eigenvalues --    0.59864   0.60032   0.60328   0.60413   0.61148
 Alpha virt. eigenvalues --    0.62677   0.63240   0.63856   0.64066   0.64737
 Alpha virt. eigenvalues --    0.65706   0.66276   0.67178   0.67805   0.67974
 Alpha virt. eigenvalues --    0.70429   0.71449   0.72364   0.72638   0.73491
 Alpha virt. eigenvalues --    0.74118   0.74629   0.75044   0.77268   0.78002
 Alpha virt. eigenvalues --    0.78323   0.79023   0.80018   0.80217   0.81238
 Alpha virt. eigenvalues --    0.81868   0.82151   0.82662   0.83376   0.83926
 Alpha virt. eigenvalues --    0.85040   0.85606   0.86061   0.86271   0.86958
 Alpha virt. eigenvalues --    0.87583   0.87940   0.88593   0.89120   0.89717
 Alpha virt. eigenvalues --    0.89851   0.90589   0.90862   0.91940   0.92994
 Alpha virt. eigenvalues --    0.93417   0.93704   0.94544   0.95013   0.95281
 Alpha virt. eigenvalues --    0.96500   0.96779   0.97654   0.98289   0.99112
[...]
    34  H    0.004046  -0.000170   0.000992   0.000007  -0.000000   0.000000
    35  H   -0.039979  -0.000382   0.003536  -0.000098   0.000001  -0.000000
    36  H    0.000000  -0.000000   0.000000   0.000000   0.000000   0.000000
    37  H    0.000000  -0.000000   0.000000  -0.000000   0.000000   0.000080
    38  H    0.000000   0.000000   0.000000   0.000000   0.000000  -0.000100
    39  H   -0.000000   0.000000   0.000000  -0.000000  -0.000000   0.000005
    40  H   -0.000000  -0.000000  -0.000000  -0.000000  -0.000000   0.000003
    41  H   -0.000000  -0.000000  -0.000000  -0.000000   0.000000  -0.000071
    42  H    0.000000   0.000000   0.000000   0.000000   0.000000   0.000008
              19         20         21         22         23         24
     1  C    0.000005  -0.000001  -0.000000   0.000000  -0.000000  -0.000000
     2  N    0.000079  -0.000000  -0.000000   0.000001  -0.000000   0.000000
     3  C   -0.008451   0.000126  -0.000041  -0.000105   0.000000   0.000000
     4  C   -0.013471  -0.000243   0.000154   0.006809   0.000000  -0.000000
     5  C   -0.087244   0.007046   0.004023  -0.049893  -0.000368  -0.000018
     6  N    0.003593  -0.000018   0.000327   0.000076  -0.000004   0.000000
     7  C   -0.000073   0.000002   0.000001   0.000378  -0.000000  -0.000000
     8  N    0.000123  -0.000000   0.000005  -0.000056  -0.000000   0.000000
     9  C   -0.000000  -0.000000  -0.000000   0.000000  -0.000000   0.000000
    10  C   -0.000000  -0.000000   0.000000  -0.000000  -0.000000  -0.000000
    11  C    0.000000  -0.000000  -0.000000   0.000000   0.000000  -0.000000
    12  C    0.000000  -0.000000  -0.000000   0.000000  -0.000000   0.000000
    13  C   -0.000000   0.000000  -0.000000  -0.000000   0.000000   0.000000
    14  Cl  -0.000000   0.000000   0.000000   0.000000   0.000000  -0.000000
    15  C   -0.000000   0.000000   0.000000   0.000000   0.000000  -0.000000
    16  C   -0.000004   0.000000   0.000000   0.000000   0.000000  -0.000000
    17  O    0.000000  -0.000000   0.000000   0.000000   0.000000   0.000000
    18  C    0.405966  -0.038179  -0.067583   0.384765   0.001958   0.000062
    19  N    7.023801   0.108992  -0.065176  -0.109418   0.004665  -0.000031
    20  O    0.108992   8.182080   0.248162  -0.092337  -0.042790   0.002096
    21  C   -0.065176   0.248162   4.607729   0.480394   0.339458  -0.067687
    22  N   -0.109418  -0.092337   0.480394   6.999655  -0.059060  -0.004083
    23  C    0.004665  -0.042790   0.339458  -0.059060   4.715424   0.386069
    24  C   -0.000031   0.002096  -0.067687  -0.004083   0.386069   5.192684
    25  C   -0.000020  -0.002904  -0.058716  -0.001019   0.370468  -0.069456
    26  O    0.000146  -0.000098  -0.049618   0.001495   0.235126  -0.052768
    27  H    0.000422  -0.000003  -0.000002  -0.000001  -0.000000   0.000000
    28  H   -0.000008  -0.000000  -0.000000  -0.000000   0.000000  -0.000000
    29  H    0.000007  -0.000000  -0.000000   0.000000  -0.000000   0.000000
    30  H    0.019616  -0.000336   0.000076   0.000129  -0.000000   0.000000
    31  H    0.000129  -0.000001   0.000000   0.000002  -0.000000   0.000000
    32  H    0.000001  -0.000000  -0.000000  -0.000003  -0.000000  -0.000000
    33  H    0.000000  -0.000000   0.000000   0.000000  -0.000000  -0.000000
    34  H   -0.000000   0.000000   0.000000  -0.000000  -0.000000   0.000000
    35  H    0.000000  -0.000000  -0.000000  -0.000000  -0.000000   0.000000
    36  H    0.000002  -0.000041   0.005499   0.000289  -0.026813   0.364009
    37  H    0.000003   0.000039  -0.003806   0.005838  -0.020171   0.346567
    38  H   -0.000010   0.000012  -0.006035   0.001116  -0.024806   0.365664
    39  H   -0.000000   0.000079  -0.001773   0.001498  -0.023378   0.000379
    40  H    0.000001  -0.000005   0.005901   0.000005  -0.026976  -0.005934
    41  H   -0.000059   0.002630  -0.008201  -0.000061  -0.024694   0.005928
    42  H    0.000003   0.000102   0.007236  -0.000116  -0.019414  -0.003373
              25         26         27         28         29         30
     1  C   -0.000000  -0.000000   0.379227   0.379713   0.372006  -0.003116
     2  N    0.000000  -0.000000  -0.043573  -0.038392  -0.036557  -0.028061
     3  C   -0.000000   0.000000   0.001346  -0.004034   0.004013   0.357443
     4  C   -0.000000  -0.000000   0.002866  -0.000193  -0.000250  -0.027080
     5  C   -0.000007  -0.000000  -0.000279   0.000085  -0.000007  -0.007259
     6  N    0.000000   0.000000  -0.000014   0.000000   0.000000  -0.000058
     7  C   -0.000000   0.000000  -0.000022  -0.000000   0.000000  -0.000068
     8  N    0.000000   0.000000   0.000157  -0.000018  -0.000006   0.003610
     9  C   -0.000000  -0.000000  -0.000001  -0.000004  -0.000022   0.000222
    10  C   -0.000000   0.000000  -0.000000   0.000000   0.000000  -0.000002
    11  C   -0.000000   0.000000   0.000000  -0.000000   0.000000  -0.000000
    12  C   -0.000000   0.000000  -0.000000  -0.000000   0.000000  -0.000000
    13  C    0.000000  -0.000000  -0.000008   0.000009   0.000014   0.000005
    14  Cl  -0.000000   0.000000   0.000000   0.000001   0.000006   0.000001
    15  C    0.000000   0.000000  -0.000232  -0.000105   0.000979   0.000032
    16  C    0.000000  -0.000000  -0.000681   0.003249  -0.002816   0.003237
    17  O    0.000000  -0.000000   0.000821   0.000579   0.019644  -0.000065
    18  C   -0.000166  -0.000250   0.000431  -0.000017   0.000001   0.000666
    19  N   -0.000020   0.000146   0.000422  -0.000008   0.000007   0.019616
    20  O   -0.002904  -0.000098  -0.000003  -0.000000  -0.000000  -0.000336
    21  C   -0.058716  -0.049618  -0.000002  -0.000000  -0.000000   0.000076
    22  N   -0.001019   0.001495  -0.000001  -0.000000   0.000000   0.000129
    23  C    0.370468   0.235126  -0.000000   0.000000  -0.000000  -0.000000
    24  C   -0.069456  -0.052768   0.000000  -0.000000   0.000000   0.000000
    25  C    5.199291  -0.049520  -0.000000  -0.000000  -0.000000   0.000000
    26  O   -0.049520   8.343562   0.000000  -0.000000   0.000000   0.000000
    27  H   -0.000000   0.000000   0.543358  -0.035752  -0.027309  -0.000118
    28  H   -0.000000  -0.000000  -0.035752   0.529801  -0.021245   0.002984
    29  H   -0.000000   0.000000  -0.027309  -0.021245   0.498090   0.000162
    30  H    0.000000   0.000000  -0.000118   0.002984   0.000162   0.478972
    31  H   -0.000000   0.000000  -0.000173   0.000404  -0.000179  -0.019491
    32  H   -0.000000   0.000000  -0.000000   0.000000   0.000000   0.000003
    33  H   -0.000000   0.000000   0.000000  -0.000000  -0.000000   0.000000
    34  H    0.000000   0.000000   0.000000  -0.000000   0.000000   0.000000
    35  H    0.000000   0.000000   0.000000   0.000000  -0.000000  -0.000000
    36  H   -0.005988  -0.001448  -0.000000  -0.000000  -0.000000  -0.000000
    37  H    0.000115   0.003652   0.000000  -0.000000  -0.000000  -0.000000
    38  H    0.005659   0.001649  -0.000000  -0.000000  -0.000000   0.000000
    39  H    0.350873   0.003538   0.000000  -0.000000  -0.000000  -0.000000
    40  H    0.365625  -0.001937   0.000000   0.000000   0.000000  -0.000000
    41  H    0.362974   0.001762   0.000000  -0.000000   0.000000   0.000000
    42  H   -0.004417   0.240274  -0.000000   0.000000  -0.000000  -0.000000
              31         32         33         34         35         36
     1  C    0.003820  -0.000000  -0.000000   0.000000  -0.000000   0.000000
     2  N   -0.040645   0.000005   0.000000  -0.000000   0.000001   0.000000
     3  C    0.363995  -0.000144  -0.000007   0.000000  -0.000000   0.000000
     4  C   -0.034424   0.004198  -0.000072   0.000000   0.000000  -0.000000
     5  C    0.001890   0.004247  -0.000045  -0.000000   0.000000  -0.000000
     6  N   -0.000150  -0.034164  -0.000046  -0.000000   0.000000   0.000000
     7  C   -0.000000   0.376841   0.005257  -0.000005  -0.000000   0.000000
     8  N   -0.006589  -0.046464  -0.008236  -0.000124   0.000002  -0.000000
     9  C    0.003356   0.000600  -0.037826   0.002872   0.000631   0.000000
    10  C    0.000318   0.002782   0.355231  -0.033045   0.004315  -0.000000
    11  C   -0.000011   0.000028  -0.032320   0.363202  -0.033208  -0.000000
    12  C   -0.000020  -0.000002   0.004189  -0.036942   0.365053  -0.000000
    13  C    0.000495  -0.000001   0.000517   0.004046  -0.039979   0.000000
    14  Cl   0.000016   0.000000   0.000012  -0.000170  -0.000382  -0.000000
    15  C    0.004854  -0.000100   0.004802   0.000992   0.003536   0.000000
    16  C   -0.005456   0.000019  -0.000073   0.000007  -0.000098   0.000000
    17  O    0.000008  -0.000000   0.000001  -0.000000   0.000001   0.000000
    18  C    0.000065  -0.000146  -0.000000   0.000000  -0.000000   0.000000
    19  N    0.000129   0.000001   0.000000  -0.000000   0.000000   0.000002
    20  O   -0.000001  -0.000000  -0.000000   0.000000  -0.000000  -0.000041
    21  C    0.000000  -0.000000   0.000000   0.000000  -0.000000   0.005499
    22  N    0.000002  -0.000003   0.000000  -0.000000  -0.000000   0.000289
    23  C   -0.000000  -0.000000  -0.000000  -0.000000  -0.000000  -0.026813
    24  C    0.000000  -0.000000  -0.000000   0.000000   0.000000   0.364009
    25  C   -0.000000  -0.000000  -0.000000   0.000000   0.000000  -0.005988
    26  O    0.000000   0.000000   0.000000   0.000000   0.000000  -0.001448
    27  H   -0.000173  -0.000000   0.000000   0.000000   0.000000  -0.000000
    28  H    0.000404   0.000000  -0.000000  -0.000000   0.000000  -0.000000
    29  H   -0.000179   0.000000  -0.000000   0.000000  -0.000000  -0.000000
    30  H   -0.019491   0.000003   0.000000   0.000000  -0.000000  -0.000000
    31  H    0.517796  -0.000003  -0.000000  -0.000000   0.000000  -0.000000
    32  H   -0.000003   0.483245   0.001151   0.000001  -0.000000   0.000000
    33  H   -0.000000   0.001151   0.526299  -0.004491  -0.000139  -0.000000
    34  H   -0.000000   0.000001  -0.004491   0.526603  -0.004764   0.000000
    35  H    0.000000  -0.000000  -0.000139  -0.004764   0.520791   0.000000
    36  H   -0.000000   0.000000  -0.000000   0.000000   0.000000   0.546203
    37  H    0.000000   0.000000   0.000000  -0.000000  -0.000000  -0.024684
    38  H   -0.000000  -0.000000   0.000000   0.000000  -0.000000  -0.026985
    39  H    0.000000   0.000000   0.000000  -0.000000   0.000000   0.000054
    40  H   -0.000000   0.000000  -0.000000  -0.000000   0.000000   0.003571
    41  H   -0.000000   0.000000  -0.000000   0.000000   0.000000  -0.000041
    42  H    0.000000   0.000000   0.000000  -0.000000   0.000000   0.003209
              37         38         39         40         41         42
     1  C    0.000000   0.000000   0.000000   0.000000   0.000000  -0.000000
     2  N   -0.000000   0.000000  -0.000000  -0.000000   0.000000  -0.000000
     3  C   -0.000000  -0.000000  -0.000000   0.000000  -0.000000  -0.000000
     4  C   -0.000000  -0.000000  -0.000000   0.000000   0.000000   0.000000
     5  C   -0.000014  -0.000006  -0.000004   0.000000  -0.000001  -0.000000
     6  N    0.000002   0.000000  -0.000000  -0.000000   0.000000  -0.000000
     7  C    0.000000  -0.000000   0.000000  -0.000000  -0.000000  -0.000000
     8  N    0.000000   0.000000   0.000000  -0.000000  -0.000000  -0.000000
     9  C    0.000000  -0.000000   0.000000   0.000000  -0.000000   0.000000
    10  C   -0.000000  -0.000000  -0.000000   0.000000   0.000000  -0.000000
    11  C    0.000000   0.000000   0.000000  -0.000000  -0.000000   0.000000
    12  C   -0.000000  -0.000000   0.000000  -0.000000  -0.000000  -0.000000
    13  C    0.000000   0.000000  -0.000000  -0.000000  -0.000000   0.000000
    14  Cl  -0.000000   0.000000   0.000000  -0.000000  -0.000000   0.000000
    15  C    0.000000   0.000000   0.000000  -0.000000  -0.000000   0.000000
    16  C   -0.000000   0.000000  -0.000000  -0.000000  -0.000000   0.000000
    17  O    0.000000   0.000000  -0.000000  -0.000000   0.000000   0.000000
    18  C    0.000080  -0.000100   0.000005   0.000003  -0.000071   0.000008
    19  N    0.000003  -0.000010  -0.000000   0.000001  -0.000059   0.000003
    20  O    0.000039   0.000012   0.000079  -0.000005   0.002630   0.000102
    21  C   -0.003806  -0.006035  -0.001773   0.005901  -0.008201   0.007236
    22  N    0.005838   0.001116   0.001498   0.000005  -0.000061  -0.000116
    23  C   -0.020171  -0.024806  -0.023378  -0.026976  -0.024694  -0.019414
    24  C    0.346567   0.365664   0.000379  -0.005934   0.005928  -0.003373
    25  C    0.000115   0.005659   0.350873   0.365625   0.362974  -0.004417
    26  O    0.003652   0.001649   0.003538  -0.001937   0.001762   0.240274
    27  H    0.000000  -0.000000   0.000000   0.000000   0.000000  -0.000000
    28  H   -0.000000  -0.000000  -0.000000   0.000000  -0.000000   0.000000
    29  H   -0.000000  -0.000000  -0.000000   0.000000   0.000000  -0.000000
    30  H   -0.000000   0.000000  -0.000000  -0.000000   0.000000  -0.000000
    31  H    0.000000  -0.000000   0.000000  -0.000000  -0.000000   0.000000
    32  H    0.000000  -0.000000   0.000000   0.000000   0.000000   0.000000
    33  H    0.000000   0.000000   0.000000  -0.000000  -0.000000   0.000000
    34  H   -0.000000   0.000000  -0.000000  -0.000000   0.000000  -0.000000
    35  H   -0.000000  -0.000000   0.000000   0.000000   0.000000   0.000000
    36  H   -0.024684  -0.026985   0.000054   0.003571  -0.000041   0.003209
    37  H    0.547237  -0.024496   0.000602   0.000110  -0.000144  -0.000104
    38  H   -0.024496   0.542485  -0.000118  -0.000049  -0.000184  -0.000360
    39  H    0.000602  -0.000118   0.546242  -0.024333  -0.024454  -0.000074
    40  H    0.000110  -0.000049  -0.024333   0.536908  -0.026469   0.003702
    41  H   -0.000144  -0.000184  -0.024454  -0.026469   0.541885  -0.000360
    42  H   -0.000104  -0.000360  -0.000074   0.003702  -0.000360   0.329229
 Mulliken charges:
               1
     1  C   -0.327184
     2  N   -0.394529
     3  C   -0.261802
     4  C    0.339135
     5  C    0.112484
     6  N   -0.555669
     7  C    0.225994
     8  N   -0.562354
     9  C    0.295689
    10  C   -0.153382
    11  C   -0.140195
    12  C   -0.126526
    13  C   -0.133702
    14  Cl  -0.008057
    15  C    0.053438
    16  C    0.544394
    17  O   -0.562921
    18  C    0.435117
    19  N   -0.283590
    20  O   -0.374410
    21  C    0.629672
    22  N   -0.566297
    23  C    0.215306
    24  C   -0.460110
    25  C   -0.462793
    26  O   -0.675566
    27  H    0.179539
    28  H    0.182945
    29  H    0.193467
    30  H    0.218497
    31  H    0.209992
    32  H    0.207907
    33  H    0.185797
    34  H    0.181818
    35  H    0.184238
    36  H    0.163164
    37  H    0.169173
    38  H    0.166563
    39  H    0.170865
    40  H    0.169878
    41  H    0.169561
    42  H    0.444454
 Sum of Mulliken charges =  -0.00000
 Mulliken charges with hydrogens summed into heavy atoms:
               1
     1  C    0.228766
     2  N   -0.394529
     3  C    0.166687
     4  C    0.339135
     5  C    0.112484
     6  N   -0.555669
     7  C    0.433901
     8  N   -0.562354
     9  C    0.295689
    10  C    0.032415
    11  C    0.041622
    12  C    0.057712
    13  C   -0.133702
    14  Cl  -0.008057
    15  C    0.053438
    16  C    0.544394
    17  O   -0.562921
    18  C    0.435117
    19  N   -0.283590
    20  O   -0.374410
    21  C    0.629672
    22  N   -0.566297
    23  C    0.215306
    24  C    0.038791
    25  C    0.047511
    26  O   -0.231112
 Electronic spatial extent (au):  <R**2>=          13197.3651
 Charge=             -0.0000 electrons
 Dipole moment (field-independent basis, Debye):
    X=              2.2481    Y=              4.8712    Z=              3.7844  Tot=              6.5654
 Quadrupole moment (field-independent basis, Debye-Ang):
   XX=           -118.0919   YY=           -149.8711   ZZ=           -159.2632
   XY=            -21.3234   XZ=             -8.7825   YZ=              0.3525
 Traceless Quadrupole moment (field-independent basis, Debye-Ang):
   XX=             24.3168   YY=             -7.4624   ZZ=            -16.8544
   XY=            -21.3234   XZ=             -8.7825   YZ=              0.3525
 Octapole moment (field-independent basis, Debye-Ang**2):
  XXX=            427.3534  YYY=              7.9464  ZZZ=              8.5646  XYY=            -52.3007
  XXY=            124.8936  XXZ=             60.3154  XZZ=             25.0703  YZZ=             -1.5286
  YYZ=              8.8625  XYZ=             24.1228
 Hexadecapole moment (field-independent basis, Debye-Ang**3):
 XXXX=         -10859.9075 YYYY=          -1956.2977 ZZZZ=           -625.0015 XXXY=           -451.8535
 XXXZ=           -142.0373 YYYX=           -152.6371 YYYZ=              3.0752 ZZZX=              4.7022
 ZZZY=            -13.8948 XXYY=          -2746.2270 XXZZ=          -2575.6597 YYZZ=           -475.1528
 XXYZ=             35.2960 YYXZ=            -35.5688 ZZXY=            -31.7831
 N-N= 2.428187537613D+03 E-N=-8.642506061239D+03  KE= 1.605102513737D+03
 No NMR shielding tensors so no spin-rotation constants.
 Leave Link  601 at Tue Mar  1 20:29:54 2022, MaxMem=   104857600 cpu:               0.7 elap:               0.3
 (Enter /dades/curu/g16A03_MST/g16/l9999.exe)
 1\1\GINC-PIRINEUS2\SP\RB3LYP\6-31G(d)\C17H16Cl1N5O3\UBATOR01\01-Mar-20
 22\0\\#p b3lyp/6-31G(d) scrf=(iefpcm,read,solvent=water) geom=allcheck
  guess=read\\312.n.pdb.xyz\\0,1\C,0,-1.6584132189,-1.0076927761,-2.962
 0493891\N,0,-2.3143800603,-0.8201129022,-1.6707493164\C,0,-1.572176934
 9,-1.2139642481,-0.4660463272\C,0,-0.9936544248,-0.0131867201,0.202495
 442\C,0,0.2811190113,0.4707870795,0.4123577415\N,0,0.2317583542,1.6961
 20817,1.0564147748\C,0,-1.0426739177,1.9477647442,1.231276656\N,0,-1.8
 379562533,0.9458773782,0.728846764\C,0,-3.2496183143,0.8225533627,0.83
 21448866\C,0,-3.8619815146,1.2577033145,2.0095779666\C,0,-5.2343920098
 ,1.115534222,2.1679545808\C,0,-5.9944176329,0.5077388267,1.170793155\C
 ,0,-5.37249695,0.0880143899,-0.0003842829\Cl,0,-6.3831007774,-0.709576
 352,-1.1967247724\C,0,-3.9935868447,0.2485221488,-0.2198794096\C,0,-3.
 4108576308,-0.0213207353,-1.5929089268\O,0,-3.9469423493,0.4828954434,
 -2.5820387821\C,0,1.5505719176,-0.1466364702,0.059528424\N,0,1.6422120
 498,-1.3025380603,-0.5647690708\O,0,3.0315139717,-1.4970880885,-0.6828
 140036\C,0,3.6184349957,-0.4328575185,-0.1165906621\N,0,2.768521281,0.
 4317000689,0.3561605368\C,0,5.1261430107,-0.3978644633,-0.0322807573\C
 ,0,5.6195321615,1.0525710599,-0.0787170711\C,0,5.5601896182,-1.0997245
 26,1.2687143777\O,0,5.5844473496,-1.1285698869,-1.1698443888\H,0,-0.78
 05427119,-0.3594208577,-3.0559798429\H,0,-1.3435676476,-2.0485910817,-
 3.0591223001\H,0,-2.3710205836,-0.7605587723,-3.7454445785\H,0,-0.7718
 325816,-1.8881788137,-0.7639237726\H,0,-2.2368822543,-1.7546893496,0.2
 143829232\H,0,-1.4600127276,2.8309454949,1.6899853873\H,0,-3.254385682
 3,1.6793993707,2.8001868613\H,0,-5.7111316906,1.4488778635,3.08201513\
 H,0,-7.0583048994,0.3530783823,1.2973222539\H,0,6.7108805393,1.0599799
 662,-0.0101670651\H,0,5.2167883454,1.6378953889,0.7503814799\H,0,5.324
 5198755,1.5244025882,-1.0188304769\H,0,5.1668644536,-0.5832392626,2.14
 78030814\H,0,6.6541228066,-1.0988159732,1.3284162226\H,0,5.2087696852,
 -2.1354774997,1.2782706566\H,0,6.5529401858,-1.1812575519,-1.097764105
 6\\Version=ES64L-G16RevA.03\State=1-A\HF=-1617.0587159\RMSD=3.375e-09\
 Dipole=0.8195764,-0.3257865,2.4277895\Quadrupole=18.3304079,-10.478160
 2,-7.8522476,-4.3748848,-16.2360542,3.8581803\PG=C01 [X(C17H16Cl1N5O3)
 ]\\@


 THE NUMBERS ARE MEANINGLESS, BUT THE TRENDS ARE IMPORTANT.
     -- LARRY BURGGRAF
 Job cpu time:       0 days  0 hours 24 minutes  7.0 seconds.
 Elapsed time:       0 days  0 hours  6 minutes 13.8 seconds.
 File lengths (MBytes):  RWF=    292 Int=      0 D2E=      0 Chk=     27 Scr=      1
 Normal termination of Gaussian 16 at Tue Mar  1 20:29:54 2022.
