 Entering Gaussian System, Link 0=g09
 Initial command:
 /prod/apps/gaussian/g09d1/l1.exe "/tmp/ubafar01/1497409/Gau-37913.inp" -scrdir="/tmp/ubafar01/1497409/"
 Entering Link 1 = /prod/apps/gaussian/g09d1/l1.exe PID=     37915.
  
 Copyright (c) 1988,1990,1992,1993,1995,1998,2003,2009,2013,
            Gaussian, Inc.  All Rights Reserved.
  
 This is part of the Gaussian(R) 09 program.  It is based on
 the Gaussian(R) 03 system (copyright 2003, Gaussian, Inc.),
 the Gaussian(R) 98 system (copyright 1998, Gaussian, Inc.),
 the Gaussian(R) 94 system (copyright 1995, Gaussian, Inc.),
 the Gaussian 92(TM) system (copyright 1992, Gaussian, Inc.),
 the Gaussian 90(TM) system (copyright 1990, Gaussian, Inc.),
 the Gaussian 88(TM) system (copyright 1988, Gaussian, Inc.),
 the Gaussian 86(TM) system (copyright 1986, Carnegie Mellon
 University), and the Gaussian 82(TM) system (copyright 1983,
 Carnegie Mellon University). Gaussian is a federally registered
 trademark of Gaussian, Inc.
  
 This software contains proprietary and confidential information,
 including trade secrets, belonging to Gaussian, Inc.
  
 This software is provided under written license and may be
 used, copied, transmitted, or stored only in accord with that
 written license.
  
 The following legend is applicable only to US Government
 contracts under FAR:
  
                    RESTRICTED RIGHTS LEGEND
  
 Use, reproduction and disclosure by the US Government is
 subject to restrictions as set forth in subparagraphs (a)
 and (c) of the Commercial Computer Software - Restricted
 Rights clause in FAR 52.227-19.
  
 Gaussian, Inc.
 340 Quinnipiac St., Bldg. 40, Wallingford CT 06492
  
  
 ---------------------------------------------------------------
 Warning -- This program may not be used in any manner that
 competes with the business of Gaussian, Inc. or will provide
 assistance to any competitor of Gaussian, Inc.  The licensee
 of this program is prohibited from giving any competitor of
 Gaussian, Inc. access to this program.  By using this program,
 the user acknowledges that Gaussian, Inc. is engaged in the
 business of creating and licensing software in the field of
 computational chemistry and represents and warrants to the
 licensee that it is not a competitor of Gaussian, Inc. and that
 it will not use this program in any manner prohibited above.
 ---------------------------------------------------------------
  

 Cite this work as:
 Gaussian 09, Revision D.01,
 M. J. Frisch, G. W. Trucks, H. B. Schlegel, G. E. Scuseria, 
 M. A. Robb, J. R. Cheeseman, G. Scalmani, V. Barone, B. Mennucci, 
 G. A. Petersson, H. Nakatsuji, M. Caricato, X. Li, H. P. Hratchian, 
 A. F. Izmaylov, J. Bloino, G. Zheng, J. L. Sonnenberg, M. Hada, 
 M. Ehara, K. Toyota, R. Fukuda, J. Hasegawa, M. Ishida, T. Nakajima, 
 Y. Honda, O. Kitao, H. Nakai, T. Vreven, J. A. Montgomery, Jr., 
 J. E. Peralta, F. Ogliaro, M. Bearpark, J. J. Heyd, E. Brothers, 
 K. N. Kudin, V. N. Staroverov, T. Keith, R. Kobayashi, J. Normand, 
 K. Raghavachari, A. Rendell, J. C. Burant, S. S. Iyengar, J. Tomasi, 
 M. Cossi, N. Rega, J. M. Millam, M. Klene, J. E. Knox, J. B. Cross, 
 V. Bakken, C. Adamo, J. Jaramillo, R. Gomperts, R. E. Stratmann, 
 O. Yazyev, A. J. Austin, R. Cammi, C. Pomelli, J. W. Ochterski, 
 R. L. Martin, K. Morokuma, V. G. Zakrzewski, G. A. Voth, 
 P. Salvador, J. J. Dannenberg, S. Dapprich, A. D. Daniels, 
 O. Farkas, J. B. Foresman, J. V. Ortiz, J. Cioslowski, 
 and D. J. Fox, Gaussian, Inc., Wallingford CT, 2013.
 
 ******************************************
 Gaussian 09:  AM64L-G09RevD.01 24-Apr-2013
                13-Nov-2020 
 ******************************************
 %nproc=1
 Will use up to    1 processors via shared memory.
 %Chk=SET_328_BBB212_conf1_geo_135_300.n.pdb.xyz.mst.n.o.chk
 %mem=16GB
 -----------------
 #p b3lyp/6-31G(d)
 -----------------
 1/38=1/1;
 2/12=2,17=6,18=5,40=1/2;
 3/5=1,6=6,7=1,11=2,16=1,25=1,30=1,74=-5/1,2,3;
 4//1;
 5/5=2,38=5/2;
 6/7=2,8=2,9=2,10=2,28=1/1;
 99/5=1,9=1/99;
 Leave Link    1 at Fri Nov 13 03:25:48 2020, MaxMem=  2147483648 cpu:         0.0
 (Enter /prod/apps/gaussian/g09d1/l101.exe)
 ------------------------------------------
 SET_328_BBB212_conf1_geo_135_300.n.pdb.xyz
 ------------------------------------------
 Symbolic Z-matrix:
 Charge =  0 Multiplicity = 1
 C                    -0.638     1.465     1.878 
 H                    -1.514     2.111     1.783 
 H                     0.249     2.067     1.665 
 H                    -0.576     1.122     2.916 
 C                    -0.762     0.275     0.907 
 C                    -2.028    -0.515     1.288 
 H                    -1.94     -0.885     2.313 
 H                    -2.173    -1.374     0.63 
 H                    -2.92      0.116     1.227 
 C                     0.445    -0.672     1.016 
 C                     1.525    -0.439     1.875 
 C                     2.597    -1.326     1.96 
 C                     2.612    -2.481     1.178 
 O                     3.686    -3.317     1.302 
 H                     3.577    -4.074     0.704 
 C                     1.544    -2.736     0.31 
 C                     0.483    -1.838     0.237 
 H                    -0.336    -2.047    -0.443 
 H                     1.544    -3.63     -0.307 
 H                     3.428    -1.132     2.631 
 H                     1.535     0.449     2.494 
 C                    -0.853     0.824    -0.528 
 C                     0.206     1.582    -1.051 
 H                     1.085     1.758    -0.44 
 C                     0.165     2.113    -2.338 
 H                     1.        2.697    -2.714 
 C                    -0.955     1.889    -3.147 
 O                    -1.062     2.375    -4.419 
 H                    -0.257     2.869    -4.644 
 C                    -2.019     1.136    -2.65 
 H                    -2.884     0.965    -3.282 
 C                    -1.962     0.616    -1.357 
 H                    -2.802     0.035    -0.995 
 
 NAtoms=     33 NQM=       33 NQMF=       0 NMMI=      0 NMMIF=      0
                NMic=       0 NMicF=      0.
                    Isotopes and Nuclear Properties:
 (Nuclear quadrupole moments (NQMom) in fm**2, nuclear magnetic moments (NMagM)
  in nuclear magnetons)

  Atom         1           2           3           4           5           6           7           8           9          10
 IAtWgt=          12           1           1           1          12          12           1           1           1          12
 AtmWgt=  12.0000000   1.0078250   1.0078250   1.0078250  12.0000000  12.0000000   1.0078250   1.0078250   1.0078250  12.0000000
 NucSpn=           0           1           1           1           0           0           1           1           1           0
 AtZEff=   0.0000000   0.0000000   0.0000000   0.0000000   0.0000000   0.0000000   0.0000000   0.0000000   0.0000000   0.0000000
 NQMom=    0.0000000   0.0000000   0.0000000   0.0000000   0.0000000   0.0000000   0.0000000   0.0000000   0.0000000   0.0000000
 NMagM=    0.0000000   2.7928460   2.7928460   2.7928460   0.0000000   0.0000000   2.7928460   2.7928460   2.7928460   0.0000000
 AtZNuc=   6.0000000   1.0000000   1.0000000   1.0000000   6.0000000   6.0000000   1.0000000   1.0000000   1.0000000   6.0000000

  Atom        11          12          13          14          15          16          17          18          19          20
 IAtWgt=          12          12          12          16           1          12          12           1           1           1
 AtmWgt=  12.0000000  12.0000000  12.0000000  15.9949146   1.0078250  12.0000000  12.0000000   1.0078250   1.0078250   1.0078250
 NucSpn=           0           0           0           0           1           0           0           1           1           1
 AtZEff=   0.0000000   0.0000000   0.0000000   0.0000000   0.0000000   0.0000000   0.0000000   0.0000000   0.0000000   0.0000000
 NQMom=    0.0000000   0.0000000   0.0000000   0.0000000   0.0000000   0.0000000   0.0000000   0.0000000   0.0000000   0.0000000
 NMagM=    0.0000000   0.0000000   0.0000000   0.0000000   2.7928460   0.0000000   0.0000000   2.7928460   2.7928460   2.7928460
 AtZNuc=   6.0000000   6.0000000   6.0000000   8.0000000   1.0000000   6.0000000   6.0000000   1.0000000   1.0000000   1.0000000

  Atom        21          22          23          24          25          26          27          28          29          30
 IAtWgt=           1          12          12           1          12           1          12          16           1          12
 AtmWgt=   1.0078250  12.0000000  12.0000000   1.0078250  12.0000000   1.0078250  12.0000000  15.9949146   1.0078250  12.0000000
 NucSpn=           1           0           0           1           0           1           0           0           1           0
 AtZEff=   0.0000000   0.0000000   0.0000000   0.0000000   0.0000000   0.0000000   0.0000000   0.0000000   0.0000000   0.0000000
 NQMom=    0.0000000   0.0000000   0.0000000   0.0000000   0.0000000   0.0000000   0.0000000   0.0000000   0.0000000   0.0000000
 NMagM=    2.7928460   0.0000000   0.0000000   2.7928460   0.0000000   2.7928460   0.0000000   0.0000000   2.7928460   0.0000000
 AtZNuc=   1.0000000   6.0000000   6.0000000   1.0000000   6.0000000   1.0000000   6.0000000   8.0000000   1.0000000   6.0000000

  Atom        31          32          33
 IAtWgt=           1          12           1
 AtmWgt=   1.0078250  12.0000000   1.0078250
 NucSpn=           1           0           1
 AtZEff=   0.0000000   0.0000000   0.0000000
 NQMom=    0.0000000   0.0000000   0.0000000
 NMagM=    2.7928460   0.0000000   2.7928460
 AtZNuc=   1.0000000   6.0000000   1.0000000
 Leave Link  101 at Fri Nov 13 03:25:48 2020, MaxMem=  2147483648 cpu:         0.1
 (Enter /prod/apps/gaussian/g09d1/l202.exe)
                          Input orientation:                          
 ---------------------------------------------------------------------
 Center     Atomic      Atomic             Coordinates (Angstroms)
 Number     Number       Type             X           Y           Z
 ---------------------------------------------------------------------
      1          6           0       -0.638000    1.465000    1.878000
      2          1           0       -1.514000    2.111000    1.783000
      3          1           0        0.249000    2.067000    1.665000
      4          1           0       -0.576000    1.122000    2.916000
      5          6           0       -0.762000    0.275000    0.907000
      6          6           0       -2.028000   -0.515000    1.288000
      7          1           0       -1.940000   -0.885000    2.313000
      8          1           0       -2.173000   -1.374000    0.630000
      9          1           0       -2.920000    0.116000    1.227000
     10          6           0        0.445000   -0.672000    1.016000
     11          6           0        1.525000   -0.439000    1.875000
     12          6           0        2.597000   -1.326000    1.960000
     13          6           0        2.612000   -2.481000    1.178000
     14          8           0        3.686000   -3.317000    1.302000
     15          1           0        3.577000   -4.074000    0.704000
     16          6           0        1.544000   -2.736000    0.310000
     17          6           0        0.483000   -1.838000    0.237000
     18          1           0       -0.336000   -2.047000   -0.443000
     19          1           0        1.544000   -3.630000   -0.307000
     20          1           0        3.428000   -1.132000    2.631000
     21          1           0        1.535000    0.449000    2.494000
     22          6           0       -0.853000    0.824000   -0.528000
     23          6           0        0.206000    1.582000   -1.051000
     24          1           0        1.085000    1.758000   -0.440000
     25          6           0        0.165000    2.113000   -2.338000
     26          1           0        1.000000    2.697000   -2.714000
     27          6           0       -0.955000    1.889000   -3.147000
     28          8           0       -1.062000    2.375000   -4.419000
     29          1           0       -0.257000    2.869000   -4.644000
     30          6           0       -2.019000    1.136000   -2.650000
     31          1           0       -2.884000    0.965000   -3.282000
     32          6           0       -1.962000    0.616000   -1.357000
     33          1           0       -2.802000    0.035000   -0.995000
 ---------------------------------------------------------------------
                    Distance matrix (angstroms):
                    1          2          3          4          5
     1  C    0.000000
     2  H    1.092574   0.000000
     3  H    1.092951   1.767492   0.000000
     4  H    1.094960   1.772471   1.771624   0.000000
     5  C    1.540882   2.168819   2.192704   2.188170   0.000000
     6  C    2.490100   2.721231   3.463175   2.727353   1.540135
     7  H    2.721567   3.072197   3.731746   2.500431   2.170281
     8  H    3.460296   3.729466   4.333335   3.742489   2.187887
     9  H    2.729675   2.503197   3.747106   3.059263   2.187383
    10  C    2.546115   3.488704   2.821655   2.805508   1.538031
    11  C    2.881630   3.968184   2.819984   2.816843   2.584026
    12  C    4.273363   5.361401   4.136735   4.120021   3.867155
    13  C    5.159788   6.202932   5.148324   5.115232   4.364957
    14  O    6.472733   7.532234   6.397827   6.361946   5.730898
    15  H    7.058684   8.083115   7.050602   7.009905   6.146701
    16  C    4.986797   5.917305   5.155760   5.115643   3.839292
    17  C    3.854780   4.687507   4.164489   4.130390   2.542380
    18  H    4.220473   4.861247   4.659494   4.624180   2.719496
    19  H    5.957716   6.832170   6.166167   6.120754   4.694727
    20  H    4.883009   5.971559   4.612244   4.603668   4.744252
    21  H    2.476619   3.544597   2.226872   2.255512   2.797330
    22  C    2.499188   2.726538   2.751127   3.467949   1.539125
    23  C    3.050421   3.357052   2.759299   4.069424   2.545395
    24  H    2.903050   3.438188   2.285914   3.798178   2.724905
    25  C    4.340434   4.449909   4.004145   5.397747   3.842863
    26  H    5.028651   5.185229   4.487376   6.054858   4.699188
    27  C    5.052810   4.966555   4.963531   6.123063   4.367741
    28  O    6.376526   6.224050   6.231263   7.457106   5.732912
    29  H    6.682280   6.592491   6.379868   7.765782   6.147964
    30  C    4.745333   4.566962   4.962843   5.750026   3.869576
    31  H    5.649789   5.370702   5.958431   6.615642   4.746231
    32  C    3.597082   3.506470   4.015770   4.520571   2.584952
    33  H    3.870649   3.699460   4.529153   4.629532   2.799429
                    6          7          8          9         10
     6  C    0.000000
     7  H    1.093284   0.000000
     8  H    1.091728   1.768021   0.000000
     9  H    1.094324   1.772511   1.770457   0.000000
    10  C    2.492862   2.723197   2.737832   3.462469   0.000000
    11  C    3.601965   3.520935   4.012412   4.526141   1.399489
    12  C    4.743409   4.572030   4.952182   5.749256   2.439253
    13  C    5.040521   4.955416   4.941860   6.111451   2.827475
    14  O    6.364055   6.211974   6.209244   7.445156   4.193078
    15  H    6.665100   6.572358   6.352793   7.748589   4.634692
    16  C    4.318392   4.424530   3.971591   5.376066   2.442608
    17  C    3.026558   3.330002   2.724717   4.047051   1.402798
    18  H    2.864655   3.393906   2.231329   3.760921   2.151573
    19  H    5.000643   5.151474   4.447875   6.026024   3.421680
    20  H    5.652634   5.383081   5.952627   6.620108   3.423173
    21  H    3.883130   3.726653   4.532890   4.643620   2.151563
    22  C    2.543895   3.489059   2.813284   2.802459   2.511326
    23  C    3.854749   4.691258   4.150101   4.136462   3.067593
    24  H    4.224131   4.869813   4.644232   4.638435   2.904210
    25  C    4.986332   5.920374   5.141443   5.120006   4.368517
    26  H    5.958333   6.837035   6.150066   6.128576   5.056786
    27  C    5.157496   6.202975   5.137745   5.112400   5.084220
    28  O    6.469552   7.531156   6.386057   6.358660   6.410498
    29  H    7.055248   8.082379   7.034855   7.009937   6.713202
    30  C    4.270097   5.359296   4.133064   4.108933   4.772810
    31  H    4.879348   5.968053   4.613045   4.588374   5.677571
    32  C    2.877419   3.965146   2.820069   2.800861   3.617143
    33  H    2.472583   3.540100   2.240881   2.226605   3.884196
                   11         12         13         14         15
    11  C    0.000000
    12  C    1.393979   0.000000
    13  C    2.416018   1.394910   0.000000
    14  O    3.644329   2.362830   1.366656   0.000000
    15  H    4.335340   3.176388   1.921861   0.970842   0.000000
    16  C    2.779531   2.412345   1.399669   2.431006   2.465475
    17  C    2.392908   2.774864   2.414865   3.685224   3.845858
    18  H    3.379661   3.859629   3.392153   4.564472   4.553670
    19  H    3.865743   3.399487   2.160104   2.697223   2.313514
    20  H    2.161757   1.085559   2.144030   2.570414   3.520070
    21  H    1.082499   2.136264   3.387726   4.497824   5.275547
    22  C    3.608942   4.766041   5.083275   6.410874   6.718119
    23  C    3.792846   4.820733   5.221613   6.453465   6.814250
    24  H    3.221744   4.190131   4.787356   5.962834   6.444457
    25  C    5.109958   6.017819   6.281314   7.425089   7.692495
    26  H    5.582924   6.370339   6.675170   7.714340   8.010624
    27  C    6.065515   7.002455   7.108165   8.272540   8.421793
    28  O    7.363803   8.232698   8.270757   9.363344   9.452780
    29  H    7.524344   8.328034   8.411263   9.442921   9.565872
    30  C    5.959546   6.972876   7.013019   8.245880   8.349170
    31  H    6.928575   7.922664   7.872263   9.083693   9.111764
    32  C    4.870115   5.963081   6.077755   7.378257   7.544822
    33  H    5.213876   6.303455   6.353234   7.655472   7.775739
                   16         17         18         19         20
    16  C    0.000000
    17  C    1.391925   0.000000
    18  H    2.139189   1.084823   0.000000
    19  H    1.086244   2.152422   2.461460   0.000000
    20  H    3.392538   3.860401   4.945139   4.292005   0.000000
    21  H    3.861886   3.380994   4.284463   4.948123   2.470178
    22  C    4.372808   3.075120   2.918417   5.062861   5.668525
    23  C    4.720984   3.664979   3.719283   5.432193   5.595016
    24  H    4.579216   3.708362   4.061684   5.409151   4.824188
    25  C    5.694414   4.726748   4.598655   6.245691   6.772603
    26  H    6.241634   5.435247   5.426589   6.791209   7.008955
    27  C    6.291778   5.235440   4.815275   6.691036   7.856361
    28  O    7.434850   6.466431   5.990804   7.730447   9.064306
    29  H    7.694267   6.821115   6.466970   8.018115   9.083658
    30  C    6.037297   4.841430   4.223130   6.395262   7.918497
    31  H    6.797577   5.619329   4.860491   7.040727   8.899569
    32  C    5.129018   3.813263   3.251283   5.605627   6.929051
    33  H    5.316877   3.977082   3.274230   5.726542   7.302237
                   21         22         23         24         25
    21  H    0.000000
    22  C    3.869839   0.000000
    23  C    3.951829   1.403415   0.000000
    24  H    3.244123   2.153124   1.084868   0.000000
    25  C    5.290938   2.444166   1.392843   2.138885   0.000000
    26  H    5.697630   3.423497   2.153887   2.461711   1.086120
    27  C    6.332028   2.829097   2.415654   3.392139   1.399663
    28  O    7.631740   4.193944   3.685118   4.563194   2.429966
    29  H    7.747174   4.634512   3.844527   4.550703   2.463180
    30  C    6.289962   2.441267   2.776030   3.860803   2.412826
    31  H    7.290816   3.424815   3.860848   4.945581   3.391967
    32  C    5.204527   1.400138   2.393118   3.380719   2.779838
    33  H    5.581585   2.153883   3.382959   4.287834   3.863266
                   26         27         28         29         30
    26  H    0.000000
    27  C    2.159254   0.000000
    28  O    2.694912   1.365880   0.000000
    29  H    2.309661   1.920576   0.970920   0.000000
    30  C    3.399291   1.395032   2.362272   3.175527   0.000000
    31  H    4.290443   2.143138   2.569154   3.518720   1.084846
    32  C    3.865935   2.416336   3.644163   4.334444   1.394811
    33  H    4.949385   3.388190   4.497441   5.274825   2.136426
                   31         32         33
    31  H    0.000000
    32  C    2.162755   0.000000
    33  H    2.470221   1.083607   0.000000
 Stoichiometry    C15H16O2
 Framework group  C1[X(C15H16O2)]
 Deg. of freedom    93
 Full point group                 C1      NOp   1
 Largest Abelian subgroup         C1      NOp   1
 Largest concise Abelian subgroup C1      NOp   1
                         Standard orientation:                         
 ---------------------------------------------------------------------
 Center     Atomic      Atomic             Coordinates (Angstroms)
 Number     Number       Type             X           Y           Z
 ---------------------------------------------------------------------
      1          6           0        0.044051    2.388964    1.248684
      2          1           0        0.940040    3.013365    1.216383
      3          1           0        0.072957    1.806111    2.172799
      4          1           0       -0.830694    3.046420    1.287533
      5          6           0       -0.000539    1.479188    0.005850
      6          6           0       -0.048086    2.383813   -1.239706
      7          1           0       -0.944333    3.009217   -1.210038
      8          1           0       -0.077934    1.793969   -2.157890
      9          1           0        0.826359    3.040260   -1.284088
     10          6           0       -1.255390    0.589885    0.000698
     11          6           0       -2.205481    0.601566    1.028200
     12          6           0       -3.339976   -0.207283    0.985066
     13          6           0       -3.552157   -1.056036   -0.101383
     14          8           0       -4.681415   -1.825756   -0.093848
     15          1           0       -4.706290   -2.370882   -0.896813
     16          6           0       -2.615808   -1.086868   -1.141274
     17          6           0       -1.487868   -0.273559   -1.080163
     18          1           0       -0.768966   -0.310896   -1.891722
     19          1           0       -2.766815   -1.745237   -1.991963
     20          1           0       -4.068463   -0.187538    1.789650
     21          1           0       -2.064449    1.253795    1.880557
     22          6           0        1.255927    0.590256    0.006932
     23          6           0        1.479154   -0.296933    1.071187
     24          1           0        0.752040   -0.356077    1.874148
     25          6           0        2.607918   -1.111149    1.125541
     26          1           0        2.753421   -1.786640    1.963514
     27          6           0        3.553301   -1.058425    0.094752
     28          8           0        4.680315   -1.829951    0.079965
     29          1           0        4.694976   -2.394168    0.869984
     30          6           0        3.351640   -0.186334   -0.975250
     31          1           0        4.087394   -0.150524   -1.771662
     32          6           0        2.217422    0.624728   -1.010282
     33          1           0        2.084909    1.293610   -1.852448
 ---------------------------------------------------------------------
 Rotational constants (GHZ):      0.8418677      0.2604047      0.2338560
 Leave Link  202 at Fri Nov 13 03:25:48 2020, MaxMem=  2147483648 cpu:         0.0
 (Enter /prod/apps/gaussian/g09d1/l301.exe)
 Standard basis: 6-31G(d) (6D, 7F)
 Ernie: Thresh=  0.10000D-02 Tol=  0.10000D-05 Strict=F.
 There are   287 symmetry adapted cartesian basis functions of A   symmetry.
 There are   287 symmetry adapted basis functions of A   symmetry.
   287 basis functions,   540 primitive gaussians,   287 cartesian basis functions
    61 alpha electrons       61 beta electrons
       nuclear repulsion energy      1148.0445563388 Hartrees.
 IExCor=  402 DFT=T Ex+Corr=B3LYP ExCW=0 ScaHFX=  0.200000
 ScaDFX=  0.800000  0.720000  1.000000  0.810000 ScalE2=  1.000000  1.000000
 IRadAn=      0 IRanWt=     -1 IRanGd=            0 ICorTp=0 IEmpDi=  4
 NAtoms=   33 NActive=   33 NUniq=   33 SFac= 1.00D+00 NAtFMM=   60 NAOKFM=F Big=F
 Integral buffers will be    131072 words long.
 Raffenetti 2 integral format.
 Two-electron integral symmetry is turned on.
 Leave Link  301 at Fri Nov 13 03:25:48 2020, MaxMem=  2147483648 cpu:         0.0
 (Enter /prod/apps/gaussian/g09d1/l302.exe)
 NPDir=0 NMtPBC=     1 NCelOv=     1 NCel=       1 NClECP=     1 NCelD=      1
         NCelK=      1 NCelE2=     1 NClLst=     1 CellRange=     0.0.
 One-electron integrals computed using PRISM.
 NBasis=   287 RedAO= T EigKep=  4.10D-04  NBF=   287
 NBsUse=   287 1.00D-06 EigRej= -1.00D+00 NBFU=   287
 Precomputing XC quadrature grid using
 IXCGrd= 4 IRadAn=           0 IRanWt=          -1 IRanGd=           0 AccXCQ= 0.00D+00.
 Generated NRdTot=       0 NPtTot=           0 NUsed=           0 NTot=          32
 NSgBfM=   285   285   285   285   285 MxSgAt=    33 MxSgA2=    33.
 Leave Link  302 at Fri Nov 13 03:25:49 2020, MaxMem=  2147483648 cpu:         0.9
 (Enter /prod/apps/gaussian/g09d1/l303.exe)
 DipDrv:  MaxL=1.
 Leave Link  303 at Fri Nov 13 03:25:49 2020, MaxMem=  2147483648 cpu:         0.0
 (Enter /prod/apps/gaussian/g09d1/l401.exe)
 ExpMin= 1.61D-01 ExpMax= 5.48D+03 ExpMxC= 8.25D+02 IAcc=1 IRadAn=         1 AccDes= 0.00D+00
 Harris functional with IExCor=  402 and IRadAn=       1 diagonalized for initial guess.
 HarFok:  IExCor=  402 AccDes= 0.00D+00 IRadAn=         1 IDoV= 1 UseB2=F ITyADJ=14
 ICtDFT=  3500011 ScaDFX=  1.000000  1.000000  1.000000  1.000000
 FoFCou: FMM=F IPFlag=           0 FMFlag=      100000 FMFlg1=           0
         NFxFlg=           0 DoJE=T BraDBF=F KetDBF=T FulRan=T
         wScrn=  0.000000 ICntrl=     500 IOpCl=  0 I1Cent=   200000004 NGrid=           0
         NMat0=    1 NMatS0=      1 NMatT0=    0 NMatD0=    1 NMtDS0=    0 NMtDT0=    0
 Petite list used in FoFCou.
 Harris En= -731.729792712655    
 JPrj=0 DoOrth=F DoCkMO=F.
 Leave Link  401 at Fri Nov 13 03:25:52 2020, MaxMem=  2147483648 cpu:         3.5
 (Enter /prod/apps/gaussian/g09d1/l502.exe)
 Closed shell SCF:
 Using DIIS extrapolation, IDIIS=  1040.
 Integral symmetry usage will be decided dynamically.
 Keep R1 ints in memory in canonical form, NReq=866235802.
 IVT=      269554 IEndB=      269554 NGot=  2147483648 MDV=  1293191639
 LenX=  1293191639 LenY=  1293108829
 Requested convergence on RMS density matrix=1.00D-08 within 128 cycles.
 Requested convergence on MAX density matrix=1.00D-06.
 Requested convergence on             energy=1.00D-06.
 No special actions if energy rises.
 FoFCou: FMM=F IPFlag=           0 FMFlag=           0 FMFlg1=           0
         NFxFlg=           0 DoJE=F BraDBF=F KetDBF=F FulRan=T
         wScrn=  0.000000 ICntrl=     600 IOpCl=  0 I1Cent=           0 NGrid=           0
         NMat0=    1 NMatS0=  41328 NMatT0=    0 NMatD0=    1 NMtDS0=    0 NMtDT0=    0
 Symmetry not used in FoFCou.
 Integral accuracy reduced to 1.0D-05 until final iterations.

 Cycle   1  Pass 0  IDiag  1:
 E= -731.225564653062    
 DIIS: error= 3.00D-02 at cycle   1 NSaved=   1.
 NSaved= 1 IEnMin= 1 EnMin= -731.225564653062     IErMin= 1 ErrMin= 3.00D-02
 ErrMax= 3.00D-02  0.00D+00 EMaxC= 1.00D-01 BMatC= 4.28D-01 BMatP= 4.28D-01
 IDIUse=3 WtCom= 7.00D-01 WtEn= 3.00D-01
 Coeff-Com:  0.100D+01
 Coeff-En:   0.100D+01
 Coeff:      0.100D+01
 Gap=     0.217 Goal=   None    Shift=    0.000
 GapD=    0.217 DampG=1.000 DampE=0.500 DampFc=0.5000 IDamp=-1.
 Damping current iteration by 5.00D-01
 RMSDP=5.17D-03 MaxDP=1.33D-01              OVMax= 1.64D-01

 Cycle   2  Pass 0  IDiag  1:
 E= -731.429424748190     Delta-E=       -0.203860095128 Rises=F Damp=T
 DIIS: error= 7.31D-03 at cycle   2 NSaved=   2.
 NSaved= 2 IEnMin= 2 EnMin= -731.429424748190     IErMin= 2 ErrMin= 7.31D-03
 ErrMax= 7.31D-03  0.00D+00 EMaxC= 1.00D-01 BMatC= 2.10D-02 BMatP= 4.28D-01
 IDIUse=3 WtCom= 9.27D-01 WtEn= 7.31D-02
 Coeff-Com:  0.321D-01 0.968D+00
 Coeff-En:   0.584D-01 0.942D+00
 Coeff:      0.340D-01 0.966D+00
 Gap=     0.282 Goal=   None    Shift=    0.000
 RMSDP=1.53D-03 MaxDP=3.22D-02 DE=-2.04D-01 OVMax= 1.38D-01

 Cycle   3  Pass 0  IDiag  1:
 E= -731.646715501661     Delta-E=       -0.217290753471 Rises=F Damp=F
 DIIS: error= 6.71D-03 at cycle   3 NSaved=   3.
 NSaved= 3 IEnMin= 3 EnMin= -731.646715501661     IErMin= 3 ErrMin= 6.71D-03
 ErrMax= 6.71D-03  0.00D+00 EMaxC= 1.00D-01 BMatC= 1.73D-02 BMatP= 2.10D-02
 IDIUse=3 WtCom= 9.33D-01 WtEn= 6.71D-02
 Coeff-Com: -0.167D-01 0.474D+00 0.543D+00
 Coeff-En:   0.000D+00 0.000D+00 0.100D+01
 Coeff:     -0.156D-01 0.442D+00 0.574D+00
 Gap=     0.206 Goal=   None    Shift=    0.000
 RMSDP=9.42D-04 MaxDP=2.08D-02 DE=-2.17D-01 OVMax= 7.76D-02

 Cycle   4  Pass 0  IDiag  1:
 E= -731.655049753598     Delta-E=       -0.008334251937 Rises=F Damp=F
 DIIS: error= 5.25D-03 at cycle   4 NSaved=   4.
 NSaved= 4 IEnMin= 4 EnMin= -731.655049753598     IErMin= 4 ErrMin= 5.25D-03
 ErrMax= 5.25D-03  0.00D+00 EMaxC= 1.00D-01 BMatC= 1.01D-02 BMatP= 1.73D-02
 IDIUse=3 WtCom= 9.48D-01 WtEn= 5.25D-02
 Coeff-Com: -0.175D-01 0.103D+00 0.427D+00 0.487D+00
 Coeff-En:   0.000D+00 0.000D+00 0.396D+00 0.604D+00
 Coeff:     -0.166D-01 0.976D-01 0.425D+00 0.494D+00
 Gap=     0.205 Goal=   None    Shift=    0.000
 RMSDP=4.28D-04 MaxDP=9.79D-03 DE=-8.33D-03 OVMax= 3.47D-02

 Cycle   5  Pass 0  IDiag  1:
 E= -731.666134105367     Delta-E=       -0.011084351770 Rises=F Damp=F
 DIIS: error= 4.82D-04 at cycle   5 NSaved=   5.
 NSaved= 5 IEnMin= 5 EnMin= -731.666134105367     IErMin= 5 ErrMin= 4.82D-04
 ErrMax= 4.82D-04  0.00D+00 EMaxC= 1.00D-01 BMatC= 2.01D-04 BMatP= 1.01D-02
 IDIUse=3 WtCom= 9.95D-01 WtEn= 4.82D-03
 Coeff-Com: -0.605D-02 0.223D-01 0.177D+00 0.238D+00 0.570D+00
 Coeff-En:   0.000D+00 0.000D+00 0.000D+00 0.000D+00 0.100D+01
 Coeff:     -0.602D-02 0.222D-01 0.176D+00 0.236D+00 0.572D+00
 Gap=     0.205 Goal=   None    Shift=    0.000
 RMSDP=6.93D-05 MaxDP=1.73D-03 DE=-1.11D-02 OVMax= 4.02D-03

 Cycle   6  Pass 0  IDiag  1:
 E= -731.666291007607     Delta-E=       -0.000156902239 Rises=F Damp=F
 DIIS: error= 2.11D-04 at cycle   6 NSaved=   6.
 NSaved= 6 IEnMin= 6 EnMin= -731.666291007607     IErMin= 6 ErrMin= 2.11D-04
 ErrMax= 2.11D-04  0.00D+00 EMaxC= 1.00D-01 BMatC= 3.20D-05 BMatP= 2.01D-04
 IDIUse=3 WtCom= 9.98D-01 WtEn= 2.11D-03
 Coeff-Com: -0.156D-02 0.207D-02 0.516D-01 0.770D-01 0.330D+00 0.541D+00
 Coeff-En:   0.000D+00 0.000D+00 0.000D+00 0.000D+00 0.125D+00 0.875D+00
 Coeff:     -0.156D-02 0.207D-02 0.515D-01 0.768D-01 0.330D+00 0.541D+00
 Gap=     0.205 Goal=   None    Shift=    0.000
 RMSDP=2.55D-05 MaxDP=5.71D-04 DE=-1.57D-04 OVMax= 1.67D-03

 Cycle   7  Pass 0  IDiag  1:
 E= -731.666319806397     Delta-E=       -0.000028798790 Rises=F Damp=F
 DIIS: error= 5.77D-05 at cycle   7 NSaved=   7.
 NSaved= 7 IEnMin= 7 EnMin= -731.666319806397     IErMin= 7 ErrMin= 5.77D-05
 ErrMax= 5.77D-05  0.00D+00 EMaxC= 1.00D-01 BMatC= 1.63D-06 BMatP= 3.20D-05
 IDIUse=1 WtCom= 1.00D+00 WtEn= 0.00D+00
 Coeff-Com: -0.550D-03 0.178D-03 0.203D-01 0.312D-01 0.154D+00 0.293D+00
 Coeff-Com:  0.501D+00
 Coeff:     -0.550D-03 0.178D-03 0.203D-01 0.312D-01 0.154D+00 0.293D+00
 Coeff:      0.501D+00
 Gap=     0.205 Goal=   None    Shift=    0.000
 RMSDP=6.14D-06 MaxDP=1.44D-04 DE=-2.88D-05 OVMax= 4.56D-04

 Initial convergence to 1.0D-05 achieved.  Increase integral accuracy.
 Cycle   8  Pass 1  IDiag  1:
 E= -731.666274499361     Delta-E=        0.000045307036 Rises=F Damp=F
 DIIS: error= 3.00D-05 at cycle   1 NSaved=   1.
 NSaved= 1 IEnMin= 1 EnMin= -731.666274499361     IErMin= 1 ErrMin= 3.00D-05
 ErrMax= 3.00D-05  0.00D+00 EMaxC= 1.00D-01 BMatC= 4.06D-07 BMatP= 4.06D-07
 IDIUse=1 WtCom= 1.00D+00 WtEn= 0.00D+00
 Coeff-Com:  0.100D+01
 Coeff:      0.100D+01
 Gap=     0.205 Goal=   None    Shift=    0.000
 RMSDP=6.14D-06 MaxDP=1.44D-04 DE= 4.53D-05 OVMax= 3.37D-04

 Cycle   9  Pass 1  IDiag  1:
 E= -731.666274605012     Delta-E=       -0.000000105651 Rises=F Damp=F
 DIIS: error= 3.14D-05 at cycle   2 NSaved=   2.
 NSaved= 2 IEnMin= 2 EnMin= -731.666274605012     IErMin= 1 ErrMin= 3.00D-05
 ErrMax= 3.14D-05  0.00D+00 EMaxC= 1.00D-01 BMatC= 3.66D-07 BMatP= 4.06D-07
 IDIUse=1 WtCom= 1.00D+00 WtEn= 0.00D+00
 Coeff-Com:  0.483D+00 0.517D+00
 Coeff:      0.483D+00 0.517D+00
 Gap=     0.205 Goal=   None    Shift=    0.000
 RMSDP=3.39D-06 MaxDP=7.35D-05 DE=-1.06D-07 OVMax= 3.04D-04

 Cycle  10  Pass 1  IDiag  1:
 E= -731.666274920041     Delta-E=       -0.000000315029 Rises=F Damp=F
 DIIS: error= 1.63D-05 at cycle   3 NSaved=   3.
 NSaved= 3 IEnMin= 3 EnMin= -731.666274920041     IErMin= 3 ErrMin= 1.63D-05
 ErrMax= 1.63D-05  0.00D+00 EMaxC= 1.00D-01 BMatC= 7.97D-08 BMatP= 3.66D-07
 IDIUse=1 WtCom= 1.00D+00 WtEn= 0.00D+00
 Coeff-Com:  0.557D-02 0.314D+00 0.680D+00
 Coeff:      0.557D-02 0.314D+00 0.680D+00
 Gap=     0.205 Goal=   None    Shift=    0.000
 RMSDP=1.31D-06 MaxDP=2.67D-05 DE=-3.15D-07 OVMax= 1.25D-04

 Cycle  11  Pass 1  IDiag  1:
 E= -731.666275007334     Delta-E=       -0.000000087293 Rises=F Damp=F
 DIIS: error= 3.19D-06 at cycle   4 NSaved=   4.
 NSaved= 4 IEnMin= 4 EnMin= -731.666275007334     IErMin= 4 ErrMin= 3.19D-06
 ErrMax= 3.19D-06  0.00D+00 EMaxC= 1.00D-01 BMatC= 6.06D-09 BMatP= 7.97D-08
 IDIUse=1 WtCom= 1.00D+00 WtEn= 0.00D+00
 Coeff-Com: -0.165D-01 0.158D+00 0.393D+00 0.466D+00
 Coeff:     -0.165D-01 0.158D+00 0.393D+00 0.466D+00
 Gap=     0.205 Goal=   None    Shift=    0.000
 RMSDP=3.34D-07 MaxDP=9.14D-06 DE=-8.73D-08 OVMax= 2.10D-05

 Cycle  12  Pass 1  IDiag  1:
 E= -731.666275013134     Delta-E=       -0.000000005801 Rises=F Damp=F
 DIIS: error= 6.83D-07 at cycle   5 NSaved=   5.
 NSaved= 5 IEnMin= 5 EnMin= -731.666275013134     IErMin= 5 ErrMin= 6.83D-07
 ErrMax= 6.83D-07  0.00D+00 EMaxC= 1.00D-01 BMatC= 2.56D-10 BMatP= 6.06D-09
 IDIUse=1 WtCom= 1.00D+00 WtEn= 0.00D+00
 Coeff-Com: -0.876D-02 0.609D-01 0.162D+00 0.240D+00 0.546D+00
 Coeff:     -0.876D-02 0.609D-01 0.162D+00 0.240D+00 0.546D+00
 Gap=     0.205 Goal=   None    Shift=    0.000
 RMSDP=9.33D-08 MaxDP=2.28D-06 DE=-5.80D-09 OVMax= 6.60D-06

 Cycle  13  Pass 1  IDiag  1:
 E= -731.666275013344     Delta-E=       -0.000000000210 Rises=F Damp=F
 DIIS: error= 3.86D-07 at cycle   6 NSaved=   6.
 NSaved= 6 IEnMin= 6 EnMin= -731.666275013344     IErMin= 6 ErrMin= 3.86D-07
 ErrMax= 3.86D-07  0.00D+00 EMaxC= 1.00D-01 BMatC= 5.62D-11 BMatP= 2.56D-10
 IDIUse=1 WtCom= 1.00D+00 WtEn= 0.00D+00
 Coeff-Com: -0.433D-02 0.258D-01 0.716D-01 0.116D+00 0.362D+00 0.429D+00
 Coeff:     -0.433D-02 0.258D-01 0.716D-01 0.116D+00 0.362D+00 0.429D+00
 Gap=     0.205 Goal=   None    Shift=    0.000
 RMSDP=3.47D-08 MaxDP=8.82D-07 DE=-2.10D-10 OVMax= 3.18D-06

 Cycle  14  Pass 1  IDiag  1:
 E= -731.666275013386     Delta-E=       -0.000000000042 Rises=F Damp=F
 DIIS: error= 6.12D-08 at cycle   7 NSaved=   7.
 NSaved= 7 IEnMin= 7 EnMin= -731.666275013386     IErMin= 7 ErrMin= 6.12D-08
 ErrMax= 6.12D-08  0.00D+00 EMaxC= 1.00D-01 BMatC= 2.03D-12 BMatP= 5.62D-11
 IDIUse=1 WtCom= 1.00D+00 WtEn= 0.00D+00
 Coeff-Com: -0.503D-03 0.130D-02 0.530D-02 0.110D-01 0.688D-01 0.185D+00
 Coeff-Com:  0.729D+00
 Coeff:     -0.503D-03 0.130D-02 0.530D-02 0.110D-01 0.688D-01 0.185D+00
 Coeff:      0.729D+00
 Gap=     0.205 Goal=   None    Shift=    0.000
 RMSDP=6.56D-09 MaxDP=1.88D-07 DE=-4.18D-11 OVMax= 4.46D-07

 SCF Done:  E(RB3LYP) =  -731.666275013     A.U. after   14 cycles
            NFock= 14  Conv=0.66D-08     -V/T= 2.0094
 KE= 7.248512439882D+02 PE=-3.996460083029D+03 EE= 1.391898007689D+03
 Leave Link  502 at Fri Nov 13 03:28:25 2020, MaxMem=  2147483648 cpu:       152.7
 (Enter /prod/apps/gaussian/g09d1/l601.exe)
 Copying SCF densities to generalized density rwf, IOpCl= 0 IROHF=0.

 **********************************************************************

            Population analysis using the SCF density.

 **********************************************************************

 Orbital symmetries:
       Occupied  (A) (A) (A) (A) (A) (A) (A) (A) (A) (A) (A) (A)
                 (A) (A) (A) (A) (A) (A) (A) (A) (A) (A) (A) (A)
                 (A) (A) (A) (A) (A) (A) (A) (A) (A) (A) (A) (A)
                 (A) (A) (A) (A) (A) (A) (A) (A) (A) (A) (A) (A)
                 (A) (A) (A) (A) (A) (A) (A) (A) (A) (A) (A) (A)
                 (A)
       Virtual   (A) (A) (A) (A) (A) (A) (A) (A) (A) (A) (A) (A)
                 (A) (A) (A) (A) (A) (A) (A) (A) (A) (A) (A) (A)
                 (A) (A) (A) (A) (A) (A) (A) (A) (A) (A) (A) (A)
                 (A) (A) (A) (A) (A) (A) (A) (A) (A) (A) (A) (A)
                 (A) (A) (A) (A) (A) (A) (A) (A) (A) (A) (A) (A)
                 (A) (A) (A) (A) (A) (A) (A) (A) (A) (A) (A) (A)
                 (A) (A) (A) (A) (A) (A) (A) (A) (A) (A) (A) (A)
                 (A) (A) (A) (A) (A) (A) (A) (A) (A) (A) (A) (A)
                 (A) (A) (A) (A) (A) (A) (A) (A) (A) (A) (A) (A)
                 (A) (A) (A) (A) (A) (A) (A) (A) (A) (A) (A) (A)
                 (A) (A) (A) (A) (A) (A) (A) (A) (A) (A) (A) (A)
                 (A) (A) (A) (A) (A) (A) (A) (A) (A) (A) (A) (A)
                 (A) (A) (A) (A) (A) (A) (A) (A) (A) (A) (A) (A)
                 (A) (A) (A) (A) (A) (A) (A) (A) (A) (A) (A) (A)
                 (A) (A) (A) (A) (A) (A) (A) (A) (A) (A) (A) (A)
                 (A) (A) (A) (A) (A) (A) (A) (A) (A) (A) (A) (A)
                 (A) (A) (A) (A) (A) (A) (A) (A) (A) (A) (A) (A)
                 (A) (A) (A) (A) (A) (A) (A) (A) (A) (A) (A) (A)
                 (A) (A) (A) (A) (A) (A) (A) (A) (A) (A)
 The electronic state is 1-A.
 Alpha  occ. eigenvalues --  -19.17546 -19.17540 -10.24380 -10.24371 -10.20365
 Alpha  occ. eigenvalues --  -10.18591 -10.18588 -10.18473 -10.18458 -10.18379
 Alpha  occ. eigenvalues --  -10.18356 -10.18323 -10.18300 -10.17905 -10.17900
 Alpha  occ. eigenvalues --  -10.17277 -10.17250  -1.05564  -1.05531  -0.86041
 Alpha  occ. eigenvalues --   -0.84122  -0.80260  -0.74396  -0.74210  -0.72882
 Alpha  occ. eigenvalues --   -0.71482  -0.68655  -0.63297  -0.61429  -0.60268
 Alpha  occ. eigenvalues --   -0.59736  -0.55526  -0.54012  -0.53963  -0.48937
 Alpha  occ. eigenvalues --   -0.47651  -0.46994  -0.44417  -0.44323  -0.44262
 Alpha  occ. eigenvalues --   -0.41855  -0.41680  -0.41131  -0.40605  -0.40224
 Alpha  occ. eigenvalues --   -0.39891  -0.38746  -0.38032  -0.37392  -0.37271
 Alpha  occ. eigenvalues --   -0.34964  -0.34899  -0.33429  -0.33164  -0.31630
 Alpha  occ. eigenvalues --   -0.31518  -0.31160  -0.24668  -0.24612  -0.22005
 Alpha  occ. eigenvalues --   -0.20367
 Alpha virt. eigenvalues --    0.00101   0.00169   0.01311   0.02704   0.06951
 Alpha virt. eigenvalues --    0.06973   0.09064   0.10698   0.12460   0.12789
 Alpha virt. eigenvalues --    0.14215   0.14618   0.15375   0.15849   0.16443
 Alpha virt. eigenvalues --    0.16964   0.18129   0.19430   0.19903   0.20555
 Alpha virt. eigenvalues --    0.21195   0.22817   0.23546   0.25285   0.25341
 Alpha virt. eigenvalues --    0.25913   0.27027   0.27071   0.31997   0.32044
 Alpha virt. eigenvalues --    0.33855   0.34548   0.36326   0.36448   0.37471
 Alpha virt. eigenvalues --    0.37716   0.49047   0.49566   0.50886   0.51358
 Alpha virt. eigenvalues --    0.51420   0.52350   0.53316   0.53925   0.54008
 Alpha virt. eigenvalues --    0.55960   0.56080   0.57609   0.57650   0.59636
 Alpha virt. eigenvalues --    0.59684   0.60583   0.60890   0.61389   0.61465
 Alpha virt. eigenvalues --    0.62835   0.63002   0.63925   0.64733   0.65899
 Alpha virt. eigenvalues --    0.66258   0.67480   0.67708   0.69204   0.70472
 Alpha virt. eigenvalues --    0.73947   0.75283   0.75631   0.75701   0.76226
 Alpha virt. eigenvalues --    0.78641   0.80844   0.82611   0.82989   0.83815
 Alpha virt. eigenvalues --    0.83931   0.84735   0.86324   0.87022   0.87845
 Alpha virt. eigenvalues --    0.88883   0.89165   0.89684   0.89784   0.91350
 Alpha virt. eigenvalues --    0.92293   0.93010   0.93776   0.95259   0.96663
 Alpha virt. eigenvalues --    0.97322   0.97814   0.98487   0.99099   0.99257
 Alpha virt. eigenvalues --    1.01674   1.03419   1.04115   1.04275   1.06358
 Alpha virt. eigenvalues --    1.07916   1.08214   1.14889   1.15219   1.16290
 Alpha virt. eigenvalues --    1.17547   1.18707   1.20251   1.22882   1.23349
 Alpha virt. eigenvalues --    1.24565   1.26203   1.28351   1.32359   1.32471
 Alpha virt. eigenvalues --    1.36282   1.37353   1.37514   1.41163   1.41575
 Alpha virt. eigenvalues --    1.42478   1.45623   1.46601   1.46659   1.49614
 Alpha virt. eigenvalues --    1.51117   1.51507   1.52218   1.52436   1.61762
 Alpha virt. eigenvalues --    1.64870   1.66133   1.70238   1.70501   1.73621
 Alpha virt. eigenvalues --    1.73673   1.76109   1.76443   1.77799   1.79693
 Alpha virt. eigenvalues --    1.80394   1.84427   1.86362   1.87370   1.88682
 Alpha virt. eigenvalues --    1.89226   1.91066   1.91263   1.95313   1.95403
 Alpha virt. eigenvalues --    1.97928   1.99513   1.99728   2.00398   2.01889
 Alpha virt. eigenvalues --    2.04237   2.05250   2.06940   2.07322   2.10984
 Alpha virt. eigenvalues --    2.12319   2.14180   2.14249   2.14531   2.15346
 Alpha virt. eigenvalues --    2.17299   2.21018   2.25580   2.25770   2.26907
 Alpha virt. eigenvalues --    2.28669   2.28960   2.29646   2.30798   2.32056
 Alpha virt. eigenvalues --    2.33028   2.33761   2.34020   2.40210   2.40690
 Alpha virt. eigenvalues --    2.40946   2.42074   2.49367   2.50442   2.50621
 Alpha virt. eigenvalues --    2.58878   2.60273   2.62224   2.62398   2.62661
 Alpha virt. eigenvalues --    2.64725   2.66449   2.67004   2.67672   2.71281
 Alpha virt. eigenvalues --    2.77875   2.78330   2.80341   2.82809   2.88310
 Alpha virt. eigenvalues --    2.91886   2.93695   2.95562   2.97708   3.01271
 Alpha virt. eigenvalues --    3.13351   3.15504   3.42315   3.42604   3.94456
 Alpha virt. eigenvalues --    3.94475   4.11117   4.12212   4.12333   4.13208
 Alpha virt. eigenvalues --    4.23487   4.24954   4.25677   4.33070   4.33210
 Alpha virt. eigenvalues --    4.36399   4.44559   4.51494   4.69399   4.76057
 Alpha virt. eigenvalues --    4.80410
          Condensed to atoms (all electrons):
               1          2          3          4          5          6
     1  C    5.200973   0.363994   0.361359   0.354956   0.351693  -0.066356
     2  H    0.363994   0.566977  -0.028387  -0.028382  -0.026723  -0.005748
     3  H    0.361359  -0.028387   0.572702  -0.033379  -0.021008   0.006192
     4  H    0.354956  -0.028382  -0.033379   0.584754  -0.023788  -0.006304
     5  C    0.351693  -0.026723  -0.021008  -0.023788   5.015520   0.351559
     6  C   -0.066356  -0.005748   0.006192  -0.006304   0.351559   5.203025
     7  H   -0.005677  -0.000071  -0.000042   0.004685  -0.026773   0.364093
     8  H    0.006212  -0.000045  -0.000207  -0.000042  -0.021335   0.361677
     9  H   -0.006305   0.004716  -0.000047   0.000118  -0.023440   0.354468
    10  C   -0.042603   0.004450  -0.007565  -0.006151   0.365625  -0.054888
    11  C   -0.014031   0.000465   0.001545   0.001873  -0.047524   0.003078
    12  C    0.000186  -0.000004   0.000100   0.000102   0.006203  -0.000195
    13  C   -0.000006   0.000000  -0.000006  -0.000006   0.000300   0.000002
    14  O    0.000000   0.000000   0.000000   0.000000   0.000001   0.000000
    15  H    0.000000   0.000000   0.000000   0.000000  -0.000001   0.000000
    16  C   -0.000185   0.000002   0.000003  -0.000002   0.005737   0.000331
    17  C    0.007239  -0.000101  -0.000190  -0.000256  -0.057835  -0.012549
    18  H    0.000194  -0.000009   0.000002  -0.000008  -0.008503  -0.000228
    19  H    0.000002   0.000000   0.000000   0.000000  -0.000161   0.000002
    20  H    0.000002   0.000000   0.000001   0.000002  -0.000117   0.000002
    21  H    0.009315  -0.000118   0.001979   0.001160  -0.017267   0.000296
    22  C   -0.054339  -0.002112  -0.010307   0.005971   0.364986  -0.042734
    23  C   -0.011986   0.000011   0.005808   0.000250  -0.057988   0.007246
    24  H   -0.000065   0.000061   0.003882  -0.000167  -0.008444   0.000195
    25  C    0.000287  -0.000072   0.000047   0.000001   0.005676  -0.000183
    26  H    0.000002   0.000000   0.000006   0.000000  -0.000159   0.000002
    27  C    0.000004  -0.000010  -0.000006   0.000000   0.000297  -0.000006
    28  O    0.000000   0.000000   0.000000   0.000000   0.000001   0.000000
    29  H    0.000000   0.000000   0.000000   0.000000  -0.000001   0.000000
    30  C   -0.000191  -0.000026   0.000008   0.000002   0.006169   0.000190
    31  H    0.000002   0.000001   0.000000   0.000000  -0.000117   0.000002
    32  C    0.002871   0.000950  -0.000264  -0.000071  -0.047600  -0.014025
    33  H    0.000300  -0.000054  -0.000008  -0.000013  -0.017262   0.009268
               7          8          9         10         11         12
     1  C   -0.005677   0.006212  -0.006305  -0.042603  -0.014031   0.000186
     2  H   -0.000071  -0.000045   0.004716   0.004450   0.000465  -0.000004
     3  H   -0.000042  -0.000207  -0.000047  -0.007565   0.001545   0.000100
     4  H    0.004685  -0.000042   0.000118  -0.006151   0.001873   0.000102
     5  C   -0.026773  -0.021335  -0.023440   0.365625  -0.047524   0.006203
     6  C    0.364093   0.361677   0.354468  -0.054888   0.003078  -0.000195
     7  H    0.566932  -0.028260  -0.028443  -0.002138   0.000902  -0.000026
     8  H   -0.028260   0.572336  -0.033400  -0.010894  -0.000269   0.000008
     9  H   -0.028443  -0.033400   0.585185   0.006067  -0.000075   0.000002
    10  C   -0.002138  -0.010894   0.006067   4.724320   0.538251  -0.023451
    11  C    0.000902  -0.000269  -0.000075   0.538251   5.010681   0.501991
    12  C   -0.000026   0.000008   0.000002  -0.023451   0.501991   4.981733
    13  C   -0.000010  -0.000006   0.000000  -0.033064  -0.016350   0.548144
    14  O    0.000000   0.000000   0.000000   0.000303   0.002820  -0.050640
    15  H    0.000000   0.000000   0.000000  -0.000039  -0.000159   0.006222
    16  C   -0.000080   0.000072   0.000000  -0.023778  -0.041946  -0.067776
    17  C    0.000032   0.005884   0.000282   0.525111  -0.057147  -0.042091
    18  H    0.000074   0.004222  -0.000177  -0.043076   0.006277   0.000525
    19  H    0.000000   0.000007   0.000000   0.003212   0.000704   0.005191
    20  H    0.000001   0.000000   0.000000   0.003859  -0.040257   0.346081
    21  H   -0.000051  -0.000008  -0.000013  -0.040058   0.353536  -0.048554
    22  C    0.004460  -0.007446  -0.006565  -0.059429  -0.002534  -0.000053
    23  C   -0.000100  -0.000181  -0.000272  -0.005313   0.002149  -0.000082
    24  H   -0.000009   0.000001  -0.000008   0.004131   0.001722   0.000059
    25  C    0.000002   0.000002  -0.000001   0.000267   0.000042   0.000000
    26  H    0.000000   0.000000   0.000000   0.000000   0.000000   0.000000
    27  C    0.000000  -0.000005  -0.000007   0.000019   0.000001   0.000000
    28  O    0.000000   0.000000   0.000000   0.000000   0.000000   0.000000
    29  H    0.000000   0.000000   0.000000   0.000000   0.000000   0.000000
    30  C   -0.000005   0.000085   0.000134  -0.000053   0.000003   0.000000
    31  H    0.000000   0.000001   0.000002   0.000000   0.000000   0.000000
    32  C    0.000470   0.001539   0.001915  -0.002222  -0.000383   0.000003
    33  H   -0.000110   0.001870   0.001246   0.000374   0.000000   0.000000
              13         14         15         16         17         18
     1  C   -0.000006   0.000000   0.000000  -0.000185   0.007239   0.000194
     2  H    0.000000   0.000000   0.000000   0.000002  -0.000101  -0.000009
     3  H   -0.000006   0.000000   0.000000   0.000003  -0.000190   0.000002
     4  H   -0.000006   0.000000   0.000000  -0.000002  -0.000256  -0.000008
     5  C    0.000300   0.000001  -0.000001   0.005737  -0.057835  -0.008503
     6  C    0.000002   0.000000   0.000000   0.000331  -0.012549  -0.000228
     7  H   -0.000010   0.000000   0.000000  -0.000080   0.000032   0.000074
     8  H   -0.000006   0.000000   0.000000   0.000072   0.005884   0.004222
     9  H    0.000000   0.000000   0.000000   0.000000   0.000282  -0.000177
    10  C   -0.033064   0.000303  -0.000039  -0.023778   0.525111  -0.043076
    11  C   -0.016350   0.002820  -0.000159  -0.041946  -0.057147   0.006277
    12  C    0.548144  -0.050640   0.006222  -0.067776  -0.042091   0.000525
    13  C    4.482804   0.282744  -0.031756   0.498048  -0.007082   0.003201
    14  O    0.282744   8.230407   0.242299  -0.059775   0.004447  -0.000057
    15  H   -0.031756   0.242299   0.374586  -0.004572   0.000623  -0.000013
    16  C    0.498048  -0.059775  -0.004572   5.105329   0.472503  -0.038525
    17  C   -0.007082   0.004447   0.000623   0.472503   5.030318   0.347831
    18  H    0.003201  -0.000057  -0.000013  -0.038525   0.347831   0.596129
    19  H   -0.046300  -0.005397   0.007083   0.342915  -0.032057  -0.005813
    20  H   -0.036930  -0.001314  -0.000334   0.006978   0.000205   0.000017
    21  H    0.004651  -0.000060   0.000006   0.000342   0.007090  -0.000194
    22  C    0.000021   0.000000   0.000000   0.000245  -0.005263   0.003962
    23  C    0.000001   0.000000   0.000000  -0.000087  -0.002054   0.000542
    24  H   -0.000016   0.000000   0.000000  -0.000043   0.000545  -0.000016
    25  C    0.000000   0.000000   0.000000  -0.000009  -0.000088  -0.000039
    26  H    0.000000   0.000000   0.000000   0.000000   0.000000   0.000000
    27  C    0.000000   0.000000   0.000000   0.000000   0.000001  -0.000014
    28  O    0.000000   0.000000   0.000000   0.000000   0.000000   0.000000
    29  H    0.000000   0.000000   0.000000   0.000000   0.000000   0.000000
    30  C    0.000000   0.000000   0.000000   0.000000  -0.000073   0.000046
    31  H    0.000000   0.000000   0.000000   0.000000   0.000001  -0.000001
    32  C    0.000001   0.000000   0.000000   0.000038   0.002109   0.001514
    33  H    0.000000   0.000000   0.000000  -0.000001  -0.000205  -0.000072
              19         20         21         22         23         24
     1  C    0.000002   0.000002   0.009315  -0.054339  -0.011986  -0.000065
     2  H    0.000000   0.000000  -0.000118  -0.002112   0.000011   0.000061
     3  H    0.000000   0.000001   0.001979  -0.010307   0.005808   0.003882
     4  H    0.000000   0.000002   0.001160   0.005971   0.000250  -0.000167
     5  C   -0.000161  -0.000117  -0.017267   0.364986  -0.057988  -0.008444
     6  C    0.000002   0.000002   0.000296  -0.042734   0.007246   0.000195
     7  H    0.000000   0.000001  -0.000051   0.004460  -0.000100  -0.000009
     8  H    0.000007   0.000000  -0.000008  -0.007446  -0.000181   0.000001
     9  H    0.000000   0.000000  -0.000013  -0.006565  -0.000272  -0.000008
    10  C    0.003212   0.003859  -0.040058  -0.059429  -0.005313   0.004131
    11  C    0.000704  -0.040257   0.353536  -0.002534   0.002149   0.001722
    12  C    0.005191   0.346081  -0.048554  -0.000053  -0.000082   0.000059
    13  C   -0.046300  -0.036930   0.004651   0.000021   0.000001  -0.000016
    14  O   -0.005397  -0.001314  -0.000060   0.000000   0.000000   0.000000
    15  H    0.007083  -0.000334   0.000006   0.000000   0.000000   0.000000
    16  C    0.342915   0.006978   0.000342   0.000245  -0.000087  -0.000043
    17  C   -0.032057   0.000205   0.007090  -0.005263  -0.002054   0.000545
    18  H   -0.005813   0.000017  -0.000194   0.003962   0.000542  -0.000016
    19  H    0.614329  -0.000188   0.000017   0.000000   0.000000   0.000000
    20  H   -0.000188   0.592940  -0.006226   0.000000   0.000001  -0.000001
    21  H    0.000017  -0.006226   0.607311   0.000372  -0.000209  -0.000062
    22  C    0.000000   0.000000   0.000372   4.726171   0.524744  -0.042954
    23  C    0.000000   0.000001  -0.000209   0.524744   5.030049   0.347875
    24  H    0.000000  -0.000001  -0.000062  -0.042954   0.347875   0.596002
    25  C    0.000000   0.000000  -0.000001  -0.023826   0.472465  -0.038707
    26  H    0.000000   0.000000   0.000000   0.003200  -0.032017  -0.005797
    27  C    0.000000   0.000000   0.000000  -0.032950  -0.007023   0.003207
    28  O    0.000000   0.000000   0.000000   0.000304   0.004441  -0.000057
    29  H    0.000000   0.000000   0.000000  -0.000039   0.000623  -0.000013
    30  C    0.000000   0.000000   0.000000  -0.023734  -0.042033   0.000523
    31  H    0.000000   0.000000   0.000000   0.003853   0.000202   0.000017
    32  C    0.000000   0.000000   0.000000   0.537712  -0.056810   0.006251
    33  H    0.000000   0.000000   0.000000  -0.039959   0.007039  -0.000193
              25         26         27         28         29         30
     1  C    0.000287   0.000002   0.000004   0.000000   0.000000  -0.000191
     2  H   -0.000072   0.000000  -0.000010   0.000000   0.000000  -0.000026
     3  H    0.000047   0.000006  -0.000006   0.000000   0.000000   0.000008
     4  H    0.000001   0.000000   0.000000   0.000000   0.000000   0.000002
     5  C    0.005676  -0.000159   0.000297   0.000001  -0.000001   0.006169
     6  C   -0.000183   0.000002  -0.000006   0.000000   0.000000   0.000190
     7  H    0.000002   0.000000   0.000000   0.000000   0.000000  -0.000005
     8  H    0.000002   0.000000  -0.000005   0.000000   0.000000   0.000085
     9  H   -0.000001   0.000000  -0.000007   0.000000   0.000000   0.000134
    10  C    0.000267   0.000000   0.000019   0.000000   0.000000  -0.000053
    11  C    0.000042   0.000000   0.000001   0.000000   0.000000   0.000003
    12  C    0.000000   0.000000   0.000000   0.000000   0.000000   0.000000
    13  C    0.000000   0.000000   0.000000   0.000000   0.000000   0.000000
    14  O    0.000000   0.000000   0.000000   0.000000   0.000000   0.000000
    15  H    0.000000   0.000000   0.000000   0.000000   0.000000   0.000000
    16  C   -0.000009   0.000000   0.000000   0.000000   0.000000   0.000000
    17  C   -0.000088   0.000000   0.000001   0.000000   0.000000  -0.000073
    18  H   -0.000039   0.000000  -0.000014   0.000000   0.000000   0.000046
    19  H    0.000000   0.000000   0.000000   0.000000   0.000000   0.000000
    20  H    0.000000   0.000000   0.000000   0.000000   0.000000   0.000000
    21  H   -0.000001   0.000000   0.000000   0.000000   0.000000   0.000000
    22  C   -0.023826   0.003200  -0.032950   0.000304  -0.000039  -0.023734
    23  C    0.472465  -0.032017  -0.007023   0.004441   0.000623  -0.042033
    24  H   -0.038707  -0.005797   0.003207  -0.000057  -0.000013   0.000523
    25  C    5.105483   0.342899   0.498344  -0.059817  -0.004583  -0.067851
    26  H    0.342899   0.614345  -0.046341  -0.005415   0.007145   0.005209
    27  C    0.498344  -0.046341   4.482118   0.282863  -0.031881   0.548070
    28  O   -0.059817  -0.005415   0.282863   8.229953   0.242359  -0.050702
    29  H   -0.004583   0.007145  -0.031881   0.242359   0.374589   0.006241
    30  C   -0.067851   0.005209   0.548070  -0.050702   0.006241   4.981850
    31  H    0.006991  -0.000189  -0.036965  -0.001302  -0.000338   0.346104
    32  C   -0.041939   0.000697  -0.016235   0.002824  -0.000160   0.502179
    33  H    0.000346   0.000016   0.004642  -0.000060   0.000006  -0.048436
              31         32         33
     1  C    0.000002   0.002871   0.000300
     2  H    0.000001   0.000950  -0.000054
     3  H    0.000000  -0.000264  -0.000008
     4  H    0.000000  -0.000071  -0.000013
     5  C   -0.000117  -0.047600  -0.017262
     6  C    0.000002  -0.014025   0.009268
     7  H    0.000000   0.000470  -0.000110
     8  H    0.000001   0.001539   0.001870
     9  H    0.000002   0.001915   0.001246
    10  C    0.000000  -0.002222   0.000374
    11  C    0.000000  -0.000383   0.000000
    12  C    0.000000   0.000003   0.000000
    13  C    0.000000   0.000001   0.000000
    14  O    0.000000   0.000000   0.000000
    15  H    0.000000   0.000000   0.000000
    16  C    0.000000   0.000038  -0.000001
    17  C    0.000001   0.002109  -0.000205
    18  H   -0.000001   0.001514  -0.000072
    19  H    0.000000   0.000000   0.000000
    20  H    0.000000   0.000000   0.000000
    21  H    0.000000   0.000000   0.000000
    22  C    0.003853   0.537712  -0.039959
    23  C    0.000202  -0.056810   0.007039
    24  H    0.000017   0.006251  -0.000193
    25  C    0.006991  -0.041939   0.000346
    26  H   -0.000189   0.000697   0.000016
    27  C   -0.036965  -0.016235   0.004642
    28  O   -0.001302   0.002824  -0.000060
    29  H   -0.000338  -0.000160   0.000006
    30  C    0.346104   0.502179  -0.048436
    31  H    0.592868  -0.040223  -0.006218
    32  C   -0.040223   5.010930   0.353452
    33  H   -0.006218   0.353452   0.607289
 Mulliken charges:
               1
     1  C   -0.457847
     2  H    0.150236
     3  H    0.147779
     4  H    0.144695
     5  C   -0.067720
     6  C   -0.458411
     7  H    0.150144
     8  H    0.148181
     9  H    0.144618
    10  C    0.178734
    11  C   -0.205365
    12  C   -0.163679
    13  C    0.351614
    14  O   -0.645778
    15  H    0.406053
    16  C   -0.195764
    17  C   -0.187227
    18  H    0.132212
    19  H    0.116453
    20  H    0.135279
    21  H    0.126747
    22  C    0.178242
    23  C   -0.187290
    24  H    0.132081
    25  C   -0.195736
    26  H    0.116396
    27  C    0.351878
    28  O   -0.645390
    29  H    0.406051
    30  C   -0.163708
    31  H    0.135307
    32  C   -0.205525
    33  H    0.126741
 Sum of Mulliken charges =   0.00000
 Mulliken charges with hydrogens summed into heavy atoms:
               1
     1  C   -0.015137
     5  C   -0.067720
     6  C   -0.015469
    10  C    0.178734
    11  C   -0.078618
    12  C   -0.028400
    13  C    0.351614
    14  O   -0.239725
    16  C   -0.079311
    17  C   -0.055015
    22  C    0.178242
    23  C   -0.055210
    25  C   -0.079339
    27  C    0.351878
    28  O   -0.239340
    30  C   -0.028401
    32  C   -0.078783
 Electronic spatial extent (au):  <R**2>=           4795.7777
 Charge=              0.0000 electrons
 Dipole moment (field-independent basis, Debye):
    X=             -0.0139    Y=             -0.9457    Z=             -0.0204  Tot=              0.9460
 Quadrupole moment (field-independent basis, Debye-Ang):
   XX=           -104.7371   YY=            -92.9283   ZZ=            -92.0822
   XY=             -0.0704   XZ=              9.3101   YZ=             -0.0372
 Traceless Quadrupole moment (field-independent basis, Debye-Ang):
   XX=             -8.1546   YY=              3.6543   ZZ=              4.5003
   XY=             -0.0704   XZ=              9.3101   YZ=             -0.0372
 Octapole moment (field-independent basis, Debye-Ang**2):
  XXX=             -0.7626  YYY=            -35.5389  ZZZ=             -0.1881  XYY=              0.8911
  XXY=            -37.2783  XXZ=             -0.8554  XZZ=             -0.7325  YZZ=            -15.0989
  YYZ=              0.0497  XYZ=            -43.8134
 Hexadecapole moment (field-independent basis, Debye-Ang**3):
 XXXX=          -4602.4721 YYYY=          -1138.9634 ZZZZ=           -648.9386 XXXY=              0.2032
 XXXZ=            230.8379 YYYX=             -3.4414 YYYZ=             -0.4103 ZZZX=              5.9917
 ZZZY=              0.4799 XXYY=           -791.0773 XXZZ=           -734.7046 YYZZ=           -291.4090
 XXYZ=              0.4611 YYXZ=            100.2665 ZZXY=              1.2677
 N-N= 1.148044556339D+03 E-N=-3.996460101626D+03  KE= 7.248512439882D+02
 No NMR shielding tensors so no spin-rotation constants.
 Leave Link  601 at Fri Nov 13 03:28:25 2020, MaxMem=  2147483648 cpu:         0.2
 (Enter /prod/apps/gaussian/g09d1/l9999.exe)
 1\1\GINC-PIRINEUS16\SP\RB3LYP\6-31G(d)\C15H16O2\UBAFAR01\13-Nov-2020\0
 \\#p b3lyp/6-31G(d)\\SET_328_BBB212_conf1_geo_135_300.n.pdb.xyz\\0,1\C
 ,0,-0.638,1.465,1.878\H,0,-1.514,2.111,1.783\H,0,0.249,2.067,1.665\H,0
 ,-0.576,1.122,2.916\C,0,-0.762,0.275,0.907\C,0,-2.028,-0.515,1.288\H,0
 ,-1.94,-0.885,2.313\H,0,-2.173,-1.374,0.63\H,0,-2.92,0.116,1.227\C,0,0
 .445,-0.672,1.016\C,0,1.525,-0.439,1.875\C,0,2.597,-1.326,1.96\C,0,2.6
 12,-2.481,1.178\O,0,3.686,-3.317,1.302\H,0,3.577,-4.074,0.704\C,0,1.54
 4,-2.736,0.31\C,0,0.483,-1.838,0.237\H,0,-0.336,-2.047,-0.443\H,0,1.54
 4,-3.63,-0.307\H,0,3.428,-1.132,2.631\H,0,1.535,0.449,2.494\C,0,-0.853
 ,0.824,-0.528\C,0,0.206,1.582,-1.051\H,0,1.085,1.758,-0.44\C,0,0.165,2
 .113,-2.338\H,0,1.,2.697,-2.714\C,0,-0.955,1.889,-3.147\O,0,-1.062,2.3
 75,-4.419\H,0,-0.257,2.869,-4.644\C,0,-2.019,1.136,-2.65\H,0,-2.884,0.
 965,-3.282\C,0,-1.962,0.616,-1.357\H,0,-2.802,0.035,-0.995\\Version=AM
 64L-G09RevD.01\State=1-A\HF=-731.666275\RMSD=6.561e-09\Dipole=0.232355
 6,-0.092279,-0.2757331\Quadrupole=-3.5981158,6.3303488,-2.732233,2.624
 8637,-6.1081108,1.0681393\PG=C01 [X(C15H16O2)]\\@


 A MAN SHOULD NEVER BE ASHAMED TO OWN HE HAS BEEN IN THE WRONG
 WHICH IS BUT SAYING IN OTHER WORDS,
 THAT HE IS WISER TODAY THAN HE WAS YESTERDAY.

                          -- JONATHAN SWIFT
 Job cpu time:       0 days  0 hours  2 minutes 37.6 seconds.
 File lengths (MBytes):  RWF=     34 Int=      0 D2E=      0 Chk=      4 Scr=      1
 Normal termination of Gaussian 09 at Fri Nov 13 03:28:25 2020.
 Initial command:
 /prod/apps/gaussian/g09d1/l1.exe "/tmp/ubafar01/1497409/Gau-37913.inp" -scrdir="/tmp/ubafar01/1497409/"
 Entering Link 1 = /prod/apps/gaussian/g09d1/l1.exe PID=     38398.
  
 Copyright (c) 1988,1990,1992,1993,1995,1998,2003,2009,2013,
            Gaussian, Inc.  All Rights Reserved.
  
 This is part of the Gaussian(R) 09 program.  It is based on
 the Gaussian(R) 03 system (copyright 2003, Gaussian, Inc.),
 the Gaussian(R) 98 system (copyright 1998, Gaussian, Inc.),
 the Gaussian(R) 94 system (copyright 1995, Gaussian, Inc.),
 the Gaussian 92(TM) system (copyright 1992, Gaussian, Inc.),
 the Gaussian 90(TM) system (copyright 1990, Gaussian, Inc.),
 the Gaussian 88(TM) system (copyright 1988, Gaussian, Inc.),
 the Gaussian 86(TM) system (copyright 1986, Carnegie Mellon
 University), and the Gaussian 82(TM) system (copyright 1983,
 Carnegie Mellon University). Gaussian is a federally registered
 trademark of Gaussian, Inc.
  
 This software contains proprietary and confidential information,
 including trade secrets, belonging to Gaussian, Inc.
  
 This software is provided under written license and may be
 used, copied, transmitted, or stored only in accord with that
 written license.
  
 The following legend is applicable only to US Government
 contracts under FAR:
  
                    RESTRICTED RIGHTS LEGEND
  
 Use, reproduction and disclosure by the US Government is
 subject to restrictions as set forth in subparagraphs (a)
 and (c) of the Commercial Computer Software - Restricted
 Rights clause in FAR 52.227-19.
  
 Gaussian, Inc.
 340 Quinnipiac St., Bldg. 40, Wallingford CT 06492
  
  
 ---------------------------------------------------------------
 Warning -- This program may not be used in any manner that
 competes with the business of Gaussian, Inc. or will provide
 assistance to any competitor of Gaussian, Inc.  The licensee
 of this program is prohibited from giving any competitor of
 Gaussian, Inc. access to this program.  By using this program,
 the user acknowledges that Gaussian, Inc. is engaged in the
 business of creating and licensing software in the field of
 computational chemistry and represents and warrants to the
 licensee that it is not a competitor of Gaussian, Inc. and that
 it will not use this program in any manner prohibited above.
 ---------------------------------------------------------------
  

 Cite this work as:
 Gaussian 09, Revision D.01,
 M. J. Frisch, G. W. Trucks, H. B. Schlegel, G. E. Scuseria, 
 M. A. Robb, J. R. Cheeseman, G. Scalmani, V. Barone, B. Mennucci, 
 G. A. Petersson, H. Nakatsuji, M. Caricato, X. Li, H. P. Hratchian, 
 A. F. Izmaylov, J. Bloino, G. Zheng, J. L. Sonnenberg, M. Hada, 
 M. Ehara, K. Toyota, R. Fukuda, J. Hasegawa, M. Ishida, T. Nakajima, 
 Y. Honda, O. Kitao, H. Nakai, T. Vreven, J. A. Montgomery, Jr., 
 J. E. Peralta, F. Ogliaro, M. Bearpark, J. J. Heyd, E. Brothers, 
 K. N. Kudin, V. N. Staroverov, T. Keith, R. Kobayashi, J. Normand, 
 K. Raghavachari, A. Rendell, J. C. Burant, S. S. Iyengar, J. Tomasi, 
 M. Cossi, N. Rega, J. M. Millam, M. Klene, J. E. Knox, J. B. Cross, 
 V. Bakken, C. Adamo, J. Jaramillo, R. Gomperts, R. E. Stratmann, 
 O. Yazyev, A. J. Austin, R. Cammi, C. Pomelli, J. W. Ochterski, 
 R. L. Martin, K. Morokuma, V. G. Zakrzewski, G. A. Voth, 
 P. Salvador, J. J. Dannenberg, S. Dapprich, A. D. Daniels, 
 O. Farkas, J. B. Foresman, J. V. Ortiz, J. Cioslowski, 
 and D. J. Fox, Gaussian, Inc., Wallingford CT, 2013.
 
 ******************************************
 Gaussian 09:  AM64L-G09RevD.01 24-Apr-2013
                13-Nov-2020 
 ******************************************
 %nproc=1
 Will use up to    1 processors via shared memory.
 %Chk=SET_328_BBB212_conf1_geo_135_300.n.pdb.xyz.mst.n.o.chk
 %mem=16GB
 %subst l301 /dades/curu/work_g09D01_MST_AddSphPartition_ReadGammas/exe-dir/
 %subst l502 /dades/curu/work_g09D01_MST_AddSphPartition_ReadGammas/exe-dir/
 ----------------------------------------------------------------------
 #p b3lyp/6-31G(d) scrf=(iefpcm,read,solvent=n-Octanol) geom=allcheck g
 uess=read
 ----------------------------------------------------------------------
 1/29=7,38=1,40=2/1;
 2/12=2,40=1/2;
 3/5=1,6=6,7=1,11=2,14=-4,16=1,25=1,30=1,70=2203,72=25,74=-5,116=-2/1,2,3;
 4/5=1/1;
 5/5=2,38=6,53=25/2;
 6/7=2,8=2,9=2,10=2,28=1/1;
 99/5=1,9=1/99;
 Leave Link    1 at Fri Nov 13 03:28:25 2020, MaxMem=  2147483648 cpu:         0.0
 (Enter /prod/apps/gaussian/g09d1/l101.exe)
 Structure from the checkpoint file:  "SET_328_BBB212_conf1_geo_135_300.n.pdb.xyz.mst.n.o.chk"
 ------------------------------------------
 SET_328_BBB212_conf1_geo_135_300.n.pdb.xyz
 ------------------------------------------
 Charge =  0 Multiplicity = 1
 Z-Matrix found in file.
 C,0,-0.638,1.465,1.878
 H,0,-1.514,2.111,1.783
 H,0,0.249,2.067,1.665
 H,0,-0.576,1.122,2.916
 C,0,-0.762,0.275,0.907
 C,0,-2.028,-0.515,1.288
 H,0,-1.94,-0.885,2.313
 H,0,-2.173,-1.374,0.63
 H,0,-2.92,0.116,1.227
 C,0,0.445,-0.672,1.016
 C,0,1.525,-0.439,1.875
 C,0,2.597,-1.326,1.96
 C,0,2.612,-2.481,1.178
 O,0,3.686,-3.317,1.302
 H,0,3.577,-4.074,0.704
 C,0,1.544,-2.736,0.31
 C,0,0.483,-1.838,0.237
 H,0,-0.336,-2.047,-0.443
 H,0,1.544,-3.63,-0.307
 H,0,3.428,-1.132,2.631
 H,0,1.535,0.449,2.494
 C,0,-0.853,0.824,-0.528
 C,0,0.206,1.582,-1.051
 H,0,1.085,1.758,-0.44
 C,0,0.165,2.113,-2.338
 H,0,1.,2.697,-2.714
 C,0,-0.955,1.889,-3.147
 O,0,-1.062,2.375,-4.419
 H,0,-0.257,2.869,-4.644
 C,0,-2.019,1.136,-2.65
 H,0,-2.884,0.965,-3.282
 C,0,-1.962,0.616,-1.357
 H,0,-2.802,0.035,-0.995
 Recover connectivity data from disk.
 NAtoms=     33 NQM=       33 NQMF=       0 NMMI=      0 NMMIF=      0
                NMic=       0 NMicF=      0.
                    Isotopes and Nuclear Properties:
 (Nuclear quadrupole moments (NQMom) in fm**2, nuclear magnetic moments (NMagM)
  in nuclear magnetons)

  Atom         1           2           3           4           5           6           7           8           9          10
 IAtWgt=          12           1           1           1          12          12           1           1           1          12
 AtmWgt=  12.0000000   1.0078250   1.0078250   1.0078250  12.0000000  12.0000000   1.0078250   1.0078250   1.0078250  12.0000000
 NucSpn=           0           1           1           1           0           0           1           1           1           0
 AtZEff=  -3.6000000  -1.0000000  -1.0000000  -1.0000000  -3.6000000  -3.6000000  -1.0000000  -1.0000000  -1.0000000  -3.6000000
 NQMom=    0.0000000   0.0000000   0.0000000   0.0000000   0.0000000   0.0000000   0.0000000   0.0000000   0.0000000   0.0000000
 NMagM=    0.0000000   2.7928460   2.7928460   2.7928460   0.0000000   0.0000000   2.7928460   2.7928460   2.7928460   0.0000000
 AtZNuc=   6.0000000   1.0000000   1.0000000   1.0000000   6.0000000   6.0000000   1.0000000   1.0000000   1.0000000   6.0000000

  Atom        11          12          13          14          15          16          17          18          19          20
 IAtWgt=          12          12          12          16           1          12          12           1           1           1
 AtmWgt=  12.0000000  12.0000000  12.0000000  15.9949146   1.0078250  12.0000000  12.0000000   1.0078250   1.0078250   1.0078250
 NucSpn=           0           0           0           0           1           0           0           1           1           1
 AtZEff=  -3.6000000  -3.6000000  -3.6000000  -5.6000000  -1.0000000  -3.6000000  -3.6000000  -1.0000000  -1.0000000  -1.0000000
 NQMom=    0.0000000   0.0000000   0.0000000   0.0000000   0.0000000   0.0000000   0.0000000   0.0000000   0.0000000   0.0000000
 NMagM=    0.0000000   0.0000000   0.0000000   0.0000000   2.7928460   0.0000000   0.0000000   2.7928460   2.7928460   2.7928460
 AtZNuc=   6.0000000   6.0000000   6.0000000   8.0000000   1.0000000   6.0000000   6.0000000   1.0000000   1.0000000   1.0000000

  Atom        21          22          23          24          25          26          27          28          29          30
 IAtWgt=           1          12          12           1          12           1          12          16           1          12
 AtmWgt=   1.0078250  12.0000000  12.0000000   1.0078250  12.0000000   1.0078250  12.0000000  15.9949146   1.0078250  12.0000000
 NucSpn=           1           0           0           1           0           1           0           0           1           0
 AtZEff=  -1.0000000  -3.6000000  -3.6000000  -1.0000000  -3.6000000  -1.0000000  -3.6000000  -5.6000000  -1.0000000  -3.6000000
 NQMom=    0.0000000   0.0000000   0.0000000   0.0000000   0.0000000   0.0000000   0.0000000   0.0000000   0.0000000   0.0000000
 NMagM=    2.7928460   0.0000000   0.0000000   2.7928460   0.0000000   2.7928460   0.0000000   0.0000000   2.7928460   0.0000000
 AtZNuc=   1.0000000   6.0000000   6.0000000   1.0000000   6.0000000   1.0000000   6.0000000   8.0000000   1.0000000   6.0000000

  Atom        31          32          33
 IAtWgt=           1          12           1
 AtmWgt=   1.0078250  12.0000000   1.0078250
 NucSpn=           1           0           1
 AtZEff=  -1.0000000  -3.6000000  -1.0000000
 NQMom=    0.0000000   0.0000000   0.0000000
 NMagM=    2.7928460   0.0000000   2.7928460
 AtZNuc=   1.0000000   6.0000000   1.0000000
 Leave Link  101 at Fri Nov 13 03:28:26 2020, MaxMem=  2147483648 cpu:         0.0
 (Enter /prod/apps/gaussian/g09d1/l202.exe)
                          Input orientation:                          
 ---------------------------------------------------------------------
 Center     Atomic      Atomic             Coordinates (Angstroms)
 Number     Number       Type             X           Y           Z
 ---------------------------------------------------------------------
      1          6           0       -0.638000    1.465000    1.878000
      2          1           0       -1.514000    2.111000    1.783000
      3          1           0        0.249000    2.067000    1.665000
      4          1           0       -0.576000    1.122000    2.916000
      5          6           0       -0.762000    0.275000    0.907000
      6          6           0       -2.028000   -0.515000    1.288000
      7          1           0       -1.940000   -0.885000    2.313000
      8          1           0       -2.173000   -1.374000    0.630000
      9          1           0       -2.920000    0.116000    1.227000
     10          6           0        0.445000   -0.672000    1.016000
     11          6           0        1.525000   -0.439000    1.875000
     12          6           0        2.597000   -1.326000    1.960000
     13          6           0        2.612000   -2.481000    1.178000
     14          8           0        3.686000   -3.317000    1.302000
     15          1           0        3.577000   -4.074000    0.704000
     16          6           0        1.544000   -2.736000    0.310000
     17          6           0        0.483000   -1.838000    0.237000
     18          1           0       -0.336000   -2.047000   -0.443000
     19          1           0        1.544000   -3.630000   -0.307000
     20          1           0        3.428000   -1.132000    2.631000
     21          1           0        1.535000    0.449000    2.494000
     22          6           0       -0.853000    0.824000   -0.528000
     23          6           0        0.206000    1.582000   -1.051000
     24          1           0        1.085000    1.758000   -0.440000
     25          6           0        0.165000    2.113000   -2.338000
     26          1           0        1.000000    2.697000   -2.714000
     27          6           0       -0.955000    1.889000   -3.147000
     28          8           0       -1.062000    2.375000   -4.419000
     29          1           0       -0.257000    2.869000   -4.644000
     30          6           0       -2.019000    1.136000   -2.650000
     31          1           0       -2.884000    0.965000   -3.282000
     32          6           0       -1.962000    0.616000   -1.357000
     33          1           0       -2.802000    0.035000   -0.995000
 ---------------------------------------------------------------------
                    Distance matrix (angstroms):
                    1          2          3          4          5
     1  C    0.000000
     2  H    1.092574   0.000000
     3  H    1.092951   1.767492   0.000000
     4  H    1.094960   1.772471   1.771624   0.000000
     5  C    1.540882   2.168819   2.192704   2.188170   0.000000
     6  C    2.490100   2.721231   3.463175   2.727353   1.540135
     7  H    2.721567   3.072197   3.731746   2.500431   2.170281
     8  H    3.460296   3.729466   4.333335   3.742489   2.187887
     9  H    2.729675   2.503197   3.747106   3.059263   2.187383
    10  C    2.546115   3.488704   2.821655   2.805508   1.538031
    11  C    2.881630   3.968184   2.819984   2.816843   2.584026
    12  C    4.273363   5.361401   4.136735   4.120021   3.867155
    13  C    5.159788   6.202932   5.148324   5.115232   4.364957
    14  O    6.472733   7.532234   6.397827   6.361946   5.730898
    15  H    7.058684   8.083115   7.050602   7.009905   6.146701
    16  C    4.986797   5.917305   5.155760   5.115643   3.839292
    17  C    3.854780   4.687507   4.164489   4.130390   2.542380
    18  H    4.220473   4.861247   4.659494   4.624180   2.719496
    19  H    5.957716   6.832170   6.166167   6.120754   4.694727
    20  H    4.883009   5.971559   4.612244   4.603668   4.744252
    21  H    2.476619   3.544597   2.226872   2.255512   2.797330
    22  C    2.499188   2.726538   2.751127   3.467949   1.539125
    23  C    3.050421   3.357052   2.759299   4.069424   2.545395
    24  H    2.903050   3.438188   2.285914   3.798178   2.724905
    25  C    4.340434   4.449909   4.004145   5.397747   3.842863
    26  H    5.028651   5.185229   4.487376   6.054858   4.699188
    27  C    5.052810   4.966555   4.963531   6.123063   4.367741
    28  O    6.376526   6.224050   6.231263   7.457106   5.732912
    29  H    6.682280   6.592491   6.379868   7.765782   6.147964
    30  C    4.745333   4.566962   4.962843   5.750026   3.869576
    31  H    5.649789   5.370702   5.958431   6.615642   4.746231
    32  C    3.597082   3.506470   4.015770   4.520571   2.584952
    33  H    3.870649   3.699460   4.529153   4.629532   2.799429
                    6          7          8          9         10
     6  C    0.000000
     7  H    1.093284   0.000000
     8  H    1.091728   1.768021   0.000000
     9  H    1.094324   1.772511   1.770457   0.000000
    10  C    2.492862   2.723197   2.737832   3.462469   0.000000
    11  C    3.601965   3.520935   4.012412   4.526141   1.399489
    12  C    4.743409   4.572030   4.952182   5.749256   2.439253
    13  C    5.040521   4.955416   4.941860   6.111451   2.827475
    14  O    6.364055   6.211974   6.209244   7.445156   4.193078
    15  H    6.665100   6.572358   6.352793   7.748589   4.634692
    16  C    4.318392   4.424530   3.971591   5.376066   2.442608
    17  C    3.026558   3.330002   2.724717   4.047051   1.402798
    18  H    2.864655   3.393906   2.231329   3.760921   2.151573
    19  H    5.000643   5.151474   4.447875   6.026024   3.421680
    20  H    5.652634   5.383081   5.952627   6.620108   3.423173
    21  H    3.883130   3.726653   4.532890   4.643620   2.151563
    22  C    2.543895   3.489059   2.813284   2.802459   2.511326
    23  C    3.854749   4.691258   4.150101   4.136462   3.067593
    24  H    4.224131   4.869813   4.644232   4.638435   2.904210
    25  C    4.986332   5.920374   5.141443   5.120006   4.368517
    26  H    5.958333   6.837035   6.150066   6.128576   5.056786
    27  C    5.157496   6.202975   5.137745   5.112400   5.084220
    28  O    6.469552   7.531156   6.386057   6.358660   6.410498
    29  H    7.055248   8.082379   7.034855   7.009937   6.713202
    30  C    4.270097   5.359296   4.133064   4.108933   4.772810
    31  H    4.879348   5.968053   4.613045   4.588374   5.677571
    32  C    2.877419   3.965146   2.820069   2.800861   3.617143
    33  H    2.472583   3.540100   2.240881   2.226605   3.884196
                   11         12         13         14         15
    11  C    0.000000
    12  C    1.393979   0.000000
    13  C    2.416018   1.394910   0.000000
    14  O    3.644329   2.362830   1.366656   0.000000
    15  H    4.335340   3.176388   1.921861   0.970842   0.000000
    16  C    2.779531   2.412345   1.399669   2.431006   2.465475
    17  C    2.392908   2.774864   2.414865   3.685224   3.845858
    18  H    3.379661   3.859629   3.392153   4.564472   4.553670
    19  H    3.865743   3.399487   2.160104   2.697223   2.313514
    20  H    2.161757   1.085559   2.144030   2.570414   3.520070
    21  H    1.082499   2.136264   3.387726   4.497824   5.275547
    22  C    3.608942   4.766041   5.083275   6.410874   6.718119
    23  C    3.792846   4.820733   5.221613   6.453465   6.814250
    24  H    3.221744   4.190131   4.787356   5.962834   6.444457
    25  C    5.109958   6.017819   6.281314   7.425089   7.692495
    26  H    5.582924   6.370339   6.675170   7.714340   8.010624
    27  C    6.065515   7.002455   7.108165   8.272540   8.421793
    28  O    7.363803   8.232698   8.270757   9.363344   9.452780
    29  H    7.524344   8.328034   8.411263   9.442921   9.565872
    30  C    5.959546   6.972876   7.013019   8.245880   8.349170
    31  H    6.928575   7.922664   7.872263   9.083693   9.111764
    32  C    4.870115   5.963081   6.077755   7.378257   7.544822
    33  H    5.213876   6.303455   6.353234   7.655472   7.775739
                   16         17         18         19         20
    16  C    0.000000
    17  C    1.391925   0.000000
    18  H    2.139189   1.084823   0.000000
    19  H    1.086244   2.152422   2.461460   0.000000
    20  H    3.392538   3.860401   4.945139   4.292005   0.000000
    21  H    3.861886   3.380994   4.284463   4.948123   2.470178
    22  C    4.372808   3.075120   2.918417   5.062861   5.668525
    23  C    4.720984   3.664979   3.719283   5.432193   5.595016
    24  H    4.579216   3.708362   4.061684   5.409151   4.824188
    25  C    5.694414   4.726748   4.598655   6.245691   6.772603
    26  H    6.241634   5.435247   5.426589   6.791209   7.008955
[...]
 Alpha virt. eigenvalues --    2.28452   2.28813   2.29422   2.30551   2.31817
 Alpha virt. eigenvalues --    2.32819   2.33511   2.33784   2.40172   2.40581
 Alpha virt. eigenvalues --    2.40992   2.41940   2.49148   2.50208   2.50440
 Alpha virt. eigenvalues --    2.58696   2.60108   2.62002   2.62180   2.62448
 Alpha virt. eigenvalues --    2.64542   2.66192   2.66756   2.67418   2.71079
 Alpha virt. eigenvalues --    2.77655   2.78112   2.80123   2.82592   2.88088
 Alpha virt. eigenvalues --    2.91698   2.93459   2.95336   2.97481   3.01004
 Alpha virt. eigenvalues --    3.13159   3.15299   3.42090   3.42381   3.94337
 Alpha virt. eigenvalues --    3.94351   4.10921   4.11948   4.12029   4.12965
 Alpha virt. eigenvalues --    4.23292   4.24802   4.25417   4.32814   4.33077
 Alpha virt. eigenvalues --    4.36168   4.44307   4.51254   4.69195   4.75803
 Alpha virt. eigenvalues --    4.80188
          Condensed to atoms (all electrons):
               1          2          3          4          5          6
     1  C    5.203031   0.363780   0.361843   0.356001   0.352643  -0.066641
     2  H    0.363780   0.567100  -0.028425  -0.028040  -0.026969  -0.005748
     3  H    0.361843  -0.028425   0.568219  -0.032803  -0.020886   0.006144
     4  H    0.356001  -0.028040  -0.032803   0.579667  -0.023724  -0.006235
     5  C    0.352643  -0.026969  -0.020886  -0.023724   5.011456   0.352556
     6  C   -0.066641  -0.005748   0.006144  -0.006235   0.352556   5.205091
     7  H   -0.005682  -0.000072  -0.000040   0.004647  -0.027018   0.363880
     8  H    0.006164  -0.000042  -0.000203  -0.000040  -0.021195   0.362153
     9  H   -0.006233   0.004675  -0.000045   0.000112  -0.023370   0.355525
    10  C   -0.042760   0.004511  -0.007664  -0.006221   0.365728  -0.055252
    11  C   -0.013726   0.000459   0.001580   0.001924  -0.047597   0.003040
    12  C    0.000189  -0.000004   0.000104   0.000103   0.006255  -0.000193
    13  C   -0.000005   0.000000  -0.000006  -0.000006   0.000282   0.000001
    14  O    0.000000   0.000000   0.000000   0.000000   0.000001   0.000000
    15  H    0.000000   0.000000   0.000000   0.000000  -0.000001   0.000000
    16  C   -0.000184   0.000002   0.000003  -0.000001   0.005698   0.000332
    17  C    0.007264  -0.000102  -0.000194  -0.000256  -0.058501  -0.012342
    18  H    0.000193  -0.000009   0.000002  -0.000008  -0.008404  -0.000181
    19  H    0.000002   0.000000   0.000000   0.000000  -0.000152   0.000003
    20  H    0.000002   0.000000   0.000002   0.000002  -0.000117   0.000002
    21  H    0.009243  -0.000114   0.001869   0.001144  -0.016948   0.000291
    22  C   -0.054643  -0.001998  -0.010357   0.005951   0.365074  -0.042902
    23  C   -0.011781  -0.000011   0.005902   0.000243  -0.058645   0.007271
    24  H   -0.000022   0.000057   0.003791  -0.000162  -0.008352   0.000194
    25  C    0.000287  -0.000072   0.000059   0.000001   0.005636  -0.000183
    26  H    0.000002   0.000000   0.000006   0.000000  -0.000150   0.000002
    27  C    0.000004  -0.000010  -0.000006   0.000000   0.000279  -0.000006
    28  O    0.000000   0.000000   0.000000   0.000000   0.000001   0.000000
    29  H    0.000000   0.000000   0.000000   0.000000  -0.000001   0.000000
    30  C   -0.000190  -0.000027   0.000008   0.000002   0.006221   0.000195
    31  H    0.000002   0.000001   0.000000   0.000000  -0.000117   0.000003
    32  C    0.002838   0.000957  -0.000268  -0.000069  -0.047691  -0.013722
    33  H    0.000296  -0.000053  -0.000008  -0.000013  -0.016939   0.009198
               7          8          9         10         11         12
     1  C   -0.005682   0.006164  -0.006233  -0.042760  -0.013726   0.000189
     2  H   -0.000072  -0.000042   0.004675   0.004511   0.000459  -0.000004
     3  H   -0.000040  -0.000203  -0.000045  -0.007664   0.001580   0.000104
     4  H    0.004647  -0.000040   0.000112  -0.006221   0.001924   0.000103
     5  C   -0.027018  -0.021195  -0.023370   0.365728  -0.047597   0.006255
     6  C    0.363880   0.362153   0.355525  -0.055252   0.003040  -0.000193
     7  H    0.567044  -0.028291  -0.028098  -0.002016   0.000909  -0.000027
     8  H   -0.028291   0.567811  -0.032821  -0.010955  -0.000274   0.000008
     9  H   -0.028098  -0.032821   0.579994   0.006045  -0.000073   0.000002
    10  C   -0.002016  -0.010955   0.006045   4.730899   0.538684  -0.025150
    11  C    0.000909  -0.000274  -0.000073   0.538684   5.015557   0.501068
    12  C   -0.000027   0.000008   0.000002  -0.025150   0.501068   5.001909
    13  C   -0.000010  -0.000006   0.000000  -0.032819  -0.017468   0.545551
    14  O    0.000000   0.000000   0.000000   0.000288   0.002907  -0.052635
    15  H    0.000000   0.000000   0.000000  -0.000034  -0.000153   0.005726
    16  C   -0.000081   0.000086   0.000000  -0.024162  -0.042281  -0.067214
    17  C    0.000009   0.005989   0.000274   0.522327  -0.057092  -0.042340
    18  H    0.000070   0.004127  -0.000172  -0.043736   0.006191   0.000514
    19  H    0.000000   0.000006   0.000000   0.003114   0.000650   0.005084
    20  H    0.000001   0.000000   0.000000   0.003881  -0.039059   0.346898
    21  H   -0.000050  -0.000008  -0.000012  -0.039634   0.355140  -0.047665
    22  C    0.004521  -0.007549  -0.006638  -0.058992  -0.002446  -0.000055
    23  C   -0.000101  -0.000186  -0.000272  -0.005333   0.002137  -0.000084
    24  H   -0.000009   0.000001  -0.000008   0.004104   0.001740   0.000060
    25  C    0.000002   0.000002  -0.000001   0.000259   0.000042   0.000000
    26  H    0.000000   0.000000   0.000000   0.000000   0.000000   0.000000
    27  C    0.000000  -0.000006  -0.000007   0.000019   0.000001   0.000000
    28  O    0.000000   0.000000   0.000000   0.000000   0.000000   0.000000
    29  H    0.000000   0.000000   0.000000   0.000000   0.000000   0.000000
    30  C   -0.000005   0.000089   0.000135  -0.000054   0.000003   0.000000
    31  H    0.000000   0.000001   0.000003   0.000000   0.000000   0.000000
    32  C    0.000465   0.001570   0.001972  -0.002141  -0.000379   0.000003
    33  H   -0.000107   0.001768   0.001229   0.000370   0.000000   0.000000
              13         14         15         16         17         18
     1  C   -0.000005   0.000000   0.000000  -0.000184   0.007264   0.000193
     2  H    0.000000   0.000000   0.000000   0.000002  -0.000102  -0.000009
     3  H   -0.000006   0.000000   0.000000   0.000003  -0.000194   0.000002
     4  H   -0.000006   0.000000   0.000000  -0.000001  -0.000256  -0.000008
     5  C    0.000282   0.000001  -0.000001   0.005698  -0.058501  -0.008404
     6  C    0.000001   0.000000   0.000000   0.000332  -0.012342  -0.000181
     7  H   -0.000010   0.000000   0.000000  -0.000081   0.000009   0.000070
     8  H   -0.000006   0.000000   0.000000   0.000086   0.005989   0.004127
     9  H    0.000000   0.000000   0.000000   0.000000   0.000274  -0.000172
    10  C   -0.032819   0.000288  -0.000034  -0.024162   0.522327  -0.043736
    11  C   -0.017468   0.002907  -0.000153  -0.042281  -0.057092   0.006191
    12  C    0.545551  -0.052635   0.005726  -0.067214  -0.042340   0.000514
    13  C    4.487131   0.283470  -0.029067   0.499355  -0.008079   0.003146
    14  O    0.283470   8.243175   0.246451  -0.059217   0.004555  -0.000057
    15  H   -0.029067   0.246451   0.343446  -0.003825   0.000576  -0.000011
    16  C    0.499355  -0.059217  -0.003825   5.111588   0.468146  -0.037740
    17  C   -0.008079   0.004555   0.000576   0.468146   5.046976   0.349578
    18  H    0.003146  -0.000057  -0.000011  -0.037740   0.349578   0.588556
    19  H   -0.043003  -0.005135   0.006169   0.348019  -0.032591  -0.005475
    20  H   -0.039010  -0.001118  -0.000302   0.007047   0.000149   0.000017
    21  H    0.004563  -0.000060   0.000006   0.000297   0.006986  -0.000188
    22  C    0.000022   0.000000   0.000000   0.000237  -0.005281   0.003942
    23  C    0.000001   0.000000   0.000000  -0.000088  -0.001988   0.000525
    24  H   -0.000016   0.000000   0.000000  -0.000043   0.000528  -0.000016
    25  C    0.000000   0.000000   0.000000  -0.000009  -0.000088  -0.000039
    26  H    0.000000   0.000000   0.000000   0.000000   0.000000   0.000000
    27  C    0.000000   0.000000   0.000000   0.000000   0.000001  -0.000015
    28  O    0.000000   0.000000   0.000000   0.000000   0.000000   0.000000
    29  H    0.000000   0.000000   0.000000   0.000000   0.000000   0.000000
    30  C    0.000000   0.000000   0.000000   0.000000  -0.000075   0.000047
    31  H    0.000000   0.000000   0.000000   0.000000   0.000001  -0.000001
    32  C    0.000001   0.000000   0.000000   0.000038   0.002095   0.001542
    33  H    0.000000   0.000000   0.000000  -0.000001  -0.000200  -0.000070
              19         20         21         22         23         24
     1  C    0.000002   0.000002   0.009243  -0.054643  -0.011781  -0.000022
     2  H    0.000000   0.000000  -0.000114  -0.001998  -0.000011   0.000057
     3  H    0.000000   0.000002   0.001869  -0.010357   0.005902   0.003791
     4  H    0.000000   0.000002   0.001144   0.005951   0.000243  -0.000162
     5  C   -0.000152  -0.000117  -0.016948   0.365074  -0.058645  -0.008352
     6  C    0.000003   0.000002   0.000291  -0.042902   0.007271   0.000194
     7  H    0.000000   0.000001  -0.000050   0.004521  -0.000101  -0.000009
     8  H    0.000006   0.000000  -0.000008  -0.007549  -0.000186   0.000001
     9  H    0.000000   0.000000  -0.000012  -0.006638  -0.000272  -0.000008
    10  C    0.003114   0.003881  -0.039634  -0.058992  -0.005333   0.004104
    11  C    0.000650  -0.039059   0.355140  -0.002446   0.002137   0.001740
    12  C    0.005084   0.346898  -0.047665  -0.000055  -0.000084   0.000060
    13  C   -0.043003  -0.039010   0.004563   0.000022   0.000001  -0.000016
    14  O   -0.005135  -0.001118  -0.000060   0.000000   0.000000   0.000000
    15  H    0.006169  -0.000302   0.000006   0.000000   0.000000   0.000000
    16  C    0.348019   0.007047   0.000297   0.000237  -0.000088  -0.000043
    17  C   -0.032591   0.000149   0.006986  -0.005281  -0.001988   0.000528
    18  H   -0.005475   0.000017  -0.000188   0.003942   0.000525  -0.000016
    19  H    0.586303  -0.000177   0.000016   0.000000   0.000000   0.000000
    20  H   -0.000177   0.591338  -0.006126   0.000000   0.000001  -0.000001
    21  H    0.000016  -0.006126   0.596294   0.000368  -0.000204  -0.000060
    22  C    0.000000   0.000000   0.000368   4.732659   0.522023  -0.043568
    23  C    0.000000   0.000001  -0.000204   0.522023   5.046751   0.349615
    24  H    0.000000  -0.000001  -0.000060  -0.043568   0.349615   0.588547
    25  C    0.000000   0.000000  -0.000001  -0.024157   0.468011  -0.037985
    26  H    0.000000   0.000000   0.000000   0.003101  -0.032616  -0.005460
    27  C    0.000000   0.000000   0.000000  -0.032705  -0.007983   0.003153
    28  O    0.000000   0.000000   0.000000   0.000288   0.004549  -0.000057
    29  H    0.000000   0.000000   0.000000  -0.000034   0.000576  -0.000011
    30  C    0.000000   0.000000   0.000000  -0.025492  -0.042276   0.000511
    31  H    0.000000   0.000000   0.000000   0.003876   0.000145   0.000017
    32  C    0.000000   0.000000   0.000000   0.538039  -0.056801   0.006171
    33  H    0.000000   0.000000   0.000000  -0.039531   0.006936  -0.000186
              25         26         27         28         29         30
     1  C    0.000287   0.000002   0.000004   0.000000   0.000000  -0.000190
     2  H   -0.000072   0.000000  -0.000010   0.000000   0.000000  -0.000027
     3  H    0.000059   0.000006  -0.000006   0.000000   0.000000   0.000008
     4  H    0.000001   0.000000   0.000000   0.000000   0.000000   0.000002
     5  C    0.005636  -0.000150   0.000279   0.000001  -0.000001   0.006221
     6  C   -0.000183   0.000002  -0.000006   0.000000   0.000000   0.000195
     7  H    0.000002   0.000000   0.000000   0.000000   0.000000  -0.000005
     8  H    0.000002   0.000000  -0.000006   0.000000   0.000000   0.000089
     9  H   -0.000001   0.000000  -0.000007   0.000000   0.000000   0.000135
    10  C    0.000259   0.000000   0.000019   0.000000   0.000000  -0.000054
    11  C    0.000042   0.000000   0.000001   0.000000   0.000000   0.000003
    12  C    0.000000   0.000000   0.000000   0.000000   0.000000   0.000000
    13  C    0.000000   0.000000   0.000000   0.000000   0.000000   0.000000
    14  O    0.000000   0.000000   0.000000   0.000000   0.000000   0.000000
    15  H    0.000000   0.000000   0.000000   0.000000   0.000000   0.000000
    16  C   -0.000009   0.000000   0.000000   0.000000   0.000000   0.000000
    17  C   -0.000088   0.000000   0.000001   0.000000   0.000000  -0.000075
    18  H   -0.000039   0.000000  -0.000015   0.000000   0.000000   0.000047
    19  H    0.000000   0.000000   0.000000   0.000000   0.000000   0.000000
    20  H    0.000000   0.000000   0.000000   0.000000   0.000000   0.000000
    21  H   -0.000001   0.000000   0.000000   0.000000   0.000000   0.000000
    22  C   -0.024157   0.003101  -0.032705   0.000288  -0.000034  -0.025492
    23  C    0.468011  -0.032616  -0.007983   0.004549   0.000576  -0.042276
    24  H   -0.037985  -0.005460   0.003153  -0.000057  -0.000011   0.000511
    25  C    5.111561   0.348047   0.499692  -0.059244  -0.003830  -0.067294
    26  H    0.348047   0.586156  -0.042967  -0.005148   0.006201   0.005102
    27  C    0.499692  -0.042967   4.486119   0.283641  -0.029131   0.545461
    28  O   -0.059244  -0.005148   0.283641   8.242834   0.246556  -0.052711
    29  H   -0.003830   0.006201  -0.029131   0.246556   0.342947   0.005733
    30  C   -0.067294   0.005102   0.545461  -0.052711   0.005733   5.002338
    31  H    0.007062  -0.000178  -0.039025  -0.001104  -0.000305   0.346933
    32  C   -0.042292   0.000643  -0.017373   0.002912  -0.000154   0.501175
    33  H    0.000301   0.000015   0.004553  -0.000060   0.000006  -0.047566
              31         32         33
     1  C    0.000002   0.002838   0.000296
     2  H    0.000001   0.000957  -0.000053
     3  H    0.000000  -0.000268  -0.000008
     4  H    0.000000  -0.000069  -0.000013
     5  C   -0.000117  -0.047691  -0.016939
     6  C    0.000003  -0.013722   0.009198
     7  H    0.000000   0.000465  -0.000107
     8  H    0.000001   0.001570   0.001768
     9  H    0.000003   0.001972   0.001229
    10  C    0.000000  -0.002141   0.000370
    11  C    0.000000  -0.000379   0.000000
    12  C    0.000000   0.000003   0.000000
    13  C    0.000000   0.000001   0.000000
    14  O    0.000000   0.000000   0.000000
    15  H    0.000000   0.000000   0.000000
    16  C    0.000000   0.000038  -0.000001
    17  C    0.000001   0.002095  -0.000200
    18  H   -0.000001   0.001542  -0.000070
    19  H    0.000000   0.000000   0.000000
    20  H    0.000000   0.000000   0.000000
    21  H    0.000000   0.000000   0.000000
    22  C    0.003876   0.538039  -0.039531
    23  C    0.000145  -0.056801   0.006936
    24  H    0.000017   0.006171  -0.000186
    25  C    0.007062  -0.042292   0.000301
    26  H   -0.000178   0.000643   0.000015
    27  C   -0.039025  -0.017373   0.004553
    28  O   -0.001104   0.002912  -0.000060
    29  H   -0.000305  -0.000154   0.000006
    30  C    0.346933   0.501175  -0.047566
    31  H    0.591208  -0.039048  -0.006117
    32  C   -0.039048   5.016827   0.355074
    33  H   -0.006117   0.355074   0.596187
 Mulliken charges:
               1
     1  C   -0.461915
     2  H    0.150154
     3  H    0.151374
     4  H    0.147783
     5  C   -0.065056
     6  C   -0.462473
     7  H    0.150057
     8  H    0.151800
     9  H    0.147784
    10  C    0.176696
    11  C   -0.211484
    12  C   -0.178108
    13  C    0.345973
    14  O   -0.662624
    15  H    0.431019
    16  C   -0.206001
    17  C   -0.196327
    18  H    0.137674
    19  H    0.137168
    20  H    0.136571
    21  H    0.134854
    22  C    0.176247
    23  C   -0.196322
    24  H    0.137466
    25  C   -0.205770
    26  H    0.137244
    27  C    0.346310
    28  O   -0.662456
    29  H    0.431448
    30  C   -0.178262
    31  H    0.136642
    32  C   -0.212384
    33  H    0.134918
 Sum of Mulliken charges =   0.00000
 Mulliken charges with hydrogens summed into heavy atoms:
               1
     1  C   -0.012604
     5  C   -0.065056
     6  C   -0.012832
    10  C    0.176696
    11  C   -0.076630
    12  C   -0.041537
    13  C    0.345973
    14  O   -0.231605
    16  C   -0.068832
    17  C   -0.058654
    22  C    0.176247
    23  C   -0.058856
    25  C   -0.068526
    27  C    0.346310
    28  O   -0.231008
    30  C   -0.041620
    32  C   -0.077467
 Electronic spatial extent (au):  <R**2>=           4794.2473
 Charge=              0.0000 electrons
 Dipole moment (field-independent basis, Debye):
    X=             -0.0135    Y=             -1.2196    Z=             -0.0196  Tot=              1.2198
 Quadrupole moment (field-independent basis, Debye-Ang):
   XX=           -104.6728   YY=            -91.7262   ZZ=            -91.2901
   XY=             -0.1042   XZ=             11.0078   YZ=             -0.0437
 Traceless Quadrupole moment (field-independent basis, Debye-Ang):
   XX=             -8.7764   YY=              4.1701   ZZ=              4.6063
   XY=             -0.1042   XZ=             11.0078   YZ=             -0.0437
 Octapole moment (field-independent basis, Debye-Ang**2):
  XXX=             -0.7865  YYY=            -37.9010  ZZZ=             -0.2047  XYY=              1.0146
  XXY=            -42.9694  XXZ=             -0.8825  XZZ=             -0.7824  YZZ=            -16.0202
  YYZ=              0.0674  XYZ=            -47.8112
 Hexadecapole moment (field-independent basis, Debye-Ang**3):
 XXXX=          -4599.8476 YYYY=          -1127.7640 ZZZZ=           -643.5290 XXXY=             -0.2396
 XXXZ=            262.8372 YYYX=             -3.8418 YYYZ=             -0.5086 ZZZX=             10.8461
 ZZZY=              0.4994 XXYY=           -772.5294 XXZZ=           -727.3952 YYZZ=           -287.2041
 XXYZ=              0.4463 YYXZ=            108.4292 ZZXY=              1.3021
 N-N= 1.148029758113D+03 E-N=-3.996742509593D+03  KE= 7.248572093488D+02
 No NMR shielding tensors so no spin-rotation constants.
 Leave Link  601 at Fri Nov 13 03:30:39 2020, MaxMem=  2147483648 cpu:         0.2
 (Enter /prod/apps/gaussian/g09d1/l9999.exe)
 1\1\GINC-PIRINEUS16\SP\RB3LYP\6-31G(d)\C15H16O2\UBAFAR01\13-Nov-2020\0
 \\#p b3lyp/6-31G(d) scrf=(iefpcm,read,solvent=n-Octanol) geom=allcheck
  guess=read\\SET_328_BBB212_conf1_geo_135_300.n.pdb.xyz\\0,1\C,0,-0.63
 8,1.465,1.878\H,0,-1.514,2.111,1.783\H,0,0.249,2.067,1.665\H,0,-0.576,
 1.122,2.916\C,0,-0.762,0.275,0.907\C,0,-2.028,-0.515,1.288\H,0,-1.94,-
 0.885,2.313\H,0,-2.173,-1.374,0.63\H,0,-2.92,0.116,1.227\C,0,0.445,-0.
 672,1.016\C,0,1.525,-0.439,1.875\C,0,2.597,-1.326,1.96\C,0,2.612,-2.48
 1,1.178\O,0,3.686,-3.317,1.302\H,0,3.577,-4.074,0.704\C,0,1.544,-2.736
 ,0.31\C,0,0.483,-1.838,0.237\H,0,-0.336,-2.047,-0.443\H,0,1.544,-3.63,
 -0.307\H,0,3.428,-1.132,2.631\H,0,1.535,0.449,2.494\C,0,-0.853,0.824,-
 0.528\C,0,0.206,1.582,-1.051\H,0,1.085,1.758,-0.44\C,0,0.165,2.113,-2.
 338\H,0,1.,2.697,-2.714\C,0,-0.955,1.889,-3.147\O,0,-1.062,2.375,-4.41
 9\H,0,-0.257,2.869,-4.644\C,0,-2.019,1.136,-2.65\H,0,-2.884,0.965,-3.2
 82\C,0,-1.962,0.616,-1.357\H,0,-2.802,0.035,-0.995\\Version=AM64L-G09R
 evD.01\State=1-A\HF=-731.6901985\RMSD=6.700e-09\Dipole=0.3002703,-0.11
 59333,-0.3559666\Quadrupole=-4.3143153,7.3841482,-3.0698328,2.6908843,
 -7.04377,0.8985277\PG=C01 [X(C15H16O2)]\\@


 NOTHING MAKES A PERSON MORE PRODUCTIVE THAN THE LAST MINUTE.
 Job cpu time:       0 days  0 hours  2 minutes 13.7 seconds.
 File lengths (MBytes):  RWF=    135 Int=      0 D2E=      0 Chk=      5 Scr=      1
 Normal termination of Gaussian 09 at Fri Nov 13 03:30:39 2020.
