 Entering Gaussian System, Link 0=g09
 Initial command:
 /prod/apps/gaussian/g09d1/l1.exe "/tmp/ubafar01/1497434/Gau-19598.inp" -scrdir="/tmp/ubafar01/1497434/"
 Entering Link 1 = /prod/apps/gaussian/g09d1/l1.exe PID=     19599.
  
 Copyright (c) 1988,1990,1992,1993,1995,1998,2003,2009,2013,
            Gaussian, Inc.  All Rights Reserved.
  
 This is part of the Gaussian(R) 09 program.  It is based on
 the Gaussian(R) 03 system (copyright 2003, Gaussian, Inc.),
 the Gaussian(R) 98 system (copyright 1998, Gaussian, Inc.),
 the Gaussian(R) 94 system (copyright 1995, Gaussian, Inc.),
 the Gaussian 92(TM) system (copyright 1992, Gaussian, Inc.),
 the Gaussian 90(TM) system (copyright 1990, Gaussian, Inc.),
 the Gaussian 88(TM) system (copyright 1988, Gaussian, Inc.),
 the Gaussian 86(TM) system (copyright 1986, Carnegie Mellon
 University), and the Gaussian 82(TM) system (copyright 1983,
 Carnegie Mellon University). Gaussian is a federally registered
 trademark of Gaussian, Inc.
  
 This software contains proprietary and confidential information,
 including trade secrets, belonging to Gaussian, Inc.
  
 This software is provided under written license and may be
 used, copied, transmitted, or stored only in accord with that
 written license.
  
 The following legend is applicable only to US Government
 contracts under FAR:
  
                    RESTRICTED RIGHTS LEGEND
  
 Use, reproduction and disclosure by the US Government is
 subject to restrictions as set forth in subparagraphs (a)
 and (c) of the Commercial Computer Software - Restricted
 Rights clause in FAR 52.227-19.
  
 Gaussian, Inc.
 340 Quinnipiac St., Bldg. 40, Wallingford CT 06492
  
  
 ---------------------------------------------------------------
 Warning -- This program may not be used in any manner that
 competes with the business of Gaussian, Inc. or will provide
 assistance to any competitor of Gaussian, Inc.  The licensee
 of this program is prohibited from giving any competitor of
 Gaussian, Inc. access to this program.  By using this program,
 the user acknowledges that Gaussian, Inc. is engaged in the
 business of creating and licensing software in the field of
 computational chemistry and represents and warrants to the
 licensee that it is not a competitor of Gaussian, Inc. and that
 it will not use this program in any manner prohibited above.
 ---------------------------------------------------------------
  

 Cite this work as:
 Gaussian 09, Revision D.01,
 M. J. Frisch, G. W. Trucks, H. B. Schlegel, G. E. Scuseria, 
 M. A. Robb, J. R. Cheeseman, G. Scalmani, V. Barone, B. Mennucci, 
 G. A. Petersson, H. Nakatsuji, M. Caricato, X. Li, H. P. Hratchian, 
 A. F. Izmaylov, J. Bloino, G. Zheng, J. L. Sonnenberg, M. Hada, 
 M. Ehara, K. Toyota, R. Fukuda, J. Hasegawa, M. Ishida, T. Nakajima, 
 Y. Honda, O. Kitao, H. Nakai, T. Vreven, J. A. Montgomery, Jr., 
 J. E. Peralta, F. Ogliaro, M. Bearpark, J. J. Heyd, E. Brothers, 
 K. N. Kudin, V. N. Staroverov, T. Keith, R. Kobayashi, J. Normand, 
 K. Raghavachari, A. Rendell, J. C. Burant, S. S. Iyengar, J. Tomasi, 
 M. Cossi, N. Rega, J. M. Millam, M. Klene, J. E. Knox, J. B. Cross, 
 V. Bakken, C. Adamo, J. Jaramillo, R. Gomperts, R. E. Stratmann, 
 O. Yazyev, A. J. Austin, R. Cammi, C. Pomelli, J. W. Ochterski, 
 R. L. Martin, K. Morokuma, V. G. Zakrzewski, G. A. Voth, 
 P. Salvador, J. J. Dannenberg, S. Dapprich, A. D. Daniels, 
 O. Farkas, J. B. Foresman, J. V. Ortiz, J. Cioslowski, 
 and D. J. Fox, Gaussian, Inc., Wallingford CT, 2013.
 
 ******************************************
 Gaussian 09:  AM64L-G09RevD.01 24-Apr-2013
                13-Nov-2020 
 ******************************************
 %nproc=1
 Will use up to    1 processors via shared memory.
 %Chk=SET_328_BBB304_conf1_geo_210_060.n.pdb.xyz.mst.n.o.chk
 %mem=16GB
 -----------------
 #p b3lyp/6-31G(d)
 -----------------
 1/38=1/1;
 2/12=2,17=6,18=5,40=1/2;
 3/5=1,6=6,7=1,11=2,16=1,25=1,30=1,74=-5/1,2,3;
 4//1;
 5/5=2,38=5/2;
 6/7=2,8=2,9=2,10=2,28=1/1;
 99/5=1,9=1/99;
 Leave Link    1 at Fri Nov 13 03:25:48 2020, MaxMem=  2147483648 cpu:         0.0
 (Enter /prod/apps/gaussian/g09d1/l101.exe)
 ------------------------------------------
 SET_328_BBB304_conf1_geo_210_060.n.pdb.xyz
 ------------------------------------------
 Symbolic Z-matrix:
 Charge =  0 Multiplicity = 1
 N                     1.585     4.168     2.236 
 H                     2.575     4.35      2.167 
 H                     1.062     4.676     2.937 
 C                     1.058     3.015     1.762 
 C                     1.847     2.172     0.917 
 C                     1.249     1.04      0.458 
 H                     1.749     0.308    -0.163 
 H                     2.871     2.408     0.663 
 N                    -0.196     2.735     2.1 
 C                    -0.799     1.611     1.624 
 O                    -1.963     1.288     1.874 
 N                    -0.035     0.751     0.783 
 C                    -0.714    -0.471     0.302 
 O                     0.254    -1.4      -0.158 
 H                    -1.236    -0.878     1.169 
 C                    -1.676    -0.215    -0.872 
 H                    -1.347     0.674    -1.419 
 H                    -2.693    -0.043    -0.524 
 C                    -1.502    -1.473    -1.725 
 H                    -1.753    -1.319    -2.776 
 H                    -2.103    -2.302    -1.339 
 C                    -0.029    -1.805    -1.523 
 H                     0.605    -1.223    -2.206 
 C                     0.334    -3.278    -1.628 
 H                     1.416    -3.397    -1.467 
 H                     0.102    -3.637    -2.633 
 O                    -0.411    -4.069    -0.719 
 H                    -0.251    -3.684     0.159 
 
 NAtoms=     28 NQM=       28 NQMF=       0 NMMI=      0 NMMIF=      0
                NMic=       0 NMicF=      0.
                    Isotopes and Nuclear Properties:
 (Nuclear quadrupole moments (NQMom) in fm**2, nuclear magnetic moments (NMagM)
  in nuclear magnetons)

  Atom         1           2           3           4           5           6           7           8           9          10
 IAtWgt=          14           1           1          12          12          12           1           1          14          12
 AtmWgt=  14.0030740   1.0078250   1.0078250  12.0000000  12.0000000  12.0000000   1.0078250   1.0078250  14.0030740  12.0000000
 NucSpn=           2           1           1           0           0           0           1           1           2           0
 AtZEff=   0.0000000   0.0000000   0.0000000   0.0000000   0.0000000   0.0000000   0.0000000   0.0000000   0.0000000   0.0000000
 NQMom=    2.0440000   0.0000000   0.0000000   0.0000000   0.0000000   0.0000000   0.0000000   0.0000000   2.0440000   0.0000000
 NMagM=    0.4037610   2.7928460   2.7928460   0.0000000   0.0000000   0.0000000   2.7928460   2.7928460   0.4037610   0.0000000
 AtZNuc=   7.0000000   1.0000000   1.0000000   6.0000000   6.0000000   6.0000000   1.0000000   1.0000000   7.0000000   6.0000000

  Atom        11          12          13          14          15          16          17          18          19          20
 IAtWgt=          16          14          12          16           1          12           1           1          12           1
 AtmWgt=  15.9949146  14.0030740  12.0000000  15.9949146   1.0078250  12.0000000   1.0078250   1.0078250  12.0000000   1.0078250
 NucSpn=           0           2           0           0           1           0           1           1           0           1
 AtZEff=   0.0000000   0.0000000   0.0000000   0.0000000   0.0000000   0.0000000   0.0000000   0.0000000   0.0000000   0.0000000
 NQMom=    0.0000000   2.0440000   0.0000000   0.0000000   0.0000000   0.0000000   0.0000000   0.0000000   0.0000000   0.0000000
 NMagM=    0.0000000   0.4037610   0.0000000   0.0000000   2.7928460   0.0000000   2.7928460   2.7928460   0.0000000   2.7928460
 AtZNuc=   8.0000000   7.0000000   6.0000000   8.0000000   1.0000000   6.0000000   1.0000000   1.0000000   6.0000000   1.0000000

  Atom        21          22          23          24          25          26          27          28
 IAtWgt=           1          12           1          12           1           1          16           1
 AtmWgt=   1.0078250  12.0000000   1.0078250  12.0000000   1.0078250   1.0078250  15.9949146   1.0078250
 NucSpn=           1           0           1           0           1           1           0           1
 AtZEff=   0.0000000   0.0000000   0.0000000   0.0000000   0.0000000   0.0000000   0.0000000   0.0000000
 NQMom=    0.0000000   0.0000000   0.0000000   0.0000000   0.0000000   0.0000000   0.0000000   0.0000000
 NMagM=    2.7928460   0.0000000   2.7928460   0.0000000   2.7928460   2.7928460   0.0000000   2.7928460
 AtZNuc=   1.0000000   6.0000000   1.0000000   6.0000000   1.0000000   1.0000000   8.0000000   1.0000000
 Leave Link  101 at Fri Nov 13 03:25:48 2020, MaxMem=  2147483648 cpu:         0.1
 (Enter /prod/apps/gaussian/g09d1/l202.exe)
                          Input orientation:                          
 ---------------------------------------------------------------------
 Center     Atomic      Atomic             Coordinates (Angstroms)
 Number     Number       Type             X           Y           Z
 ---------------------------------------------------------------------
      1          7           0        1.585000    4.168000    2.236000
      2          1           0        2.575000    4.350000    2.167000
      3          1           0        1.062000    4.676000    2.937000
      4          6           0        1.058000    3.015000    1.762000
      5          6           0        1.847000    2.172000    0.917000
      6          6           0        1.249000    1.040000    0.458000
      7          1           0        1.749000    0.308000   -0.163000
      8          1           0        2.871000    2.408000    0.663000
      9          7           0       -0.196000    2.735000    2.100000
     10          6           0       -0.799000    1.611000    1.624000
     11          8           0       -1.963000    1.288000    1.874000
     12          7           0       -0.035000    0.751000    0.783000
     13          6           0       -0.714000   -0.471000    0.302000
     14          8           0        0.254000   -1.400000   -0.158000
     15          1           0       -1.236000   -0.878000    1.169000
     16          6           0       -1.676000   -0.215000   -0.872000
     17          1           0       -1.347000    0.674000   -1.419000
     18          1           0       -2.693000   -0.043000   -0.524000
     19          6           0       -1.502000   -1.473000   -1.725000
     20          1           0       -1.753000   -1.319000   -2.776000
     21          1           0       -2.103000   -2.302000   -1.339000
     22          6           0       -0.029000   -1.805000   -1.523000
     23          1           0        0.605000   -1.223000   -2.206000
     24          6           0        0.334000   -3.278000   -1.628000
     25          1           0        1.416000   -3.397000   -1.467000
     26          1           0        0.102000   -3.637000   -2.633000
     27          8           0       -0.411000   -4.069000   -0.719000
     28          1           0       -0.251000   -3.684000    0.159000
 ---------------------------------------------------------------------
                    Distance matrix (angstroms):
                    1          2          3          4          5
     1  N    0.000000
     2  H    1.008952   0.000000
     3  H    1.011432   1.728683   0.000000
     4  C    1.353445   2.060956   2.034591   0.000000
     5  C    2.406745   2.614607   3.311592   1.430802   0.000000
     6  C    3.613664   3.954119   4.404646   2.374347   1.360040
     7  H    4.547713   4.738031   5.400129   3.392780   2.156502
     8  H    2.688071   2.474065   3.686106   2.205271   1.081105
     9  N    2.289966   3.207983   2.459800   1.328593   2.426995
    10  C    3.549119   4.379594   3.818575   2.332104   2.795691
    11  O    4.584075   5.482257   4.664669   3.481596   4.026587
    12  N    4.051111   4.656217   4.609637   2.697923   2.362016
    13  C    5.526851   6.126809   6.048885   4.174180   3.731273
    14  O    6.205274   6.622323   6.866561   4.881090   4.056163
    15  H    5.878660   6.546122   6.265265   4.557360   4.344064
    16  C    6.285258   6.938714   6.776947   4.984537   4.616256
    17  H    5.844971   6.461769   6.387020   4.624183   4.231139
    18  H    6.606921   7.368294   6.953237   5.352304   5.253028
    19  C    7.552481   8.104130   8.131331   6.233371   5.610881
    20  H    8.146751   8.677695   8.746578   6.875952   6.227787
    21  H    8.260924   8.855779   8.774616   6.919437   6.380338
    22  C    7.239600   7.634196   7.942622   5.933396   5.028867
    23  H    7.053697   7.352711   7.839483   5.823305   4.777208
    24  C    8.481652   8.809682   9.199746   7.184575   6.202314
    25  H    8.424369   8.635117   9.202927   7.188070   6.073136
    26  H    9.317965   9.640949  10.052486   8.029886   7.027945
    27  O    8.975757   9.387479   9.592241   7.648292   6.835579
    28  H    8.326988   8.750057   8.906787   7.011397   6.266491
                    6          7          8          9         10
     6  C    0.000000
     7  H    1.082342   0.000000
     8  H    2.131744   2.520151   0.000000
     9  N    2.767167   3.846365   3.402703   0.000000
    10  C    2.424851   3.373942   3.876549   1.361455   0.000000
    11  O    3.519020   4.346115   5.107688   2.295032   1.233582
    12  N    1.355656   2.067322   3.347370   2.386769   1.424983
    13  C    2.482101   2.624773   4.612070   3.712084   2.467718
    14  O    2.706119   2.269871   4.692930   4.732789   3.653827
    15  H    3.218613   3.477218   5.284059   3.873258   2.567706
    16  C    3.449572   3.536500   5.469146   4.441361   3.214564
    17  H    3.224330   3.361058   5.013283   4.237438   3.230808
    18  H    4.204352   4.470446   6.194713   4.564830   3.307092
    19  C    4.318409   4.022537   6.315682   5.834683   4.606633
    20  H    5.003563   4.662500   6.862844   6.529513   5.371687
    21  H    5.063011   4.799269   7.136721   6.390206   5.078519
    22  C    3.694817   3.078255   5.562191   5.810819   4.708032
    23  H    3.554265   2.797596   5.152677   5.903304   4.967059
    24  C    4.881982   4.124057   6.634429   7.094720   5.980093
    25  H    4.839471   3.941869   6.352318   7.274851   6.288129
    26  H    5.722256   4.937260   7.421119   7.943077   6.817283
    27  O    5.499346   4.912521   7.391412   7.367999   6.156508
    28  H    4.965438   4.476578   6.863918   6.706271   5.521191
                   11         12         13         14         15
    11  O    0.000000
    12  N    2.279437   0.000000
    13  C    2.669319   1.478407   0.000000
    14  O    4.033541   2.365545   1.418332   0.000000
    15  H    2.391048   2.060349   1.090790   2.062405   0.000000
    16  C    3.143548   2.522907   1.539239   2.374641   2.190628
    17  H    3.405921   2.564386   2.161841   2.907714   3.019730
    18  H    2.838109   3.066537   2.186756   3.264998   2.384601
    19  C    4.559435   3.659007   2.394510   2.354645   2.966482
    20  H    5.335077   4.461267   3.357486   3.299778   4.003098
    21  H    4.819862   4.254447   2.823962   2.786362   3.011566
    22  C    4.984638   3.442500   2.362077   1.451668   3.092417
    23  H    5.435637   3.638736   2.931779   2.085386   3.859913
    24  C    6.195851   4.709769   3.564050   2.386249   4.006009
    25  H    6.673016   4.936983   4.028367   2.655510   4.508543
    26  H    6.988054   5.562587   4.393590   3.339595   4.884417
    27  O    6.150594   5.062586   3.752313   2.807224   3.798375
    28  H    5.531090   4.483889   3.249336   2.360544   3.140694
                   16         17         18         19         20
    16  C    0.000000
    17  H    1.094427   0.000000
    18  H    1.088566   1.768284   0.000000
    19  C    1.529853   2.174229   2.214900   0.000000
    20  H    2.202263   2.445063   2.753776   1.091475   0.000000
    21  H    2.180823   3.071565   2.472935   1.094275   1.775882
    22  C    2.380023   2.809516   3.346572   1.523403   2.185951
    23  H    2.828176   2.833422   3.885657   2.175617   2.427814
    24  C    3.740803   4.299738   4.565826   2.576496   3.084016
    25  H    4.476563   4.920316   5.387248   3.504720   4.009255
    26  H    4.239397   4.707241   5.017643   2.842565   2.972305
    27  O    4.059181   4.884889   4.631871   2.990240   3.687101
    28  H    3.889415   4.762716   4.436974   3.162748   4.057518
                   21         22         23         24         25
    21  H    0.000000
    22  C    2.140640   0.000000
    23  H    3.041249   1.098712   0.000000
    24  C    2.641035   1.520698   2.151871   0.000000
    25  H    3.687651   2.150727   2.435183   1.100366   0.000000
    26  H    2.884213   2.146039   2.502546   1.092122   1.773063
    27  O    2.523797   2.432701   3.367958   1.416682   2.085430
    28  H    2.753876   2.531610   3.518875   1.923650   2.346302
                   26         27         28
    26  H    0.000000
    27  O    2.028100   0.000000
    28  H    2.814619   0.971961   0.000000
 Stoichiometry    C9H13N3O3
 Framework group  C1[X(C9H13N3O3)]
 Deg. of freedom    78
 Full point group                 C1      NOp   1
 Largest Abelian subgroup         C1      NOp   1
 Largest concise Abelian subgroup C1      NOp   1
                         Standard orientation:                         
 ---------------------------------------------------------------------
 Center     Atomic      Atomic             Coordinates (Angstroms)
 Number     Number       Type             X           Y           Z
 ---------------------------------------------------------------------
      1          7           0       -4.657271   -0.838133    0.117575
      2          1           0       -4.962833   -1.799191    0.148932
      3          1           0       -5.330203   -0.140748   -0.171925
      4          6           0       -3.342647   -0.532179    0.017718
      5          6           0       -2.361420   -1.550894    0.233608
      6          6           0       -1.059004   -1.170626    0.139706
      7          1           0       -0.226230   -1.852750    0.252223
      8          1           0       -2.632673   -2.575458    0.446863
      9          7           0       -3.030934    0.728637   -0.262173
     10          6           0       -1.726501    1.111305   -0.336887
     11          8           0       -1.352688    2.262917   -0.573059
     12          7           0       -0.727917    0.116040   -0.129872
     13          6           0        0.677339    0.561994   -0.239722
     14          8           0        1.518741   -0.565625   -0.419118
     15          1           0        0.715694    1.197953   -1.125107
     16          6           0        1.185187    1.299577    1.012204
     17          1           0        0.615443    0.962627    1.883770
     18          1           0        1.058785    2.376768    0.919155
     19          6           0        2.640762    0.837499    1.102942
     20          1           0        3.048724    0.894707    2.113690
     21          1           0        3.284278    1.414812    0.432095
     22          6           0        2.562853   -0.594482    0.589017
     23          1           0        2.266341   -1.286441    1.389293
     24          6           0        3.817145   -1.118050   -0.093003
     25          1           0        3.646207   -2.154846   -0.419563
     26          1           0        4.642690   -1.122381    0.621971
     27          8           0        4.207881   -0.295191   -1.177998
     28          1           0        3.432873   -0.242535   -1.762205
 ---------------------------------------------------------------------
 Rotational constants (GHZ):      1.5089998      0.3127981      0.2828585
 Leave Link  202 at Fri Nov 13 03:25:48 2020, MaxMem=  2147483648 cpu:         0.0
 (Enter /prod/apps/gaussian/g09d1/l301.exe)
 Standard basis: 6-31G(d) (6D, 7F)
 Ernie: Thresh=  0.10000D-02 Tol=  0.10000D-05 Strict=F.
 There are   251 symmetry adapted cartesian basis functions of A   symmetry.
 There are   251 symmetry adapted basis functions of A   symmetry.
   251 basis functions,   472 primitive gaussians,   251 cartesian basis functions
    56 alpha electrons       56 beta electrons
       nuclear repulsion energy      1033.7169110638 Hartrees.
 IExCor=  402 DFT=T Ex+Corr=B3LYP ExCW=0 ScaHFX=  0.200000
 ScaDFX=  0.800000  0.720000  1.000000  0.810000 ScalE2=  1.000000  1.000000
 IRadAn=      0 IRanWt=     -1 IRanGd=            0 ICorTp=0 IEmpDi=  4
 NAtoms=   28 NActive=   28 NUniq=   28 SFac= 1.00D+00 NAtFMM=   60 NAOKFM=F Big=F
 Integral buffers will be    131072 words long.
 Raffenetti 2 integral format.
 Two-electron integral symmetry is turned on.
 Leave Link  301 at Fri Nov 13 03:25:48 2020, MaxMem=  2147483648 cpu:         0.0
 (Enter /prod/apps/gaussian/g09d1/l302.exe)
 NPDir=0 NMtPBC=     1 NCelOv=     1 NCel=       1 NClECP=     1 NCelD=      1
         NCelK=      1 NCelE2=     1 NClLst=     1 CellRange=     0.0.
 One-electron integrals computed using PRISM.
 NBasis=   251 RedAO= T EigKep=  1.16D-03  NBF=   251
 NBsUse=   251 1.00D-06 EigRej= -1.00D+00 NBFU=   251
 Precomputing XC quadrature grid using
 IXCGrd= 4 IRadAn=           0 IRanWt=          -1 IRanGd=           0 AccXCQ= 0.00D+00.
 Generated NRdTot=       0 NPtTot=           0 NUsed=           0 NTot=          32
 NSgBfM=   250   250   250   250   250 MxSgAt=    28 MxSgA2=    28.
 Leave Link  302 at Fri Nov 13 03:25:49 2020, MaxMem=  2147483648 cpu:         0.6
 (Enter /prod/apps/gaussian/g09d1/l303.exe)
 DipDrv:  MaxL=1.
 Leave Link  303 at Fri Nov 13 03:25:49 2020, MaxMem=  2147483648 cpu:         0.0
 (Enter /prod/apps/gaussian/g09d1/l401.exe)
 ExpMin= 1.61D-01 ExpMax= 5.48D+03 ExpMxC= 8.25D+02 IAcc=1 IRadAn=         1 AccDes= 0.00D+00
 Harris functional with IExCor=  402 and IRadAn=       1 diagonalized for initial guess.
 HarFok:  IExCor=  402 AccDes= 0.00D+00 IRadAn=         1 IDoV= 1 UseB2=F ITyADJ=14
 ICtDFT=  3500011 ScaDFX=  1.000000  1.000000  1.000000  1.000000
 FoFCou: FMM=F IPFlag=           0 FMFlag=      100000 FMFlg1=           0
         NFxFlg=           0 DoJE=T BraDBF=F KetDBF=T FulRan=T
         wScrn=  0.000000 ICntrl=     500 IOpCl=  0 I1Cent=   200000004 NGrid=           0
         NMat0=    1 NMatS0=      1 NMatT0=    0 NMatD0=    1 NMtDS0=    0 NMtDT0=    0
 Petite list used in FoFCou.
 Harris En= -740.707704795776    
 JPrj=0 DoOrth=F DoCkMO=F.
 Leave Link  401 at Fri Nov 13 03:25:51 2020, MaxMem=  2147483648 cpu:         2.4
 (Enter /prod/apps/gaussian/g09d1/l502.exe)
 Closed shell SCF:
 Using DIIS extrapolation, IDIIS=  1040.
 Integral symmetry usage will be decided dynamically.
 Keep R1 ints in memory in canonical form, NReq=508330087.
 IVT=      210958 IEndB=      210958 NGot=  2147483648 MDV=  1647154940
 LenX=  1647154940 LenY=  1647091498
 Requested convergence on RMS density matrix=1.00D-08 within 128 cycles.
 Requested convergence on MAX density matrix=1.00D-06.
 Requested convergence on             energy=1.00D-06.
 No special actions if energy rises.
 FoFCou: FMM=F IPFlag=           0 FMFlag=           0 FMFlg1=           0
         NFxFlg=           0 DoJE=F BraDBF=F KetDBF=F FulRan=T
         wScrn=  0.000000 ICntrl=     600 IOpCl=  0 I1Cent=           0 NGrid=           0
         NMat0=    1 NMatS0=  31626 NMatT0=    0 NMatD0=    1 NMtDS0=    0 NMtDT0=    0
 Symmetry not used in FoFCou.
 Integral accuracy reduced to 1.0D-05 until final iterations.

 Cycle   1  Pass 0  IDiag  1:
 E= -740.341741525029    
 DIIS: error= 2.23D-02 at cycle   1 NSaved=   1.
 NSaved= 1 IEnMin= 1 EnMin= -740.341741525029     IErMin= 1 ErrMin= 2.23D-02
 ErrMax= 2.23D-02  0.00D+00 EMaxC= 1.00D-01 BMatC= 4.29D-01 BMatP= 4.29D-01
 IDIUse=3 WtCom= 7.77D-01 WtEn= 2.23D-01
 Coeff-Com:  0.100D+01
 Coeff-En:   0.100D+01
 Coeff:      0.100D+01
 Gap=     0.189 Goal=   None    Shift=    0.000
 GapD=    0.189 DampG=1.000 DampE=0.500 DampFc=0.5000 IDamp=-1.
 Damping current iteration by 5.00D-01
 RMSDP=6.49D-03 MaxDP=2.54D-01              OVMax= 3.75D-01

 Cycle   2  Pass 0  IDiag  1:
 E= -740.440210474139     Delta-E=       -0.098468949110 Rises=F Damp=T
 DIIS: error= 1.34D-02 at cycle   2 NSaved=   2.
 NSaved= 2 IEnMin= 2 EnMin= -740.440210474139     IErMin= 2 ErrMin= 1.34D-02
 ErrMax= 1.34D-02  0.00D+00 EMaxC= 1.00D-01 BMatC= 7.10D-02 BMatP= 4.29D-01
 IDIUse=3 WtCom= 8.66D-01 WtEn= 1.34D-01
 Coeff-Com:  0.217D+00 0.783D+00
 Coeff-En:   0.346D+00 0.654D+00
 Coeff:      0.234D+00 0.766D+00
 Gap=     0.256 Goal=   None    Shift=    0.000
 RMSDP=2.17D-03 MaxDP=1.27D-01 DE=-9.85D-02 OVMax= 2.52D-01

 Cycle   3  Pass 0  IDiag  1:
 E= -740.653163873535     Delta-E=       -0.212953399396 Rises=F Damp=F
 DIIS: error= 1.54D-02 at cycle   3 NSaved=   3.
 NSaved= 3 IEnMin= 3 EnMin= -740.653163873535     IErMin= 2 ErrMin= 1.34D-02
 ErrMax= 1.54D-02  0.00D+00 EMaxC= 1.00D-01 BMatC= 6.75D-02 BMatP= 7.10D-02
 IDIUse=3 WtCom= 8.46D-01 WtEn= 1.54D-01
 Coeff-Com:  0.661D-01 0.485D+00 0.449D+00
 Coeff-En:   0.000D+00 0.000D+00 0.100D+01
 Coeff:      0.560D-01 0.410D+00 0.534D+00
 Gap=     0.200 Goal=   None    Shift=    0.000
 RMSDP=1.51D-03 MaxDP=7.13D-02 DE=-2.13D-01 OVMax= 1.24D-01

 Cycle   4  Pass 0  IDiag  1:
 E= -740.699814561034     Delta-E=       -0.046650687499 Rises=F Damp=F
 DIIS: error= 6.55D-03 at cycle   4 NSaved=   4.
 NSaved= 4 IEnMin= 4 EnMin= -740.699814561034     IErMin= 4 ErrMin= 6.55D-03
 ErrMax= 6.55D-03  0.00D+00 EMaxC= 1.00D-01 BMatC= 1.54D-02 BMatP= 6.75D-02
 IDIUse=3 WtCom= 9.34D-01 WtEn= 6.55D-02
 Coeff-Com:  0.122D-01 0.863D-01 0.328D+00 0.574D+00
 Coeff-En:   0.000D+00 0.000D+00 0.212D+00 0.788D+00
 Coeff:      0.114D-01 0.806D-01 0.320D+00 0.588D+00
 Gap=     0.199 Goal=   None    Shift=    0.000
 RMSDP=5.30D-04 MaxDP=2.62D-02 DE=-4.67D-02 OVMax= 4.33D-02

 Cycle   5  Pass 0  IDiag  1:
 E= -740.711683956872     Delta-E=       -0.011869395838 Rises=F Damp=F
 DIIS: error= 1.34D-03 at cycle   5 NSaved=   5.
 NSaved= 5 IEnMin= 5 EnMin= -740.711683956872     IErMin= 5 ErrMin= 1.34D-03
 ErrMax= 1.34D-03  0.00D+00 EMaxC= 1.00D-01 BMatC= 7.71D-04 BMatP= 1.54D-02
 IDIUse=3 WtCom= 9.87D-01 WtEn= 1.34D-02
 Coeff-Com:  0.173D-02 0.933D-02 0.136D+00 0.325D+00 0.528D+00
 Coeff-En:   0.000D+00 0.000D+00 0.000D+00 0.000D+00 0.100D+01
 Coeff:      0.171D-02 0.920D-02 0.134D+00 0.320D+00 0.534D+00
 Gap=     0.195 Goal=   None    Shift=    0.000
 RMSDP=1.27D-04 MaxDP=6.23D-03 DE=-1.19D-02 OVMax= 8.07D-03

 Cycle   6  Pass 0  IDiag  1:
 E= -740.712239602806     Delta-E=       -0.000555645933 Rises=F Damp=F
 DIIS: error= 4.85D-04 at cycle   6 NSaved=   6.
 NSaved= 6 IEnMin= 6 EnMin= -740.712239602806     IErMin= 6 ErrMin= 4.85D-04
 ErrMax= 4.85D-04  0.00D+00 EMaxC= 1.00D-01 BMatC= 9.00D-05 BMatP= 7.71D-04
 IDIUse=3 WtCom= 9.95D-01 WtEn= 4.85D-03
 Coeff-Com: -0.912D-04-0.307D-02 0.426D-01 0.119D+00 0.314D+00 0.527D+00
 Coeff-En:   0.000D+00 0.000D+00 0.000D+00 0.000D+00 0.783D-01 0.922D+00
 Coeff:     -0.908D-04-0.306D-02 0.424D-01 0.119D+00 0.313D+00 0.529D+00
 Gap=     0.195 Goal=   None    Shift=    0.000
 RMSDP=4.44D-05 MaxDP=2.45D-03 DE=-5.56D-04 OVMax= 3.27D-03

 Cycle   7  Pass 0  IDiag  1:
 E= -740.712312038063     Delta-E=       -0.000072435257 Rises=F Damp=F
 DIIS: error= 1.25D-04 at cycle   7 NSaved=   7.
 NSaved= 7 IEnMin= 7 EnMin= -740.712312038063     IErMin= 7 ErrMin= 1.25D-04
 ErrMax= 1.25D-04  0.00D+00 EMaxC= 1.00D-01 BMatC= 7.45D-06 BMatP= 9.00D-05
 IDIUse=3 WtCom= 9.99D-01 WtEn= 1.25D-03
 Coeff-Com: -0.201D-03-0.230D-02 0.121D-01 0.370D-01 0.133D+00 0.302D+00
 Coeff-Com:  0.519D+00
 Coeff-En:   0.000D+00 0.000D+00 0.000D+00 0.000D+00 0.000D+00 0.794D-02
 Coeff-En:   0.992D+00
 Coeff:     -0.200D-03-0.229D-02 0.121D-01 0.370D-01 0.133D+00 0.301D+00
 Coeff:      0.519D+00
 Gap=     0.195 Goal=   None    Shift=    0.000
 RMSDP=1.34D-05 MaxDP=5.97D-04 DE=-7.24D-05 OVMax= 9.03D-04

 Cycle   8  Pass 0  IDiag  1:
 E= -740.712318635439     Delta-E=       -0.000006597377 Rises=F Damp=F
 DIIS: error= 2.97D-05 at cycle   8 NSaved=   8.
 NSaved= 8 IEnMin= 8 EnMin= -740.712318635439     IErMin= 8 ErrMin= 2.97D-05
 ErrMax= 2.97D-05  0.00D+00 EMaxC= 1.00D-01 BMatC= 4.80D-07 BMatP= 7.45D-06
 IDIUse=1 WtCom= 1.00D+00 WtEn= 0.00D+00
 Coeff-Com: -0.522D-04-0.767D-03 0.173D-02 0.562D-02 0.369D-01 0.973D-01
 Coeff-Com:  0.254D+00 0.605D+00
 Coeff:     -0.522D-04-0.767D-03 0.173D-02 0.562D-02 0.369D-01 0.973D-01
 Coeff:      0.254D+00 0.605D+00
 Gap=     0.195 Goal=   None    Shift=    0.000
 RMSDP=2.92D-06 MaxDP=1.02D-04 DE=-6.60D-06 OVMax= 1.39D-04

 Initial convergence to 1.0D-05 achieved.  Increase integral accuracy.
 Cycle   9  Pass 1  IDiag  1:
 E= -740.712408026379     Delta-E=       -0.000089390940 Rises=F Damp=F
 DIIS: error= 1.90D-05 at cycle   1 NSaved=   1.
 NSaved= 1 IEnMin= 1 EnMin= -740.712408026379     IErMin= 1 ErrMin= 1.90D-05
 ErrMax= 1.90D-05  0.00D+00 EMaxC= 1.00D-01 BMatC= 2.33D-07 BMatP= 2.33D-07
 IDIUse=1 WtCom= 1.00D+00 WtEn= 0.00D+00
 Coeff-Com:  0.100D+01
 Coeff:      0.100D+01
 Gap=     0.195 Goal=   None    Shift=    0.000
 RMSDP=2.92D-06 MaxDP=1.02D-04 DE=-8.94D-05 OVMax= 1.42D-04

 Cycle  10  Pass 1  IDiag  1:
 E= -740.712408157760     Delta-E=       -0.000000131381 Rises=F Damp=F
 DIIS: error= 2.12D-05 at cycle   2 NSaved=   2.
 NSaved= 2 IEnMin= 2 EnMin= -740.712408157760     IErMin= 1 ErrMin= 1.90D-05
 ErrMax= 2.12D-05  0.00D+00 EMaxC= 1.00D-01 BMatC= 1.48D-07 BMatP= 2.33D-07
 IDIUse=1 WtCom= 1.00D+00 WtEn= 0.00D+00
 Coeff-Com:  0.423D+00 0.577D+00
 Coeff:      0.423D+00 0.577D+00
 Gap=     0.195 Goal=   None    Shift=    0.000
 RMSDP=2.12D-06 MaxDP=6.99D-05 DE=-1.31D-07 OVMax= 9.75D-05

 Cycle  11  Pass 1  IDiag  1:
 E= -740.712408247303     Delta-E=       -0.000000089543 Rises=F Damp=F
 DIIS: error= 1.08D-05 at cycle   3 NSaved=   3.
 NSaved= 3 IEnMin= 3 EnMin= -740.712408247303     IErMin= 3 ErrMin= 1.08D-05
 ErrMax= 1.08D-05  0.00D+00 EMaxC= 1.00D-01 BMatC= 3.96D-08 BMatP= 1.48D-07
 IDIUse=1 WtCom= 1.00D+00 WtEn= 0.00D+00
 Coeff-Com:  0.179D-02 0.337D+00 0.661D+00
 Coeff:      0.179D-02 0.337D+00 0.661D+00
 Gap=     0.195 Goal=   None    Shift=    0.000
 RMSDP=8.50D-07 MaxDP=3.13D-05 DE=-8.95D-08 OVMax= 6.32D-05

 Cycle  12  Pass 1  IDiag  1:
 E= -740.712408275230     Delta-E=       -0.000000027926 Rises=F Damp=F
 DIIS: error= 3.90D-06 at cycle   4 NSaved=   4.
 NSaved= 4 IEnMin= 4 EnMin= -740.712408275230     IErMin= 4 ErrMin= 3.90D-06
 ErrMax= 3.90D-06  0.00D+00 EMaxC= 1.00D-01 BMatC= 4.49D-09 BMatP= 3.96D-08
 IDIUse=1 WtCom= 1.00D+00 WtEn= 0.00D+00
 Coeff-Com: -0.163D-01 0.188D+00 0.414D+00 0.414D+00
 Coeff:     -0.163D-01 0.188D+00 0.414D+00 0.414D+00
 Gap=     0.195 Goal=   None    Shift=    0.000
 RMSDP=2.93D-07 MaxDP=1.53D-05 DE=-2.79D-08 OVMax= 2.76D-05

 Cycle  13  Pass 1  IDiag  1:
 E= -740.712408279080     Delta-E=       -0.000000003850 Rises=F Damp=F
 DIIS: error= 9.03D-07 at cycle   5 NSaved=   5.
 NSaved= 5 IEnMin= 5 EnMin= -740.712408279080     IErMin= 5 ErrMin= 9.03D-07
 ErrMax= 9.03D-07  0.00D+00 EMaxC= 1.00D-01 BMatC= 2.32D-10 BMatP= 4.49D-09
 IDIUse=1 WtCom= 1.00D+00 WtEn= 0.00D+00
 Coeff-Com: -0.969D-02 0.911D-01 0.206D+00 0.251D+00 0.461D+00
 Coeff:     -0.969D-02 0.911D-01 0.206D+00 0.251D+00 0.461D+00
 Gap=     0.195 Goal=   None    Shift=    0.000
 RMSDP=7.17D-08 MaxDP=2.99D-06 DE=-3.85D-09 OVMax= 4.77D-06

 Cycle  14  Pass 1  IDiag  1:
 E= -740.712408279262     Delta-E=       -0.000000000182 Rises=F Damp=F
 DIIS: error= 1.61D-07 at cycle   6 NSaved=   6.
 NSaved= 6 IEnMin= 6 EnMin= -740.712408279262     IErMin= 6 ErrMin= 1.61D-07
 ErrMax= 1.61D-07  0.00D+00 EMaxC= 1.00D-01 BMatC= 1.07D-11 BMatP= 2.32D-10
 IDIUse=1 WtCom= 1.00D+00 WtEn= 0.00D+00
 Coeff-Com: -0.268D-02 0.206D-01 0.485D-01 0.684D-01 0.218D+00 0.647D+00
 Coeff:     -0.268D-02 0.206D-01 0.485D-01 0.684D-01 0.218D+00 0.647D+00
 Gap=     0.195 Goal=   None    Shift=    0.000
 RMSDP=1.67D-08 MaxDP=5.85D-07 DE=-1.82D-10 OVMax= 7.05D-07

 Cycle  15  Pass 1  IDiag  1:
 E= -740.712408279272     Delta-E=       -0.000000000010 Rises=F Damp=F
 DIIS: error= 7.00D-08 at cycle   7 NSaved=   7.
 NSaved= 7 IEnMin= 7 EnMin= -740.712408279272     IErMin= 7 ErrMin= 7.00D-08
 ErrMax= 7.00D-08  0.00D+00 EMaxC= 1.00D-01 BMatC= 2.68D-12 BMatP= 1.07D-11
 IDIUse=1 WtCom= 1.00D+00 WtEn= 0.00D+00
 Coeff-Com: -0.355D-03 0.381D-03 0.227D-02 0.872D-02 0.763D-01 0.395D+00
 Coeff-Com:  0.518D+00
 Coeff:     -0.355D-03 0.381D-03 0.227D-02 0.872D-02 0.763D-01 0.395D+00
 Coeff:      0.518D+00
 Gap=     0.195 Goal=   None    Shift=    0.000
 RMSDP=7.50D-09 MaxDP=3.48D-07 DE=-1.02D-11 OVMax= 4.94D-07

 SCF Done:  E(RB3LYP) =  -740.712408279     A.U. after   15 cycles
            NFock= 15  Conv=0.75D-08     -V/T= 2.0090
 KE= 7.340848041249D+02 PE=-3.795191452253D+03 EE= 1.286677328785D+03
 Leave Link  502 at Fri Nov 13 03:27:32 2020, MaxMem=  2147483648 cpu:       101.4
 (Enter /prod/apps/gaussian/g09d1/l601.exe)
 Copying SCF densities to generalized density rwf, IOpCl= 0 IROHF=0.

 **********************************************************************

            Population analysis using the SCF density.

 **********************************************************************

 Orbital symmetries:
       Occupied  (A) (A) (A) (A) (A) (A) (A) (A) (A) (A) (A) (A)
                 (A) (A) (A) (A) (A) (A) (A) (A) (A) (A) (A) (A)
                 (A) (A) (A) (A) (A) (A) (A) (A) (A) (A) (A) (A)
                 (A) (A) (A) (A) (A) (A) (A) (A) (A) (A) (A) (A)
                 (A) (A) (A) (A) (A) (A) (A) (A)
       Virtual   (A) (A) (A) (A) (A) (A) (A) (A) (A) (A) (A) (A)
                 (A) (A) (A) (A) (A) (A) (A) (A) (A) (A) (A) (A)
                 (A) (A) (A) (A) (A) (A) (A) (A) (A) (A) (A) (A)
                 (A) (A) (A) (A) (A) (A) (A) (A) (A) (A) (A) (A)
                 (A) (A) (A) (A) (A) (A) (A) (A) (A) (A) (A) (A)
                 (A) (A) (A) (A) (A) (A) (A) (A) (A) (A) (A) (A)
                 (A) (A) (A) (A) (A) (A) (A) (A) (A) (A) (A) (A)
                 (A) (A) (A) (A) (A) (A) (A) (A) (A) (A) (A) (A)
                 (A) (A) (A) (A) (A) (A) (A) (A) (A) (A) (A) (A)
                 (A) (A) (A) (A) (A) (A) (A) (A) (A) (A) (A) (A)
                 (A) (A) (A) (A) (A) (A) (A) (A) (A) (A) (A) (A)
                 (A) (A) (A) (A) (A) (A) (A) (A) (A) (A) (A) (A)
                 (A) (A) (A) (A) (A) (A) (A) (A) (A) (A) (A) (A)
                 (A) (A) (A) (A) (A) (A) (A) (A) (A) (A) (A) (A)
                 (A) (A) (A) (A) (A) (A) (A) (A) (A) (A) (A) (A)
                 (A) (A) (A) (A) (A) (A) (A) (A) (A) (A) (A) (A)
                 (A) (A) (A)
 The electronic state is 1-A.
 Alpha  occ. eigenvalues --  -19.17352 -19.14831 -19.08843 -14.38718 -14.36347
 Alpha  occ. eigenvalues --  -14.30449 -10.29270 -10.28224 -10.27777 -10.25077
 Alpha  occ. eigenvalues --  -10.24983 -10.23833 -10.19526 -10.19401 -10.19377
 Alpha  occ. eigenvalues --   -1.07006  -1.02988  -1.01894  -0.96423  -0.94351
 Alpha  occ. eigenvalues --   -0.87079  -0.80094  -0.79144  -0.75854  -0.68877
 Alpha  occ. eigenvalues --   -0.65795  -0.64153  -0.61449  -0.59060  -0.56633
 Alpha  occ. eigenvalues --   -0.53612  -0.52451  -0.51989  -0.50529  -0.49269
 Alpha  occ. eigenvalues --   -0.47535  -0.46010  -0.44976  -0.44098  -0.43633
 Alpha  occ. eigenvalues --   -0.42231  -0.40704  -0.39468  -0.38803  -0.36479
 Alpha  occ. eigenvalues --   -0.36121  -0.35771  -0.34274  -0.33410  -0.33136
 Alpha  occ. eigenvalues --   -0.29025  -0.27316  -0.25982  -0.24650  -0.23921
 Alpha  occ. eigenvalues --   -0.22100
 Alpha virt. eigenvalues --   -0.02584   0.02607   0.06878   0.07113   0.08756
 Alpha virt. eigenvalues --    0.09860   0.11259   0.11717   0.13017   0.13253
 Alpha virt. eigenvalues --    0.14476   0.14909   0.15445   0.16744   0.16859
 Alpha virt. eigenvalues --    0.17838   0.18971   0.20077   0.20428   0.21386
 Alpha virt. eigenvalues --    0.23717   0.24772   0.25527   0.26084   0.28194
 Alpha virt. eigenvalues --    0.29281   0.32271   0.33755   0.36576   0.37643
 Alpha virt. eigenvalues --    0.40935   0.48024   0.49420   0.50515   0.51646
 Alpha virt. eigenvalues --    0.52119   0.53565   0.54474   0.56208   0.57002
 Alpha virt. eigenvalues --    0.57348   0.58228   0.59639   0.59782   0.61238
 Alpha virt. eigenvalues --    0.62773   0.63168   0.64209   0.64789   0.66770
 Alpha virt. eigenvalues --    0.67424   0.68688   0.68793   0.70078   0.73010
 Alpha virt. eigenvalues --    0.75019   0.76258   0.78476   0.79303   0.80213
 Alpha virt. eigenvalues --    0.82034   0.83430   0.83887   0.84769   0.85219
 Alpha virt. eigenvalues --    0.85630   0.86314   0.87600   0.87960   0.88889
 Alpha virt. eigenvalues --    0.89673   0.91123   0.91291   0.92075   0.94060
 Alpha virt. eigenvalues --    0.95214   0.95958   0.97156   0.98671   1.01275
 Alpha virt. eigenvalues --    1.02664   1.06099   1.06964   1.08349   1.10637
 Alpha virt. eigenvalues --    1.11133   1.13092   1.14141   1.16124   1.20768
 Alpha virt. eigenvalues --    1.22767   1.25588   1.28489   1.29000   1.31573
 Alpha virt. eigenvalues --    1.33241   1.34303   1.37928   1.41312   1.42147
 Alpha virt. eigenvalues --    1.42721   1.44421   1.45462   1.47935   1.50059
 Alpha virt. eigenvalues --    1.51547   1.56329   1.59062   1.60327   1.62743
 Alpha virt. eigenvalues --    1.64275   1.66837   1.68862   1.70618   1.74692
 Alpha virt. eigenvalues --    1.77686   1.78640   1.79446   1.80998   1.83028
 Alpha virt. eigenvalues --    1.85026   1.86870   1.87364   1.88436   1.91447
 Alpha virt. eigenvalues --    1.91983   1.93005   1.93187   1.95172   1.96646
 Alpha virt. eigenvalues --    1.97705   1.99192   2.01470   2.03350   2.04985
 Alpha virt. eigenvalues --    2.06637   2.10604   2.11291   2.14786   2.15116
 Alpha virt. eigenvalues --    2.16178   2.17996   2.19734   2.22110   2.23752
 Alpha virt. eigenvalues --    2.27745   2.29205   2.33055   2.34135   2.34553
 Alpha virt. eigenvalues --    2.35978   2.38652   2.41628   2.42508   2.44237
 Alpha virt. eigenvalues --    2.45721   2.47629   2.48795   2.50556   2.51576
 Alpha virt. eigenvalues --    2.53299   2.59412   2.63589   2.66249   2.68582
 Alpha virt. eigenvalues --    2.69049   2.71718   2.71842   2.75358   2.78466
 Alpha virt. eigenvalues --    2.81855   2.84734   2.85326   2.86832   2.91708
 Alpha virt. eigenvalues --    2.99680   3.03893   3.06139   3.28984   3.44254
 Alpha virt. eigenvalues --    3.76867   3.82372   4.01501   4.05063   4.10179
 Alpha virt. eigenvalues --    4.14691   4.22513   4.25815   4.32338   4.36298
 Alpha virt. eigenvalues --    4.39100   4.53476   4.58726   4.65278   4.67642
          Condensed to atoms (all electrons):
               1          2          3          4          5          6
     1  N    7.024548   0.314844   0.294248   0.320836  -0.091277   0.003413
     2  H    0.314844   0.386997  -0.023303  -0.020584  -0.001905   0.000119
     3  H    0.294248  -0.023303   0.372145  -0.009498   0.007474  -0.000089
     4  C    0.320836  -0.020584  -0.009498   4.391538   0.410782  -0.022400
     5  C   -0.091277  -0.001905   0.007474   0.410782   5.140904   0.567467
     6  C    0.003413   0.000119  -0.000089  -0.022400   0.567467   4.735263
     7  H   -0.000126   0.000003   0.000004   0.003856  -0.040682   0.363507
     8  H   -0.004421   0.003053  -0.000297  -0.027756   0.349203  -0.038079
     9  N   -0.093585   0.004090   0.008369   0.461831  -0.051682  -0.026545
    10  C    0.002417  -0.000123  -0.000008  -0.032710  -0.021686  -0.029623
    11  O   -0.000036   0.000001  -0.000022   0.000640   0.000800   0.001847
    12  N    0.000260   0.000030   0.000035  -0.010471  -0.040941   0.359672
    13  C    0.000008   0.000000  -0.000001   0.000647   0.004728  -0.037968
    14  O    0.000000   0.000000   0.000000  -0.000043   0.001194   0.002706
    15  H    0.000000   0.000000   0.000000  -0.000055  -0.000047   0.004859
    16  C    0.000000   0.000000   0.000000   0.000025  -0.000117  -0.000017
    17  H    0.000000   0.000000   0.000000   0.000017  -0.000285   0.002902
    18  H    0.000000   0.000000   0.000000  -0.000006   0.000012  -0.000123
    19  C    0.000000   0.000000   0.000000  -0.000001   0.000007   0.000178
    20  H    0.000000   0.000000   0.000000   0.000000   0.000000  -0.000019
    21  H    0.000000   0.000000   0.000000   0.000000   0.000000  -0.000003
    22  C    0.000000   0.000000   0.000000  -0.000001   0.000023  -0.000198
    23  H    0.000000   0.000000   0.000000   0.000001  -0.000080  -0.000059
    24  C    0.000000   0.000000   0.000000   0.000000   0.000001   0.000036
    25  H    0.000000   0.000000   0.000000   0.000000   0.000000  -0.000011
    26  H    0.000000   0.000000   0.000000   0.000000   0.000000  -0.000001
    27  O    0.000000   0.000000   0.000000   0.000000   0.000000   0.000000
    28  H    0.000000   0.000000   0.000000   0.000000   0.000000   0.000000
               7          8          9         10         11         12
     1  N   -0.000126  -0.004421  -0.093585   0.002417  -0.000036   0.000260
     2  H    0.000003   0.003053   0.004090  -0.000123   0.000001   0.000030
     3  H    0.000004  -0.000297   0.008369  -0.000008  -0.000022   0.000035
     4  C    0.003856  -0.027756   0.461831  -0.032710   0.000640  -0.010471
     5  C   -0.040682   0.349203  -0.051682  -0.021686   0.000800  -0.040941
     6  C    0.363507  -0.038079  -0.026545  -0.029623   0.001847   0.359672
     7  H    0.531977  -0.003822  -0.000533   0.001485  -0.000148  -0.049362
     8  H   -0.003822   0.580407   0.004439   0.000753   0.000007   0.003194
     9  N   -0.000533   0.004439   7.052582   0.397240  -0.077912  -0.110074
    10  C    0.001485   0.000753   0.397240   4.211479   0.565438   0.211385
    11  O   -0.000148   0.000007  -0.077912   0.565438   8.141692  -0.113683
    12  N   -0.049362   0.003194  -0.110074   0.211385  -0.113683   7.177128
    13  C   -0.006907  -0.000074   0.004003  -0.015815   0.009485   0.241573
    14  O    0.016498   0.000003  -0.000036   0.001491   0.000253  -0.054453
    15  H    0.000523   0.000004   0.000152  -0.001850   0.013455  -0.063617
    16  C    0.000755  -0.000001  -0.000247  -0.003243  -0.000022  -0.052732
    17  H    0.000376   0.000001  -0.000107  -0.000154  -0.000484  -0.003040
    18  H   -0.000037   0.000000   0.000048   0.001285   0.005041   0.000414
    19  C    0.000067   0.000000   0.000003   0.000268   0.000249   0.002658
    20  H   -0.000012   0.000000   0.000000  -0.000001   0.000000  -0.000059
    21  H    0.000006   0.000000   0.000000  -0.000007   0.000000   0.000097
    22  C   -0.000273   0.000001   0.000001   0.000019  -0.000007   0.001372
    23  H    0.000056  -0.000002   0.000000  -0.000006   0.000001   0.001194
    24  C    0.000057   0.000000   0.000000   0.000002   0.000000  -0.000188
    25  H    0.000089   0.000000   0.000000   0.000000   0.000000  -0.000010
    26  H   -0.000002   0.000000   0.000000   0.000000   0.000000   0.000003
    27  O    0.000002   0.000000   0.000000   0.000000   0.000000   0.000002
    28  H    0.000000   0.000000   0.000000   0.000000   0.000000   0.000075
              13         14         15         16         17         18
     1  N    0.000008   0.000000   0.000000   0.000000   0.000000   0.000000
     2  H    0.000000   0.000000   0.000000   0.000000   0.000000   0.000000
     3  H   -0.000001   0.000000   0.000000   0.000000   0.000000   0.000000
     4  C    0.000647  -0.000043  -0.000055   0.000025   0.000017  -0.000006
     5  C    0.004728   0.001194  -0.000047  -0.000117  -0.000285   0.000012
     6  C   -0.037968   0.002706   0.004859  -0.000017   0.002902  -0.000123
     7  H   -0.006907   0.016498   0.000523   0.000755   0.000376  -0.000037
     8  H   -0.000074   0.000003   0.000004  -0.000001   0.000001   0.000000
     9  N    0.004003  -0.000036   0.000152  -0.000247  -0.000107   0.000048
    10  C   -0.015815   0.001491  -0.001850  -0.003243  -0.000154   0.001285
    11  O    0.009485   0.000253   0.013455  -0.000022  -0.000484   0.005041
    12  N    0.241573  -0.054453  -0.063617  -0.052732  -0.003040   0.000414
    13  C    4.677683   0.231777   0.384196   0.355196  -0.036608  -0.019972
    14  O    0.231777   8.335339  -0.039545  -0.047510  -0.000366   0.002901
    15  H    0.384196  -0.039545   0.568604  -0.049151   0.004992  -0.004036
    16  C    0.355196  -0.047510  -0.049151   5.159025   0.368084   0.364706
    17  H   -0.036608  -0.000366   0.004992   0.368084   0.577701  -0.028796
    18  H   -0.019972   0.002901  -0.004036   0.364706  -0.028796   0.511771
    19  C   -0.065561  -0.052446  -0.000154   0.349839  -0.036057  -0.024025
    20  H    0.005180   0.003227  -0.000231  -0.025906  -0.006937   0.001092
    21  H    0.000758  -0.000785   0.000955  -0.036461   0.004478  -0.005055
    22  C   -0.047018   0.221573   0.005622  -0.069057   0.001641   0.004676
    23  H    0.002972  -0.045640  -0.000365  -0.002918   0.001684  -0.000139
    24  C    0.001910  -0.046880   0.000112   0.004622  -0.000046  -0.000098
    25  H   -0.000115  -0.002665   0.000022  -0.000256   0.000003   0.000003
    26  H   -0.000094   0.003272  -0.000004   0.000107  -0.000006  -0.000003
    27  O    0.000657  -0.005854   0.000242  -0.000347  -0.000004   0.000004
    28  H   -0.000050   0.020985  -0.000395   0.000070   0.000001  -0.000018
              19         20         21         22         23         24
     1  N    0.000000   0.000000   0.000000   0.000000   0.000000   0.000000
     2  H    0.000000   0.000000   0.000000   0.000000   0.000000   0.000000
     3  H    0.000000   0.000000   0.000000   0.000000   0.000000   0.000000
     4  C   -0.000001   0.000000   0.000000  -0.000001   0.000001   0.000000
     5  C    0.000007   0.000000   0.000000   0.000023  -0.000080   0.000001
     6  C    0.000178  -0.000019  -0.000003  -0.000198  -0.000059   0.000036
     7  H    0.000067  -0.000012   0.000006  -0.000273   0.000056   0.000057
     8  H    0.000000   0.000000   0.000000   0.000001  -0.000002   0.000000
     9  N    0.000003   0.000000   0.000000   0.000001   0.000000   0.000000
    10  C    0.000268  -0.000001  -0.000007   0.000019  -0.000006   0.000002
    11  O    0.000249   0.000000   0.000000  -0.000007   0.000001   0.000000
    12  N    0.002658  -0.000059   0.000097   0.001372   0.001194  -0.000188
    13  C   -0.065561   0.005180   0.000758  -0.047018   0.002972   0.001910
    14  O   -0.052446   0.003227  -0.000785   0.221573  -0.045640  -0.046880
    15  H   -0.000154  -0.000231   0.000955   0.005622  -0.000365   0.000112
    16  C    0.349839  -0.025906  -0.036461  -0.069057  -0.002918   0.004622
    17  H   -0.036057  -0.006937   0.004478   0.001641   0.001684  -0.000046
    18  H   -0.024025   0.001092  -0.005055   0.004676  -0.000139  -0.000098
    19  C    5.145428   0.359223   0.365212   0.356720  -0.052609  -0.028521
    20  H    0.359223   0.570057  -0.029137  -0.025856  -0.002537   0.000537
    21  H    0.365212  -0.029137   0.551497  -0.037911   0.006379  -0.013248
    22  C    0.356720  -0.025856  -0.037911   4.900569   0.344198   0.347659
    23  H   -0.052609  -0.002537   0.006379   0.344198   0.668265  -0.048550
    24  C   -0.028521   0.000537  -0.013248   0.347659  -0.048550   4.860923
    25  H    0.005829  -0.000128   0.000772  -0.042808  -0.000508   0.356883
    26  H   -0.006165   0.000997  -0.000358  -0.034896   0.003728   0.369228
    27  O   -0.013086   0.000236   0.019619  -0.039758   0.003499   0.273016
    28  H   -0.000173  -0.000014   0.000251  -0.012591   0.000792  -0.037660
              25         26         27         28
     1  N    0.000000   0.000000   0.000000   0.000000
     2  H    0.000000   0.000000   0.000000   0.000000
     3  H    0.000000   0.000000   0.000000   0.000000
     4  C    0.000000   0.000000   0.000000   0.000000
     5  C    0.000000   0.000000   0.000000   0.000000
     6  C   -0.000011  -0.000001   0.000000   0.000000
     7  H    0.000089  -0.000002   0.000002   0.000000
     8  H    0.000000   0.000000   0.000000   0.000000
     9  N    0.000000   0.000000   0.000000   0.000000
    10  C    0.000000   0.000000   0.000000   0.000000
    11  O    0.000000   0.000000   0.000000   0.000000
    12  N   -0.000010   0.000003   0.000002   0.000075
    13  C   -0.000115  -0.000094   0.000657  -0.000050
    14  O   -0.002665   0.003272  -0.005854   0.020985
    15  H    0.000022  -0.000004   0.000242  -0.000395
    16  C   -0.000256   0.000107  -0.000347   0.000070
    17  H    0.000003  -0.000006  -0.000004   0.000001
    18  H    0.000003  -0.000003   0.000004  -0.000018
    19  C    0.005829  -0.006165  -0.013086  -0.000173
    20  H   -0.000128   0.000997   0.000236  -0.000014
    21  H    0.000772  -0.000358   0.019619   0.000251
    22  C   -0.042808  -0.034896  -0.039758  -0.012591
    23  H   -0.000508   0.003728   0.003499   0.000792
    24  C    0.356883   0.369228   0.273016  -0.037660
    25  H    0.634298  -0.043496  -0.037076  -0.004058
    26  H   -0.043496   0.585302  -0.036218   0.007802
    27  O   -0.037076  -0.036218   8.212920   0.236086
    28  H   -0.004058   0.007802   0.236086   0.387653
 Mulliken charges:
               1
     1  N   -0.771130
     2  H    0.336778
     3  H    0.350943
     4  C    0.533352
     5  C   -0.233893
     6  C    0.113164
     7  H    0.182643
     8  H    0.133386
     9  N   -0.572038
    10  C    0.711964
    11  O   -0.546597
    12  N   -0.500460
    13  C    0.309410
    14  O   -0.544996
    15  H    0.175713
    16  C   -0.314444
    17  H    0.151010
    18  H    0.190356
    19  C   -0.306884
    20  H    0.150290
    21  H    0.172943
    22  C    0.126300
    23  H    0.120644
    24  C   -0.039794
    25  H    0.133233
    26  H    0.150804
    27  O   -0.613939
    28  H    0.401243
 Sum of Mulliken charges =   0.00000
 Mulliken charges with hydrogens summed into heavy atoms:
               1
     1  N   -0.083410
     4  C    0.533352
     5  C   -0.100508
     6  C    0.295807
     9  N   -0.572038
    10  C    0.711964
    11  O   -0.546597
    12  N   -0.500460
    13  C    0.485123
    14  O   -0.544996
    16  C    0.026922
    19  C    0.016349
    22  C    0.246945
    24  C    0.244243
    27  O   -0.212695
 Electronic spatial extent (au):  <R**2>=           3849.3443
 Charge=              0.0000 electrons
 Dipole moment (field-independent basis, Debye):
    X=             -0.8393    Y=             -5.5492    Z=              2.1799  Tot=              6.0208
 Quadrupole moment (field-independent basis, Debye-Ang):
   XX=            -78.5983   YY=            -90.0030   ZZ=            -86.2247
   XY=             14.2911   XZ=              5.2415   YZ=              1.2628
 Traceless Quadrupole moment (field-independent basis, Debye-Ang):
   XX=              6.3437   YY=             -5.0610   ZZ=             -1.2827
   XY=             14.2911   XZ=              5.2415   YZ=              1.2628
 Octapole moment (field-independent basis, Debye-Ang**2):
  XXX=           -157.6974  YYY=            -34.6023  ZZZ=            -12.7056  XYY=              8.9346
  XXY=            -56.9504  XXZ=             20.2936  XZZ=             14.1282  YZZ=              2.9577
  YYZ=              7.1250  XYZ=             -5.5141
 Hexadecapole moment (field-independent basis, Debye-Ang**3):
 XXXX=          -3432.9603 YYYY=           -746.3691 ZZZZ=           -282.0327 XXXY=            170.1876
 XXXZ=            168.6615 YYYX=             76.0282 YYYZ=              9.1955 ZZZX=            -23.5729
 ZZZY=              0.0294 XXYY=           -701.5099 XXZZ=           -724.1703 YYZZ=           -177.4150
 XXYZ=             -5.7203 YYXZ=            -22.3260 ZZXY=             -4.1888
 N-N= 1.033716911064D+03 E-N=-3.795191468349D+03  KE= 7.340848041249D+02
 No NMR shielding tensors so no spin-rotation constants.
 Leave Link  601 at Fri Nov 13 03:27:33 2020, MaxMem=  2147483648 cpu:         0.2
 (Enter /prod/apps/gaussian/g09d1/l9999.exe)
 1\1\GINC-PIRINEUS26\SP\RB3LYP\6-31G(d)\C9H13N3O3\UBAFAR01\13-Nov-2020\
 0\\#p b3lyp/6-31G(d)\\SET_328_BBB304_conf1_geo_210_060.n.pdb.xyz\\0,1\
 N,0,1.585,4.168,2.236\H,0,2.575,4.35,2.167\H,0,1.062,4.676,2.937\C,0,1
 .058,3.015,1.762\C,0,1.847,2.172,0.917\C,0,1.249,1.04,0.458\H,0,1.749,
 0.308,-0.163\H,0,2.871,2.408,0.663\N,0,-0.196,2.735,2.1\C,0,-0.799,1.6
 11,1.624\O,0,-1.963,1.288,1.874\N,0,-0.035,0.751,0.783\C,0,-0.714,-0.4
 71,0.302\O,0,0.254,-1.4,-0.158\H,0,-1.236,-0.878,1.169\C,0,-1.676,-0.2
 15,-0.872\H,0,-1.347,0.674,-1.419\H,0,-2.693,-0.043,-0.524\C,0,-1.502,
 -1.473,-1.725\H,0,-1.753,-1.319,-2.776\H,0,-2.103,-2.302,-1.339\C,0,-0
 .029,-1.805,-1.523\H,0,0.605,-1.223,-2.206\C,0,0.334,-3.278,-1.628\H,0
 ,1.416,-3.397,-1.467\H,0,0.102,-3.637,-2.633\O,0,-0.411,-4.069,-0.719\
 H,0,-0.251,-3.684,0.159\\Version=AM64L-G09RevD.01\State=1-A\HF=-740.71
 24083\RMSD=7.499e-09\Dipole=2.0886204,0.4885963,-1.0049818\Quadrupole=
 0.7404884,-1.8498332,1.1093448,9.5075217,7.1250501,1.9637559\PG=C01 [X
 (C9H13N3O3)]\\@


 WHERE THERE IS MUCH DESIRE TO LEARN, THERE OF NECESSITY WILL BE
 MUCH ARGUING, MUCH WRITING, MANY OPINIONS; FOR OPINION IN GOOD MEN
 IS BUT KNOWLEDGE IN THE MAKING. -- JOHN MILTON.
 Job cpu time:       0 days  0 hours  1 minutes 44.8 seconds.
 File lengths (MBytes):  RWF=     27 Int=      0 D2E=      0 Chk=      3 Scr=      1
 Normal termination of Gaussian 09 at Fri Nov 13 03:27:33 2020.
 Initial command:
 /prod/apps/gaussian/g09d1/l1.exe "/tmp/ubafar01/1497434/Gau-19598.inp" -scrdir="/tmp/ubafar01/1497434/"
 Entering Link 1 = /prod/apps/gaussian/g09d1/l1.exe PID=     19657.
  
 Copyright (c) 1988,1990,1992,1993,1995,1998,2003,2009,2013,
            Gaussian, Inc.  All Rights Reserved.
  
 This is part of the Gaussian(R) 09 program.  It is based on
 the Gaussian(R) 03 system (copyright 2003, Gaussian, Inc.),
 the Gaussian(R) 98 system (copyright 1998, Gaussian, Inc.),
 the Gaussian(R) 94 system (copyright 1995, Gaussian, Inc.),
 the Gaussian 92(TM) system (copyright 1992, Gaussian, Inc.),
 the Gaussian 90(TM) system (copyright 1990, Gaussian, Inc.),
 the Gaussian 88(TM) system (copyright 1988, Gaussian, Inc.),
 the Gaussian 86(TM) system (copyright 1986, Carnegie Mellon
 University), and the Gaussian 82(TM) system (copyright 1983,
 Carnegie Mellon University). Gaussian is a federally registered
 trademark of Gaussian, Inc.
  
 This software contains proprietary and confidential information,
 including trade secrets, belonging to Gaussian, Inc.
  
 This software is provided under written license and may be
 used, copied, transmitted, or stored only in accord with that
 written license.
  
 The following legend is applicable only to US Government
 contracts under FAR:
  
                    RESTRICTED RIGHTS LEGEND
  
 Use, reproduction and disclosure by the US Government is
 subject to restrictions as set forth in subparagraphs (a)
 and (c) of the Commercial Computer Software - Restricted
 Rights clause in FAR 52.227-19.
  
 Gaussian, Inc.
 340 Quinnipiac St., Bldg. 40, Wallingford CT 06492
  
  
 ---------------------------------------------------------------
 Warning -- This program may not be used in any manner that
 competes with the business of Gaussian, Inc. or will provide
 assistance to any competitor of Gaussian, Inc.  The licensee
 of this program is prohibited from giving any competitor of
 Gaussian, Inc. access to this program.  By using this program,
 the user acknowledges that Gaussian, Inc. is engaged in the
 business of creating and licensing software in the field of
 computational chemistry and represents and warrants to the
 licensee that it is not a competitor of Gaussian, Inc. and that
 it will not use this program in any manner prohibited above.
 ---------------------------------------------------------------
  

 Cite this work as:
 Gaussian 09, Revision D.01,
 M. J. Frisch, G. W. Trucks, H. B. Schlegel, G. E. Scuseria, 
 M. A. Robb, J. R. Cheeseman, G. Scalmani, V. Barone, B. Mennucci, 
 G. A. Petersson, H. Nakatsuji, M. Caricato, X. Li, H. P. Hratchian, 
 A. F. Izmaylov, J. Bloino, G. Zheng, J. L. Sonnenberg, M. Hada, 
 M. Ehara, K. Toyota, R. Fukuda, J. Hasegawa, M. Ishida, T. Nakajima, 
 Y. Honda, O. Kitao, H. Nakai, T. Vreven, J. A. Montgomery, Jr., 
 J. E. Peralta, F. Ogliaro, M. Bearpark, J. J. Heyd, E. Brothers, 
 K. N. Kudin, V. N. Staroverov, T. Keith, R. Kobayashi, J. Normand, 
 K. Raghavachari, A. Rendell, J. C. Burant, S. S. Iyengar, J. Tomasi, 
 M. Cossi, N. Rega, J. M. Millam, M. Klene, J. E. Knox, J. B. Cross, 
 V. Bakken, C. Adamo, J. Jaramillo, R. Gomperts, R. E. Stratmann, 
 O. Yazyev, A. J. Austin, R. Cammi, C. Pomelli, J. W. Ochterski, 
 R. L. Martin, K. Morokuma, V. G. Zakrzewski, G. A. Voth, 
 P. Salvador, J. J. Dannenberg, S. Dapprich, A. D. Daniels, 
 O. Farkas, J. B. Foresman, J. V. Ortiz, J. Cioslowski, 
 and D. J. Fox, Gaussian, Inc., Wallingford CT, 2013.
 
 ******************************************
 Gaussian 09:  AM64L-G09RevD.01 24-Apr-2013
                13-Nov-2020 
 ******************************************
 %nproc=1
 Will use up to    1 processors via shared memory.
 %Chk=SET_328_BBB304_conf1_geo_210_060.n.pdb.xyz.mst.n.o.chk
 %mem=16GB
 %subst l301 /dades/curu/work_g09D01_MST_AddSphPartition_ReadGammas/exe-dir/
 %subst l502 /dades/curu/work_g09D01_MST_AddSphPartition_ReadGammas/exe-dir/
 ----------------------------------------------------------------------
 #p b3lyp/6-31G(d) scrf=(iefpcm,read,solvent=n-Octanol) geom=allcheck g
 uess=read
 ----------------------------------------------------------------------
 1/29=7,38=1,40=2/1;
 2/12=2,40=1/2;
 3/5=1,6=6,7=1,11=2,14=-4,16=1,25=1,30=1,70=2203,72=25,74=-5,116=-2/1,2,3;
 4/5=1/1;
 5/5=2,38=6,53=25/2;
 6/7=2,8=2,9=2,10=2,28=1/1;
 99/5=1,9=1/99;
 Leave Link    1 at Fri Nov 13 03:27:33 2020, MaxMem=  2147483648 cpu:         0.0
 (Enter /prod/apps/gaussian/g09d1/l101.exe)
 Structure from the checkpoint file:  "SET_328_BBB304_conf1_geo_210_060.n.pdb.xyz.mst.n.o.chk"
 ------------------------------------------
 SET_328_BBB304_conf1_geo_210_060.n.pdb.xyz
 ------------------------------------------
 Charge =  0 Multiplicity = 1
 Z-Matrix found in file.
 N,0,1.585,4.168,2.236
 H,0,2.575,4.35,2.167
 H,0,1.062,4.676,2.937
 C,0,1.058,3.015,1.762
 C,0,1.847,2.172,0.917
 C,0,1.249,1.04,0.458
 H,0,1.749,0.308,-0.163
 H,0,2.871,2.408,0.663
 N,0,-0.196,2.735,2.1
 C,0,-0.799,1.611,1.624
 O,0,-1.963,1.288,1.874
 N,0,-0.035,0.751,0.783
 C,0,-0.714,-0.471,0.302
 O,0,0.254,-1.4,-0.158
 H,0,-1.236,-0.878,1.169
 C,0,-1.676,-0.215,-0.872
 H,0,-1.347,0.674,-1.419
 H,0,-2.693,-0.043,-0.524
 C,0,-1.502,-1.473,-1.725
 H,0,-1.753,-1.319,-2.776
 H,0,-2.103,-2.302,-1.339
 C,0,-0.029,-1.805,-1.523
 H,0,0.605,-1.223,-2.206
 C,0,0.334,-3.278,-1.628
 H,0,1.416,-3.397,-1.467
 H,0,0.102,-3.637,-2.633
 O,0,-0.411,-4.069,-0.719
 H,0,-0.251,-3.684,0.159
 Recover connectivity data from disk.
 NAtoms=     28 NQM=       28 NQMF=       0 NMMI=      0 NMMIF=      0
                NMic=       0 NMicF=      0.
                    Isotopes and Nuclear Properties:
 (Nuclear quadrupole moments (NQMom) in fm**2, nuclear magnetic moments (NMagM)
  in nuclear magnetons)

  Atom         1           2           3           4           5           6           7           8           9          10
 IAtWgt=          14           1           1          12          12          12           1           1          14          12
 AtmWgt=  14.0030740   1.0078250   1.0078250  12.0000000  12.0000000  12.0000000   1.0078250   1.0078250  14.0030740  12.0000000
 NucSpn=           2           1           1           0           0           0           1           1           2           0
 AtZEff=  -4.5500000  -1.0000000  -1.0000000  -3.6000000  -3.6000000  -3.6000000  -1.0000000  -1.0000000  -4.5500000  -3.6000000
 NQMom=    2.0440000   0.0000000   0.0000000   0.0000000   0.0000000   0.0000000   0.0000000   0.0000000   2.0440000   0.0000000
 NMagM=    0.4037610   2.7928460   2.7928460   0.0000000   0.0000000   0.0000000   2.7928460   2.7928460   0.4037610   0.0000000
 AtZNuc=   7.0000000   1.0000000   1.0000000   6.0000000   6.0000000   6.0000000   1.0000000   1.0000000   7.0000000   6.0000000

  Atom        11          12          13          14          15          16          17          18          19          20
 IAtWgt=          16          14          12          16           1          12           1           1          12           1
 AtmWgt=  15.9949146  14.0030740  12.0000000  15.9949146   1.0078250  12.0000000   1.0078250   1.0078250  12.0000000   1.0078250
 NucSpn=           0           2           0           0           1           0           1           1           0           1
 AtZEff=  -5.6000000  -4.5500000  -3.6000000  -5.6000000  -1.0000000  -3.6000000  -1.0000000  -1.0000000  -3.6000000  -1.0000000
 NQMom=    0.0000000   2.0440000   0.0000000   0.0000000   0.0000000   0.0000000   0.0000000   0.0000000   0.0000000   0.0000000
 NMagM=    0.0000000   0.4037610   0.0000000   0.0000000   2.7928460   0.0000000   2.7928460   2.7928460   0.0000000   2.7928460
 AtZNuc=   8.0000000   7.0000000   6.0000000   8.0000000   1.0000000   6.0000000   1.0000000   1.0000000   6.0000000   1.0000000

  Atom        21          22          23          24          25          26          27          28
 IAtWgt=           1          12           1          12           1           1          16           1
 AtmWgt=   1.0078250  12.0000000   1.0078250  12.0000000   1.0078250   1.0078250  15.9949146   1.0078250
 NucSpn=           1           0           1           0           1           1           0           1
 AtZEff=  -1.0000000  -3.6000000  -1.0000000  -3.6000000  -1.0000000  -1.0000000  -5.6000000  -1.0000000
 NQMom=    0.0000000   0.0000000   0.0000000   0.0000000   0.0000000   0.0000000   0.0000000   0.0000000
 NMagM=    2.7928460   0.0000000   2.7928460   0.0000000   2.7928460   2.7928460   0.0000000   2.7928460
 AtZNuc=   1.0000000   6.0000000   1.0000000   6.0000000   1.0000000   1.0000000   8.0000000   1.0000000
 Leave Link  101 at Fri Nov 13 03:27:33 2020, MaxMem=  2147483648 cpu:         0.0
 (Enter /prod/apps/gaussian/g09d1/l202.exe)
                          Input orientation:                          
 ---------------------------------------------------------------------
 Center     Atomic      Atomic             Coordinates (Angstroms)
 Number     Number       Type             X           Y           Z
 ---------------------------------------------------------------------
      1          7           0        1.585000    4.168000    2.236000
      2          1           0        2.575000    4.350000    2.167000
      3          1           0        1.062000    4.676000    2.937000
      4          6           0        1.058000    3.015000    1.762000
      5          6           0        1.847000    2.172000    0.917000
      6          6           0        1.249000    1.040000    0.458000
      7          1           0        1.749000    0.308000   -0.163000
      8          1           0        2.871000    2.408000    0.663000
      9          7           0       -0.196000    2.735000    2.100000
     10          6           0       -0.799000    1.611000    1.624000
     11          8           0       -1.963000    1.288000    1.874000
     12          7           0       -0.035000    0.751000    0.783000
     13          6           0       -0.714000   -0.471000    0.302000
     14          8           0        0.254000   -1.400000   -0.158000
     15          1           0       -1.236000   -0.878000    1.169000
     16          6           0       -1.676000   -0.215000   -0.872000
     17          1           0       -1.347000    0.674000   -1.419000
     18          1           0       -2.693000   -0.043000   -0.524000
     19          6           0       -1.502000   -1.473000   -1.725000
     20          1           0       -1.753000   -1.319000   -2.776000
     21          1           0       -2.103000   -2.302000   -1.339000
     22          6           0       -0.029000   -1.805000   -1.523000
     23          1           0        0.605000   -1.223000   -2.206000
     24          6           0        0.334000   -3.278000   -1.628000
     25          1           0        1.416000   -3.397000   -1.467000
     26          1           0        0.102000   -3.637000   -2.633000
     27          8           0       -0.411000   -4.069000   -0.719000
     28          1           0       -0.251000   -3.684000    0.159000
 ---------------------------------------------------------------------
                    Distance matrix (angstroms):
                    1          2          3          4          5
     1  N    0.000000
     2  H    1.008952   0.000000
     3  H    1.011432   1.728683   0.000000
     4  C    1.353445   2.060956   2.034591   0.000000
     5  C    2.406745   2.614607   3.311592   1.430802   0.000000
     6  C    3.613664   3.954119   4.404646   2.374347   1.360040
     7  H    4.547713   4.738031   5.400129   3.392780   2.156502
     8  H    2.688071   2.474065   3.686106   2.205271   1.081105
     9  N    2.289966   3.207983   2.459800   1.328593   2.426995
    10  C    3.549119   4.379594   3.818575   2.332104   2.795691
    11  O    4.584075   5.482257   4.664669   3.481596   4.026587
    12  N    4.051111   4.656217   4.609637   2.697923   2.362016
    13  C    5.526851   6.126809   6.048885   4.174180   3.731273
    14  O    6.205274   6.622323   6.866561   4.881090   4.056163
    15  H    5.878660   6.546122   6.265265   4.557360   4.344064
    16  C    6.285258   6.938714   6.776947   4.984537   4.616256
    17  H    5.844971   6.461769   6.387020   4.624183   4.231139
    18  H    6.606921   7.368294   6.953237   5.352304   5.253028
    19  C    7.552481   8.104130   8.131331   6.233371   5.610881
    20  H    8.146751   8.677695   8.746578   6.875952   6.227787
    21  H    8.260924   8.855779   8.774616   6.919437   6.380338
    22  C    7.239600   7.634196   7.942622   5.933396   5.028867
    23  H    7.053697   7.352711   7.839483   5.823305   4.777208
    24  C    8.481652   8.809682   9.199746   7.184575   6.202314
    25  H    8.424369   8.635117   9.202927   7.188070   6.073136
    26  H    9.317965   9.640949  10.052486   8.029886   7.027945
    27  O    8.975757   9.387479   9.592241   7.648292   6.835579
    28  H    8.326988   8.750057   8.906787   7.011397   6.266491
                    6          7          8          9         10
     6  C    0.000000
     7  H    1.082342   0.000000
     8  H    2.131744   2.520151   0.000000
     9  N    2.767167   3.846365   3.402703   0.000000
    10  C    2.424851   3.373942   3.876549   1.361455   0.000000
    11  O    3.519020   4.346115   5.107688   2.295032   1.233582
    12  N    1.355656   2.067322   3.347370   2.386769   1.424983
    13  C    2.482101   2.624773   4.612070   3.712084   2.467718
    14  O    2.706119   2.269871   4.692930   4.732789   3.653827
    15  H    3.218613   3.477218   5.284059   3.873258   2.567706
    16  C    3.449572   3.536500   5.469146   4.441361   3.214564
    17  H    3.224330   3.361058   5.013283   4.237438   3.230808
    18  H    4.204352   4.470446   6.194713   4.564830   3.307092
    19  C    4.318409   4.022537   6.315682   5.834683   4.606633
    20  H    5.003563   4.662500   6.862844   6.529513   5.371687
    21  H    5.063011   4.799269   7.136721   6.390206   5.078519
    22  C    3.694817   3.078255   5.562191   5.810819   4.708032
    23  H    3.554265   2.797596   5.152677   5.903304   4.967059
    24  C    4.881982   4.124057   6.634429   7.094720   5.980093
    25  H    4.839471   3.941869   6.352318   7.274851   6.288129
    26  H    5.722256   4.937260   7.421119   7.943077   6.817283
    27  O    5.499346   4.912521   7.391412   7.367999   6.156508
    28  H    4.965438   4.476578   6.863918   6.706271   5.521191
                   11         12         13         14         15
    11  O    0.000000
    12  N    2.279437   0.000000
    13  C    2.669319   1.478407   0.000000
    14  O    4.033541   2.365545   1.418332   0.000000
    15  H    2.391048   2.060349   1.090790   2.062405   0.000000
    16  C    3.143548   2.522907   1.539239   2.374641   2.190628
    17  H    3.405921   2.564386   2.161841   2.907714   3.019730
    18  H    2.838109   3.066537   2.186756   3.264998   2.384601
    19  C    4.559435   3.659007   2.394510   2.354645   2.966482
    20  H    5.335077   4.461267   3.357486   3.299778   4.003098
    21  H    4.819862   4.254447   2.823962   2.786362   3.011566
    22  C    4.984638   3.442500   2.362077   1.451668   3.092417
    23  H    5.435637   3.638736   2.931779   2.085386   3.859913
    24  C    6.195851   4.709769   3.564050   2.386249   4.006009
    25  H    6.673016   4.936983   4.028367   2.655510   4.508543
    26  H    6.988054   5.562587   4.393590   3.339595   4.884417
    27  O    6.150594   5.062586   3.752313   2.807224   3.798375
    28  H    5.531090   4.483889   3.249336   2.360544   3.140694
                   16         17         18         19         20
    16  C    0.000000
    17  H    1.094427   0.000000
    18  H    1.088566   1.768284   0.000000
    19  C    1.529853   2.174229   2.214900   0.000000
    20  H    2.202263   2.445063   2.753776   1.091475   0.000000
    21  H    2.180823   3.071565   2.472935   1.094275   1.775882
    22  C    2.380023   2.809516   3.346572   1.523403   2.185951
    23  H    2.828176   2.833422   3.885657   2.175617   2.427814
    24  C    3.740803   4.299738   4.565826   2.576496   3.084016
    25  H    4.476563   4.920316   5.387248   3.504720   4.009255
    26  H    4.239397   4.707241   5.017643   2.842565   2.972305
    27  O    4.059181   4.884889   4.631871   2.990240   3.687101
    28  H    3.889415   4.762716   4.436974   3.162748   4.057518
                   21         22         23         24         25
    21  H    0.000000
    22  C    2.140640   0.000000
    23  H    3.041249   1.098712   0.000000
    24  C    2.641035   1.520698   2.151871   0.000000
    25  H    3.687651   2.150727   2.435183   1.100366   0.000000
    26  H    2.884213   2.146039   2.502546   1.092122   1.773063
    27  O    2.523797   2.432701   3.367958   1.416682   2.085430
    28  H    2.753876   2.531610   3.518875   1.923650   2.346302
                   26         27         28
    26  H    0.000000
    27  O    2.028100   0.000000
    28  H    2.814619   0.971961   0.000000
 Stoichiometry    C9H13N3O3
 Framework group  C1[X(C9H13N3O3)]
 Deg. of freedom    78
 Full point group                 C1      NOp   1
 RotChk:  IX=0 Diff= 1.26D-15
 Largest Abelian subgroup         C1      NOp   1
 Largest concise Abelian subgroup C1      NOp   1
                         Standard orientation:                         
 ---------------------------------------------------------------------
 Center     Atomic      Atomic             Coordinates (Angstroms)
 Number     Number       Type             X           Y           Z
 ---------------------------------------------------------------------
      1          7           0       -4.657271   -0.838133    0.117575
      2          1           0       -4.962833   -1.799191    0.148932
      3          1           0       -5.330203   -0.140748   -0.171925
      4          6           0       -3.342647   -0.532179    0.017718
      5          6           0       -2.361420   -1.550894    0.233608
      6          6           0       -1.059004   -1.170626    0.139706
      7          1           0       -0.226230   -1.852750    0.252223
      8          1           0       -2.632673   -2.575458    0.446863
      9          7           0       -3.030934    0.728637   -0.262173
     10          6           0       -1.726501    1.111305   -0.336887
     11          8           0       -1.352688    2.262917   -0.573059
     12          7           0       -0.727917    0.116040   -0.129872
     13          6           0        0.677339    0.561994   -0.239722
     14          8           0        1.518741   -0.565625   -0.419118
     15          1           0        0.715694    1.197953   -1.125107
     16          6           0        1.185187    1.299577    1.012204
     17          1           0        0.615443    0.962627    1.883770
     18          1           0        1.058785    2.376768    0.919155
     19          6           0        2.640762    0.837499    1.102942
     20          1           0        3.048724    0.894707    2.113690
     21          1           0        3.284278    1.414812    0.432095
     22          6           0        2.562853   -0.594482    0.589017
     23          1           0        2.266341   -1.286441    1.389293
     24          6           0        3.817145   -1.118050   -0.093003
     25          1           0        3.646207   -2.154846   -0.419563
     26          1           0        4.642690   -1.122381    0.621971
     27          8           0        4.207881   -0.295191   -1.177998
     28          1           0        3.432873   -0.242535   -1.762205
 ---------------------------------------------------------------------
 Rotational constants (GHZ):      1.5089998      0.3127981      0.2828585
 Leave Link  202 at Fri Nov 13 03:27:33 2020, MaxMem=  2147483648 cpu:         0.0
 (Enter /dades/curu/work_g09D01_MST_AddSphPartition_ReadGammas/exe-dir/l301.exe)
 Standard basis: 6-31G(d) (6D, 7F)
 Ernie: Thresh=  0.10000D-02 Tol=  0.10000D-05 Strict=F.
 There are   251 symmetry adapted cartesian basis functions of A   symmetry.
 There are   251 symmetry adapted basis functions of A   symmetry.
   251 basis functions,   472 primitive gaussians,   251 cartesian basis functions
    56 alpha electrons       56 beta electrons
       nuclear repulsion energy      1033.7169110638 Hartrees.
 IExCor=  402 DFT=T Ex+Corr=B3LYP ExCW=0 ScaHFX=  0.200000
 ScaDFX=  0.800000  0.720000  1.000000  0.810000 ScalE2=  1.000000  1.000000
 IRadAn=      0 IRanWt=     -1 IRanGd=            0 ICorTp=0 IEmpDi=  4
 NAtoms=   28 NActive=   28 NUniq=   28 SFac= 1.00D+00 NAtFMM=   60 NAOKFM=F Big=F
 Integral buffers will be    131072 words long.
 Raffenetti 2 integral format.
 Two-electron integral symmetry is turned on.
 Using the following non-standard input for PCM:
 MSTModel=DFT cav g03defaults OFac=0.8 Rmin=0.3
 Warning! Using old PCM defaults because the g03defaults keyword was found.
 These settings can be overridden by following keywords.
 --- end of non-standard input.
 MST model for solvation energy: B3LYP parametrization.
 MST cavity parameters:
 ISph   IAn     Re0     Alpha   Atom Type   QCorr
 ------------------------------------------------
   1      7     1.50     1.50      NH         F
   2      1     0.90     1.50      NH         F
   3      1     0.90     1.50      NH         F
   4      6     1.50     1.50      C          F
   5      6     1.50     1.50      CH         F
   6      6     1.50     1.50      CH         F
   7      1     1.20     1.50      CH         F
   8      1     1.20     1.50      CH         F
   9      7     1.50     1.50      N          F
  10      6     1.50     1.50      C          F
  11      8     1.40     1.50      O          F
  12      7     1.50     1.50      N          F
  13      6     1.50     1.50      CH         F
  14      8     1.40     1.50      O          F
  15      1     1.20     1.50      CH         F
  16      6     1.50     1.50      CH2        F
  17      1     1.20     1.50      CH2        F
  18      1     1.20     1.50      CH2        F
  19      6     1.50     1.50      CH2        F
  20      1     1.20     1.50      CH2        F
  21      1     1.20     1.50      CH2        F
  22      6     1.50     1.50      CH         F
  23      1     1.20     1.50      CH         F
  24      6     1.50     1.50      CH2        F
  25      1     1.20     1.50      CH2        F
  26      1     1.20     1.50      CH2        F
  27      8     1.40     1.50      OH         F
  28      1     0.90     1.50      OH         F
 ------------------------------------------------------------------------------
 Polarizable Continuum Model (PCM)
 =================================
 Model                : PCM (using non-symmetric T matrix).
 Atomic radii         : MST.
 Polarization charges : Total charges.
 Charge compensation  : None.
 Solution method      : On-the-fly selection.
 Cavity type          : Scaled SES (Solvent Excluding Surface) (Alpha=1.500).
 Cavity algorithm     : GePol (RMin=0.300 OFac=0.800).
                        Default sphere list used, NSphG=   28.
                        Tesserae with average area of 0.200 Ang**2.
                        Smoothing algorithm: None.
                        Polarization charges: point-like.
                        Self-potential: constant (ISelfS= 1).
                        Self-field    : global E.n sum rule (ISelfD= 3).
 Solvent              : n-Octanol, Eps=   9.862900 Eps(inf)=   2.043470
                        RSolv=   3.420000 Ang.
 ------------------------------------------------------------------------------
 GePol: Number of generator spheres                  =      28
 GePol: Total number of spheres                      =      47
 GePol: Number of exposed spheres                    =      43 ( 91.49%)
 GePol: Number of tesserae                           =    2067
 GePol: Average area of tesserae                     =       0.14 Ang**2
 GePol: Minimum area of tessera                      =   0.10D-02 Ang**2
 GePol: Maximum area of tessera                      =    0.29932 Ang**2
 GePol: Number of small tesserae                     =      10
 GePol: Fraction of small tesserae (<1% of avg)      =       0.48%
 GePol: Total count of vertices                      =    7064
 GePol: Maximum number of vertices in a tessera      =       6
 GePol: Cavity surface area                          =    284.888 Ang**2
 GePol: Cavity volume                                =    337.311 Ang**3
 Surface areas from nonelectrostatic (unscaled) cavity:
 Sphere =    1 Type = NH   Surf =       14.861
 Sphere =    2 Type = NH   Surf =        3.907
 Sphere =    3 Type = NH   Surf =        3.924
 Sphere =    4 Type = C    Surf =        5.618
 Sphere =    5 Type = CH   Surf =        7.746
 Sphere =    6 Type = CH   Surf =        7.340
 Sphere =    7 Type = CH   Surf =        9.131
 Sphere =    8 Type = CH   Surf =       10.298
 Sphere =    9 Type = N    Surf =       12.589
 Sphere =   10 Type = C    Surf =        6.139
 Sphere =   11 Type = O    Surf =       15.727
 Sphere =   12 Type = N    Surf =        5.678
 Sphere =   13 Type = CH   Surf =        2.509
 Sphere =   14 Type = O    Surf =        9.718
 Sphere =   15 Type = CH   Surf =        9.570
 Sphere =   16 Type = CH2  Surf =        3.771
 Sphere =   17 Type = CH2  Surf =       10.186
 Sphere =   18 Type = CH2  Surf =       10.346
 Sphere =   19 Type = CH2  Surf =        3.749
 Sphere =   20 Type = CH2  Surf =       10.365
 Sphere =   21 Type = CH2  Surf =        9.945
 Sphere =   22 Type = CH   Surf =        2.756
 Sphere =   23 Type = CH   Surf =       10.378
 Sphere =   24 Type = CH2  Surf =        3.658
 Sphere =   25 Type = CH2  Surf =       10.389
 Sphere =   26 Type = CH2  Surf =       10.311
 Sphere =   27 Type = OH   Surf =       14.353
 Sphere =   28 Type = OH   Surf =        4.492
 PCM non-electrostatic energy =        -0.0109884681 Hartrees.
 Nuclear repulsion after PCM non-electrostatic terms =     1033.7059225957 Hartrees.
 Leave Link  301 at Fri Nov 13 03:27:33 2020, MaxMem=  2147483648 cpu:         0.1
 (Enter /prod/apps/gaussian/g09d1/l302.exe)
 NPDir=0 NMtPBC=     1 NCelOv=     1 NCel=       1 NClECP=     1 NCelD=      1
[...]
                 (A) (A) (A) (A) (A) (A) (A) (A) (A) (A) (A) (A)
                 (A) (A) (A) (A) (A) (A) (A) (A) (A) (A) (A) (A)
                 (A) (A) (A) (A) (A) (A) (A) (A)
       Virtual   (A) (A) (A) (A) (A) (A) (A) (A) (A) (A) (A) (A)
                 (A) (A) (A) (A) (A) (A) (A) (A) (A) (A) (A) (A)
                 (A) (A) (A) (A) (A) (A) (A) (A) (A) (A) (A) (A)
                 (A) (A) (A) (A) (A) (A) (A) (A) (A) (A) (A) (A)
                 (A) (A) (A) (A) (A) (A) (A) (A) (A) (A) (A) (A)
                 (A) (A) (A) (A) (A) (A) (A) (A) (A) (A) (A) (A)
                 (A) (A) (A) (A) (A) (A) (A) (A) (A) (A) (A) (A)
                 (A) (A) (A) (A) (A) (A) (A) (A) (A) (A) (A) (A)
                 (A) (A) (A) (A) (A) (A) (A) (A) (A) (A) (A) (A)
                 (A) (A) (A) (A) (A) (A) (A) (A) (A) (A) (A) (A)
                 (A) (A) (A) (A) (A) (A) (A) (A) (A) (A) (A) (A)
                 (A) (A) (A) (A) (A) (A) (A) (A) (A) (A) (A) (A)
                 (A) (A) (A) (A) (A) (A) (A) (A) (A) (A) (A) (A)
                 (A) (A) (A) (A) (A) (A) (A) (A) (A) (A) (A) (A)
                 (A) (A) (A) (A) (A) (A) (A) (A) (A) (A) (A) (A)
                 (A) (A) (A) (A) (A) (A) (A) (A) (A) (A) (A) (A)
                 (A) (A) (A)
 The electronic state is 1-A.
 Alpha  occ. eigenvalues --  -19.17081 -19.14692 -19.10015 -14.38974 -14.35774
 Alpha  occ. eigenvalues --  -14.31037 -10.30187 -10.28230 -10.27905 -10.24970
 Alpha  occ. eigenvalues --  -10.24457 -10.23406 -10.19357 -10.19261 -10.18984
 Alpha  occ. eigenvalues --   -1.06834  -1.03699  -1.01807  -0.96715  -0.94495
 Alpha  occ. eigenvalues --   -0.87216  -0.79831  -0.79018  -0.75654  -0.68663
 Alpha  occ. eigenvalues --   -0.65854  -0.64096  -0.61250  -0.58791  -0.56482
 Alpha  occ. eigenvalues --   -0.53458  -0.52202  -0.51748  -0.50173  -0.48976
 Alpha  occ. eigenvalues --   -0.47362  -0.45911  -0.44872  -0.44068  -0.43535
 Alpha  occ. eigenvalues --   -0.42113  -0.40692  -0.40238  -0.38905  -0.36530
 Alpha  occ. eigenvalues --   -0.36031  -0.35546  -0.34243  -0.33622  -0.32980
 Alpha  occ. eigenvalues --   -0.28804  -0.27244  -0.26791  -0.25392  -0.24546
 Alpha  occ. eigenvalues --   -0.22622
 Alpha virt. eigenvalues --   -0.02648   0.02084   0.07354   0.08891   0.09488
 Alpha virt. eigenvalues --    0.10566   0.11688   0.12110   0.13401   0.14339
 Alpha virt. eigenvalues --    0.14799   0.15050   0.15813   0.17144   0.17375
 Alpha virt. eigenvalues --    0.18460   0.19282   0.20527   0.20804   0.21378
 Alpha virt. eigenvalues --    0.23959   0.24906   0.25611   0.26062   0.28392
 Alpha virt. eigenvalues --    0.29495   0.32432   0.33641   0.36454   0.36950
 Alpha virt. eigenvalues --    0.40744   0.48052   0.49273   0.50583   0.51549
 Alpha virt. eigenvalues --    0.52338   0.53704   0.54815   0.56378   0.57322
 Alpha virt. eigenvalues --    0.57520   0.58341   0.59347   0.59747   0.61200
 Alpha virt. eigenvalues --    0.62313   0.63151   0.64153   0.64453   0.66949
 Alpha virt. eigenvalues --    0.67573   0.68807   0.68897   0.70293   0.73091
 Alpha virt. eigenvalues --    0.75250   0.76480   0.78189   0.79338   0.80338
 Alpha virt. eigenvalues --    0.81663   0.83690   0.83925   0.84781   0.85384
 Alpha virt. eigenvalues --    0.85681   0.86567   0.87998   0.88460   0.88897
 Alpha virt. eigenvalues --    0.89874   0.91213   0.91394   0.92480   0.94170
 Alpha virt. eigenvalues --    0.95061   0.95760   0.96701   0.98929   1.01221
 Alpha virt. eigenvalues --    1.02670   1.06197   1.06778   1.07695   1.10251
 Alpha virt. eigenvalues --    1.11125   1.12574   1.14013   1.16060   1.20583
 Alpha virt. eigenvalues --    1.22512   1.25650   1.28182   1.29180   1.31564
 Alpha virt. eigenvalues --    1.33302   1.34382   1.37721   1.41344   1.41859
 Alpha virt. eigenvalues --    1.42497   1.44472   1.45353   1.47561   1.50171
 Alpha virt. eigenvalues --    1.51554   1.56458   1.59029   1.60434   1.62560
 Alpha virt. eigenvalues --    1.64271   1.66649   1.69024   1.70796   1.74389
 Alpha virt. eigenvalues --    1.77592   1.78466   1.79342   1.80863   1.82153
 Alpha virt. eigenvalues --    1.85137   1.86451   1.87412   1.88001   1.91267
 Alpha virt. eigenvalues --    1.91772   1.92916   1.93193   1.95044   1.96497
 Alpha virt. eigenvalues --    1.97604   1.99262   2.01180   2.03514   2.05286
 Alpha virt. eigenvalues --    2.06521   2.10603   2.11500   2.14839   2.15284
 Alpha virt. eigenvalues --    2.16393   2.17658   2.19741   2.22305   2.23847
 Alpha virt. eigenvalues --    2.27717   2.29408   2.32929   2.34175   2.34479
 Alpha virt. eigenvalues --    2.36100   2.38731   2.41752   2.42675   2.44189
 Alpha virt. eigenvalues --    2.45670   2.47785   2.48710   2.50596   2.51816
 Alpha virt. eigenvalues --    2.53105   2.59521   2.63571   2.65882   2.68145
 Alpha virt. eigenvalues --    2.68809   2.71400   2.71873   2.75245   2.78546
 Alpha virt. eigenvalues --    2.81872   2.84827   2.85402   2.86918   2.91584
 Alpha virt. eigenvalues --    2.98519   3.03730   3.05858   3.28341   3.43933
 Alpha virt. eigenvalues --    3.76870   3.82968   4.01102   4.04807   4.10154
 Alpha virt. eigenvalues --    4.14344   4.22734   4.25782   4.31960   4.36356
 Alpha virt. eigenvalues --    4.39313   4.53561   4.58767   4.64570   4.67554
          Condensed to atoms (all electrons):
               1          2          3          4          5          6
     1  N    7.004509   0.316450   0.296977   0.336145  -0.087000   0.003419
     2  H    0.316450   0.352738  -0.020563  -0.019746  -0.002008   0.000138
     3  H    0.296977  -0.020563   0.357525  -0.012197   0.007019  -0.000096
     4  C    0.336145  -0.019746  -0.012197   4.379402   0.423322  -0.022446
     5  C   -0.087000  -0.002008   0.007019   0.423322   5.123996   0.564403
     6  C    0.003419   0.000138  -0.000096  -0.022446   0.564403   4.742560
     7  H   -0.000116   0.000002   0.000004   0.003798  -0.037773   0.365180
     8  H   -0.004415   0.002681  -0.000260  -0.026955   0.354476  -0.036785
     9  N   -0.091958   0.003719   0.007375   0.456516  -0.054417  -0.026827
    10  C    0.002252  -0.000115   0.000048  -0.037740  -0.019820  -0.031165
    11  O   -0.000038   0.000001  -0.000020   0.000318   0.000861   0.001683
    12  N    0.000306   0.000025   0.000034  -0.008565  -0.041259   0.357015
    13  C    0.000007   0.000000  -0.000001   0.000517   0.004754  -0.037917
    14  O    0.000000   0.000000   0.000000  -0.000039   0.001186   0.002758
    15  H    0.000000   0.000000   0.000000  -0.000051  -0.000050   0.004773
    16  C    0.000000   0.000000   0.000000   0.000028  -0.000129   0.000225
    17  H    0.000000   0.000000   0.000000   0.000021  -0.000286   0.002815
    18  H    0.000000   0.000000   0.000000  -0.000006   0.000013  -0.000132
    19  C    0.000000   0.000000   0.000000  -0.000001   0.000007   0.000168
    20  H    0.000000   0.000000   0.000000   0.000000   0.000000  -0.000017
    21  H    0.000000   0.000000   0.000000   0.000000   0.000000  -0.000003
    22  C    0.000000   0.000000   0.000000  -0.000001   0.000021  -0.000218
    23  H    0.000000   0.000000   0.000000   0.000001  -0.000076  -0.000042
    24  C    0.000000   0.000000   0.000000   0.000000   0.000001   0.000034
    25  H    0.000000   0.000000   0.000000   0.000000   0.000000  -0.000010
    26  H    0.000000   0.000000   0.000000   0.000000   0.000000  -0.000001
    27  O    0.000000   0.000000   0.000000   0.000000   0.000000   0.000000
    28  H    0.000000   0.000000   0.000000   0.000000   0.000000   0.000000
               7          8          9         10         11         12
     1  N   -0.000116  -0.004415  -0.091958   0.002252  -0.000038   0.000306
     2  H    0.000002   0.002681   0.003719  -0.000115   0.000001   0.000025
     3  H    0.000004  -0.000260   0.007375   0.000048  -0.000020   0.000034
     4  C    0.003798  -0.026955   0.456516  -0.037740   0.000318  -0.008565
     5  C   -0.037773   0.354476  -0.054417  -0.019820   0.000861  -0.041259
     6  C    0.365180  -0.036785  -0.026827  -0.031165   0.001683   0.357015
     7  H    0.512466  -0.003588  -0.000498   0.001574  -0.000142  -0.049410
     8  H   -0.003588   0.548696   0.004435   0.000738   0.000007   0.003062
     9  N   -0.000498   0.004435   7.078600   0.409907  -0.078734  -0.111136
    10  C    0.001574   0.000738   0.409907   4.199299   0.565567   0.224481
    11  O   -0.000142   0.000007  -0.078734   0.565567   8.184111  -0.115625
    12  N   -0.049410   0.003062  -0.111136   0.224481  -0.115625   7.170952
    13  C   -0.006699  -0.000072   0.003805  -0.017218   0.007740   0.239288
    14  O    0.016286   0.000003  -0.000039   0.001476   0.000245  -0.054231
    15  H    0.000528   0.000003   0.000137  -0.001928   0.013003  -0.065351
    16  C    0.000735  -0.000001  -0.000240  -0.003304   0.000085  -0.052549
    17  H    0.000361   0.000001  -0.000106  -0.000022  -0.000493  -0.003265
    18  H   -0.000036   0.000000   0.000046   0.001331   0.005003   0.000510
    19  C    0.000072   0.000000   0.000003   0.000244   0.000242   0.002720
    20  H   -0.000012   0.000000   0.000000  -0.000001   0.000000  -0.000056
    21  H    0.000006   0.000000   0.000000  -0.000007   0.000000   0.000098
    22  C   -0.000258   0.000001   0.000001   0.000016  -0.000007   0.001358
    23  H    0.000053  -0.000002   0.000000  -0.000006   0.000001   0.001154
    24  C    0.000057   0.000000   0.000000   0.000002   0.000000  -0.000189
    25  H    0.000085   0.000000   0.000000   0.000000   0.000000  -0.000010
    26  H   -0.000002   0.000000   0.000000   0.000000   0.000000   0.000003
    27  O    0.000002   0.000000   0.000000   0.000000   0.000000   0.000002
    28  H    0.000000   0.000000   0.000000   0.000000   0.000000   0.000074
              13         14         15         16         17         18
     1  N    0.000007   0.000000   0.000000   0.000000   0.000000   0.000000
     2  H    0.000000   0.000000   0.000000   0.000000   0.000000   0.000000
     3  H   -0.000001   0.000000   0.000000   0.000000   0.000000   0.000000
     4  C    0.000517  -0.000039  -0.000051   0.000028   0.000021  -0.000006
     5  C    0.004754   0.001186  -0.000050  -0.000129  -0.000286   0.000013
     6  C   -0.037917   0.002758   0.004773   0.000225   0.002815  -0.000132
     7  H   -0.006699   0.016286   0.000528   0.000735   0.000361  -0.000036
     8  H   -0.000072   0.000003   0.000003  -0.000001   0.000001   0.000000
     9  N    0.003805  -0.000039   0.000137  -0.000240  -0.000106   0.000046
    10  C   -0.017218   0.001476  -0.001928  -0.003304  -0.000022   0.001331
    11  O    0.007740   0.000245   0.013003   0.000085  -0.000493   0.005003
    12  N    0.239288  -0.054231  -0.065351  -0.052549  -0.003265   0.000510
    13  C    4.676919   0.237041   0.384223   0.354792  -0.036151  -0.021064
    14  O    0.237041   8.332321  -0.039715  -0.047622  -0.000384   0.002957
    15  H    0.384223  -0.039715   0.577632  -0.049813   0.005028  -0.004223
    16  C    0.354792  -0.047622  -0.049813   5.157205   0.368990   0.362853
    17  H   -0.036151  -0.000384   0.005028   0.368990   0.568801  -0.029699
    18  H   -0.021064   0.002957  -0.004223   0.362853  -0.029699   0.526730
    19  C   -0.066041  -0.052317   0.000038   0.352773  -0.034662  -0.023803
    20  H    0.005066   0.003148  -0.000227  -0.025264  -0.006743   0.001109
    21  H    0.000852  -0.000721   0.000942  -0.037162   0.004464  -0.005281
    22  C   -0.047123   0.219762   0.005599  -0.068116   0.001504   0.004732
    23  H    0.002967  -0.044534  -0.000364  -0.002972   0.001598  -0.000139
    24  C    0.001958  -0.046943   0.000115   0.004655  -0.000044  -0.000102
    25  H   -0.000122  -0.002532   0.000022  -0.000250   0.000003   0.000003
    26  H   -0.000093   0.003210  -0.000003   0.000102  -0.000005  -0.000003
    27  O    0.000667  -0.005517   0.000245  -0.000349  -0.000004   0.000004
    28  H   -0.000019   0.020563  -0.000418   0.000061   0.000001  -0.000018
              19         20         21         22         23         24
     1  N    0.000000   0.000000   0.000000   0.000000   0.000000   0.000000
     2  H    0.000000   0.000000   0.000000   0.000000   0.000000   0.000000
     3  H    0.000000   0.000000   0.000000   0.000000   0.000000   0.000000
     4  C   -0.000001   0.000000   0.000000  -0.000001   0.000001   0.000000
     5  C    0.000007   0.000000   0.000000   0.000021  -0.000076   0.000001
     6  C    0.000168  -0.000017  -0.000003  -0.000218  -0.000042   0.000034
     7  H    0.000072  -0.000012   0.000006  -0.000258   0.000053   0.000057
     8  H    0.000000   0.000000   0.000000   0.000001  -0.000002   0.000000
     9  N    0.000003   0.000000   0.000000   0.000001   0.000000   0.000000
    10  C    0.000244  -0.000001  -0.000007   0.000016  -0.000006   0.000002
    11  O    0.000242   0.000000   0.000000  -0.000007   0.000001   0.000000
    12  N    0.002720  -0.000056   0.000098   0.001358   0.001154  -0.000189
    13  C   -0.066041   0.005066   0.000852  -0.047123   0.002967   0.001958
    14  O   -0.052317   0.003148  -0.000721   0.219762  -0.044534  -0.046943
    15  H    0.000038  -0.000227   0.000942   0.005599  -0.000364   0.000115
    16  C    0.352773  -0.025264  -0.037162  -0.068116  -0.002972   0.004655
    17  H   -0.034662  -0.006743   0.004464   0.001504   0.001598  -0.000044
    18  H   -0.023803   0.001109  -0.005281   0.004732  -0.000139  -0.000102
    19  C    5.134284   0.361526   0.364719   0.358388  -0.050889  -0.028717
    20  H    0.361526   0.555589  -0.029040  -0.025030  -0.002531   0.000572
    21  H    0.364719  -0.029040   0.560408  -0.038866   0.006231  -0.013348
    22  C    0.358388  -0.025030  -0.038866   4.891703   0.351016   0.349711
    23  H   -0.050889  -0.002531   0.006231   0.351016   0.641886  -0.047079
    24  C   -0.028717   0.000572  -0.013348   0.349711  -0.047079   4.864342
    25  H    0.005704  -0.000122   0.000753  -0.041876  -0.000659   0.359530
    26  H   -0.005881   0.000949  -0.000327  -0.033856   0.003393   0.370313
    27  O   -0.012975   0.000228   0.019594  -0.040691   0.003382   0.268908
    28  H   -0.000100  -0.000013   0.000286  -0.012139   0.000737  -0.036567
              25         26         27         28
     1  N    0.000000   0.000000   0.000000   0.000000
     2  H    0.000000   0.000000   0.000000   0.000000
     3  H    0.000000   0.000000   0.000000   0.000000
     4  C    0.000000   0.000000   0.000000   0.000000
     5  C    0.000000   0.000000   0.000000   0.000000
     6  C   -0.000010  -0.000001   0.000000   0.000000
     7  H    0.000085  -0.000002   0.000002   0.000000
     8  H    0.000000   0.000000   0.000000   0.000000
     9  N    0.000000   0.000000   0.000000   0.000000
    10  C    0.000000   0.000000   0.000000   0.000000
    11  O    0.000000   0.000000   0.000000   0.000000
    12  N   -0.000010   0.000003   0.000002   0.000074
    13  C   -0.000122  -0.000093   0.000667  -0.000019
    14  O   -0.002532   0.003210  -0.005517   0.020563
    15  H    0.000022  -0.000003   0.000245  -0.000418
    16  C   -0.000250   0.000102  -0.000349   0.000061
    17  H    0.000003  -0.000005  -0.000004   0.000001
    18  H    0.000003  -0.000003   0.000004  -0.000018
    19  C    0.005704  -0.005881  -0.012975  -0.000100
    20  H   -0.000122   0.000949   0.000228  -0.000013
    21  H    0.000753  -0.000327   0.019594   0.000286
    22  C   -0.041876  -0.033856  -0.040691  -0.012139
    23  H   -0.000659   0.003393   0.003382   0.000737
    24  C    0.359530   0.370313   0.268908  -0.036567
    25  H    0.623136  -0.041983  -0.037367  -0.003779
    26  H   -0.041983   0.576441  -0.036194   0.007403
    27  O   -0.037367  -0.036194   8.235985   0.238766
    28  H   -0.003779   0.007403   0.238766   0.371548
 Mulliken charges:
               1
     1  N   -0.776537
     2  H    0.366680
     3  H    0.364154
     4  C    0.527681
     5  C   -0.237243
     6  C    0.110488
     7  H    0.197325
     8  H    0.157974
     9  N   -0.600592
    10  C    0.704391
    11  O   -0.583805
    12  N   -0.499437
    13  C    0.311923
    14  O   -0.546361
    15  H    0.169857
    16  C   -0.314732
    17  H    0.158277
    18  H    0.179215
    19  C   -0.305501
    20  H    0.160868
    21  H    0.166400
    22  C    0.124369
    23  H    0.136874
    24  C   -0.047208
    25  H    0.139475
    26  H    0.156534
    27  O   -0.634685
    28  H    0.413616
 Sum of Mulliken charges =   0.00000
 Mulliken charges with hydrogens summed into heavy atoms:
               1
     1  N   -0.045703
     4  C    0.527681
     5  C   -0.079269
     6  C    0.307813
     9  N   -0.600592
    10  C    0.704391
    11  O   -0.583805
    12  N   -0.499437
    13  C    0.481780
    14  O   -0.546361
    16  C    0.022760
    19  C    0.021767
    22  C    0.261243
    24  C    0.248801
    27  O   -0.221068
 Electronic spatial extent (au):  <R**2>=           3847.3762
 Charge=              0.0000 electrons
 Dipole moment (field-independent basis, Debye):
    X=             -1.1262    Y=             -6.9073    Z=              2.6224  Tot=              7.4737
 Quadrupole moment (field-independent basis, Debye-Ang):
   XX=            -76.0612   YY=            -90.2018   ZZ=            -85.9159
   XY=             16.7660   XZ=              5.4914   YZ=              1.3874
 Traceless Quadrupole moment (field-independent basis, Debye-Ang):
   XX=              7.9984   YY=             -6.1422   ZZ=             -1.8562
   XY=             16.7660   XZ=              5.4914   YZ=              1.3874
 Octapole moment (field-independent basis, Debye-Ang**2):
  XXX=           -179.3892  YYY=            -42.7617  ZZZ=            -11.4032  XYY=              8.1524
  XXY=            -68.0529  XXZ=             24.0108  XZZ=             14.9213  YZZ=              2.0229
  YYZ=              8.5195  XYZ=             -5.9222
 Hexadecapole moment (field-independent basis, Debye-Ang**3):
 XXXX=          -3346.0129 YYYY=           -748.2443 ZZZZ=           -279.6288 XXXY=            207.7684
 XXXZ=            177.3827 YYYX=             89.1776 YYYZ=              9.7526 ZZZX=            -21.9415
 ZZZY=              0.5372 XXYY=           -689.7045 XXZZ=           -721.3890 YYZZ=           -177.4234
 XXYZ=             -6.3785 YYXZ=            -23.8870 ZZXY=             -2.6479
 N-N= 1.033705922596D+03 E-N=-3.795460129629D+03  KE= 7.340830641295D+02
 No NMR shielding tensors so no spin-rotation constants.
 Leave Link  601 at Fri Nov 13 03:29:08 2020, MaxMem=  2147483648 cpu:         0.2
 (Enter /prod/apps/gaussian/g09d1/l9999.exe)
 1\1\GINC-PIRINEUS26\SP\RB3LYP\6-31G(d)\C9H13N3O3\UBAFAR01\13-Nov-2020\
 0\\#p b3lyp/6-31G(d) scrf=(iefpcm,read,solvent=n-Octanol) geom=allchec
 k guess=read\\SET_328_BBB304_conf1_geo_210_060.n.pdb.xyz\\0,1\N,0,1.58
 5,4.168,2.236\H,0,2.575,4.35,2.167\H,0,1.062,4.676,2.937\C,0,1.058,3.0
 15,1.762\C,0,1.847,2.172,0.917\C,0,1.249,1.04,0.458\H,0,1.749,0.308,-0
 .163\H,0,2.871,2.408,0.663\N,0,-0.196,2.735,2.1\C,0,-0.799,1.611,1.624
 \O,0,-1.963,1.288,1.874\N,0,-0.035,0.751,0.783\C,0,-0.714,-0.471,0.302
 \O,0,0.254,-1.4,-0.158\H,0,-1.236,-0.878,1.169\C,0,-1.676,-0.215,-0.87
 2\H,0,-1.347,0.674,-1.419\H,0,-2.693,-0.043,-0.524\C,0,-1.502,-1.473,-
 1.725\H,0,-1.753,-1.319,-2.776\H,0,-2.103,-2.302,-1.339\C,0,-0.029,-1.
 805,-1.523\H,0,0.605,-1.223,-2.206\C,0,0.334,-3.278,-1.628\H,0,1.416,-
 3.397,-1.467\H,0,0.102,-3.637,-2.633\O,0,-0.411,-4.069,-0.719\H,0,-0.2
 51,-3.684,0.159\\Version=AM64L-G09RevD.01\State=1-A\HF=-740.7387857\RM
 SD=8.371e-09\Dipole=2.6099292,0.6181473,-1.2050224\Quadrupole=0.696266
 8,-1.5170078,0.8207409,11.2781724,8.2348772,2.3303636\PG=C01 [X(C9H13N
 3O3)]\\@


 BLACK HOLES SUCK.
 Job cpu time:       0 days  0 hours  1 minutes 35.2 seconds.
 File lengths (MBytes):  RWF=     98 Int=      0 D2E=      0 Chk=      4 Scr=      1
 Normal termination of Gaussian 09 at Fri Nov 13 03:29:08 2020.
