 Entering Gaussian System, Link 0=g09
 Initial command:
 /prod/apps/gaussian/g09d1/l1.exe "/tmp/ubafar01/1643614/Gau-219688.inp" -scrdir="/tmp/ubafar01/1643614/"
 Entering Link 1 = /prod/apps/gaussian/g09d1/l1.exe PID=    219690.
  
 Copyright (c) 1988,1990,1992,1993,1995,1998,2003,2009,2013,
            Gaussian, Inc.  All Rights Reserved.
  
 This is part of the Gaussian(R) 09 program.  It is based on
 the Gaussian(R) 03 system (copyright 2003, Gaussian, Inc.),
 the Gaussian(R) 98 system (copyright 1998, Gaussian, Inc.),
 the Gaussian(R) 94 system (copyright 1995, Gaussian, Inc.),
 the Gaussian 92(TM) system (copyright 1992, Gaussian, Inc.),
 the Gaussian 90(TM) system (copyright 1990, Gaussian, Inc.),
 the Gaussian 88(TM) system (copyright 1988, Gaussian, Inc.),
 the Gaussian 86(TM) system (copyright 1986, Carnegie Mellon
 University), and the Gaussian 82(TM) system (copyright 1983,
 Carnegie Mellon University). Gaussian is a federally registered
 trademark of Gaussian, Inc.
  
 This software contains proprietary and confidential information,
 including trade secrets, belonging to Gaussian, Inc.
  
 This software is provided under written license and may be
 used, copied, transmitted, or stored only in accord with that
 written license.
  
 The following legend is applicable only to US Government
 contracts under FAR:
  
                    RESTRICTED RIGHTS LEGEND
  
 Use, reproduction and disclosure by the US Government is
 subject to restrictions as set forth in subparagraphs (a)
 and (c) of the Commercial Computer Software - Restricted
 Rights clause in FAR 52.227-19.
  
 Gaussian, Inc.
 340 Quinnipiac St., Bldg. 40, Wallingford CT 06492
  
  
 ---------------------------------------------------------------
 Warning -- This program may not be used in any manner that
 competes with the business of Gaussian, Inc. or will provide
 assistance to any competitor of Gaussian, Inc.  The licensee
 of this program is prohibited from giving any competitor of
 Gaussian, Inc. access to this program.  By using this program,
 the user acknowledges that Gaussian, Inc. is engaged in the
 business of creating and licensing software in the field of
 computational chemistry and represents and warrants to the
 licensee that it is not a competitor of Gaussian, Inc. and that
 it will not use this program in any manner prohibited above.
 ---------------------------------------------------------------
  

 Cite this work as:
 Gaussian 09, Revision D.01,
 M. J. Frisch, G. W. Trucks, H. B. Schlegel, G. E. Scuseria, 
 M. A. Robb, J. R. Cheeseman, G. Scalmani, V. Barone, B. Mennucci, 
 G. A. Petersson, H. Nakatsuji, M. Caricato, X. Li, H. P. Hratchian, 
 A. F. Izmaylov, J. Bloino, G. Zheng, J. L. Sonnenberg, M. Hada, 
 M. Ehara, K. Toyota, R. Fukuda, J. Hasegawa, M. Ishida, T. Nakajima, 
 Y. Honda, O. Kitao, H. Nakai, T. Vreven, J. A. Montgomery, Jr., 
 J. E. Peralta, F. Ogliaro, M. Bearpark, J. J. Heyd, E. Brothers, 
 K. N. Kudin, V. N. Staroverov, T. Keith, R. Kobayashi, J. Normand, 
 K. Raghavachari, A. Rendell, J. C. Burant, S. S. Iyengar, J. Tomasi, 
 M. Cossi, N. Rega, J. M. Millam, M. Klene, J. E. Knox, J. B. Cross, 
 V. Bakken, C. Adamo, J. Jaramillo, R. Gomperts, R. E. Stratmann, 
 O. Yazyev, A. J. Austin, R. Cammi, C. Pomelli, J. W. Ochterski, 
 R. L. Martin, K. Morokuma, V. G. Zakrzewski, G. A. Voth, 
 P. Salvador, J. J. Dannenberg, S. Dapprich, A. D. Daniels, 
 O. Farkas, J. B. Foresman, J. V. Ortiz, J. Cioslowski, 
 and D. J. Fox, Gaussian, Inc., Wallingford CT, 2013.
 
 ******************************************
 Gaussian 09:  AM64L-G09RevD.01 24-Apr-2013
                25-Jan-2021 
 ******************************************
 %nproc=1
 Will use up to    1 processors via shared memory.
 %Chk=SET_328_BBB301_conf1.geo_090_285_255.n.pdb.xyz.mst.n.o.chk
 %mem=2000MB
 -----------------
 #p b3lyp/6-31G(d)
 -----------------
 1/38=1/1;
 2/12=2,17=6,18=5,40=1/2;
 3/5=1,6=6,7=1,11=2,16=1,25=1,30=1,74=-5/1,2,3;
 4//1;
 5/5=2,38=5/2;
 6/7=2,8=2,9=2,10=2,28=1/1;
 99/5=1,9=1/99;
 Leave Link    1 at Mon Jan 25 16:23:32 2021, MaxMem=   262144000 cpu:         0.0
 (Enter /prod/apps/gaussian/g09d1/l101.exe)
 ----------------------------------------------
 SET_328_BBB301_conf1.geo_090_285_255.n.pdb.xyz
 ----------------------------------------------
 Symbolic Z-matrix:
 Charge =  0 Multiplicity = 1
 C                    -0.497    -2.833    -2.079 
 H                     0.23     -3.392    -1.483 
 H                     0.043    -2.059    -2.636 
 H                    -0.945    -3.514    -2.806 
 C                    -1.573    -2.214    -1.176 
 C                    -2.578    -1.419    -2.032 
 H                    -2.066    -0.643    -2.611 
 H                    -3.327    -0.928    -1.405 
 H                    -3.104    -2.071    -2.736 
 C                    -2.297    -3.332    -0.408 
 H                    -3.101    -2.943     0.225 
 H                    -1.593    -3.877     0.23 
 H                    -2.748    -4.04     -1.109 
 N                    -0.857    -1.34     -0.212 
 H                    -0.244    -0.718    -0.739 
 C                    -1.665    -0.528     0.699 
 H                    -2.416    -1.174     1.16 
 H                    -2.194     0.305     0.215 
 C                    -0.735    -0.005     1.814 
 O                    -0.002    -1.1       2.334 
 H                     0.114    -1.682     1.55 
 H                    -1.362     0.38      2.63 
 C                     0.173     1.122     1.329 
 C                     1.564     0.977     1.334 
 H                     1.98      0.046     1.703 
 C                     2.418     1.992     0.901 
 C                     3.925     1.84      0.923 
 O                     4.537     2.08     -0.342 
 H                     4.293     2.991    -0.579 
 H                     4.181     0.814     1.201 
 H                     4.354     2.505     1.69 
 C                     1.848     3.191     0.444 
 O                     2.722     4.168     0.028 
 H                     2.231     4.943    -0.285 
 C                     0.463     3.361     0.427 
 H                     0.035     4.293     0.071 
 C                    -0.364     2.33      0.871 
 H                    -1.441     2.477     0.859 
 
 NAtoms=     38 NQM=       38 NQMF=       0 NMMI=      0 NMMIF=      0
                NMic=       0 NMicF=      0.
                    Isotopes and Nuclear Properties:
 (Nuclear quadrupole moments (NQMom) in fm**2, nuclear magnetic moments (NMagM)
  in nuclear magnetons)

  Atom         1           2           3           4           5           6           7           8           9          10
 IAtWgt=          12           1           1           1          12          12           1           1           1          12
 AtmWgt=  12.0000000   1.0078250   1.0078250   1.0078250  12.0000000  12.0000000   1.0078250   1.0078250   1.0078250  12.0000000
 NucSpn=           0           1           1           1           0           0           1           1           1           0
 AtZEff=   0.0000000   0.0000000   0.0000000   0.0000000   0.0000000   0.0000000   0.0000000   0.0000000   0.0000000   0.0000000
 NQMom=    0.0000000   0.0000000   0.0000000   0.0000000   0.0000000   0.0000000   0.0000000   0.0000000   0.0000000   0.0000000
 NMagM=    0.0000000   2.7928460   2.7928460   2.7928460   0.0000000   0.0000000   2.7928460   2.7928460   2.7928460   0.0000000
 AtZNuc=   6.0000000   1.0000000   1.0000000   1.0000000   6.0000000   6.0000000   1.0000000   1.0000000   1.0000000   6.0000000

  Atom        11          12          13          14          15          16          17          18          19          20
 IAtWgt=           1           1           1          14           1          12           1           1          12          16
 AtmWgt=   1.0078250   1.0078250   1.0078250  14.0030740   1.0078250  12.0000000   1.0078250   1.0078250  12.0000000  15.9949146
 NucSpn=           1           1           1           2           1           0           1           1           0           0
 AtZEff=   0.0000000   0.0000000   0.0000000   0.0000000   0.0000000   0.0000000   0.0000000   0.0000000   0.0000000   0.0000000
 NQMom=    0.0000000   0.0000000   0.0000000   2.0440000   0.0000000   0.0000000   0.0000000   0.0000000   0.0000000   0.0000000
 NMagM=    2.7928460   2.7928460   2.7928460   0.4037610   2.7928460   0.0000000   2.7928460   2.7928460   0.0000000   0.0000000
 AtZNuc=   1.0000000   1.0000000   1.0000000   7.0000000   1.0000000   6.0000000   1.0000000   1.0000000   6.0000000   8.0000000

  Atom        21          22          23          24          25          26          27          28          29          30
 IAtWgt=           1           1          12          12           1          12          12          16           1           1
 AtmWgt=   1.0078250   1.0078250  12.0000000  12.0000000   1.0078250  12.0000000  12.0000000  15.9949146   1.0078250   1.0078250
 NucSpn=           1           1           0           0           1           0           0           0           1           1
 AtZEff=   0.0000000   0.0000000   0.0000000   0.0000000   0.0000000   0.0000000   0.0000000   0.0000000   0.0000000   0.0000000
 NQMom=    0.0000000   0.0000000   0.0000000   0.0000000   0.0000000   0.0000000   0.0000000   0.0000000   0.0000000   0.0000000
 NMagM=    2.7928460   2.7928460   0.0000000   0.0000000   2.7928460   0.0000000   0.0000000   0.0000000   2.7928460   2.7928460
 AtZNuc=   1.0000000   1.0000000   6.0000000   6.0000000   1.0000000   6.0000000   6.0000000   8.0000000   1.0000000   1.0000000

  Atom        31          32          33          34          35          36          37          38
 IAtWgt=           1          12          16           1          12           1          12           1
 AtmWgt=   1.0078250  12.0000000  15.9949146   1.0078250  12.0000000   1.0078250  12.0000000   1.0078250
 NucSpn=           1           0           0           1           0           1           0           1
 AtZEff=   0.0000000   0.0000000   0.0000000   0.0000000   0.0000000   0.0000000   0.0000000   0.0000000
 NQMom=    0.0000000   0.0000000   0.0000000   0.0000000   0.0000000   0.0000000   0.0000000   0.0000000
 NMagM=    2.7928460   0.0000000   0.0000000   2.7928460   0.0000000   2.7928460   0.0000000   2.7928460
 AtZNuc=   1.0000000   6.0000000   8.0000000   1.0000000   6.0000000   1.0000000   6.0000000   1.0000000
 Leave Link  101 at Mon Jan 25 16:23:32 2021, MaxMem=   262144000 cpu:         0.1
 (Enter /prod/apps/gaussian/g09d1/l202.exe)
                          Input orientation:                          
 ---------------------------------------------------------------------
 Center     Atomic      Atomic             Coordinates (Angstroms)
 Number     Number       Type             X           Y           Z
 ---------------------------------------------------------------------
      1          6           0       -0.497000   -2.833000   -2.079000
      2          1           0        0.230000   -3.392000   -1.483000
      3          1           0        0.043000   -2.059000   -2.636000
      4          1           0       -0.945000   -3.514000   -2.806000
      5          6           0       -1.573000   -2.214000   -1.176000
      6          6           0       -2.578000   -1.419000   -2.032000
      7          1           0       -2.066000   -0.643000   -2.611000
      8          1           0       -3.327000   -0.928000   -1.405000
      9          1           0       -3.104000   -2.071000   -2.736000
     10          6           0       -2.297000   -3.332000   -0.408000
     11          1           0       -3.101000   -2.943000    0.225000
     12          1           0       -1.593000   -3.877000    0.230000
     13          1           0       -2.748000   -4.040000   -1.109000
     14          7           0       -0.857000   -1.340000   -0.212000
     15          1           0       -0.244000   -0.718000   -0.739000
     16          6           0       -1.665000   -0.528000    0.699000
     17          1           0       -2.416000   -1.174000    1.160000
     18          1           0       -2.194000    0.305000    0.215000
     19          6           0       -0.735000   -0.005000    1.814000
     20          8           0       -0.002000   -1.100000    2.334000
     21          1           0        0.114000   -1.682000    1.550000
     22          1           0       -1.362000    0.380000    2.630000
     23          6           0        0.173000    1.122000    1.329000
     24          6           0        1.564000    0.977000    1.334000
     25          1           0        1.980000    0.046000    1.703000
     26          6           0        2.418000    1.992000    0.901000
     27          6           0        3.925000    1.840000    0.923000
     28          8           0        4.537000    2.080000   -0.342000
     29          1           0        4.293000    2.991000   -0.579000
     30          1           0        4.181000    0.814000    1.201000
     31          1           0        4.354000    2.505000    1.690000
     32          6           0        1.848000    3.191000    0.444000
     33          8           0        2.722000    4.168000    0.028000
     34          1           0        2.231000    4.943000   -0.285000
     35          6           0        0.463000    3.361000    0.427000
     36          1           0        0.035000    4.293000    0.071000
     37          6           0       -0.364000    2.330000    0.871000
     38          1           0       -1.441000    2.477000    0.859000
 ---------------------------------------------------------------------
                    Distance matrix (angstroms):
                    1          2          3          4          5
     1  C    0.000000
     2  H    1.093721   0.000000
     3  H    1.095867   1.772362   0.000000
     4  H    1.092243   1.773651   1.766938   0.000000
     5  C    1.535039   2.175487   2.183365   2.177449   0.000000
     6  C    2.516380   3.475485   2.764789   2.766729   1.541034
     7  H    2.746067   3.755130   2.540386   3.088253   2.184105
     8  H    3.477384   4.327774   3.761838   3.784722   2.186951
     9  H    2.794413   3.798764   3.148611   2.597774   2.190436
    10  C    2.506241   2.746808   3.472767   2.758882   1.537506
    11  H    3.478697   3.770202   4.341833   3.763155   2.197504
    12  H    2.760912   2.548121   3.767702   3.125535   2.177798
    13  H    2.732169   3.070548   3.747769   2.531263   2.172416
    14  N    2.417507   2.647209   2.683792   3.385684   1.485203
    15  H    2.516512   2.815757   2.340782   3.547042   2.048225
    16  C    3.794013   4.068740   4.047647   4.660431   2.523229
    17  H    4.114118   4.348136   4.608636   4.834108   2.692424
    18  H    4.241378   4.735693   4.326762   5.027047   2.943787
    19  C    4.817642   4.824231   4.962530   5.805306   3.810777
    20  O    4.766853   4.458315   5.061878   5.756409   4.003640
    21  H    3.855874   3.483769   4.203542   4.842772   3.249626
    22  H    5.765958   5.803380   5.971055   6.699793   4.610748
    23  C    5.263591   5.318533   5.084967   6.311945   4.522437
    24  C    5.514743   5.366862   5.224140   6.603314   5.130629
    25  H    5.359822   5.003293   5.197106   6.446728   5.100985
    26  C    6.376382   6.281581   5.878911   7.440944   6.158932
    27  C    7.099508   6.842199   6.552756   8.141723   7.146238
    28  O    7.245405   7.056551   6.526086   8.210752   7.514392
    29  H    7.688503   7.620228   6.913483   8.643564   7.865010
    30  H    6.778104   6.364330   6.332436   7.814314   6.922964
    31  H    8.138293   7.864472   7.624244   9.193573   8.100139
    32  C    6.939246   7.047492   6.348774   7.957410   6.598611
    33  O    7.988455   8.102270   7.283506   8.971709   7.786306
    34  H    8.433659   8.655139   7.703412   9.378873   8.153953
    35  C    6.750353   7.021780   6.239773   7.726602   6.147807
    36  H    7.462265   7.842969   6.904768   8.377755   6.817751
    37  C    5.947836   6.215741   5.632763   6.928941   5.128336
    38  H    6.141586   6.536235   5.915452   7.040619   5.115088
                    6          7          8          9         10
     6  C    0.000000
     7  H    1.095245   0.000000
     8  H    1.093257   1.767988   0.000000
     9  H    1.094256   1.769817   1.768541   0.000000
    10  C    2.525056   3.483862   2.798951   2.767843   0.000000
    11  H    2.773113   3.795276   2.601577   3.086732   1.094726
    12  H    3.482619   4.330562   3.791646   3.787072   1.095301
    13  H    2.783967   3.776339   3.179214   2.578920   1.093648
    14  N    2.506089   2.775372   2.773787   3.457448   2.465782
    15  H    2.758769   2.613368   3.161099   3.741419   3.340264
    16  C    3.014268   3.336184   2.710915   4.031227   3.080144
    17  H    3.205485   3.824252   2.733068   4.056694   2.670159
    18  H    2.858083   2.983515   2.329888   3.896393   3.691410
    19  C    4.493079   4.664679   4.234661   5.530191   4.294887
    20  O    5.079320   5.377915   5.006529   6.022470   4.215141
    21  H    4.488514   4.811013   4.597937   5.373699   3.516985
    22  H    5.142888   5.386114   4.674753   6.151091   4.886984
    23  C    5.031998   4.863327   4.891549   6.120311   5.381095
    24  C    5.850379   5.600386   5.920560   6.902567   6.042298
    25  H    6.072217   5.954446   6.226764   7.073434   5.844650
    26  C    6.722903   6.275637   6.844637   7.760684   7.231160
    27  C    7.851249   7.385562   8.103883   8.836914   8.199660
    28  O    8.106931   7.494178   8.486491   9.019253   8.717663
    29  H    8.292765   7.600780   8.608440   9.219116   9.134422
    30  H    7.818098   7.461850   8.136084   8.768946   7.857651
    31  H    8.792251   8.344154   8.964501   9.805662   9.094392
    32  C    6.853623   6.273115   6.867721   7.894514   7.775375
    33  O    7.971711   7.282512   8.038228   8.972574   9.034957
    34  H    8.164162   7.421447   8.161765   9.146902   9.433639
    35  C    6.175983   5.626482   6.009646   7.227357   7.287734
    36  H    6.623996   5.997618   6.382825   7.631059   7.988009
    37  C    5.232992   4.884655   4.957228   6.315604   6.118053
    38  H    4.982917   4.708070   4.502968   6.031078   6.006872
                   11         12         13         14         15
    11  H    0.000000
    12  H    1.773822   0.000000
    13  H    1.762831   1.775814   0.000000
    14  N    2.792152   2.678326   3.416210   0.000000
    15  H    3.747315   3.569040   4.176434   1.019991   0.000000
    16  C    2.849385   3.382447   4.095839   1.463601   2.030563
    17  H    2.114902   2.974632   3.670496   2.083368   2.920911
    18  H    3.372277   4.224991   4.575906   2.162388   2.399822
    19  C    4.093253   4.270551   5.373762   2.429359   2.695785
    20  O    4.177120   3.830121   5.295127   2.696431   3.106094
    21  H    3.698915   3.078031   4.563057   2.040698   2.509379
    22  H    4.455387   4.892383   5.952942   3.360117   3.715601
    23  C    5.334990   5.414477   6.412669   3.081724   2.799306
    24  C    6.193424   5.894640   7.052084   3.690508   3.230978
    25  H    6.077431   5.506904   6.852498   3.692802   3.390168
    26  C    7.434417   7.140275   8.192233   4.802772   4.137625
    27  C    8.528128   7.975755   9.123177   5.853900   5.165866
    28  O    9.159206   8.566792   9.545361   6.388156   5.553771
    29  H    9.514726   9.081239   9.964514   6.739047   5.862308
    30  H    8.251978   7.502493   8.769747   5.658421   5.068654
    31  H    9.349008   8.844678  10.055338   6.749530   6.117955
    32  C    7.884575   7.864026   8.707605   5.317643   4.588707
    33  O    9.193066   9.131377   9.928995   6.573044   5.767013
    34  H    9.533065   9.627076  10.303577   7.001226   6.195051
    35  C    7.244537   7.526924   8.212467   4.924441   4.300889
    36  H    7.887833   8.332140   8.864332   5.710205   5.083706
    37  C    5.976037   6.359888   7.083838   3.858087   3.449174
    38  H    5.703854   6.386866   6.931996   4.007192   3.767551
                   16         17         18         19         20
    16  C    0.000000
    17  H    1.092629   0.000000
    18  H    1.099084   1.769110   0.000000
    19  C    1.543261   2.149427   2.186683   0.000000
    20  O    2.401245   2.685358   3.356941   1.416585   0.000000
    21  H    2.284898   2.609802   3.325246   1.898111   0.983278
    22  H    2.155234   2.384687   2.555401   1.098731   2.031654
    23  C    2.549048   3.464549   2.740652   1.526374   2.444981
    24  C    3.618659   4.527414   3.978229   2.545609   2.786806
    25  H    3.824071   4.594351   4.438863   2.717747   2.374827
    26  C    4.802301   5.784306   4.958539   3.842263   4.179755
    27  C    6.075006   7.024859   6.348201   5.090531   5.104493
    28  O    6.808094   7.822322   6.983354   6.065439   6.154340
    29  H    7.036648   8.085915   7.065848   6.323231   6.608243
    30  H    6.019027   6.890155   6.470850   5.021313   4.737570
    31  H    6.812454   7.723266   7.063422   5.675685   5.690826
    32  C    5.122222   6.143906   4.971841   4.331652   5.040564
    33  O    6.461302   7.497828   6.254982   5.705662   6.363147
    34  H    6.788145   7.816670   6.429749   6.138865   6.954373
    35  C    4.441474   5.421453   4.055087   3.832614   4.873745
    36  H    5.150381   6.089451   4.570921   4.701463   5.848674
    37  C    3.144893   4.070902   2.807109   2.545411   3.746507
    38  H    3.017582   3.790914   2.387327   2.751506   4.128108
                   21         22         23         24         25
    21  H    0.000000
    22  H    2.756233   0.000000
    23  C    2.813314   2.144619   0.000000
    24  C    3.036353   3.255380   1.398546   0.000000
    25  H    2.547813   3.484229   2.136095   1.084425   0.000000
    26  C    4.384962   4.458294   2.445426   1.395360   2.149875
    27  C    5.226981   5.744373   3.841597   2.547157   2.758598
    28  O    6.106983   6.820629   4.770168   3.586686   3.854534
    29  H    6.620696   7.006713   4.909992   3.893996   4.385261
    30  H    4.784590   5.740666   4.021854   2.625442   2.384582
    31  H    5.960551   6.170242   4.418571   3.200878   3.418000
    32  C    5.289246   4.794207   2.805283   2.403030   3.390211
    33  O    6.583361   6.148041   4.179488   3.637180   4.510773
    34  H    7.193020   6.498295   4.630378   4.335344   5.291101
    35  C    5.178299   4.131609   2.431219   2.778184   3.862472
    36  H    6.155835   4.879719   3.414213   3.863789   4.948076
    37  C    4.097032   2.809374   1.399070   2.400450   3.376865
    38  H    4.493639   2.745923   2.159148   3.391998   4.280810
                   26         27         28         29         30
    26  C    0.000000
    27  C    1.514806   0.000000
    28  O    2.458242   1.425612   0.000000
    29  H    2.589213   1.927752   0.972433   0.000000
    30  H    2.141460   1.093387   2.027398   2.814298   0.000000
    31  H    2.152623   1.102069   2.084020   2.321266   1.768765
    32  C    1.404048   2.523603   3.013775   2.657923   3.415562
    33  O    2.364217   2.769083   2.791213   2.054707   3.841084
    34  H    3.185901   3.735975   3.676636   2.854572   4.802014
    35  C    2.433282   3.813778   4.339332   3.977164   4.572724
    36  H    3.414995   4.677095   5.033482   4.499808   5.528983
    37  C    2.802618   4.317213   5.055064   4.922100   4.802518
    38  H    3.889585   5.404056   6.110360   5.933869   5.872769
                   31         32         33         34         35
    31  H    0.000000
    32  C    2.881518   0.000000
    33  O    2.862034   1.375304   0.000000
    34  H    3.788350   1.935881   0.969368   0.000000
    35  C    4.179448   1.395498   2.431775   2.476993   0.000000
    36  H    4.946905   2.154182   2.690250   2.317682   1.085608
    37  C    4.791754   2.411762   3.689484   3.859810   1.394283
    38  H    5.854346   3.391097   4.569531   4.568750   2.143198
                   36         37         38
    36  H    0.000000
    37  C    2.156982   0.000000
    38  H    2.469287   1.087052   0.000000
 Stoichiometry    C13H21NO3
 Framework group  C1[X(C13H21NO3)]
 Deg. of freedom   108
 Full point group                 C1      NOp   1
 Largest Abelian subgroup         C1      NOp   1
 Largest concise Abelian subgroup C1      NOp   1
                         Standard orientation:                         
 ---------------------------------------------------------------------
 Center     Atomic      Atomic             Coordinates (Angstroms)
 Number     Number       Type             X           Y           Z
 ---------------------------------------------------------------------
      1          6           0        3.345990    2.238713   -0.445334
      2          1           0        3.168730    2.614143    0.566524
      3          1           0        2.525775    2.583994   -1.084829
      4          1           0        4.270269    2.682429   -0.821923
      5          6           0        3.437367    0.706397   -0.443961
      6          6           0        3.671959    0.196678   -1.879210
      7          1           0        2.872679    0.535676   -2.546887
      8          1           0        3.691891   -0.895953   -1.910401
      9          1           0        4.622159    0.561876   -2.280641
     10          6           0        4.591918    0.266716    0.471253
     11          1           0        4.721520   -0.820294    0.477556
     12          1           0        4.411937    0.595442    1.500443
     13          1           0        5.533204    0.704954    0.127751
     14          7           0        2.152788    0.211919    0.113870
     15          1           0        1.390285    0.655739   -0.397984
     16          6           0        1.925343   -1.233896    0.117939
     17          1           0        2.808101   -1.718940    0.541388
     18          1           0        1.751745   -1.667885   -0.876799
     19          6           0        0.729357   -1.519677    1.050463
     20          8           0        0.953873   -0.854568    2.280884
     21          1           0        1.445190   -0.046935    2.010380
     22          1           0        0.712341   -2.597180    1.264724
     23          6           0       -0.604035   -1.131612    0.416989
     24          6           0       -1.413642   -0.146981    0.992289
     25          1           0       -1.073240    0.324893    1.907406
     26          6           0       -2.639040    0.224277    0.437675
     27          6           0       -3.522890    1.278798    1.071261
     28          8           0       -3.871720    2.335465    0.180115
     29          1           0       -4.334515    1.907520   -0.560365
     30          1           0       -2.991319    1.741651    1.907140
     31          1           0       -4.430219    0.805672    1.480480
     32          6           0       -3.058208   -0.417071   -0.738897
     33          8           0       -4.272050   -0.025712   -1.253568
     34          1           0       -4.459198   -0.511007   -2.071578
     35          6           0       -2.268655   -1.401730   -1.334267
     36          1           0       -2.604251   -1.889803   -2.244050
     37          6           0       -1.051304   -1.754503   -0.753204
     38          1           0       -0.448381   -2.527555   -1.222838
 ---------------------------------------------------------------------
 Rotational constants (GHZ):      0.7768382      0.2172477      0.2098488
 Leave Link  202 at Mon Jan 25 16:23:32 2021, MaxMem=   262144000 cpu:         0.0
 (Enter /prod/apps/gaussian/g09d1/l301.exe)
 Standard basis: 6-31G(d) (6D, 7F)
 Ernie: Thresh=  0.10000D-02 Tol=  0.10000D-05 Strict=F.
 There are   297 symmetry adapted cartesian basis functions of A   symmetry.
 There are   297 symmetry adapted basis functions of A   symmetry.
   297 basis functions,   560 primitive gaussians,   297 cartesian basis functions
    65 alpha electrons       65 beta electrons
       nuclear repulsion energy      1255.0644355680 Hartrees.
 IExCor=  402 DFT=T Ex+Corr=B3LYP ExCW=0 ScaHFX=  0.200000
 ScaDFX=  0.800000  0.720000  1.000000  0.810000 ScalE2=  1.000000  1.000000
 IRadAn=      0 IRanWt=     -1 IRanGd=            0 ICorTp=0 IEmpDi=  4
 NAtoms=   38 NActive=   38 NUniq=   38 SFac= 1.00D+00 NAtFMM=   60 NAOKFM=F Big=F
 Integral buffers will be    131072 words long.
 Raffenetti 2 integral format.
 Two-electron integral symmetry is turned on.
 Leave Link  301 at Mon Jan 25 16:23:32 2021, MaxMem=   262144000 cpu:         0.0
 (Enter /prod/apps/gaussian/g09d1/l302.exe)
 NPDir=0 NMtPBC=     1 NCelOv=     1 NCel=       1 NClECP=     1 NCelD=      1
         NCelK=      1 NCelE2=     1 NClLst=     1 CellRange=     0.0.
 One-electron integrals computed using PRISM.
 NBasis=   297 RedAO= T EigKep=  3.72D-04  NBF=   297
 NBsUse=   297 1.00D-06 EigRej= -1.00D+00 NBFU=   297
 Precomputing XC quadrature grid using
 IXCGrd= 4 IRadAn=           0 IRanWt=          -1 IRanGd=           0 AccXCQ= 0.00D+00.
 Generated NRdTot=       0 NPtTot=           0 NUsed=           0 NTot=          32
 NSgBfM=   294   294   294   294   294 MxSgAt=    38 MxSgA2=    38.
 Leave Link  302 at Mon Jan 25 16:23:34 2021, MaxMem=   262144000 cpu:         1.1
 (Enter /prod/apps/gaussian/g09d1/l303.exe)
 DipDrv:  MaxL=1.
 Leave Link  303 at Mon Jan 25 16:23:34 2021, MaxMem=   262144000 cpu:         0.0
 (Enter /prod/apps/gaussian/g09d1/l401.exe)
 ExpMin= 1.61D-01 ExpMax= 5.48D+03 ExpMxC= 8.25D+02 IAcc=1 IRadAn=         1 AccDes= 0.00D+00
 Harris functional with IExCor=  402 and IRadAn=       1 diagonalized for initial guess.
 HarFok:  IExCor=  402 AccDes= 0.00D+00 IRadAn=         1 IDoV= 1 UseB2=F ITyADJ=14
 ICtDFT=  3500011 ScaDFX=  1.000000  1.000000  1.000000  1.000000
 FoFCou: FMM=F IPFlag=           0 FMFlag=      100000 FMFlg1=           0
         NFxFlg=           0 DoJE=T BraDBF=F KetDBF=T FulRan=T
         wScrn=  0.000000 ICntrl=     500 IOpCl=  0 I1Cent=   200000004 NGrid=           0
         NMat0=    1 NMatS0=      1 NMatT0=    0 NMatD0=    1 NMtDS0=    0 NMtDT0=    0
 Petite list used in FoFCou.
 Harris En= -788.488789176197    
 JPrj=0 DoOrth=F DoCkMO=F.
 Leave Link  401 at Mon Jan 25 16:23:38 2021, MaxMem=   262144000 cpu:         4.1
 (Enter /prod/apps/gaussian/g09d1/l502.exe)
 Closed shell SCF:
 Using DIIS extrapolation, IDIIS=  1040.
 Integral symmetry usage will be decided dynamically.
 IVT=      287224 IEndB=      287224 NGot=   262144000 MDV=   261961923
 LenX=   261961923 LenY=   261873273
 Requested convergence on RMS density matrix=1.00D-08 within 128 cycles.
 Requested convergence on MAX density matrix=1.00D-06.
 Requested convergence on             energy=1.00D-06.
 No special actions if energy rises.
 Fock matrices will be formed incrementally for  20 cycles.
 Integral accuracy reduced to 1.0D-05 until final iterations.

 Cycle   1  Pass 0  IDiag  1:
 FoFJK:  IHMeth= 1 ICntrl=       0 DoSepK=F KAlg= 0 I1Cent=   0 FoldK=F
 IRaf= 780000000 NMat=   1 IRICut=       1 DoRegI=T DoRafI=F ISym2E= 0.
 FoFCou: FMM=F IPFlag=           0 FMFlag=      100000 FMFlg1=           0
         NFxFlg=           0 DoJE=F BraDBF=F KetDBF=F FulRan=T
         wScrn=  0.000000 ICntrl=       0 IOpCl=  0 I1Cent=           0 NGrid=           0
         NMat0=    1 NMatS0=      1 NMatT0=    0 NMatD0=    1 NMtDS0=    0 NMtDT0=    0
 Symmetry not used in FoFCou.
 E= -787.944464573761    
 DIIS: error= 2.70D-02 at cycle   1 NSaved=   1.
 NSaved= 1 IEnMin= 1 EnMin= -787.944464573761     IErMin= 1 ErrMin= 2.70D-02
 ErrMax= 2.70D-02  0.00D+00 EMaxC= 1.00D-01 BMatC= 4.94D-01 BMatP= 4.94D-01
 IDIUse=3 WtCom= 7.30D-01 WtEn= 2.70D-01
 Coeff-Com:  0.100D+01
 Coeff-En:   0.100D+01
 Coeff:      0.100D+01
 Gap=     0.234 Goal=   None    Shift=    0.000
 GapD=    0.234 DampG=1.000 DampE=0.500 DampFc=0.5000 IDamp=-1.
 Damping current iteration by 5.00D-01
 RMSDP=5.33D-03 MaxDP=1.36D-01              OVMax= 1.72D-01

 Cycle   2  Pass 0  IDiag  1:
 RMSU=  2.64D-03    CP:  9.80D-01
 E= -788.160821144516     Delta-E=       -0.216356570755 Rises=F Damp=T
 DIIS: error= 6.99D-03 at cycle   2 NSaved=   2.
 NSaved= 2 IEnMin= 2 EnMin= -788.160821144516     IErMin= 2 ErrMin= 6.99D-03
 ErrMax= 6.99D-03  0.00D+00 EMaxC= 1.00D-01 BMatC= 2.54D-02 BMatP= 4.94D-01
 IDIUse=3 WtCom= 9.30D-01 WtEn= 6.99D-02
 Coeff-Com:  0.678D-01 0.932D+00
 Coeff-En:   0.105D+00 0.895D+00
 Coeff:      0.703D-01 0.930D+00
 Gap=     0.311 Goal=   None    Shift=    0.000
 RMSDP=1.17D-03 MaxDP=2.59D-02 DE=-2.16D-01 OVMax= 1.19D-01

 Cycle   3  Pass 0  IDiag  1:
 RMSU=  1.10D-03    CP:  9.74D-01  8.65D-01
 E= -788.416498938004     Delta-E=       -0.255677793487 Rises=F Damp=F
 DIIS: error= 4.31D-03 at cycle   3 NSaved=   3.
 NSaved= 3 IEnMin= 3 EnMin= -788.416498938004     IErMin= 3 ErrMin= 4.31D-03
 ErrMax= 4.31D-03  0.00D+00 EMaxC= 1.00D-01 BMatC= 1.09D-02 BMatP= 2.54D-02
 IDIUse=3 WtCom= 9.57D-01 WtEn= 4.31D-02
 Coeff-Com: -0.550D-02 0.369D+00 0.636D+00
 Coeff-En:   0.000D+00 0.000D+00 0.100D+01
 Coeff:     -0.526D-02 0.353D+00 0.652D+00
 Gap=     0.216 Goal=   None    Shift=    0.000
 RMSDP=5.82D-04 MaxDP=1.86D-02 DE=-2.56D-01 OVMax= 4.87D-02

 Cycle   4  Pass 0  IDiag  1:
 RMSU=  4.53D-04    CP:  9.75D-01  9.11D-01  6.88D-01
 E= -788.422334009527     Delta-E=       -0.005835071523 Rises=F Damp=F
 DIIS: error= 3.55D-03 at cycle   4 NSaved=   4.
 NSaved= 4 IEnMin= 4 EnMin= -788.422334009527     IErMin= 4 ErrMin= 3.55D-03
 ErrMax= 3.55D-03  0.00D+00 EMaxC= 1.00D-01 BMatC= 4.33D-03 BMatP= 1.09D-02
 IDIUse=3 WtCom= 9.65D-01 WtEn= 3.55D-02
 Coeff-Com: -0.928D-02 0.805D-01 0.397D+00 0.531D+00
 Coeff-En:   0.000D+00 0.000D+00 0.320D+00 0.680D+00
 Coeff:     -0.895D-02 0.776D-01 0.395D+00 0.537D+00
 Gap=     0.215 Goal=   None    Shift=    0.000
 RMSDP=2.74D-04 MaxDP=7.66D-03 DE=-5.84D-03 OVMax= 2.73D-02

 Cycle   5  Pass 0  IDiag  1:
 RMSU=  1.28D-04    CP:  9.75D-01  9.03D-01  7.86D-01  5.24D-01
 E= -788.426355723445     Delta-E=       -0.004021713918 Rises=F Damp=F
 DIIS: error= 1.09D-03 at cycle   5 NSaved=   5.
 NSaved= 5 IEnMin= 5 EnMin= -788.426355723445     IErMin= 5 ErrMin= 1.09D-03
 ErrMax= 1.09D-03  0.00D+00 EMaxC= 1.00D-01 BMatC= 2.81D-04 BMatP= 4.33D-03
 IDIUse=3 WtCom= 9.89D-01 WtEn= 1.09D-02
 Coeff-Com: -0.398D-02 0.212D-01 0.183D+00 0.303D+00 0.497D+00
 Coeff-En:   0.000D+00 0.000D+00 0.000D+00 0.000D+00 0.100D+01
 Coeff:     -0.394D-02 0.209D-01 0.181D+00 0.299D+00 0.502D+00
 Gap=     0.215 Goal=   None    Shift=    0.000
 RMSDP=8.66D-05 MaxDP=2.78D-03 DE=-4.02D-03 OVMax= 8.35D-03

 Cycle   6  Pass 0  IDiag  1:
 RMSU=  4.83D-05    CP:  9.74D-01  9.05D-01  7.80D-01  5.71D-01  4.70D-01
 E= -788.426625456733     Delta-E=       -0.000269733288 Rises=F Damp=F
 DIIS: error= 3.49D-04 at cycle   6 NSaved=   6.
 NSaved= 6 IEnMin= 6 EnMin= -788.426625456733     IErMin= 6 ErrMin= 3.49D-04
 ErrMax= 3.49D-04  0.00D+00 EMaxC= 1.00D-01 BMatC= 3.67D-05 BMatP= 2.81D-04
 IDIUse=3 WtCom= 9.97D-01 WtEn= 3.49D-03
 Coeff-Com: -0.107D-02 0.156D-02 0.549D-01 0.106D+00 0.306D+00 0.533D+00
 Coeff-En:   0.000D+00 0.000D+00 0.000D+00 0.000D+00 0.995D-01 0.900D+00
 Coeff:     -0.107D-02 0.155D-02 0.547D-01 0.106D+00 0.305D+00 0.534D+00
 Gap=     0.215 Goal=   None    Shift=    0.000
 RMSDP=2.43D-05 MaxDP=9.85D-04 DE=-2.70D-04 OVMax= 2.18D-03

 Cycle   7  Pass 0  IDiag  1:
 RMSU=  8.07D-06    CP:  9.75D-01  9.04D-01  7.86D-01  5.68D-01  5.56D-01
                    CP:  6.13D-01
 E= -788.426661425374     Delta-E=       -0.000035968641 Rises=F Damp=F
 DIIS: error= 2.64D-05 at cycle   7 NSaved=   7.
 NSaved= 7 IEnMin= 7 EnMin= -788.426661425374     IErMin= 7 ErrMin= 2.64D-05
 ErrMax= 2.64D-05  0.00D+00 EMaxC= 1.00D-01 BMatC= 8.29D-07 BMatP= 3.67D-05
 IDIUse=1 WtCom= 1.00D+00 WtEn= 0.00D+00
 Coeff-Com: -0.353D-03-0.400D-05 0.202D-01 0.408D-01 0.131D+00 0.252D+00
 Coeff-Com:  0.556D+00
 Coeff:     -0.353D-03-0.400D-05 0.202D-01 0.408D-01 0.131D+00 0.252D+00
 Coeff:      0.556D+00
 Gap=     0.215 Goal=   None    Shift=    0.000
 RMSDP=4.25D-06 MaxDP=1.38D-04 DE=-3.60D-05 OVMax= 3.26D-04

 Initial convergence to 1.0D-05 achieved.  Increase integral accuracy.
 Cycle   8  Pass 1  IDiag  1:
 E= -788.426745363782     Delta-E=       -0.000083938407 Rises=F Damp=F
 DIIS: error= 4.89D-05 at cycle   1 NSaved=   1.
 NSaved= 1 IEnMin= 1 EnMin= -788.426745363782     IErMin= 1 ErrMin= 4.89D-05
 ErrMax= 4.89D-05  0.00D+00 EMaxC= 1.00D-01 BMatC= 5.99D-07 BMatP= 5.99D-07
 IDIUse=1 WtCom= 1.00D+00 WtEn= 0.00D+00
 Coeff-Com:  0.100D+01
 Coeff:      0.100D+01
 Gap=     0.215 Goal=   None    Shift=    0.000
 RMSDP=4.25D-06 MaxDP=1.38D-04 DE=-8.39D-05 OVMax= 4.02D-04

 Cycle   9  Pass 1  IDiag  1:
 RMSU=  3.02D-05    CP:  1.00D+00
 E= -788.426745636504     Delta-E=       -0.000000272722 Rises=F Damp=F
 DIIS: error= 2.88D-05 at cycle   2 NSaved=   2.
 NSaved= 2 IEnMin= 2 EnMin= -788.426745636504     IErMin= 2 ErrMin= 2.88D-05
 ErrMax= 2.88D-05  0.00D+00 EMaxC= 1.00D-01 BMatC= 3.56D-07 BMatP= 5.99D-07
 IDIUse=1 WtCom= 1.00D+00 WtEn= 0.00D+00
 Coeff-Com:  0.407D+00 0.593D+00
 Coeff:      0.407D+00 0.593D+00
 Gap=     0.215 Goal=   None    Shift=    0.000
 RMSDP=3.96D-06 MaxDP=1.13D-04 DE=-2.73D-07 OVMax= 4.37D-04

 Cycle  10  Pass 1  IDiag  1:
 RMSU=  3.94D-06    CP:  1.00D+00  9.88D-01
 E= -788.426745809649     Delta-E=       -0.000000173146 Rises=F Damp=F
 DIIS: error= 2.38D-05 at cycle   3 NSaved=   3.
 NSaved= 3 IEnMin= 3 EnMin= -788.426745809649     IErMin= 3 ErrMin= 2.38D-05
 ErrMax= 2.38D-05  0.00D+00 EMaxC= 1.00D-01 BMatC= 1.93D-07 BMatP= 3.56D-07
 IDIUse=1 WtCom= 1.00D+00 WtEn= 0.00D+00
 Coeff-Com:  0.299D-02 0.423D+00 0.574D+00
 Coeff:      0.299D-02 0.423D+00 0.574D+00
 Gap=     0.215 Goal=   None    Shift=    0.000
 RMSDP=1.78D-06 MaxDP=5.60D-05 DE=-1.73D-07 OVMax= 2.12D-04

 Cycle  11  Pass 1  IDiag  1:
 RMSU=  5.93D-07    CP:  1.00D+00  1.00D+00  5.88D-01
 E= -788.426746011729     Delta-E=       -0.000000202080 Rises=F Damp=F
 DIIS: error= 4.00D-06 at cycle   4 NSaved=   4.
 NSaved= 4 IEnMin= 4 EnMin= -788.426746011729     IErMin= 4 ErrMin= 4.00D-06
 ErrMax= 4.00D-06  0.00D+00 EMaxC= 1.00D-01 BMatC= 7.05D-09 BMatP= 1.93D-07
 IDIUse=1 WtCom= 1.00D+00 WtEn= 0.00D+00
 Coeff-Com: -0.975D-02 0.236D+00 0.340D+00 0.433D+00
 Coeff:     -0.975D-02 0.236D+00 0.340D+00 0.433D+00
 Gap=     0.215 Goal=   None    Shift=    0.000
 RMSDP=3.27D-07 MaxDP=1.23D-05 DE=-2.02D-07 OVMax= 2.87D-05

 Cycle  12  Pass 1  IDiag  1:
 RMSU=  1.62D-07    CP:  1.00D+00  1.00D+00  5.99D-01  5.27D-01
 E= -788.426746018692     Delta-E=       -0.000000006963 Rises=F Damp=F
 DIIS: error= 6.29D-07 at cycle   5 NSaved=   5.
 NSaved= 5 IEnMin= 5 EnMin= -788.426746018692     IErMin= 5 ErrMin= 6.29D-07
 ErrMax= 6.29D-07  0.00D+00 EMaxC= 1.00D-01 BMatC= 1.21D-10 BMatP= 7.05D-09
 IDIUse=1 WtCom= 1.00D+00 WtEn= 0.00D+00
 Coeff-Com: -0.424D-02 0.841D-01 0.120D+00 0.190D+00 0.610D+00
 Coeff:     -0.424D-02 0.841D-01 0.120D+00 0.190D+00 0.610D+00
 Gap=     0.215 Goal=   None    Shift=    0.000
 RMSDP=5.86D-08 MaxDP=1.52D-06 DE=-6.96D-09 OVMax= 5.33D-06

 Cycle  13  Pass 1  IDiag  1:
 RMSU=  4.91D-08    CP:  1.00D+00  1.00D+00  5.94D-01  5.44D-01  8.49D-01
 E= -788.426746018766     Delta-E=       -0.000000000074 Rises=F Damp=F
 DIIS: error= 2.90D-07 at cycle   6 NSaved=   6.
 NSaved= 6 IEnMin= 6 EnMin= -788.426746018766     IErMin= 6 ErrMin= 2.90D-07
 ErrMax= 2.90D-07  0.00D+00 EMaxC= 1.00D-01 BMatC= 2.55D-11 BMatP= 1.21D-10
 IDIUse=1 WtCom= 1.00D+00 WtEn= 0.00D+00
 Coeff-Com: -0.115D-02 0.172D-01 0.241D-01 0.516D-01 0.343D+00 0.565D+00
 Coeff:     -0.115D-02 0.172D-01 0.241D-01 0.516D-01 0.343D+00 0.565D+00
 Gap=     0.215 Goal=   None    Shift=    0.000
 RMSDP=2.39D-08 MaxDP=7.48D-07 DE=-7.39D-11 OVMax= 2.83D-06

 Cycle  14  Pass 1  IDiag  1:
 RMSU=  1.65D-08    CP:  1.00D+00  1.00D+00  5.93D-01  5.46D-01  9.05D-01
                    CP:  7.06D-01
 E= -788.426746018805     Delta-E=       -0.000000000039 Rises=F Damp=F
 DIIS: error= 8.90D-08 at cycle   7 NSaved=   7.
 NSaved= 7 IEnMin= 7 EnMin= -788.426746018805     IErMin= 7 ErrMin= 8.90D-08
 ErrMax= 8.90D-08  0.00D+00 EMaxC= 1.00D-01 BMatC= 3.54D-12 BMatP= 2.55D-11
 IDIUse=1 WtCom= 1.00D+00 WtEn= 0.00D+00
 Coeff-Com: -0.815D-04-0.186D-02-0.287D-02 0.364D-02 0.118D+00 0.328D+00
 Coeff-Com:  0.556D+00
 Coeff:     -0.815D-04-0.186D-02-0.287D-02 0.364D-02 0.118D+00 0.328D+00
 Coeff:      0.556D+00
 Gap=     0.215 Goal=   None    Shift=    0.000
 RMSDP=9.28D-09 MaxDP=2.48D-07 DE=-3.93D-11 OVMax= 1.01D-06

 SCF Done:  E(RB3LYP) =  -788.426746019     A.U. after   14 cycles
            NFock= 14  Conv=0.93D-08     -V/T= 2.0093
 KE= 7.811729228551D+02 PE=-4.345663007182D+03 EE= 1.520998902741D+03
 Leave Link  502 at Mon Jan 25 16:27:33 2021, MaxMem=   262144000 cpu:       234.9
 (Enter /prod/apps/gaussian/g09d1/l601.exe)
 Copying SCF densities to generalized density rwf, IOpCl= 0 IROHF=0.

 **********************************************************************

            Population analysis using the SCF density.

 **********************************************************************

 Orbital symmetries:
       Occupied  (A) (A) (A) (A) (A) (A) (A) (A) (A) (A) (A) (A)
                 (A) (A) (A) (A) (A) (A) (A) (A) (A) (A) (A) (A)
                 (A) (A) (A) (A) (A) (A) (A) (A) (A) (A) (A) (A)
                 (A) (A) (A) (A) (A) (A) (A) (A) (A) (A) (A) (A)
                 (A) (A) (A) (A) (A) (A) (A) (A) (A) (A) (A) (A)
                 (A) (A) (A) (A) (A)
       Virtual   (A) (A) (A) (A) (A) (A) (A) (A) (A) (A) (A) (A)
                 (A) (A) (A) (A) (A) (A) (A) (A) (A) (A) (A) (A)
                 (A) (A) (A) (A) (A) (A) (A) (A) (A) (A) (A) (A)
                 (A) (A) (A) (A) (A) (A) (A) (A) (A) (A) (A) (A)
                 (A) (A) (A) (A) (A) (A) (A) (A) (A) (A) (A) (A)
                 (A) (A) (A) (A) (A) (A) (A) (A) (A) (A) (A) (A)
                 (A) (A) (A) (A) (A) (A) (A) (A) (A) (A) (A) (A)
                 (A) (A) (A) (A) (A) (A) (A) (A) (A) (A) (A) (A)
                 (A) (A) (A) (A) (A) (A) (A) (A) (A) (A) (A) (A)
                 (A) (A) (A) (A) (A) (A) (A) (A) (A) (A) (A) (A)
                 (A) (A) (A) (A) (A) (A) (A) (A) (A) (A) (A) (A)
                 (A) (A) (A) (A) (A) (A) (A) (A) (A) (A) (A) (A)
                 (A) (A) (A) (A) (A) (A) (A) (A) (A) (A) (A) (A)
                 (A) (A) (A) (A) (A) (A) (A) (A) (A) (A) (A) (A)
                 (A) (A) (A) (A) (A) (A) (A) (A) (A) (A) (A) (A)
                 (A) (A) (A) (A) (A) (A) (A) (A) (A) (A) (A) (A)
                 (A) (A) (A) (A) (A) (A) (A) (A) (A) (A) (A) (A)
                 (A) (A) (A) (A) (A) (A) (A) (A) (A) (A) (A) (A)
                 (A) (A) (A) (A) (A) (A) (A) (A) (A) (A) (A) (A)
                 (A) (A) (A) (A)
 The electronic state is 1-A.
 Alpha  occ. eigenvalues --  -19.19350 -19.12543 -19.12183 -14.32890 -10.25110
 Alpha  occ. eigenvalues --  -10.23334 -10.22882 -10.22259 -10.21074 -10.19446
 Alpha  occ. eigenvalues --  -10.19273 -10.18835 -10.18552 -10.18280 -10.17793
 Alpha  occ. eigenvalues --  -10.17740 -10.17658  -1.07123  -1.00808  -0.99532
 Alpha  occ. eigenvalues --   -0.91276  -0.85301  -0.79230  -0.76586  -0.75130
 Alpha  occ. eigenvalues --   -0.70594  -0.69190  -0.68905  -0.66654  -0.63434
 Alpha  occ. eigenvalues --   -0.61339  -0.57347  -0.55617  -0.54613  -0.50239
 Alpha  occ. eigenvalues --   -0.49414  -0.48277  -0.47687  -0.46699  -0.46203
 Alpha  occ. eigenvalues --   -0.44291  -0.43820  -0.43201  -0.43081  -0.41899
 Alpha  occ. eigenvalues --   -0.41637  -0.40799  -0.39897  -0.38959  -0.38474
 Alpha  occ. eigenvalues --   -0.38005  -0.37031  -0.36358  -0.35466  -0.35035
 Alpha  occ. eigenvalues --   -0.34058  -0.33479  -0.32977  -0.31512  -0.31160
 Alpha  occ. eigenvalues --   -0.26160  -0.24979  -0.24767  -0.23646  -0.21923
 Alpha virt. eigenvalues --   -0.00466   0.00968   0.05375   0.06749   0.09520
 Alpha virt. eigenvalues --    0.10591   0.11589   0.11820   0.12776   0.13039
 Alpha virt. eigenvalues --    0.13590   0.13817   0.15002   0.15628   0.15718
 Alpha virt. eigenvalues --    0.16510   0.16799   0.18117   0.18664   0.19451
 Alpha virt. eigenvalues --    0.19800   0.20241   0.20786   0.21486   0.21907
 Alpha virt. eigenvalues --    0.23028   0.23294   0.24355   0.25461   0.25625
 Alpha virt. eigenvalues --    0.26241   0.26719   0.27606   0.28984   0.29589
 Alpha virt. eigenvalues --    0.34637   0.35796   0.37758   0.39522   0.49377
 Alpha virt. eigenvalues --    0.49505   0.49936   0.50321   0.50766   0.51439
 Alpha virt. eigenvalues --    0.53565   0.54193   0.54432   0.55270   0.56962
 Alpha virt. eigenvalues --    0.57827   0.58900   0.59254   0.60346   0.60618
 Alpha virt. eigenvalues --    0.61230   0.61836   0.63336   0.64385   0.65883
 Alpha virt. eigenvalues --    0.66801   0.67933   0.68105   0.69525   0.70391
 Alpha virt. eigenvalues --    0.72736   0.73674   0.74038   0.74567   0.74964
 Alpha virt. eigenvalues --    0.76349   0.77896   0.79878   0.80526   0.81830
 Alpha virt. eigenvalues --    0.83426   0.84401   0.85456   0.86001   0.86870
 Alpha virt. eigenvalues --    0.87685   0.87894   0.88707   0.89279   0.89588
 Alpha virt. eigenvalues --    0.90040   0.90774   0.90945   0.91285   0.92837
 Alpha virt. eigenvalues --    0.93428   0.94022   0.94618   0.94692   0.96217
 Alpha virt. eigenvalues --    0.96876   0.97435   0.98326   0.99960   1.00585
 Alpha virt. eigenvalues --    1.02212   1.02705   1.03882   1.04160   1.05790
 Alpha virt. eigenvalues --    1.08009   1.08770   1.09397   1.11905   1.17153
 Alpha virt. eigenvalues --    1.17649   1.19119   1.19959   1.22841   1.22996
 Alpha virt. eigenvalues --    1.24046   1.26899   1.29049   1.32667   1.34820
 Alpha virt. eigenvalues --    1.36973   1.38227   1.38879   1.43052   1.44112
 Alpha virt. eigenvalues --    1.46180   1.46843   1.47966   1.49136   1.51356
 Alpha virt. eigenvalues --    1.53929   1.55999   1.61922   1.62304   1.65036
 Alpha virt. eigenvalues --    1.67124   1.69214   1.71099   1.71183   1.72048
 Alpha virt. eigenvalues --    1.72724   1.74914   1.76344   1.77755   1.78441
 Alpha virt. eigenvalues --    1.79579   1.82607   1.83649   1.85110   1.85976
 Alpha virt. eigenvalues --    1.87057   1.88597   1.90163   1.90926   1.91993
 Alpha virt. eigenvalues --    1.94232   1.96219   1.97163   1.98297   1.99745
 Alpha virt. eigenvalues --    2.02849   2.04615   2.07236   2.07822   2.08782
 Alpha virt. eigenvalues --    2.09822   2.10664   2.12121   2.13260   2.14120
 Alpha virt. eigenvalues --    2.15901   2.18773   2.20472   2.24195   2.24764
 Alpha virt. eigenvalues --    2.25271   2.26352   2.26687   2.26778   2.27230
 Alpha virt. eigenvalues --    2.29702   2.31192   2.32277   2.32582   2.34251
 Alpha virt. eigenvalues --    2.37354   2.38879   2.41816   2.42562   2.44593
 Alpha virt. eigenvalues --    2.45421   2.46741   2.50354   2.54479   2.56881
 Alpha virt. eigenvalues --    2.58045   2.59075   2.61848   2.63743   2.65766
 Alpha virt. eigenvalues --    2.67448   2.71608   2.74508   2.75443   2.77425
 Alpha virt. eigenvalues --    2.81824   2.83804   2.85059   2.87348   2.92319
 Alpha virt. eigenvalues --    2.95014   2.96870   3.02193   3.16679   3.42348
 Alpha virt. eigenvalues --    3.77036   3.92749   3.97865   3.98667   4.11405
 Alpha virt. eigenvalues --    4.13583   4.20185   4.23137   4.30410   4.31159
 Alpha virt. eigenvalues --    4.32550   4.34766   4.45122   4.47438   4.56997
 Alpha virt. eigenvalues --    4.66945   4.77775
          Condensed to atoms (all electrons):
               1          2          3          4          5          6
     1  C    5.160986   0.363905   0.363662   0.364707   0.395236  -0.068729
     2  H    0.363905   0.559578  -0.030458  -0.026731  -0.027047   0.006520
     3  H    0.363662  -0.030458   0.579138  -0.029327  -0.026788  -0.006919
     4  H    0.364707  -0.026731  -0.029327   0.569979  -0.027594  -0.000959
     5  C    0.395236  -0.027047  -0.026788  -0.027594   4.626313   0.373696
     6  C   -0.068729   0.006520  -0.006919  -0.000959   0.373696   5.213645
     7  H   -0.005848  -0.000077   0.004468  -0.000118  -0.027228   0.361655
     8  H    0.005503  -0.000195  -0.000058  -0.000014  -0.027284   0.367130
     9  H   -0.002708  -0.000129   0.000111   0.001851  -0.023393   0.356959
    10  C   -0.055046  -0.007031   0.005909  -0.005388   0.388364  -0.077729
    11  H    0.005515  -0.000057  -0.000197  -0.000046  -0.027341  -0.005278
    12  H   -0.005942   0.004502  -0.000079   0.000128  -0.026324   0.006145
    13  H   -0.005923   0.000194  -0.000015   0.003676  -0.027581  -0.001342
    14  N   -0.063049   0.001925  -0.005113   0.004684   0.317529  -0.069507
    15  H   -0.006522  -0.000541   0.006619  -0.000195  -0.031237  -0.003785
    16  C    0.005197  -0.000102   0.000031  -0.000178  -0.035442  -0.006773
    17  H    0.000159  -0.000020   0.000004  -0.000001  -0.005615  -0.002389
    18  H   -0.000029   0.000018  -0.000030   0.000009  -0.005514   0.004995
    19  C   -0.000184  -0.000021   0.000002   0.000002   0.005092  -0.000016
    20  O   -0.000011  -0.000029   0.000002   0.000000   0.000023  -0.000019
    21  H   -0.000172   0.000529  -0.000035   0.000004  -0.001534   0.000312
    22  H    0.000003   0.000000   0.000000   0.000000  -0.000095   0.000009
    23  C   -0.000014   0.000001  -0.000006   0.000000  -0.000096  -0.000042
    24  C    0.000004   0.000002  -0.000003   0.000000   0.000004   0.000002
    25  H    0.000000   0.000000   0.000000   0.000000   0.000008   0.000000
    26  C    0.000000   0.000000   0.000000   0.000000   0.000001   0.000000
    27  C    0.000000   0.000000   0.000000   0.000000   0.000000   0.000000
    28  O    0.000000   0.000000   0.000000   0.000000   0.000000   0.000000
    29  H    0.000000   0.000000   0.000000   0.000000   0.000000   0.000000
    30  H    0.000000   0.000000   0.000000   0.000000   0.000000   0.000000
    31  H    0.000000   0.000000   0.000000   0.000000   0.000000   0.000000
    32  C    0.000000   0.000000   0.000000   0.000000   0.000000   0.000000
    33  O    0.000000   0.000000   0.000000   0.000000   0.000000   0.000000
    34  H    0.000000   0.000000   0.000000   0.000000   0.000000   0.000000
    35  C    0.000000   0.000000   0.000000   0.000000  -0.000001   0.000000
    36  H    0.000000   0.000000   0.000000   0.000000   0.000000   0.000000
    37  C    0.000000   0.000000   0.000000   0.000000   0.000014  -0.000013
    38  H    0.000000   0.000000   0.000000   0.000000   0.000002   0.000000
               7          8          9         10         11         12
     1  C   -0.005848   0.005503  -0.002708  -0.055046   0.005515  -0.005942
     2  H   -0.000077  -0.000195  -0.000129  -0.007031  -0.000057   0.004502
     3  H    0.004468  -0.000058   0.000111   0.005909  -0.000197  -0.000079
     4  H   -0.000118  -0.000014   0.001851  -0.005388  -0.000046   0.000128
     5  C   -0.027228  -0.027284  -0.023393   0.388364  -0.027341  -0.026324
     6  C    0.361655   0.367130   0.356959  -0.077729  -0.005278   0.006145
     7  H    0.581091  -0.031532  -0.028005   0.005860  -0.000047  -0.000199
     8  H   -0.031532   0.571594  -0.029598  -0.004659   0.003483  -0.000052
     9  H   -0.028005  -0.029598   0.576446  -0.001998   0.000045  -0.000083
    10  C    0.005860  -0.004659  -0.001998   5.169094   0.365737   0.363089
    11  H   -0.000047   0.003483   0.000045   0.365737   0.572636  -0.030168
    12  H   -0.000199  -0.000052  -0.000083   0.363089  -0.030168   0.558871
    13  H   -0.000061  -0.000035   0.001937   0.363335  -0.029682  -0.026538
    14  N   -0.001213  -0.005582   0.004771  -0.071281  -0.003534   0.001466
    15  H    0.003811  -0.000207  -0.000087   0.007244  -0.000155  -0.000097
    16  C   -0.000255   0.003130   0.000215  -0.006746  -0.000064   0.000011
    17  H    0.000149   0.000425  -0.000006   0.004754   0.004803  -0.000045
    18  H    0.000026   0.001855  -0.000205  -0.000393  -0.000027   0.000093
    19  C   -0.000024  -0.000010   0.000002   0.000045  -0.000099  -0.000147
    20  O    0.000001  -0.000001   0.000000   0.000120  -0.000011   0.000022
    21  H   -0.000009  -0.000002  -0.000004  -0.000834  -0.000029   0.001347
    22  H    0.000000   0.000005   0.000000  -0.000012   0.000011   0.000000
    23  C    0.000003   0.000010   0.000000   0.000001  -0.000006   0.000004
    24  C   -0.000001   0.000000   0.000000  -0.000002   0.000000   0.000000
    25  H    0.000000   0.000000   0.000000   0.000000   0.000000  -0.000001
    26  C    0.000000   0.000000   0.000000   0.000000   0.000000   0.000000
    27  C    0.000000   0.000000   0.000000   0.000000   0.000000   0.000000
    28  O    0.000000   0.000000   0.000000   0.000000   0.000000   0.000000
    29  H    0.000000   0.000000   0.000000   0.000000   0.000000   0.000000
    30  H    0.000000   0.000000   0.000000   0.000000   0.000000   0.000000
    31  H    0.000000   0.000000   0.000000   0.000000   0.000000   0.000000
    32  C    0.000000   0.000000   0.000000   0.000000   0.000000   0.000000
    33  O    0.000000   0.000000   0.000000   0.000000   0.000000   0.000000
    34  H    0.000000   0.000000   0.000000   0.000000   0.000000   0.000000
    35  C    0.000000   0.000000   0.000000   0.000000   0.000000   0.000000
    36  H    0.000000   0.000000   0.000000   0.000000   0.000000   0.000000
    37  C    0.000009  -0.000007   0.000000  -0.000001   0.000000   0.000000
    38  H   -0.000001  -0.000010   0.000000   0.000000   0.000000   0.000000
              13         14         15         16         17         18
     1  C   -0.005923  -0.063049  -0.006522   0.005197   0.000159  -0.000029
     2  H    0.000194   0.001925  -0.000541  -0.000102  -0.000020   0.000018
     3  H   -0.000015  -0.005113   0.006619   0.000031   0.000004  -0.000030
     4  H    0.003676   0.004684  -0.000195  -0.000178  -0.000001   0.000009
     5  C   -0.027581   0.317529  -0.031237  -0.035442  -0.005615  -0.005514
     6  C   -0.001342  -0.069507  -0.003785  -0.006773  -0.002389   0.004995
     7  H   -0.000061  -0.001213   0.003811  -0.000255   0.000149   0.000026
     8  H   -0.000035  -0.005582  -0.000207   0.003130   0.000425   0.001855
     9  H    0.001937   0.004771  -0.000087   0.000215  -0.000006  -0.000205
    10  C    0.363335  -0.071281   0.007244  -0.006746   0.004754  -0.000393
    11  H   -0.029682  -0.003534  -0.000155  -0.000064   0.004803  -0.000027
    12  H   -0.026538   0.001466  -0.000097   0.000011  -0.000045   0.000093
    13  H    0.574677   0.004497  -0.000188   0.000119  -0.000211   0.000016
    14  N    0.004497   7.009945   0.287950   0.285470  -0.047173  -0.039851
    15  H   -0.000188   0.287950   0.462015  -0.041473   0.007079  -0.005937
    16  C    0.000119   0.285470  -0.041473   5.065610   0.364310   0.346541
    17  H   -0.000211  -0.047173   0.007079   0.364310   0.585048  -0.041772
    18  H    0.000016  -0.039851  -0.005937   0.346541  -0.041772   0.643950
    19  C    0.000000  -0.046031  -0.003660   0.326029  -0.024531  -0.041217
    20  O    0.000000  -0.027455   0.000856  -0.035316   0.001918   0.002834
    21  H    0.000014   0.065752  -0.001786  -0.025782  -0.001620   0.002110
    22  H    0.000000   0.004584   0.000091  -0.048896  -0.005844   0.002080
    23  C    0.000000  -0.013905   0.011077  -0.039131   0.006157  -0.005015
    24  C    0.000000   0.001270   0.002033   0.000106  -0.000106  -0.000338
    25  H    0.000000   0.000022  -0.000017   0.000694  -0.000021  -0.000066
    26  C    0.000000   0.000028  -0.000086  -0.000184   0.000001  -0.000014
    27  C    0.000000   0.000000   0.000000   0.000001   0.000000   0.000000
    28  O    0.000000   0.000000   0.000000   0.000000   0.000000   0.000000
    29  H    0.000000   0.000000   0.000000   0.000000   0.000000   0.000000
    30  H    0.000000   0.000000   0.000000   0.000000   0.000000   0.000000
    31  H    0.000000   0.000000   0.000000   0.000000   0.000000   0.000000
    32  C    0.000000   0.000004  -0.000036   0.000022   0.000000  -0.000007
    33  O    0.000000   0.000000   0.000000   0.000000   0.000000   0.000000
    34  H    0.000000   0.000000   0.000000   0.000000   0.000000   0.000000
    35  C    0.000000  -0.000028  -0.000124   0.000098   0.000002   0.000167
    36  H    0.000000   0.000000  -0.000001   0.000001   0.000000   0.000002
    37  C    0.000000  -0.000524   0.001126  -0.003406   0.000079   0.003049
    38  H    0.000000   0.000076  -0.000039   0.001162  -0.000196   0.003434
              19         20         21         22         23         24
     1  C   -0.000184  -0.000011  -0.000172   0.000003  -0.000014   0.000004
     2  H   -0.000021  -0.000029   0.000529   0.000000   0.000001   0.000002
     3  H    0.000002   0.000002  -0.000035   0.000000  -0.000006  -0.000003
     4  H    0.000002   0.000000   0.000004   0.000000   0.000000   0.000000
     5  C    0.005092   0.000023  -0.001534  -0.000095  -0.000096   0.000004
     6  C   -0.000016  -0.000019   0.000312   0.000009  -0.000042   0.000002
     7  H   -0.000024   0.000001  -0.000009   0.000000   0.000003  -0.000001
     8  H   -0.000010  -0.000001  -0.000002   0.000005   0.000010   0.000000
     9  H    0.000002   0.000000  -0.000004   0.000000   0.000000   0.000000
    10  C    0.000045   0.000120  -0.000834  -0.000012   0.000001  -0.000002
    11  H   -0.000099  -0.000011  -0.000029   0.000011  -0.000006   0.000000
    12  H   -0.000147   0.000022   0.001347   0.000000   0.000004   0.000000
    13  H    0.000000   0.000000   0.000014   0.000000   0.000000   0.000000
    14  N   -0.046031  -0.027455   0.065752   0.004584  -0.013905   0.001270
    15  H   -0.003660   0.000856  -0.001786   0.000091   0.011077   0.002033
    16  C    0.326029  -0.035316  -0.025782  -0.048896  -0.039131   0.000106
    17  H   -0.024531   0.001918  -0.001620  -0.005844   0.006157  -0.000106
    18  H   -0.041217   0.002834   0.002110   0.002080  -0.005015  -0.000338
    19  C    4.909459   0.275378  -0.043956   0.379072   0.294627  -0.039317
    20  O    0.275378   8.279788   0.222697  -0.040952  -0.059491  -0.002397
    21  H   -0.043956   0.222697   0.373518   0.007689  -0.001409   0.001278
    22  H    0.379072  -0.040952   0.007689   0.618984  -0.060938   0.001681
    23  C    0.294627  -0.059491  -0.001409  -0.060938   4.883871   0.510463
    24  C   -0.039317  -0.002397   0.001278   0.001681   0.510463   5.098323
    25  H   -0.014337   0.023488  -0.000888   0.000424  -0.042941   0.342566
    26  C    0.006361   0.001262  -0.000039  -0.000019  -0.024018   0.492304
    27  C   -0.000144  -0.000008   0.000001   0.000002   0.005533  -0.040495
    28  O    0.000000   0.000000   0.000000   0.000000  -0.000023   0.000851
    29  H    0.000000   0.000000   0.000000   0.000000   0.000026  -0.000020
    30  H   -0.000008  -0.000006   0.000000   0.000000   0.000239  -0.003088
    31  H    0.000004   0.000000   0.000000   0.000000  -0.000290   0.003195
    32  C    0.000421  -0.000006  -0.000004   0.000011  -0.040492  -0.024287
    33  O    0.000000   0.000000   0.000000   0.000000   0.000162   0.003276
    34  H   -0.000001   0.000000   0.000000   0.000000  -0.000042  -0.000072
    35  C    0.004801  -0.000066   0.000009  -0.000175  -0.013104  -0.054305
    36  H   -0.000131   0.000000   0.000000   0.000002   0.003033   0.000926
    37  C   -0.055827   0.002439  -0.000014  -0.001302   0.504698  -0.041093
    38  H   -0.006430   0.000028   0.000002   0.002794  -0.047349   0.006321
              25         26         27         28         29         30
     1  C    0.000000   0.000000   0.000000   0.000000   0.000000   0.000000
     2  H    0.000000   0.000000   0.000000   0.000000   0.000000   0.000000
     3  H    0.000000   0.000000   0.000000   0.000000   0.000000   0.000000
     4  H    0.000000   0.000000   0.000000   0.000000   0.000000   0.000000
     5  C    0.000008   0.000001   0.000000   0.000000   0.000000   0.000000
     6  C    0.000000   0.000000   0.000000   0.000000   0.000000   0.000000
     7  H    0.000000   0.000000   0.000000   0.000000   0.000000   0.000000
     8  H    0.000000   0.000000   0.000000   0.000000   0.000000   0.000000
     9  H    0.000000   0.000000   0.000000   0.000000   0.000000   0.000000
    10  C    0.000000   0.000000   0.000000   0.000000   0.000000   0.000000
    11  H    0.000000   0.000000   0.000000   0.000000   0.000000   0.000000
    12  H   -0.000001   0.000000   0.000000   0.000000   0.000000   0.000000
    13  H    0.000000   0.000000   0.000000   0.000000   0.000000   0.000000
    14  N    0.000022   0.000028   0.000000   0.000000   0.000000   0.000000
    15  H   -0.000017  -0.000086   0.000000   0.000000   0.000000   0.000000
    16  C    0.000694  -0.000184   0.000001   0.000000   0.000000   0.000000
    17  H   -0.000021   0.000001   0.000000   0.000000   0.000000   0.000000
    18  H   -0.000066  -0.000014   0.000000   0.000000   0.000000   0.000000
    19  C   -0.014337   0.006361  -0.000144   0.000000   0.000000  -0.000008
    20  O    0.023488   0.001262  -0.000008   0.000000   0.000000  -0.000006
    21  H   -0.000888  -0.000039   0.000001   0.000000   0.000000   0.000000
    22  H    0.000424  -0.000019   0.000002   0.000000   0.000000   0.000000
    23  C   -0.042941  -0.024018   0.005533  -0.000023   0.000026   0.000239
    24  C    0.342566   0.492304  -0.040495   0.000851  -0.000020  -0.003088
    25  H    0.580265  -0.045604  -0.008391   0.000038   0.000003   0.006574
    26  C   -0.045604   4.916905   0.291147  -0.040773  -0.011930  -0.038352
    27  C   -0.008391   0.291147   4.952077   0.262638  -0.030413   0.371151
    28  O    0.000038  -0.040773   0.262638   8.261457   0.237717  -0.036024
    29  H    0.000003  -0.011930  -0.030413   0.237717   0.364649   0.006452
    30  H    0.006574  -0.038352   0.371151  -0.036024   0.006452   0.581937
    31  H    0.000168  -0.042808   0.350386  -0.038879  -0.005218  -0.043871
    32  C    0.005742   0.499659  -0.054352  -0.004981   0.002608   0.005053
    33  O   -0.000053  -0.058809  -0.002897  -0.009797   0.025774   0.000121
    34  H    0.000006   0.007080  -0.000342   0.000373  -0.000539   0.000010
    35  C    0.000043  -0.051028   0.008676   0.000267   0.000210  -0.000186
    36  H    0.000018   0.005086  -0.000165   0.000007   0.000004   0.000002
    37  C    0.007738  -0.039991   0.000027  -0.000031  -0.000026   0.000012
    38  H   -0.000169   0.000627   0.000008   0.000000   0.000000   0.000000
              31         32         33         34         35         36
     1  C    0.000000   0.000000   0.000000   0.000000   0.000000   0.000000
     2  H    0.000000   0.000000   0.000000   0.000000   0.000000   0.000000
     3  H    0.000000   0.000000   0.000000   0.000000   0.000000   0.000000
     4  H    0.000000   0.000000   0.000000   0.000000   0.000000   0.000000
     5  C    0.000000   0.000000   0.000000   0.000000  -0.000001   0.000000
     6  C    0.000000   0.000000   0.000000   0.000000   0.000000   0.000000
     7  H    0.000000   0.000000   0.000000   0.000000   0.000000   0.000000
     8  H    0.000000   0.000000   0.000000   0.000000   0.000000   0.000000
     9  H    0.000000   0.000000   0.000000   0.000000   0.000000   0.000000
    10  C    0.000000   0.000000   0.000000   0.000000   0.000000   0.000000
    11  H    0.000000   0.000000   0.000000   0.000000   0.000000   0.000000
    12  H    0.000000   0.000000   0.000000   0.000000   0.000000   0.000000
    13  H    0.000000   0.000000   0.000000   0.000000   0.000000   0.000000
    14  N    0.000000   0.000004   0.000000   0.000000  -0.000028   0.000000
    15  H    0.000000  -0.000036   0.000000   0.000000  -0.000124  -0.000001
    16  C    0.000000   0.000022   0.000000   0.000000   0.000098   0.000001
    17  H    0.000000   0.000000   0.000000   0.000000   0.000002   0.000000
    18  H    0.000000  -0.000007   0.000000   0.000000   0.000167   0.000002
    19  C    0.000004   0.000421   0.000000  -0.000001   0.004801  -0.000131
    20  O    0.000000  -0.000006   0.000000   0.000000  -0.000066   0.000000
    21  H    0.000000  -0.000004   0.000000   0.000000   0.000009   0.000000
    22  H    0.000000   0.000011   0.000000   0.000000  -0.000175   0.000002
    23  C   -0.000290  -0.040492   0.000162  -0.000042  -0.013104   0.003033
    24  C    0.003195  -0.024287   0.003276  -0.000072  -0.054305   0.000926
    25  H    0.000168   0.005742  -0.000053   0.000006   0.000043   0.000018
    26  C   -0.042808   0.499659  -0.058809   0.007080  -0.051028   0.005086
    27  C    0.350386  -0.054352  -0.002897  -0.000342   0.008676  -0.000165
    28  O   -0.038879  -0.004981  -0.009797   0.000373   0.000267   0.000007
    29  H   -0.005218   0.002608   0.025774  -0.000539   0.000210   0.000004
    30  H   -0.043871   0.005053   0.000121   0.000010  -0.000186   0.000002
    31  H    0.650757  -0.010102   0.001947  -0.000112   0.000030   0.000008
    32  C   -0.010102   4.658096   0.260017  -0.027017   0.483055  -0.044566
    33  O    0.001947   0.260017   8.271143   0.242064  -0.063000  -0.005055
    34  H   -0.000112  -0.027017   0.242064   0.362254  -0.005398   0.007602
    35  C    0.000030   0.483055  -0.063000  -0.005398   5.098971   0.339451
    36  H    0.000008  -0.044566  -0.005055   0.007602   0.339451   0.614370
    37  C   -0.000021  -0.007705   0.004224   0.000380   0.478285  -0.031866
    38  H    0.000000   0.003456  -0.000055  -0.000014  -0.040950  -0.005783
              37         38
     1  C    0.000000   0.000000
     2  H    0.000000   0.000000
     3  H    0.000000   0.000000
     4  H    0.000000   0.000000
     5  C    0.000014   0.000002
     6  C   -0.000013   0.000000
     7  H    0.000009  -0.000001
     8  H   -0.000007  -0.000010
     9  H    0.000000   0.000000
    10  C   -0.000001   0.000000
    11  H    0.000000   0.000000
    12  H    0.000000   0.000000
    13  H    0.000000   0.000000
    14  N   -0.000524   0.000076
    15  H    0.001126  -0.000039
    16  C   -0.003406   0.001162
    17  H    0.000079  -0.000196
    18  H    0.003049   0.003434
    19  C   -0.055827  -0.006430
    20  O    0.002439   0.000028
    21  H   -0.000014   0.000002
    22  H   -0.001302   0.002794
    23  C    0.504698  -0.047349
    24  C   -0.041093   0.006321
    25  H    0.007738  -0.000169
    26  C   -0.039991   0.000627
    27  C    0.000027   0.000008
    28  O   -0.000031   0.000000
    29  H   -0.000026   0.000000
    30  H    0.000012   0.000000
    31  H   -0.000021   0.000000
    32  C   -0.007705   0.003456
    33  O    0.004224  -0.000055
    34  H    0.000380  -0.000014
    35  C    0.478285  -0.040950
    36  H   -0.031866  -0.005783
    37  C    5.024242   0.351039
    38  H    0.351039   0.608360
 Mulliken charges:
               1
     1  C   -0.450700
     2  H    0.155263
     3  H    0.139086
     4  H    0.145513
     5  C    0.213832
     6  C   -0.447568
     7  H    0.137548
     8  H    0.146113
     9  H    0.143881
    10  C   -0.442431
    11  H    0.144512
    12  H    0.153997
    13  H    0.143111
    14  N   -0.595727
    15  H    0.306272
    16  C   -0.154999
    17  H    0.154664
    18  H    0.129235
    19  C    0.074796
    20  O   -0.645089
    21  H    0.402853
    22  H    0.140793
    23  C    0.128407
    24  C   -0.259081
    25  H    0.144692
    26  C    0.133193
    27  C   -0.104441
    28  O   -0.632841
    29  H    0.410702
    30  H    0.149984
    31  H    0.134806
    32  C    0.295411
    33  O   -0.669063
    34  H    0.413766
    35  C   -0.185699
    36  H    0.117053
    37  C   -0.195533
    38  H    0.123689
 Sum of Mulliken charges =   0.00000
 Mulliken charges with hydrogens summed into heavy atoms:
               1
     1  C   -0.010838
     5  C    0.213832
     6  C   -0.020027
    10  C   -0.000812
    14  N   -0.289455
    16  C    0.128901
    19  C    0.215589
    20  O   -0.242235
    23  C    0.128407
    24  C   -0.114389
    26  C    0.133193
    27  C    0.180349
    28  O   -0.222139
    32  C    0.295411
    33  O   -0.255297
    35  C   -0.068646
    37  C   -0.071844
 Electronic spatial extent (au):  <R**2>=           5645.2750
 Charge=              0.0000 electrons
 Dipole moment (field-independent basis, Debye):
    X=              1.2346    Y=             -1.9722    Z=             -4.0161  Tot=              4.6414
 Quadrupole moment (field-independent basis, Debye-Ang):
   XX=            -94.5352   YY=           -107.2045   ZZ=           -101.7240
   XY=              9.9702   XZ=              6.4992   YZ=              5.1775
 Traceless Quadrupole moment (field-independent basis, Debye-Ang):
   XX=              6.6194   YY=             -6.0499   ZZ=             -0.5695
   XY=              9.9702   XZ=              6.4992   YZ=              5.1775
 Octapole moment (field-independent basis, Debye-Ang**2):
  XXX=            -21.1491  YYY=            -20.2742  ZZZ=            -24.7668  XYY=             23.2449
  XXY=            -27.7123  XXZ=            -44.8575  XZZ=            -43.1730  YZZ=             10.1443
  YYZ=             -7.3015  XYZ=             -5.6858
 Hexadecapole moment (field-independent basis, Debye-Ang**3):
 XXXX=          -5190.4190 YYYY=          -1140.4311 ZZZZ=           -870.7730 XXXY=            122.1437
 XXXZ=            214.4093 YYYX=             30.6045 YYYZ=             -8.6224 ZZZX=             88.4143
 ZZZY=             43.0379 XXYY=          -1162.5462 XXZZ=           -920.9566 YYZZ=           -310.0560
 XXYZ=             10.0126 YYXZ=             36.4150 ZZXY=             13.3101
 N-N= 1.255064435568D+03 E-N=-4.345663026960D+03  KE= 7.811729228551D+02
 No NMR shielding tensors so no spin-rotation constants.
 Leave Link  601 at Mon Jan 25 16:27:33 2021, MaxMem=   262144000 cpu:         0.3
 (Enter /prod/apps/gaussian/g09d1/l9999.exe)
 1\1\GINC-PIRINEUS50\SP\RB3LYP\6-31G(d)\C13H21N1O3\UBAFAR01\25-Jan-2021
 \0\\#p b3lyp/6-31G(d)\\SET_328_BBB301_conf1.geo_090_285_255.n.pdb.xyz\
 \0,1\C,0,-0.497,-2.833,-2.079\H,0,0.23,-3.392,-1.483\H,0,0.043,-2.059,
 -2.636\H,0,-0.945,-3.514,-2.806\C,0,-1.573,-2.214,-1.176\C,0,-2.578,-1
 .419,-2.032\H,0,-2.066,-0.643,-2.611\H,0,-3.327,-0.928,-1.405\H,0,-3.1
 04,-2.071,-2.736\C,0,-2.297,-3.332,-0.408\H,0,-3.101,-2.943,0.225\H,0,
 -1.593,-3.877,0.23\H,0,-2.748,-4.04,-1.109\N,0,-0.857,-1.34,-0.212\H,0
 ,-0.244,-0.718,-0.739\C,0,-1.665,-0.528,0.699\H,0,-2.416,-1.174,1.16\H
 ,0,-2.194,0.305,0.215\C,0,-0.735,-0.005,1.814\O,0,-0.002,-1.1,2.334\H,
 0,0.114,-1.682,1.55\H,0,-1.362,0.38,2.63\C,0,0.173,1.122,1.329\C,0,1.5
 64,0.977,1.334\H,0,1.98,0.046,1.703\C,0,2.418,1.992,0.901\C,0,3.925,1.
 84,0.923\O,0,4.537,2.08,-0.342\H,0,4.293,2.991,-0.579\H,0,4.181,0.814,
 1.201\H,0,4.354,2.505,1.69\C,0,1.848,3.191,0.444\O,0,2.722,4.168,0.028
 \H,0,2.231,4.943,-0.285\C,0,0.463,3.361,0.427\H,0,0.035,4.293,0.071\C,
 0,-0.364,2.33,0.871\H,0,-1.441,2.477,0.859\\Version=AM64L-G09RevD.01\S
 tate=1-A\HF=-788.426746\RMSD=9.281e-09\Dipole=-1.3984522,0.8051003,-0.
 8548065\Quadrupole=-6.8174316,11.8825687,-5.0651371,0.8125818,2.664497
 ,1.001575\PG=C01 [X(C13H21N1O3)]\\@


 IF GOD HAD MEANT MAN TO SEE THE SUN RISE, HE
 WOULD HAVE SCHEDULED IT FOR A LATER HOUR.
 Job cpu time:       0 days  0 hours  4 minutes  0.8 seconds.
 File lengths (MBytes):  RWF=     50 Int=      0 D2E=      0 Chk=      4 Scr=      1
 Normal termination of Gaussian 09 at Mon Jan 25 16:27:33 2021.
 Initial command:
 /prod/apps/gaussian/g09d1/l1.exe "/tmp/ubafar01/1643614/Gau-219688.inp" -scrdir="/tmp/ubafar01/1643614/"
 Entering Link 1 = /prod/apps/gaussian/g09d1/l1.exe PID=    219892.
  
 Copyright (c) 1988,1990,1992,1993,1995,1998,2003,2009,2013,
            Gaussian, Inc.  All Rights Reserved.
  
 This is part of the Gaussian(R) 09 program.  It is based on
 the Gaussian(R) 03 system (copyright 2003, Gaussian, Inc.),
 the Gaussian(R) 98 system (copyright 1998, Gaussian, Inc.),
 the Gaussian(R) 94 system (copyright 1995, Gaussian, Inc.),
 the Gaussian 92(TM) system (copyright 1992, Gaussian, Inc.),
 the Gaussian 90(TM) system (copyright 1990, Gaussian, Inc.),
 the Gaussian 88(TM) system (copyright 1988, Gaussian, Inc.),
 the Gaussian 86(TM) system (copyright 1986, Carnegie Mellon
 University), and the Gaussian 82(TM) system (copyright 1983,
 Carnegie Mellon University). Gaussian is a federally registered
 trademark of Gaussian, Inc.
  
 This software contains proprietary and confidential information,
 including trade secrets, belonging to Gaussian, Inc.
  
 This software is provided under written license and may be
 used, copied, transmitted, or stored only in accord with that
 written license.
  
 The following legend is applicable only to US Government
 contracts under FAR:
  
                    RESTRICTED RIGHTS LEGEND
  
 Use, reproduction and disclosure by the US Government is
 subject to restrictions as set forth in subparagraphs (a)
 and (c) of the Commercial Computer Software - Restricted
 Rights clause in FAR 52.227-19.
  
 Gaussian, Inc.
 340 Quinnipiac St., Bldg. 40, Wallingford CT 06492
  
  
 ---------------------------------------------------------------
 Warning -- This program may not be used in any manner that
 competes with the business of Gaussian, Inc. or will provide
 assistance to any competitor of Gaussian, Inc.  The licensee
 of this program is prohibited from giving any competitor of
 Gaussian, Inc. access to this program.  By using this program,
 the user acknowledges that Gaussian, Inc. is engaged in the
 business of creating and licensing software in the field of
 computational chemistry and represents and warrants to the
 licensee that it is not a competitor of Gaussian, Inc. and that
 it will not use this program in any manner prohibited above.
 ---------------------------------------------------------------
  

 Cite this work as:
 Gaussian 09, Revision D.01,
 M. J. Frisch, G. W. Trucks, H. B. Schlegel, G. E. Scuseria, 
 M. A. Robb, J. R. Cheeseman, G. Scalmani, V. Barone, B. Mennucci, 
 G. A. Petersson, H. Nakatsuji, M. Caricato, X. Li, H. P. Hratchian, 
 A. F. Izmaylov, J. Bloino, G. Zheng, J. L. Sonnenberg, M. Hada, 
 M. Ehara, K. Toyota, R. Fukuda, J. Hasegawa, M. Ishida, T. Nakajima, 
 Y. Honda, O. Kitao, H. Nakai, T. Vreven, J. A. Montgomery, Jr., 
 J. E. Peralta, F. Ogliaro, M. Bearpark, J. J. Heyd, E. Brothers, 
 K. N. Kudin, V. N. Staroverov, T. Keith, R. Kobayashi, J. Normand, 
 K. Raghavachari, A. Rendell, J. C. Burant, S. S. Iyengar, J. Tomasi, 
 M. Cossi, N. Rega, J. M. Millam, M. Klene, J. E. Knox, J. B. Cross, 
 V. Bakken, C. Adamo, J. Jaramillo, R. Gomperts, R. E. Stratmann, 
 O. Yazyev, A. J. Austin, R. Cammi, C. Pomelli, J. W. Ochterski, 
 R. L. Martin, K. Morokuma, V. G. Zakrzewski, G. A. Voth, 
 P. Salvador, J. J. Dannenberg, S. Dapprich, A. D. Daniels, 
 O. Farkas, J. B. Foresman, J. V. Ortiz, J. Cioslowski, 
 and D. J. Fox, Gaussian, Inc., Wallingford CT, 2013.
 
 ******************************************
 Gaussian 09:  AM64L-G09RevD.01 24-Apr-2013
                25-Jan-2021 
 ******************************************
 %nproc=1
 Will use up to    1 processors via shared memory.
 %Chk=SET_328_BBB301_conf1.geo_090_285_255.n.pdb.xyz.mst.n.o.chk
 %mem=2000MB
 %subst l301 /dades/curu/work_g09D01_MST_AddSphPartition_ReadGammas/exe-dir/
 %subst l502 /dades/curu/work_g09D01_MST_AddSphPartition_ReadGammas/exe-dir/
 ----------------------------------------------------------------------
 #p b3lyp/6-31G(d) scrf=(iefpcm,read,solvent=n-Octanol) geom=allcheck g
 uess=read
 ----------------------------------------------------------------------
 1/29=7,38=1,40=2/1;
 2/12=2,40=1/2;
 3/5=1,6=6,7=1,11=2,14=-4,16=1,25=1,30=1,70=2203,72=25,74=-5,116=-2/1,2,3;
 4/5=1/1;
 5/5=2,38=6,53=25/2;
 6/7=2,8=2,9=2,10=2,28=1/1;
 99/5=1,9=1/99;
 Leave Link    1 at Mon Jan 25 16:27:33 2021, MaxMem=   262144000 cpu:         0.0
 (Enter /prod/apps/gaussian/g09d1/l101.exe)
 Structure from the checkpoint file:  "SET_328_BBB301_conf1.geo_090_285_255.n.pdb.xyz.mst.n.o.chk"
 ----------------------------------------------
 SET_328_BBB301_conf1.geo_090_285_255.n.pdb.xyz
 ----------------------------------------------
 Charge =  0 Multiplicity = 1
 Z-Matrix found in file.
 C,0,-0.497,-2.833,-2.079
 H,0,0.23,-3.392,-1.483
 H,0,0.043,-2.059,-2.636
 H,0,-0.945,-3.514,-2.806
 C,0,-1.573,-2.214,-1.176
 C,0,-2.578,-1.419,-2.032
 H,0,-2.066,-0.643,-2.611
 H,0,-3.327,-0.928,-1.405
 H,0,-3.104,-2.071,-2.736
 C,0,-2.297,-3.332,-0.408
 H,0,-3.101,-2.943,0.225
 H,0,-1.593,-3.877,0.23
 H,0,-2.748,-4.04,-1.109
 N,0,-0.857,-1.34,-0.212
 H,0,-0.244,-0.718,-0.739
 C,0,-1.665,-0.528,0.699
 H,0,-2.416,-1.174,1.16
 H,0,-2.194,0.305,0.215
 C,0,-0.735,-0.005,1.814
 O,0,-0.002,-1.1,2.334
 H,0,0.114,-1.682,1.55
 H,0,-1.362,0.38,2.63
 C,0,0.173,1.122,1.329
 C,0,1.564,0.977,1.334
 H,0,1.98,0.046,1.703
 C,0,2.418,1.992,0.901
 C,0,3.925,1.84,0.923
 O,0,4.537,2.08,-0.342
 H,0,4.293,2.991,-0.579
 H,0,4.181,0.814,1.201
 H,0,4.354,2.505,1.69
 C,0,1.848,3.191,0.444
 O,0,2.722,4.168,0.028
 H,0,2.231,4.943,-0.285
 C,0,0.463,3.361,0.427
 H,0,0.035,4.293,0.071
 C,0,-0.364,2.33,0.871
 H,0,-1.441,2.477,0.859
 Recover connectivity data from disk.
 NAtoms=     38 NQM=       38 NQMF=       0 NMMI=      0 NMMIF=      0
                NMic=       0 NMicF=      0.
                    Isotopes and Nuclear Properties:
 (Nuclear quadrupole moments (NQMom) in fm**2, nuclear magnetic moments (NMagM)
  in nuclear magnetons)

  Atom         1           2           3           4           5           6           7           8           9          10
 IAtWgt=          12           1           1           1          12          12           1           1           1          12
 AtmWgt=  12.0000000   1.0078250   1.0078250   1.0078250  12.0000000  12.0000000   1.0078250   1.0078250   1.0078250  12.0000000
 NucSpn=           0           1           1           1           0           0           1           1           1           0
 AtZEff=  -3.6000000  -1.0000000  -1.0000000  -1.0000000  -3.6000000  -3.6000000  -1.0000000  -1.0000000  -1.0000000  -3.6000000
 NQMom=    0.0000000   0.0000000   0.0000000   0.0000000   0.0000000   0.0000000   0.0000000   0.0000000   0.0000000   0.0000000
 NMagM=    0.0000000   2.7928460   2.7928460   2.7928460   0.0000000   0.0000000   2.7928460   2.7928460   2.7928460   0.0000000
 AtZNuc=   6.0000000   1.0000000   1.0000000   1.0000000   6.0000000   6.0000000   1.0000000   1.0000000   1.0000000   6.0000000

  Atom        11          12          13          14          15          16          17          18          19          20
 IAtWgt=           1           1           1          14           1          12           1           1          12          16
 AtmWgt=   1.0078250   1.0078250   1.0078250  14.0030740   1.0078250  12.0000000   1.0078250   1.0078250  12.0000000  15.9949146
 NucSpn=           1           1           1           2           1           0           1           1           0           0
 AtZEff=  -1.0000000  -1.0000000  -1.0000000  -4.5500000  -1.0000000  -3.6000000  -1.0000000  -1.0000000  -3.6000000  -5.6000000
 NQMom=    0.0000000   0.0000000   0.0000000   2.0440000   0.0000000   0.0000000   0.0000000   0.0000000   0.0000000   0.0000000
 NMagM=    2.7928460   2.7928460   2.7928460   0.4037610   2.7928460   0.0000000   2.7928460   2.7928460   0.0000000   0.0000000
 AtZNuc=   1.0000000   1.0000000   1.0000000   7.0000000   1.0000000   6.0000000   1.0000000   1.0000000   6.0000000   8.0000000

  Atom        21          22          23          24          25          26          27          28          29          30
 IAtWgt=           1           1          12          12           1          12          12          16           1           1
 AtmWgt=   1.0078250   1.0078250  12.0000000  12.0000000   1.0078250  12.0000000  12.0000000  15.9949146   1.0078250   1.0078250
[...]
    14  N   -0.001243  -0.005526   0.004730  -0.071197  -0.003480   0.001484
    15  H    0.003779  -0.000211  -0.000091   0.007251  -0.000159  -0.000100
    16  C   -0.000273   0.003153   0.000204  -0.006739  -0.000083  -0.000004
    17  H    0.000145   0.000381  -0.000006   0.004899   0.004693  -0.000049
    18  H    0.000033   0.001714  -0.000200  -0.000377  -0.000019   0.000091
    19  C   -0.000025  -0.000005   0.000002   0.000040  -0.000102  -0.000149
    20  O    0.000001  -0.000001   0.000000   0.000121  -0.000011   0.000014
    21  H   -0.000009  -0.000003  -0.000005  -0.000852  -0.000032   0.001399
    22  H    0.000000   0.000005   0.000000  -0.000012   0.000011   0.000000
    23  C    0.000003   0.000009   0.000000   0.000002  -0.000006   0.000004
    24  C   -0.000001   0.000000   0.000000  -0.000002   0.000000   0.000000
    25  H    0.000000   0.000000   0.000000   0.000000   0.000000  -0.000001
    26  C    0.000000   0.000000   0.000000   0.000000   0.000000   0.000000
    27  C    0.000000   0.000000   0.000000   0.000000   0.000000   0.000000
    28  O    0.000000   0.000000   0.000000   0.000000   0.000000   0.000000
    29  H    0.000000   0.000000   0.000000   0.000000   0.000000   0.000000
    30  H    0.000000   0.000000   0.000000   0.000000   0.000000   0.000000
    31  H    0.000000   0.000000   0.000000   0.000000   0.000000   0.000000
    32  C    0.000000   0.000000   0.000000   0.000000   0.000000   0.000000
    33  O    0.000000   0.000000   0.000000   0.000000   0.000000   0.000000
    34  H    0.000000   0.000000   0.000000   0.000000   0.000000   0.000000
    35  C    0.000000   0.000000   0.000000   0.000000   0.000000   0.000000
    36  H    0.000000   0.000000   0.000000   0.000000   0.000000   0.000000
    37  C    0.000008  -0.000007   0.000000  -0.000001   0.000000   0.000000
    38  H   -0.000001  -0.000010   0.000000   0.000000   0.000000   0.000000
              13         14         15         16         17         18
     1  C   -0.005817  -0.063134  -0.006460   0.005223   0.000158  -0.000026
     2  H    0.000198   0.001925  -0.000537  -0.000105  -0.000019   0.000018
     3  H   -0.000013  -0.005088   0.006637   0.000026   0.000003  -0.000029
     4  H    0.003586   0.004623  -0.000195  -0.000174  -0.000001   0.000009
     5  C   -0.027261   0.316371  -0.031214  -0.035422  -0.005578  -0.005236
     6  C   -0.001327  -0.069686  -0.003661  -0.006493  -0.002337   0.004943
     7  H   -0.000058  -0.001243   0.003779  -0.000273   0.000145   0.000033
     8  H   -0.000035  -0.005526  -0.000211   0.003153   0.000381   0.001714
     9  H    0.001885   0.004730  -0.000091   0.000204  -0.000006  -0.000200
    10  C    0.364497  -0.071197   0.007251  -0.006739   0.004899  -0.000377
    11  H   -0.029088  -0.003480  -0.000159  -0.000083   0.004693  -0.000019
    12  H   -0.026455   0.001484  -0.000100  -0.000004  -0.000049   0.000091
    13  H    0.567969   0.004442  -0.000186   0.000120  -0.000210   0.000016
    14  N    0.004442   7.013318   0.288058   0.284363  -0.047387  -0.039481
    15  H   -0.000186   0.288058   0.461824  -0.041346   0.007012  -0.005829
    16  C    0.000120   0.284363  -0.041346   5.057067   0.365026   0.351520
    17  H   -0.000210  -0.047387   0.007012   0.365026   0.579922  -0.040135
    18  H    0.000016  -0.039481  -0.005829   0.351520  -0.040135   0.627386
    19  C    0.000000  -0.046309  -0.003864   0.330162  -0.024797  -0.041030
    20  O    0.000000  -0.028049   0.000867  -0.035794   0.001977   0.002781
    21  H    0.000015   0.068255  -0.001899  -0.025234  -0.001585   0.002109
    22  H    0.000000   0.004534   0.000084  -0.047344  -0.005743   0.001916
    23  C    0.000000  -0.013713   0.011041  -0.040496   0.006168  -0.005388
    24  C    0.000000   0.001295   0.001997   0.000156  -0.000110  -0.000340
    25  H    0.000000   0.000017  -0.000013   0.000690  -0.000021  -0.000065
    26  C    0.000000   0.000026  -0.000090  -0.000179   0.000001  -0.000011
    27  C    0.000000   0.000000   0.000000   0.000001   0.000000   0.000000
    28  O    0.000000   0.000000   0.000000   0.000000   0.000000   0.000000
    29  H    0.000000   0.000000   0.000000   0.000000   0.000000   0.000000
    30  H    0.000000   0.000000   0.000000   0.000000   0.000000   0.000000
    31  H    0.000000   0.000000   0.000000   0.000000   0.000000   0.000000
    32  C    0.000000   0.000004  -0.000034   0.000021   0.000000  -0.000008
    33  O    0.000000   0.000000   0.000000   0.000000   0.000000   0.000000
    34  H    0.000000   0.000000   0.000000   0.000000   0.000000   0.000000
    35  C    0.000000  -0.000028  -0.000122   0.000106   0.000002   0.000185
    36  H    0.000000   0.000000  -0.000001   0.000001   0.000000   0.000002
    37  C    0.000000  -0.000558   0.001100  -0.003483   0.000084   0.003248
    38  H    0.000000   0.000066  -0.000035   0.001136  -0.000181   0.003274
              19         20         21         22         23         24
     1  C   -0.000186  -0.000011  -0.000178   0.000003  -0.000015   0.000004
     2  H   -0.000021  -0.000030   0.000548   0.000000   0.000001   0.000002
     3  H    0.000002   0.000002  -0.000036   0.000000  -0.000006  -0.000003
     4  H    0.000002   0.000000   0.000004   0.000000   0.000000   0.000000
     5  C    0.005096   0.000031  -0.001600  -0.000095  -0.000091   0.000002
     6  C   -0.000013  -0.000019   0.000322   0.000009  -0.000042   0.000002
     7  H   -0.000025   0.000001  -0.000009   0.000000   0.000003  -0.000001
     8  H   -0.000005  -0.000001  -0.000003   0.000005   0.000009   0.000000
     9  H    0.000002   0.000000  -0.000005   0.000000   0.000000   0.000000
    10  C    0.000040   0.000121  -0.000852  -0.000012   0.000002  -0.000002
    11  H   -0.000102  -0.000011  -0.000032   0.000011  -0.000006   0.000000
    12  H   -0.000149   0.000014   0.001399   0.000000   0.000004   0.000000
    13  H    0.000000   0.000000   0.000015   0.000000   0.000000   0.000000
    14  N   -0.046309  -0.028049   0.068255   0.004534  -0.013713   0.001295
    15  H   -0.003864   0.000867  -0.001899   0.000084   0.011041   0.001997
    16  C    0.330162  -0.035794  -0.025234  -0.047344  -0.040496   0.000156
    17  H   -0.024797   0.001977  -0.001585  -0.005743   0.006168  -0.000110
    18  H   -0.041030   0.002781   0.002109   0.001916  -0.005388  -0.000340
    19  C    4.911042   0.270936  -0.044170   0.379776   0.299734  -0.040315
    20  O    0.270936   8.304607   0.221524  -0.041401  -0.059309  -0.002603
    21  H   -0.044170   0.221524   0.369283   0.007516  -0.001375   0.001299
    22  H    0.379776  -0.041401   0.007516   0.614072  -0.059765   0.001895
    23  C    0.299734  -0.059309  -0.001375  -0.059765   4.885905   0.508345
    24  C   -0.040315  -0.002603   0.001299   0.001895   0.508345   5.107939
    25  H   -0.014460   0.023699  -0.000896   0.000422  -0.044955   0.342562
    26  C    0.006283   0.001240  -0.000036  -0.000021  -0.024469   0.493289
    27  C   -0.000146  -0.000008   0.000001   0.000002   0.005680  -0.042101
    28  O    0.000000   0.000000   0.000000   0.000000  -0.000021   0.000725
    29  H    0.000000   0.000000   0.000000   0.000000   0.000025  -0.000016
    30  H   -0.000008  -0.000006   0.000000   0.000000   0.000211  -0.002803
    31  H    0.000004   0.000000   0.000000   0.000000  -0.000273   0.002934
    32  C    0.000411  -0.000004  -0.000004   0.000011  -0.040542  -0.023185
    33  O    0.000000   0.000000   0.000000   0.000000   0.000146   0.003378
    34  H    0.000000   0.000000   0.000000   0.000000  -0.000038  -0.000068
    35  C    0.004774  -0.000067   0.000010  -0.000156  -0.013549  -0.055371
    36  H   -0.000126   0.000000   0.000000   0.000002   0.002907   0.000891
    37  C   -0.056342   0.002427  -0.000019  -0.001700   0.505512  -0.040200
    38  H   -0.006234   0.000027   0.000002   0.002642  -0.046879   0.006123
              25         26         27         28         29         30
     1  C    0.000000   0.000000   0.000000   0.000000   0.000000   0.000000
     2  H    0.000000   0.000000   0.000000   0.000000   0.000000   0.000000
     3  H    0.000000   0.000000   0.000000   0.000000   0.000000   0.000000
     4  H    0.000000   0.000000   0.000000   0.000000   0.000000   0.000000
     5  C    0.000008   0.000001   0.000000   0.000000   0.000000   0.000000
     6  C    0.000000   0.000000   0.000000   0.000000   0.000000   0.000000
     7  H    0.000000   0.000000   0.000000   0.000000   0.000000   0.000000
     8  H    0.000000   0.000000   0.000000   0.000000   0.000000   0.000000
     9  H    0.000000   0.000000   0.000000   0.000000   0.000000   0.000000
    10  C    0.000000   0.000000   0.000000   0.000000   0.000000   0.000000
    11  H    0.000000   0.000000   0.000000   0.000000   0.000000   0.000000
    12  H   -0.000001   0.000000   0.000000   0.000000   0.000000   0.000000
    13  H    0.000000   0.000000   0.000000   0.000000   0.000000   0.000000
    14  N    0.000017   0.000026   0.000000   0.000000   0.000000   0.000000
    15  H   -0.000013  -0.000090   0.000000   0.000000   0.000000   0.000000
    16  C    0.000690  -0.000179   0.000001   0.000000   0.000000   0.000000
    17  H   -0.000021   0.000001   0.000000   0.000000   0.000000   0.000000
    18  H   -0.000065  -0.000011   0.000000   0.000000   0.000000   0.000000
    19  C   -0.014460   0.006283  -0.000146   0.000000   0.000000  -0.000008
    20  O    0.023699   0.001240  -0.000008   0.000000   0.000000  -0.000006
    21  H   -0.000896  -0.000036   0.000001   0.000000   0.000000   0.000000
    22  H    0.000422  -0.000021   0.000002   0.000000   0.000000   0.000000
    23  C   -0.044955  -0.024469   0.005680  -0.000021   0.000025   0.000211
    24  C    0.342562   0.493289  -0.042101   0.000725  -0.000016  -0.002803
    25  H    0.589217  -0.045922  -0.008750   0.000033   0.000002   0.006609
    26  C   -0.045922   4.924557   0.293226  -0.041595  -0.011559  -0.037980
    27  C   -0.008750   0.293226   4.958024   0.259062  -0.029720   0.370970
    28  O    0.000033  -0.041595   0.259062   8.286330   0.238488  -0.035986
    29  H    0.000002  -0.011559  -0.029720   0.238488   0.352911   0.006211
    30  H    0.006609  -0.037980   0.370970  -0.035986   0.006211   0.580759
    31  H    0.000165  -0.042398   0.352386  -0.039325  -0.004945  -0.043291
    32  C    0.005789   0.500418  -0.054493  -0.004600   0.002421   0.004869
    33  O   -0.000054  -0.062075  -0.002674  -0.010199   0.027605   0.000134
    34  H    0.000006   0.006696  -0.000326   0.000330  -0.000571   0.000008
    35  C   -0.000029  -0.051893   0.008884   0.000265   0.000218  -0.000188
    36  H    0.000017   0.004924  -0.000157   0.000007   0.000004   0.000002
    37  C    0.007774  -0.040224  -0.000041  -0.000030  -0.000028   0.000014
    38  H   -0.000166   0.000626   0.000008   0.000000   0.000000   0.000000
              31         32         33         34         35         36
     1  C    0.000000   0.000000   0.000000   0.000000   0.000000   0.000000
     2  H    0.000000   0.000000   0.000000   0.000000   0.000000   0.000000
     3  H    0.000000   0.000000   0.000000   0.000000   0.000000   0.000000
     4  H    0.000000   0.000000   0.000000   0.000000   0.000000   0.000000
     5  C    0.000000   0.000000   0.000000   0.000000  -0.000001   0.000000
     6  C    0.000000   0.000000   0.000000   0.000000   0.000000   0.000000
     7  H    0.000000   0.000000   0.000000   0.000000   0.000000   0.000000
     8  H    0.000000   0.000000   0.000000   0.000000   0.000000   0.000000
     9  H    0.000000   0.000000   0.000000   0.000000   0.000000   0.000000
    10  C    0.000000   0.000000   0.000000   0.000000   0.000000   0.000000
    11  H    0.000000   0.000000   0.000000   0.000000   0.000000   0.000000
    12  H    0.000000   0.000000   0.000000   0.000000   0.000000   0.000000
    13  H    0.000000   0.000000   0.000000   0.000000   0.000000   0.000000
    14  N    0.000000   0.000004   0.000000   0.000000  -0.000028   0.000000
    15  H    0.000000  -0.000034   0.000000   0.000000  -0.000122  -0.000001
    16  C    0.000000   0.000021   0.000000   0.000000   0.000106   0.000001
    17  H    0.000000   0.000000   0.000000   0.000000   0.000002   0.000000
    18  H    0.000000  -0.000008   0.000000   0.000000   0.000185   0.000002
    19  C    0.000004   0.000411   0.000000   0.000000   0.004774  -0.000126
    20  O    0.000000  -0.000004   0.000000   0.000000  -0.000067   0.000000
    21  H    0.000000  -0.000004   0.000000   0.000000   0.000010   0.000000
    22  H    0.000000   0.000011   0.000000   0.000000  -0.000156   0.000002
    23  C   -0.000273  -0.040542   0.000146  -0.000038  -0.013549   0.002907
    24  C    0.002934  -0.023185   0.003378  -0.000068  -0.055371   0.000891
    25  H    0.000165   0.005789  -0.000054   0.000006  -0.000029   0.000017
    26  C   -0.042398   0.500418  -0.062075   0.006696  -0.051893   0.004924
    27  C    0.352386  -0.054493  -0.002674  -0.000326   0.008884  -0.000157
    28  O   -0.039325  -0.004600  -0.010199   0.000330   0.000265   0.000007
    29  H   -0.004945   0.002421   0.027605  -0.000571   0.000218   0.000004
    30  H   -0.043291   0.004869   0.000134   0.000008  -0.000188   0.000002
    31  H    0.644931  -0.009371   0.002014  -0.000098   0.000028   0.000007
    32  C   -0.009371   4.646679   0.265199  -0.024057   0.483691  -0.040707
    33  O    0.002014   0.265199   8.271262   0.246111  -0.062288  -0.004658
    34  H   -0.000098  -0.024057   0.246111   0.329573  -0.004849   0.006516
    35  C    0.000028   0.483691  -0.062288  -0.004849   5.102960   0.345089
    36  H    0.000007  -0.040707  -0.004658   0.006516   0.345089   0.580972
    37  C   -0.000019  -0.008218   0.004276   0.000356   0.474605  -0.031794
    38  H    0.000000   0.003305  -0.000054  -0.000011  -0.038865  -0.005317
              37         38
     1  C    0.000000   0.000000
     2  H    0.000000   0.000000
     3  H    0.000000   0.000000
     4  H    0.000000   0.000000
     5  C    0.000014   0.000002
     6  C   -0.000012   0.000000
     7  H    0.000008  -0.000001
     8  H   -0.000007  -0.000010
     9  H    0.000000   0.000000
    10  C   -0.000001   0.000000
    11  H    0.000000   0.000000
    12  H    0.000000   0.000000
    13  H    0.000000   0.000000
    14  N   -0.000558   0.000066
    15  H    0.001100  -0.000035
    16  C   -0.003483   0.001136
    17  H    0.000084  -0.000181
    18  H    0.003248   0.003274
    19  C   -0.056342  -0.006234
    20  O    0.002427   0.000027
    21  H   -0.000019   0.000002
    22  H   -0.001700   0.002642
    23  C    0.505512  -0.046879
    24  C   -0.040200   0.006123
    25  H    0.007774  -0.000166
    26  C   -0.040224   0.000626
    27  C   -0.000041   0.000008
    28  O   -0.000030   0.000000
    29  H   -0.000028   0.000000
    30  H    0.000014   0.000000
    31  H   -0.000019   0.000000
    32  C   -0.008218   0.003305
    33  O    0.004276  -0.000054
    34  H    0.000356  -0.000011
    35  C    0.474605  -0.038865
    36  H   -0.031794  -0.005317
    37  C    5.031322   0.353839
    38  H    0.353839   0.589157
 Mulliken charges:
               1
     1  C   -0.454206
     2  H    0.152669
     3  H    0.140682
     4  H    0.149959
     5  C    0.215069
     6  C   -0.452147
     7  H    0.140402
     8  H    0.149639
     9  H    0.147415
    10  C   -0.446799
    11  H    0.147689
    12  H    0.150511
    13  H    0.147724
    14  N   -0.598634
    15  H    0.306399
    16  C   -0.155808
    17  H    0.157689
    18  H    0.138931
    19  C    0.070040
    20  O   -0.662939
    21  H    0.405647
    22  H    0.143337
    23  C    0.125240
    24  C   -0.265718
    25  H    0.138321
    26  C    0.127165
    27  C   -0.109828
    28  O   -0.653484
    29  H    0.418951
    30  H    0.150475
    31  H    0.137250
    32  C    0.292406
    33  O   -0.678123
    34  H    0.440423
    35  C   -0.193411
    36  H    0.141418
    37  C   -0.201903
    38  H    0.137548
 Sum of Mulliken charges =   0.00000
 Mulliken charges with hydrogens summed into heavy atoms:
               1
     1  C   -0.010895
     5  C    0.215069
     6  C   -0.014691
    10  C   -0.000876
    14  N   -0.292235
    16  C    0.140812
    19  C    0.213376
    20  O   -0.257291
    23  C    0.125240
    24  C   -0.127397
    26  C    0.127165
    27  C    0.177897
    28  O   -0.234533
    32  C    0.292406
    33  O   -0.237700
    35  C   -0.051993
    37  C   -0.064355
 Electronic spatial extent (au):  <R**2>=           5643.7056
 Charge=              0.0000 electrons
 Dipole moment (field-independent basis, Debye):
    X=              1.2395    Y=             -2.3990    Z=             -4.9132  Tot=              5.6064
 Quadrupole moment (field-independent basis, Debye-Ang):
   XX=            -92.8054   YY=           -107.2081   ZZ=           -101.3394
   XY=             11.1843   XZ=              7.6077   YZ=              5.8406
 Traceless Quadrupole moment (field-independent basis, Debye-Ang):
   XX=              7.6455   YY=             -6.7571   ZZ=             -0.8884
   XY=             11.1843   XZ=              7.6077   YZ=              5.8406
 Octapole moment (field-independent basis, Debye-Ang**2):
  XXX=            -22.1126  YYY=            -23.5562  ZZZ=            -29.8926  XYY=             25.0545
  XXY=            -32.3426  XXZ=            -53.2109  XZZ=            -46.1581  YZZ=              9.3242
  YYZ=             -9.4569  XYZ=             -6.7236
 Hexadecapole moment (field-independent basis, Debye-Ang**3):
 XXXX=          -5140.8087 YYYY=          -1140.9945 ZZZZ=           -868.5598 XXXY=            142.2684
 XXXZ=            233.4811 YYYX=             38.6155 YYYZ=             -6.5324 ZZZX=             94.4045
 ZZZY=             47.5820 XXYY=          -1164.9680 XXZZ=           -907.0846 YYZZ=           -308.4638
 XXYZ=             12.2735 YYXZ=             38.9829 ZZXY=             17.6562
 N-N= 1.255048447255D+03 E-N=-4.345870880453D+03  KE= 7.811683615819D+02
 No NMR shielding tensors so no spin-rotation constants.
 Leave Link  601 at Mon Jan 25 16:30:38 2021, MaxMem=   262144000 cpu:         0.4
 (Enter /prod/apps/gaussian/g09d1/l9999.exe)
 1\1\GINC-PIRINEUS50\SP\RB3LYP\6-31G(d)\C13H21N1O3\UBAFAR01\25-Jan-2021
 \0\\#p b3lyp/6-31G(d) scrf=(iefpcm,read,solvent=n-Octanol) geom=allche
 ck guess=read\\SET_328_BBB301_conf1.geo_090_285_255.n.pdb.xyz\\0,1\C,0
 ,-0.497,-2.833,-2.079\H,0,0.23,-3.392,-1.483\H,0,0.043,-2.059,-2.636\H
 ,0,-0.945,-3.514,-2.806\C,0,-1.573,-2.214,-1.176\C,0,-2.578,-1.419,-2.
 032\H,0,-2.066,-0.643,-2.611\H,0,-3.327,-0.928,-1.405\H,0,-3.104,-2.07
 1,-2.736\C,0,-2.297,-3.332,-0.408\H,0,-3.101,-2.943,0.225\H,0,-1.593,-
 3.877,0.23\H,0,-2.748,-4.04,-1.109\N,0,-0.857,-1.34,-0.212\H,0,-0.244,
 -0.718,-0.739\C,0,-1.665,-0.528,0.699\H,0,-2.416,-1.174,1.16\H,0,-2.19
 4,0.305,0.215\C,0,-0.735,-0.005,1.814\O,0,-0.002,-1.1,2.334\H,0,0.114,
 -1.682,1.55\H,0,-1.362,0.38,2.63\C,0,0.173,1.122,1.329\C,0,1.564,0.977
 ,1.334\H,0,1.98,0.046,1.703\C,0,2.418,1.992,0.901\C,0,3.925,1.84,0.923
 \O,0,4.537,2.08,-0.342\H,0,4.293,2.991,-0.579\H,0,4.181,0.814,1.201\H,
 0,4.354,2.505,1.69\C,0,1.848,3.191,0.444\O,0,2.722,4.168,0.028\H,0,2.2
 31,4.943,-0.285\C,0,0.463,3.361,0.427\H,0,0.035,4.293,0.071\C,0,-0.364
 ,2.33,0.871\H,0,-1.441,2.477,0.859\\Version=AM64L-G09RevD.01\State=1-A
 \HF=-788.4520805\RMSD=8.582e-09\Dipole=-1.6371624,1.0604763,-1.0297082
 \Quadrupole=-7.6901118,13.5608879,-5.8707761,1.0238044,2.8192957,1.112
 061\PG=C01 [X(C13H21N1O3)]\\@


 EDUCATION IS NOT TRAINING BUT RATHER THE PROCESS THAT EQUIPS YOU TO
 ENTERTAIN YOURSELF, A FRIEND, OR AN IDEA.  -- WALLACE STERLING
 Job cpu time:       0 days  0 hours  3 minutes  4.6 seconds.
 File lengths (MBytes):  RWF=    173 Int=      0 D2E=      0 Chk=      6 Scr=      1
 Normal termination of Gaussian 09 at Mon Jan 25 16:30:38 2021.
