 Entering Gaussian System, Link 0=g09
 Initial command:
 /prod/apps/gaussian/g09d1/l1.exe "/tmp/ubafar01/1642305/Gau-106194.inp" -scrdir="/tmp/ubafar01/1642305/"
 Entering Link 1 = /prod/apps/gaussian/g09d1/l1.exe PID=    106195.
  
 Copyright (c) 1988,1990,1992,1993,1995,1998,2003,2009,2013,
            Gaussian, Inc.  All Rights Reserved.
  
 This is part of the Gaussian(R) 09 program.  It is based on
 the Gaussian(R) 03 system (copyright 2003, Gaussian, Inc.),
 the Gaussian(R) 98 system (copyright 1998, Gaussian, Inc.),
 the Gaussian(R) 94 system (copyright 1995, Gaussian, Inc.),
 the Gaussian 92(TM) system (copyright 1992, Gaussian, Inc.),
 the Gaussian 90(TM) system (copyright 1990, Gaussian, Inc.),
 the Gaussian 88(TM) system (copyright 1988, Gaussian, Inc.),
 the Gaussian 86(TM) system (copyright 1986, Carnegie Mellon
 University), and the Gaussian 82(TM) system (copyright 1983,
 Carnegie Mellon University). Gaussian is a federally registered
 trademark of Gaussian, Inc.
  
 This software contains proprietary and confidential information,
 including trade secrets, belonging to Gaussian, Inc.
  
 This software is provided under written license and may be
 used, copied, transmitted, or stored only in accord with that
 written license.
  
 The following legend is applicable only to US Government
 contracts under FAR:
  
                    RESTRICTED RIGHTS LEGEND
  
 Use, reproduction and disclosure by the US Government is
 subject to restrictions as set forth in subparagraphs (a)
 and (c) of the Commercial Computer Software - Restricted
 Rights clause in FAR 52.227-19.
  
 Gaussian, Inc.
 340 Quinnipiac St., Bldg. 40, Wallingford CT 06492
  
  
 ---------------------------------------------------------------
 Warning -- This program may not be used in any manner that
 competes with the business of Gaussian, Inc. or will provide
 assistance to any competitor of Gaussian, Inc.  The licensee
 of this program is prohibited from giving any competitor of
 Gaussian, Inc. access to this program.  By using this program,
 the user acknowledges that Gaussian, Inc. is engaged in the
 business of creating and licensing software in the field of
 computational chemistry and represents and warrants to the
 licensee that it is not a competitor of Gaussian, Inc. and that
 it will not use this program in any manner prohibited above.
 ---------------------------------------------------------------
  

 Cite this work as:
 Gaussian 09, Revision D.01,
 M. J. Frisch, G. W. Trucks, H. B. Schlegel, G. E. Scuseria, 
 M. A. Robb, J. R. Cheeseman, G. Scalmani, V. Barone, B. Mennucci, 
 G. A. Petersson, H. Nakatsuji, M. Caricato, X. Li, H. P. Hratchian, 
 A. F. Izmaylov, J. Bloino, G. Zheng, J. L. Sonnenberg, M. Hada, 
 M. Ehara, K. Toyota, R. Fukuda, J. Hasegawa, M. Ishida, T. Nakajima, 
 Y. Honda, O. Kitao, H. Nakai, T. Vreven, J. A. Montgomery, Jr., 
 J. E. Peralta, F. Ogliaro, M. Bearpark, J. J. Heyd, E. Brothers, 
 K. N. Kudin, V. N. Staroverov, T. Keith, R. Kobayashi, J. Normand, 
 K. Raghavachari, A. Rendell, J. C. Burant, S. S. Iyengar, J. Tomasi, 
 M. Cossi, N. Rega, J. M. Millam, M. Klene, J. E. Knox, J. B. Cross, 
 V. Bakken, C. Adamo, J. Jaramillo, R. Gomperts, R. E. Stratmann, 
 O. Yazyev, A. J. Austin, R. Cammi, C. Pomelli, J. W. Ochterski, 
 R. L. Martin, K. Morokuma, V. G. Zakrzewski, G. A. Voth, 
 P. Salvador, J. J. Dannenberg, S. Dapprich, A. D. Daniels, 
 O. Farkas, J. B. Foresman, J. V. Ortiz, J. Cioslowski, 
 and D. J. Fox, Gaussian, Inc., Wallingford CT, 2013.
 
 ******************************************
 Gaussian 09:  AM64L-G09RevD.01 24-Apr-2013
                24-Jan-2021 
 ******************************************
 %nproc=1
 Will use up to    1 processors via shared memory.
 %Chk=SET_328_BBB227_conf1.geo_075_180_240.n.pdb.xyz.mst.n.o.chk
 %mem=2000MB
 -----------------
 #p b3lyp/6-31G(d)
 -----------------
 1/38=1/1;
 2/12=2,17=6,18=5,40=1/2;
 3/5=1,6=6,7=1,11=2,16=1,25=1,30=1,74=-5/1,2,3;
 4//1;
 5/5=2,38=5/2;
 6/7=2,8=2,9=2,10=2,28=1/1;
 99/5=1,9=1/99;
 Leave Link    1 at Sun Jan 24 22:53:03 2021, MaxMem=   262144000 cpu:         0.0
 (Enter /prod/apps/gaussian/g09d1/l101.exe)
 ----------------------------------------------
 SET_328_BBB227_conf1.geo_075_180_240.n.pdb.xyz
 ----------------------------------------------
 Symbolic Z-matrix:
 Charge =  0 Multiplicity = 1
 S                    -0.613    -3.04      0.469 
 C                     0.037    -1.558    -0.08 
 N                    -0.414    -0.947    -1.21 
 C                    -1.488    -1.435    -2.075 
 C                    -2.855    -0.868    -1.662 
 C                    -3.967    -1.346    -2.606 
 C                    -3.646    -1.011    -4.068 
 C                    -2.278    -1.572    -4.481 
 C                    -1.164    -1.097    -3.537 
 H                    -1.044    -0.009    -3.638 
 H                    -0.205    -1.548    -3.812 
 H                    -2.04     -1.282    -5.51 
 H                    -2.318    -2.669    -4.466 
 H                    -3.643     0.08     -4.197 
 H                    -4.429    -1.402    -4.728 
 H                    -4.923    -0.899    -2.313 
 H                    -4.086    -2.433    -2.501 
 H                    -2.805     0.23     -1.681 
 H                    -3.067    -1.164    -0.63 
 H                    -1.506    -2.519    -1.945 
 H                    -0.179     0.028    -1.344 
 N                     1.051    -0.941     0.584 
 C                     1.85      0.173     0.064 
 C                     1.663     1.436     0.92 
 H                     2.538     2.079     0.785 
 H                     0.791     2.008     0.588 
 H                     2.899    -0.143     0.101 
 H                     1.628     0.347    -0.987 
 C                     1.501    -1.415     1.899 
 H                     2.165    -2.28      1.784 
 H                     0.621    -1.763     2.437 
 C                     2.199    -0.287     2.678 
 H                     3.256    -0.217     2.395 
 H                     2.175    -0.538     3.741 
 C                     1.5       1.062     2.421 
 H                     0.431     0.918     2.618 
 C                     1.946     2.159     3.346 
 C                     3.222     2.607     3.614 
 H                     4.194     2.307     3.257 
 N                     3.07      3.63      4.525 
 H                     3.813     4.174     4.938 
 C                     1.739     3.76      4.771 
 H                     1.348     4.498     5.458 
 N                     1.029     2.891     4.078 
 
 NAtoms=     44 NQM=       44 NQMF=       0 NMMI=      0 NMMIF=      0
                NMic=       0 NMicF=      0.
                    Isotopes and Nuclear Properties:
 (Nuclear quadrupole moments (NQMom) in fm**2, nuclear magnetic moments (NMagM)
  in nuclear magnetons)

  Atom         1           2           3           4           5           6           7           8           9          10
 IAtWgt=          32          12          14          12          12          12          12          12          12           1
 AtmWgt=  31.9720718  12.0000000  14.0030740  12.0000000  12.0000000  12.0000000  12.0000000  12.0000000  12.0000000   1.0078250
 NucSpn=           0           0           2           0           0           0           0           0           0           1
 AtZEff=   0.0000000   0.0000000   0.0000000   0.0000000   0.0000000   0.0000000   0.0000000   0.0000000   0.0000000   0.0000000
 NQMom=    0.0000000   0.0000000   2.0440000   0.0000000   0.0000000   0.0000000   0.0000000   0.0000000   0.0000000   0.0000000
 NMagM=    0.0000000   0.0000000   0.4037610   0.0000000   0.0000000   0.0000000   0.0000000   0.0000000   0.0000000   2.7928460
 AtZNuc=  16.0000000   6.0000000   7.0000000   6.0000000   6.0000000   6.0000000   6.0000000   6.0000000   6.0000000   1.0000000

  Atom        11          12          13          14          15          16          17          18          19          20
 IAtWgt=           1           1           1           1           1           1           1           1           1           1
 AtmWgt=   1.0078250   1.0078250   1.0078250   1.0078250   1.0078250   1.0078250   1.0078250   1.0078250   1.0078250   1.0078250
 NucSpn=           1           1           1           1           1           1           1           1           1           1
 AtZEff=   0.0000000   0.0000000   0.0000000   0.0000000   0.0000000   0.0000000   0.0000000   0.0000000   0.0000000   0.0000000
 NQMom=    0.0000000   0.0000000   0.0000000   0.0000000   0.0000000   0.0000000   0.0000000   0.0000000   0.0000000   0.0000000
 NMagM=    2.7928460   2.7928460   2.7928460   2.7928460   2.7928460   2.7928460   2.7928460   2.7928460   2.7928460   2.7928460
 AtZNuc=   1.0000000   1.0000000   1.0000000   1.0000000   1.0000000   1.0000000   1.0000000   1.0000000   1.0000000   1.0000000

  Atom        21          22          23          24          25          26          27          28          29          30
 IAtWgt=           1          14          12          12           1           1           1           1          12           1
 AtmWgt=   1.0078250  14.0030740  12.0000000  12.0000000   1.0078250   1.0078250   1.0078250   1.0078250  12.0000000   1.0078250
 NucSpn=           1           2           0           0           1           1           1           1           0           1
 AtZEff=   0.0000000   0.0000000   0.0000000   0.0000000   0.0000000   0.0000000   0.0000000   0.0000000   0.0000000   0.0000000
 NQMom=    0.0000000   2.0440000   0.0000000   0.0000000   0.0000000   0.0000000   0.0000000   0.0000000   0.0000000   0.0000000
 NMagM=    2.7928460   0.4037610   0.0000000   0.0000000   2.7928460   2.7928460   2.7928460   2.7928460   0.0000000   2.7928460
 AtZNuc=   1.0000000   7.0000000   6.0000000   6.0000000   1.0000000   1.0000000   1.0000000   1.0000000   6.0000000   1.0000000

  Atom        31          32          33          34          35          36          37          38          39          40
 IAtWgt=           1          12           1           1          12           1          12          12           1          14
 AtmWgt=   1.0078250  12.0000000   1.0078250   1.0078250  12.0000000   1.0078250  12.0000000  12.0000000   1.0078250  14.0030740
 NucSpn=           1           0           1           1           0           1           0           0           1           2
 AtZEff=   0.0000000   0.0000000   0.0000000   0.0000000   0.0000000   0.0000000   0.0000000   0.0000000   0.0000000   0.0000000
 NQMom=    0.0000000   0.0000000   0.0000000   0.0000000   0.0000000   0.0000000   0.0000000   0.0000000   0.0000000   2.0440000
 NMagM=    2.7928460   0.0000000   2.7928460   2.7928460   0.0000000   2.7928460   0.0000000   0.0000000   2.7928460   0.4037610
 AtZNuc=   1.0000000   6.0000000   1.0000000   1.0000000   6.0000000   1.0000000   6.0000000   6.0000000   1.0000000   7.0000000

  Atom        41          42          43          44
 IAtWgt=           1          12           1          14
 AtmWgt=   1.0078250  12.0000000   1.0078250  14.0030740
 NucSpn=           1           0           1           2
 AtZEff=   0.0000000   0.0000000   0.0000000   0.0000000
 NQMom=    0.0000000   0.0000000   0.0000000   2.0440000
 NMagM=    2.7928460   0.0000000   2.7928460   0.4037610
 AtZNuc=   1.0000000   6.0000000   1.0000000   7.0000000
 Leave Link  101 at Sun Jan 24 22:53:03 2021, MaxMem=   262144000 cpu:         0.1
 (Enter /prod/apps/gaussian/g09d1/l202.exe)
                          Input orientation:                          
 ---------------------------------------------------------------------
 Center     Atomic      Atomic             Coordinates (Angstroms)
 Number     Number       Type             X           Y           Z
 ---------------------------------------------------------------------
      1         16           0       -0.613000   -3.040000    0.469000
      2          6           0        0.037000   -1.558000   -0.080000
      3          7           0       -0.414000   -0.947000   -1.210000
      4          6           0       -1.488000   -1.435000   -2.075000
      5          6           0       -2.855000   -0.868000   -1.662000
      6          6           0       -3.967000   -1.346000   -2.606000
      7          6           0       -3.646000   -1.011000   -4.068000
      8          6           0       -2.278000   -1.572000   -4.481000
      9          6           0       -1.164000   -1.097000   -3.537000
     10          1           0       -1.044000   -0.009000   -3.638000
     11          1           0       -0.205000   -1.548000   -3.812000
     12          1           0       -2.040000   -1.282000   -5.510000
     13          1           0       -2.318000   -2.669000   -4.466000
     14          1           0       -3.643000    0.080000   -4.197000
     15          1           0       -4.429000   -1.402000   -4.728000
     16          1           0       -4.923000   -0.899000   -2.313000
     17          1           0       -4.086000   -2.433000   -2.501000
     18          1           0       -2.805000    0.230000   -1.681000
     19          1           0       -3.067000   -1.164000   -0.630000
     20          1           0       -1.506000   -2.519000   -1.945000
     21          1           0       -0.179000    0.028000   -1.344000
     22          7           0        1.051000   -0.941000    0.584000
     23          6           0        1.850000    0.173000    0.064000
     24          6           0        1.663000    1.436000    0.920000
     25          1           0        2.538000    2.079000    0.785000
     26          1           0        0.791000    2.008000    0.588000
     27          1           0        2.899000   -0.143000    0.101000
     28          1           0        1.628000    0.347000   -0.987000
     29          6           0        1.501000   -1.415000    1.899000
     30          1           0        2.165000   -2.280000    1.784000
     31          1           0        0.621000   -1.763000    2.437000
     32          6           0        2.199000   -0.287000    2.678000
     33          1           0        3.256000   -0.217000    2.395000
     34          1           0        2.175000   -0.538000    3.741000
     35          6           0        1.500000    1.062000    2.421000
     36          1           0        0.431000    0.918000    2.618000
     37          6           0        1.946000    2.159000    3.346000
     38          6           0        3.222000    2.607000    3.614000
     39          1           0        4.194000    2.307000    3.257000
     40          7           0        3.070000    3.630000    4.525000
     41          1           0        3.813000    4.174000    4.938000
     42          6           0        1.739000    3.760000    4.771000
     43          1           0        1.348000    4.498000    5.458000
     44          7           0        1.029000    2.891000    4.078000
 ---------------------------------------------------------------------
                    Distance matrix (angstroms):
                    1          2          3          4          5
     1  S    0.000000
     2  C    1.708867   0.000000
     3  N    2.690593   1.361478   0.000000
     4  C    3.132664   2.514116   1.462821   0.000000
     5  C    3.779591   3.367861   2.483752   1.536472   0.000000
     6  C    4.855366   4.738949   3.838206   2.536794   1.534980
     7  C    5.822396   5.455991   4.314868   2.967960   2.536723
     8  C    5.424919   4.972748   3.816355   2.536081   2.962314
     9  C    4.486300   3.688600   2.449475   1.535143   2.535261
    10  H    5.122516   4.028316   2.678046   2.161847   2.814636
    11  H    4.551867   3.739851   2.678672   2.162412   3.479569
    12  H    6.393382   5.820224   4.609349   3.482433   3.955088
    13  H    5.234395   5.100720   4.146328   2.815766   3.375557
    14  H    6.378625   5.759786   4.517006   3.382622   2.818842
    15  H    6.652346   6.447743   5.357572   3.960932   3.487548
    16  H    5.558732   5.479249   4.642197   3.484704   2.168268
    17  H    4.609889   4.860658   4.166349   2.815508   2.160673
    18  H    4.485562   3.719826   2.706298   2.159155   1.099302
    19  H    3.278611   3.176878   2.724316   2.157477   1.094342
    20  H    2.626078   2.604342   2.050335   1.091916   2.150742
    21  H    3.589979   2.039546   1.011833   2.094806   2.839880
    22  N    2.681030   1.360067   2.316182   3.709560   4.506293
    23  C    4.068632   2.510790   2.828988   4.278227   5.118572
    24  C    5.041642   3.550762   3.811760   5.209747   5.690999
    25  H    6.019370   4.497888   4.674506   6.061062   6.614912
    26  H    5.240962   3.705549   3.662902   4.913213   5.160154
    27  H    4.567513   3.197816   3.652548   5.064584   6.061544
    28  H    4.314370   2.642528   2.427742   3.750830   4.693521
    29  C    3.025644   2.465803   3.681322   4.972645   5.652846
    30  H    3.166087   2.919617   4.170392   5.380550   6.250525
    31  H    2.650756   2.591982   3.877846   4.991353   5.448431
    32  C    4.512874   3.727767   4.730741   6.123960   6.687008
    33  H    5.162167   4.276198   5.195943   6.630985   7.363924
    34  H    4.973825   4.495719   5.602018   6.931669   7.389331
    35  C    5.010137   3.906376   4.569862   5.947871   6.273899
    36  H    4.623192   3.683072   4.341179   5.589581   5.683836
    37  C    6.469560   5.403503   5.997831   7.355028   7.569174
    38  C    7.515774   6.413820   7.008737   8.419417   8.765941
    39  H    7.711718   6.584409   7.195573   8.643952   9.163274
    40  N    8.631600   7.571028   8.122648   9.486284   9.675567
    41  H    9.570958   8.502607   9.049313  10.428022  10.651009
    42  C    8.383264   7.396630   7.909717   9.179830   9.160061
    43  H    9.249707   8.310433   8.787201   9.999474   9.856651
    44  N    7.134270   6.169816   6.691445   7.931518   7.884360
                    6          7          8          9         10
     6  C    0.000000
     7  C    1.533855   0.000000
     8  C    2.533658   1.535159   0.000000
     9  C    2.964046   2.539622   1.535499   0.000000
    10  H    3.375874   2.821225   2.162493   1.099247   0.000000
    11  H    3.955741   3.492046   2.178409   1.094855   1.761453
    12  H    3.485777   2.175325   1.095256   2.166640   2.473243
    13  H    2.815871   2.161239   1.097831   2.160079   3.063374
    14  H    2.160957   1.098604   2.161709   2.822476   2.659925
    15  H    2.172433   1.096161   2.171799   3.488801   3.819264
    16  H    1.095260   2.173315   3.485567   3.958214   4.194564
    17  H    1.098524   2.161290   2.816129   3.375837   4.052445
    18  H    2.165559   2.818711   3.371192   2.810435   2.643500
    19  H    2.178922   3.489770   3.952112   3.475133   3.804552
    20  H    2.805240   3.370578   2.814976   2.161831   3.062645
    21  H    4.222495   4.529877   4.099582   2.654261   2.451944
    22  N    5.959903   6.611188   6.093819   4.681154   4.804470
    23  C    6.578279   6.977198   6.382980   4.864596   4.702464
    24  C    7.202021   7.684623   7.331463   5.854303   5.494655
    25  H    8.095958   8.446394   8.015885   6.517013   6.062458
    26  H    6.639994   7.104904   6.923144   5.520749   5.029373
    27  H    7.477768   7.808394   7.059610   5.536527   5.435561
    28  H    6.065594   6.257140   5.580989   4.047580   3.780757
    29  C    7.085112   7.890495   7.416865   6.062462   6.253977
    30  H    7.599071   8.344099   7.713089   6.387078   6.697254
    31  H    6.830482   7.815870   7.503293   6.270443   6.538682
    32  C    8.189120   8.955262   8.540845   7.112812   7.105363
    33  H    8.857560   9.488857   8.929757   7.449794   7.411501
    34  H    8.869128   9.751320   9.407425   8.026873   8.067927
    35  C    7.807514   8.537316   8.297520   6.874296   6.658112
    36  H    7.194322   8.065083   7.995910   6.669953   6.494035
    37  C    9.092574   9.812582   9.644919   8.224921   7.900416
    38  C   10.295452  10.921194  10.641573   9.170246   8.811000
    39  H   10.692105  11.230777  10.807871   9.298054   8.963343
    40  N   11.186202  11.852560  11.694868  10.259977   9.838795
    41  H   12.161856  12.791753  12.602950  11.152560  10.706807
    42  C   10.632488  11.396867  11.409032  10.051901   9.626096
    43  H   11.288475  12.084444  12.197397  10.886882  10.429378
    44  N    9.358848  10.170474  10.203485   8.871393   8.499646
                   11         12         13         14         15
    11  H    0.000000
    12  H    2.514197   0.000000
    13  H    2.479743   1.758121   0.000000
    14  H    3.823409   2.479642   3.063493   0.000000
    15  H    4.324644   2.516594   2.475935   1.759568   0.000000
    16  H    4.992767   4.321943   3.815014   2.479173   2.515804
    17  H    4.190955   3.816412   2.653817   3.063957   2.477930
    18  H    3.802952   4.187196   4.049394   2.656125   3.819032
    19  H    4.296932   4.988292   4.188188   3.821361   4.324962
    20  H    2.474092   3.811109   2.652788   4.048836   4.187685
    21  H    2.928391   4.747102   4.647151   4.487940   5.617727
    22  N    4.612028   6.841593   6.311786   6.777465   7.645931
    23  C    4.712562   6.951158   6.780124   6.952540   8.054175
    24  C    5.897924   7.902192   7.855468   7.495069   8.778759
    25  H    6.466188   8.478292   8.584710   8.186641   9.541992
    26  H    5.744315   7.484936   7.555338   6.802482   8.193678
    27  H    5.188488   7.561373   7.379380   7.830728   8.865884
    28  H    3.864135   6.046933   6.063878   6.177283   7.330848
    29  C    5.961849   8.212774   7.527981   8.115231   8.892817
    30  H    6.121106   8.478235   7.701371   8.664573   9.309021
    31  H    6.307020   8.394468   7.557114   8.098660   8.773257
    32  C    7.034873   9.273753   8.781455   9.029356  10.001122
    33  H    7.230279   9.574490   9.173609   9.546668  10.545169
    34  H    7.983252  10.193172   9.595992   9.861181  10.774195
    35  C    6.969176   8.995927   8.713682   8.438762   9.608982
    36  H    6.915964   8.775547   8.402775   7.983981   9.108552
    37  C    8.342998  10.303272  10.125148   9.615405  10.886268
    38  C    9.173540  11.227660  11.127182  10.701667  12.008282
    39  H    9.175129  11.340369  11.261059  11.042654  12.323678
    40  N   10.346153  12.285808  12.228901  11.564608  12.929580
    41  H   11.200362  13.160025  13.147282  12.482027  13.872775
    42  C   10.277251  12.058257  11.963004  11.087531  12.446745
    43  H   11.175814  12.852392  12.778545  11.732341  13.112526
    44  N    9.136716  10.897818  10.729210   9.909840  11.214511
                   16         17         18         19         20
    16  H    0.000000
    17  H    1.757575   0.000000
    18  H    2.481933   3.066746   0.000000
    19  H    2.519415   2.479791   1.765356   0.000000
    20  H    3.799436   2.640631   3.051901   2.449892   0.000000
    21  H    4.929891   4.760233   2.655230   3.204872   2.934168
    22  N    6.639507   6.175116   4.622792   4.299006   3.927362
    23  C    7.257606   6.971840   4.971650   5.142577   4.748229
    24  C    7.699345   7.728092   5.308734   5.615639   5.821753
    25  H    8.610030   8.662177   6.168274   6.628371   6.704360
    26  H    7.036778   7.283511   4.608781   5.140941   5.673273
    27  H    8.220865   7.797739   5.987509   6.096717   5.406988
    28  H    6.798999   6.532258   4.488520   4.945058   4.353582
    29  C    7.699024   7.184072   5.836442   5.227377   5.003719
    30  H    8.302549   7.580213   6.557989   5.869129   5.238206
    31  H    7.351526   6.854823   5.715545   4.833905   4.929258
    32  C    8.718229   8.421911   6.656439   6.280346   6.330954
    33  H    9.461841   9.098705   7.317739   7.073031   6.841889
    34  H    9.336104   9.041776   7.401912   6.853910   7.057246
    35  C    8.216520   8.224628   6.004303   5.926311   6.396996
    36  H    7.502104   7.605041   5.424614   5.207709   6.032073
    37  C    9.410569   9.573865   7.180792   7.209790   7.860959
    38  C   10.665945  10.779689   8.367310   8.472514   8.918091
    39  H   11.154507  11.143633   8.813840   8.937490   9.101708
    40  N   11.452429  11.718916   9.197286   9.339124  10.030497
    41  H   12.435032  12.703754  10.156979  10.335921  10.975596
    42  C   10.782930  11.187755   8.645064   8.747240   9.749899
    43  H   11.350837  11.870670   9.296696   9.413512  10.591884
    44  N    9.520257   9.888956   7.412595   7.442144   8.483564
                   21         22         23         24         25
    21  H    0.000000
    22  N    2.483756   0.000000
    23  C    2.473930   1.466219   0.000000
    24  C    3.240544   2.477412   1.537164   0.000000
    25  H    4.015138   3.372235   2.150819   1.094212   0.000000
    26  H    2.931540   2.960442   2.182494   1.094437   1.759505
    27  H    3.404607   2.070072   1.096187   2.166033   2.352756
    28  H    1.869347   2.111851   1.088192   2.196314   2.639680
    29  C    3.927047   1.468469   2.451687   3.018756   3.811089
    30  H    4.539337   2.115164   3.012447   3.848007   4.487540
    31  H    4.259535   2.072243   3.299949   3.690617   4.600539
    32  C    4.683011   2.475976   2.677013   2.519244   3.048988
    33  H    5.083244   2.943794   2.749999   2.728678   2.894692
    34  H    5.631953   3.375268   3.759185   3.480928   3.964643
    35  C    4.250108   2.754665   2.543279   1.555457   2.188202
    36  H    4.106293   2.824436   3.015212   2.160868   3.024444
    37  C    5.572512   4.247313   3.837308   2.547213   2.629750
    38  C    6.542156   5.146110   4.517659   3.325561   2.958020
    39  H    6.744344   5.250989   4.499282   3.553332   2.984142
    40  N    7.614169   6.364109   5.774060   4.448518   4.083653
    41  H    8.519912   7.262863   6.604335   5.316340   4.823076
    42  C    7.416183   6.332749   5.919015   4.498550   4.399132
    43  H    8.281294   7.309364   6.932017   5.483476   5.394867
    44  N    6.249329   5.185821   4.916682   3.534395   3.712179
                   26         27         28         29         30
    26  H    0.000000
    27  H    3.050842   0.000000
    28  H    2.437235   1.743355   0.000000
    29  C    3.733597   2.608676   3.383751   0.000000
    30  H    4.658888   2.817448   3.855897   1.096515   0.000000
    31  H    4.203349   3.642881   4.146073   1.088553   1.754319
    32  C    3.408458   2.674260   3.763007   1.538320   2.184592
    33  H    3.780489   2.322792   3.795577   2.182028   2.412379
    34  H    4.282404   3.732265   4.841117   2.148574   2.620022
    35  C    2.181166   2.965068   3.484548   2.531406   3.466548
    36  H    2.332081   3.681309   3.841207   2.665474   3.732227
    37  C    2.993892   4.091141   4.707373   3.881406   4.710894
    38  C    3.927498   4.473030   5.368206   4.698888   5.324370
    39  H    4.335132   4.199983   5.332682   4.790584   5.227537
    40  N    4.829565   5.816919   6.575682   5.899971   6.577249
    41  H    5.722459   6.547401   7.384157   6.768884   7.370057
    42  C    4.633109   6.195798   6.694435   5.923314   6.751685
    43  H    5.497931   7.255476   7.671195   6.903148   7.752874
    44  N    3.607829   5.340279   5.699558   4.848965   5.769937
                   31         32         33         34         35
    31  H    0.000000
    32  C    2.174107   0.000000
    33  H    3.055340   1.096466   0.000000
    34  H    2.369801   1.092495   1.755938   0.000000
    35  C    2.958635   1.540925   2.172568   2.181290   0.000000
    36  H    2.693812   2.140432   3.052635   2.534285   1.096497
    37  C    4.238395   2.548166   2.875044   2.735375   1.502648
    38  C    5.219907   3.209028   3.076052   3.317132   2.602990
    39  H    5.477557   3.323267   2.827271   3.522022   3.083271
    40  N    6.280270   4.417345   4.401239   4.334502   3.672375
    41  H    7.189703   5.254818   5.104702   5.130185   4.622748
    42  C    6.099263   4.579351   4.874751   4.441149   3.585920
    43  H    6.989642   5.599002   5.937479   5.384544   4.588308
    44  N    4.951673   3.664503   4.177521   3.631105   2.512515
                   36         37         38         39         40
    36  H    0.000000
    37  C    2.089328   0.000000
    38  C    3.410926   1.378660   0.000000
    39  H    4.061750   2.254624   1.078069   0.000000
    40  N    4.237442   2.194825   1.378243   2.149774   0.000000
    41  H    5.236589   3.174961   2.134888   2.540986   1.009234
    42  C    3.797794   2.153294   2.206206   3.229618   1.359771
    43  H    4.660782   3.207658   3.238533   4.212434   2.142241
    44  N    2.526249   1.382945   2.259469   3.321494   2.216215
                   41         42         43         44
    41  H    0.000000
    42  C    2.121500   0.000000
    43  H    2.540000   1.081431   0.000000
    44  N    3.183763   1.318905   2.142104   0.000000
 Stoichiometry    C15H24N4S
 Framework group  C1[X(C15H24N4S)]
 Deg. of freedom   126
 Full point group                 C1      NOp   1
 Largest Abelian subgroup         C1      NOp   1
 Largest concise Abelian subgroup C1      NOp   1
                         Standard orientation:                         
 ---------------------------------------------------------------------
 Center     Atomic      Atomic             Coordinates (Angstroms)
 Number     Number       Type             X           Y           Z
 ---------------------------------------------------------------------
      1         16           0       -1.617276    2.381974   -0.975596
      2          6           0       -1.028961    1.144364    0.045400
      3          7           0       -1.823771    0.126879    0.477400
      4          6           0       -3.232655   -0.062669    0.132490
      5          6           0       -3.400984   -0.947439   -1.112336
      6          6           0       -4.883134   -1.181289   -1.435926
      7          6           0       -5.635670   -1.765634   -0.233869
      8          6           0       -5.464192   -0.885852    1.012443
      9          6           0       -3.982304   -0.648607    1.337217
     10          1           0       -3.517399   -1.603003    1.622414
     11          1           0       -3.876726    0.023588    2.194955
     12          1           0       -5.963809   -1.341114    1.874246
     13          1           0       -5.953822    0.081789    0.841658
     14          1           0       -5.251333   -2.772561   -0.021000
     15          1           0       -6.699662   -1.880488   -0.471142
     16          1           0       -4.975742   -1.843895   -2.303089
     17          1           0       -5.344156   -0.226326   -1.722736
     18          1           0       -2.908588   -1.913466   -0.931221
     19          1           0       -2.888147   -0.476634   -1.956685
     20          1           0       -3.621077    0.932886   -0.091736
     21          1           0       -1.371980   -0.694392    0.858456
     22          7           0        0.258045    1.142103    0.485161
     23          6           0        0.784892    0.294218    1.559089
     24          6           0        1.863896   -0.664086    1.029675
     25          1           0        2.505862   -0.958994    1.865263
     26          1           0        1.413672   -1.579447    0.633185
     27          1           0        1.224564    0.964164    2.307076
     28          1           0       -0.023036   -0.229469    2.066204
     29          6           0        1.247308    2.087889   -0.047052
     30          1           0        1.133829    3.066756    0.433873
     31          1           0        1.025949    2.228657   -1.103523
     32          6           0        2.675759    1.547767    0.137950
     33          1           0        3.054720    1.788633    1.138255
     34          1           0        3.329618    2.054727   -0.575496
     35          6           0        2.710821    0.022681   -0.079611
     36          1           0        2.230411   -0.180154   -1.044168
     37          6           0        4.100008   -0.540547   -0.183928
     38          6           0        5.161547   -0.406443    0.685472
     39          1           0        5.280088    0.113313    1.622507
     40          7           0        6.194167   -1.123079    0.120068
     41          1           0        7.123687   -1.226852    0.499248
     42          6           0        5.731753   -1.651154   -1.044530
     43          1           0        6.350724   -2.261363   -1.687969
     44          7           0        4.473026   -1.322636   -1.261765
 ---------------------------------------------------------------------
 Rotational constants (GHZ):      0.6617099      0.1186831      0.1114702
 Leave Link  202 at Sun Jan 24 22:53:03 2021, MaxMem=   262144000 cpu:         0.0
 (Enter /prod/apps/gaussian/g09d1/l301.exe)
 Standard basis: 6-31G(d) (6D, 7F)
 Ernie: Thresh=  0.10000D-02 Tol=  0.10000D-05 Strict=F.
 There are   352 symmetry adapted cartesian basis functions of A   symmetry.
 There are   352 symmetry adapted basis functions of A   symmetry.
   352 basis functions,   680 primitive gaussians,   352 cartesian basis functions
    79 alpha electrons       79 beta electrons
       nuclear repulsion energy      1681.7124062294 Hartrees.
 IExCor=  402 DFT=T Ex+Corr=B3LYP ExCW=0 ScaHFX=  0.200000
 ScaDFX=  0.800000  0.720000  1.000000  0.810000 ScalE2=  1.000000  1.000000
 IRadAn=      0 IRanWt=     -1 IRanGd=            0 ICorTp=0 IEmpDi=  4
 NAtoms=   44 NActive=   44 NUniq=   44 SFac= 1.00D+00 NAtFMM=   60 NAOKFM=F Big=F
 Integral buffers will be    131072 words long.
 Raffenetti 2 integral format.
 Two-electron integral symmetry is turned on.
 Leave Link  301 at Sun Jan 24 22:53:03 2021, MaxMem=   262144000 cpu:         0.0
 (Enter /prod/apps/gaussian/g09d1/l302.exe)
 NPDir=0 NMtPBC=     1 NCelOv=     1 NCel=       1 NClECP=     1 NCelD=      1
         NCelK=      1 NCelE2=     1 NClLst=     1 CellRange=     0.0.
 One-electron integrals computed using PRISM.
 NBasis=   352 RedAO= T EigKep=  1.34D-03  NBF=   352
 NBsUse=   352 1.00D-06 EigRej= -1.00D+00 NBFU=   352
 Precomputing XC quadrature grid using
 IXCGrd= 4 IRadAn=           0 IRanWt=          -1 IRanGd=           0 AccXCQ= 0.00D+00.
 Generated NRdTot=       0 NPtTot=           0 NUsed=           0 NTot=          32
 NSgBfM=   345   345   345   345   345 MxSgAt=    44 MxSgA2=    44.
 Leave Link  302 at Sun Jan 24 22:53:05 2021, MaxMem=   262144000 cpu:         2.1
 (Enter /prod/apps/gaussian/g09d1/l303.exe)
 DipDrv:  MaxL=1.
 Leave Link  303 at Sun Jan 24 22:53:05 2021, MaxMem=   262144000 cpu:         0.0
 (Enter /prod/apps/gaussian/g09d1/l401.exe)
 ExpMin= 1.17D-01 ExpMax= 2.19D+04 ExpMxC= 3.30D+03 IAcc=1 IRadAn=         1 AccDes= 0.00D+00
 Harris functional with IExCor=  402 and IRadAn=       1 diagonalized for initial guess.
 HarFok:  IExCor=  402 AccDes= 0.00D+00 IRadAn=         1 IDoV= 1 UseB2=F ITyADJ=14
 ICtDFT=  3500011 ScaDFX=  1.000000  1.000000  1.000000  1.000000
 FoFCou: FMM=F IPFlag=           0 FMFlag=      100000 FMFlg1=           0
         NFxFlg=           0 DoJE=T BraDBF=F KetDBF=T FulRan=T
         wScrn=  0.000000 ICntrl=     500 IOpCl=  0 I1Cent=   200000004 NGrid=           0
         NMat0=    1 NMatS0=      1 NMatT0=    0 NMatD0=    1 NMtDS0=    0 NMtDT0=    0
 Petite list used in FoFCou.
 Harris En= -1203.17812706784    
 JPrj=0 DoOrth=F DoCkMO=F.
 Leave Link  401 at Sun Jan 24 22:53:10 2021, MaxMem=   262144000 cpu:         5.6
 (Enter /prod/apps/gaussian/g09d1/l502.exe)
 Closed shell SCF:
 Using DIIS extrapolation, IDIIS=  1040.
 Integral symmetry usage will be decided dynamically.
 IVT=      395055 IEndB=      395055 NGot=   262144000 MDV=   261889842
 LenX=   261889842 LenY=   261765497
 Requested convergence on RMS density matrix=1.00D-08 within 128 cycles.
 Requested convergence on MAX density matrix=1.00D-06.
 Requested convergence on             energy=1.00D-06.
 No special actions if energy rises.
 Fock matrices will be formed incrementally for  20 cycles.
 Integral accuracy reduced to 1.0D-05 until final iterations.

 Cycle   1  Pass 0  IDiag  1:
 FoFJK:  IHMeth= 1 ICntrl=       0 DoSepK=F KAlg= 0 I1Cent=   0 FoldK=F
 IRaf= 700000000 NMat=   1 IRICut=       1 DoRegI=T DoRafI=F ISym2E= 0.
 FoFCou: FMM=F IPFlag=           0 FMFlag=      100000 FMFlg1=           0
         NFxFlg=           0 DoJE=F BraDBF=F KetDBF=F FulRan=T
         wScrn=  0.000000 ICntrl=       0 IOpCl=  0 I1Cent=           0 NGrid=           0
         NMat0=    1 NMatS0=      1 NMatT0=    0 NMatD0=    1 NMtDS0=    0 NMtDT0=    0
 Symmetry not used in FoFCou.
 E= -1202.79755058264    
 DIIS: error= 2.90D-02 at cycle   1 NSaved=   1.
 NSaved= 1 IEnMin= 1 EnMin= -1202.79755058264     IErMin= 1 ErrMin= 2.90D-02
 ErrMax= 2.90D-02  0.00D+00 EMaxC= 1.00D-01 BMatC= 4.33D-01 BMatP= 4.33D-01
 IDIUse=3 WtCom= 7.10D-01 WtEn= 2.90D-01
 Coeff-Com:  0.100D+01
 Coeff-En:   0.100D+01
 Coeff:      0.100D+01
 Gap=     0.226 Goal=   None    Shift=    0.000
 GapD=    0.226 DampG=1.000 DampE=0.500 DampFc=0.5000 IDamp=-1.
 Damping current iteration by 5.00D-01
 RMSDP=4.74D-03 MaxDP=1.46D-01              OVMax= 2.18D-01

 Cycle   2  Pass 0  IDiag  1:
 RMSU=  2.34D-03    CP:  9.80D-01
 E= -1202.98875145889     Delta-E=       -0.191200876256 Rises=F Damp=T
 DIIS: error= 6.69D-03 at cycle   2 NSaved=   2.
 NSaved= 2 IEnMin= 2 EnMin= -1202.98875145889     IErMin= 2 ErrMin= 6.69D-03
 ErrMax= 6.69D-03  0.00D+00 EMaxC= 1.00D-01 BMatC= 3.75D-02 BMatP= 4.33D-01
 IDIUse=3 WtCom= 9.33D-01 WtEn= 6.69D-02
 Coeff-Com:  0.898D-01 0.910D+00
 Coeff-En:   0.159D+00 0.841D+00
 Coeff:      0.944D-01 0.906D+00
 Gap=     0.261 Goal=   None    Shift=    0.000
 RMSDP=1.25D-03 MaxDP=5.42D-02 DE=-1.91D-01 OVMax= 1.78D-01

 Cycle   3  Pass 0  IDiag  1:
 RMSU=  1.16D-03    CP:  9.78D-01  8.02D-01
 E= -1203.23358186767     Delta-E=       -0.244830408773 Rises=F Damp=F
 DIIS: error= 7.78D-03 at cycle   3 NSaved=   3.
 NSaved= 3 IEnMin= 3 EnMin= -1203.23358186767     IErMin= 2 ErrMin= 6.69D-03
 ErrMax= 7.78D-03  0.00D+00 EMaxC= 1.00D-01 BMatC= 2.74D-02 BMatP= 3.75D-02
 IDIUse=3 WtCom= 9.22D-01 WtEn= 7.78D-02
 Coeff-Com: -0.119D-01 0.454D+00 0.558D+00
 Coeff-En:   0.000D+00 0.000D+00 0.100D+01
 Coeff:     -0.110D-01 0.419D+00 0.592D+00
 Gap=     0.202 Goal=   None    Shift=    0.000
 RMSDP=7.30D-04 MaxDP=3.51D-02 DE=-2.45D-01 OVMax= 9.01D-02

 Cycle   4  Pass 0  IDiag  1:
 RMSU=  4.94D-04    CP:  9.79D-01  8.93D-01  5.75D-01
 E= -1203.24971954828     Delta-E=       -0.016137680611 Rises=F Damp=F
 DIIS: error= 5.58D-03 at cycle   4 NSaved=   4.
 NSaved= 4 IEnMin= 4 EnMin= -1203.24971954828     IErMin= 4 ErrMin= 5.58D-03
 ErrMax= 5.58D-03  0.00D+00 EMaxC= 1.00D-01 BMatC= 1.09D-02 BMatP= 2.74D-02
 IDIUse=3 WtCom= 9.44D-01 WtEn= 5.58D-02
 Coeff-Com: -0.178D-01 0.137D+00 0.397D+00 0.484D+00
 Coeff-En:   0.000D+00 0.000D+00 0.309D+00 0.691D+00
 Coeff:     -0.168D-01 0.129D+00 0.392D+00 0.496D+00
 Gap=     0.201 Goal=   None    Shift=    0.000
 RMSDP=3.30D-04 MaxDP=1.65D-02 DE=-1.61D-02 OVMax= 4.38D-02

 Cycle   5  Pass 0  IDiag  1:
 RMSU=  1.78D-04    CP:  9.78D-01  8.68D-01  6.79D-01  5.09D-01
 E= -1203.25934045955     Delta-E=       -0.009620911267 Rises=F Damp=F
 DIIS: error= 1.10D-03 at cycle   5 NSaved=   5.
 NSaved= 5 IEnMin= 5 EnMin= -1203.25934045955     IErMin= 5 ErrMin= 1.10D-03
 ErrMax= 1.10D-03  0.00D+00 EMaxC= 1.00D-01 BMatC= 5.94D-04 BMatP= 1.09D-02
 IDIUse=3 WtCom= 9.89D-01 WtEn= 1.10D-02
 Coeff-Com: -0.684D-02 0.261D-01 0.150D+00 0.269D+00 0.562D+00
 Coeff-En:   0.000D+00 0.000D+00 0.000D+00 0.000D+00 0.100D+01
 Coeff:     -0.677D-02 0.258D-01 0.148D+00 0.266D+00 0.567D+00
 Gap=     0.200 Goal=   None    Shift=    0.000
 RMSDP=9.85D-05 MaxDP=4.96D-03 DE=-9.62D-03 OVMax= 7.65D-03

 Cycle   6  Pass 0  IDiag  1:
 RMSU=  4.31D-05    CP:  9.78D-01  8.74D-01  6.92D-01  5.55D-01  5.34D-01
 E= -1203.25988646155     Delta-E=       -0.000546002001 Rises=F Damp=F
 DIIS: error= 2.30D-04 at cycle   6 NSaved=   6.
 NSaved= 6 IEnMin= 6 EnMin= -1203.25988646155     IErMin= 6 ErrMin= 2.30D-04
 ErrMax= 2.30D-04  0.00D+00 EMaxC= 1.00D-01 BMatC= 4.29D-05 BMatP= 5.94D-04
 IDIUse=3 WtCom= 9.98D-01 WtEn= 2.30D-03
 Coeff-Com: -0.242D-02 0.410D-02 0.499D-01 0.103D+00 0.302D+00 0.543D+00
 Coeff-En:   0.000D+00 0.000D+00 0.000D+00 0.000D+00 0.000D+00 0.100D+01
 Coeff:     -0.241D-02 0.409D-02 0.498D-01 0.103D+00 0.301D+00 0.544D+00
 Gap=     0.200 Goal=   None    Shift=    0.000
 RMSDP=2.40D-05 MaxDP=1.02D-03 DE=-5.46D-04 OVMax= 2.24D-03

 Cycle   7  Pass 0  IDiag  1:
 RMSU=  1.15D-05    CP:  9.78D-01  8.72D-01  6.93D-01  5.60D-01  5.97D-01
                    CP:  5.98D-01
 E= -1203.25992704557     Delta-E=       -0.000040584021 Rises=F Damp=F
 DIIS: error= 6.02D-05 at cycle   7 NSaved=   7.
 NSaved= 7 IEnMin= 7 EnMin= -1203.25992704557     IErMin= 7 ErrMin= 6.02D-05
 ErrMax= 6.02D-05  0.00D+00 EMaxC= 1.00D-01 BMatC= 2.56D-06 BMatP= 4.29D-05
 IDIUse=1 WtCom= 1.00D+00 WtEn= 0.00D+00
 Coeff-Com: -0.777D-03 0.455D-03 0.159D-01 0.350D-01 0.119D+00 0.278D+00
 Coeff-Com:  0.553D+00
 Coeff:     -0.777D-03 0.455D-03 0.159D-01 0.350D-01 0.119D+00 0.278D+00
 Coeff:      0.553D+00
 Gap=     0.200 Goal=   None    Shift=    0.000
 RMSDP=6.65D-06 MaxDP=3.33D-04 DE=-4.06D-05 OVMax= 6.22D-04

 Initial convergence to 1.0D-05 achieved.  Increase integral accuracy.
 Cycle   8  Pass 1  IDiag  1:
 E= -1203.25986378463     Delta-E=        0.000063260940 Rises=F Damp=F
 DIIS: error= 3.24D-05 at cycle   1 NSaved=   1.
 NSaved= 1 IEnMin= 1 EnMin= -1203.25986378463     IErMin= 1 ErrMin= 3.24D-05
 ErrMax= 3.24D-05  0.00D+00 EMaxC= 1.00D-01 BMatC= 8.52D-07 BMatP= 8.52D-07
 IDIUse=1 WtCom= 1.00D+00 WtEn= 0.00D+00
 Coeff-Com:  0.100D+01
 Coeff:      0.100D+01
 Gap=     0.200 Goal=   None    Shift=    0.000
 RMSDP=6.65D-06 MaxDP=3.33D-04 DE= 6.33D-05 OVMax= 4.77D-04

 Cycle   9  Pass 1  IDiag  1:
 RMSU=  1.96D-05    CP:  1.00D+00
 E= -1203.25986398463     Delta-E=       -0.000000200007 Rises=F Damp=F
 DIIS: error= 3.38D-05 at cycle   2 NSaved=   2.
 NSaved= 2 IEnMin= 2 EnMin= -1203.25986398463     IErMin= 1 ErrMin= 3.24D-05
 ErrMax= 3.38D-05  0.00D+00 EMaxC= 1.00D-01 BMatC= 7.25D-07 BMatP= 8.52D-07
 IDIUse=1 WtCom= 1.00D+00 WtEn= 0.00D+00
 Coeff-Com:  0.474D+00 0.526D+00
 Coeff:      0.474D+00 0.526D+00
 Gap=     0.200 Goal=   None    Shift=    0.000
 RMSDP=4.46D-06 MaxDP=2.47D-04 DE=-2.00D-07 OVMax= 4.40D-04

 Cycle  10  Pass 1  IDiag  1:
 RMSU=  4.35D-06    CP:  1.00D+00  9.50D-01
 E= -1203.25986458778     Delta-E=       -0.000000603146 Rises=F Damp=F
 DIIS: error= 1.52D-05 at cycle   3 NSaved=   3.
 NSaved= 3 IEnMin= 3 EnMin= -1203.25986458778     IErMin= 3 ErrMin= 1.52D-05
 ErrMax= 1.52D-05  0.00D+00 EMaxC= 1.00D-01 BMatC= 1.74D-07 BMatP= 7.25D-07
 IDIUse=1 WtCom= 1.00D+00 WtEn= 0.00D+00
 Coeff-Com:  0.342D-01 0.325D+00 0.640D+00
 Coeff:      0.342D-01 0.325D+00 0.640D+00
 Gap=     0.200 Goal=   None    Shift=    0.000
 RMSDP=1.79D-06 MaxDP=8.36D-05 DE=-6.03D-07 OVMax= 1.58D-04

 Cycle  11  Pass 1  IDiag  1:
 RMSU=  9.02D-07    CP:  1.00D+00  9.78D-01  6.67D-01
 E= -1203.25986475721     Delta-E=       -0.000000169437 Rises=F Damp=F
 DIIS: error= 4.04D-06 at cycle   4 NSaved=   4.
 NSaved= 4 IEnMin= 4 EnMin= -1203.25986475721     IErMin= 4 ErrMin= 4.04D-06
 ErrMax= 4.04D-06  0.00D+00 EMaxC= 1.00D-01 BMatC= 1.69D-08 BMatP= 1.74D-07
 IDIUse=1 WtCom= 1.00D+00 WtEn= 0.00D+00
 Coeff-Com: -0.555D-02 0.167D+00 0.382D+00 0.456D+00
 Coeff:     -0.555D-02 0.167D+00 0.382D+00 0.456D+00
 Gap=     0.200 Goal=   None    Shift=    0.000
 RMSDP=4.94D-07 MaxDP=2.05D-05 DE=-1.69D-07 OVMax= 3.17D-05

 Cycle  12  Pass 1  IDiag  1:
 RMSU=  2.08D-07    CP:  1.00D+00  9.79D-01  6.94D-01  5.21D-01
 E= -1203.25986477286     Delta-E=       -0.000000015644 Rises=F Damp=F
 DIIS: error= 1.17D-06 at cycle   5 NSaved=   5.
 NSaved= 5 IEnMin= 5 EnMin= -1203.25986477286     IErMin= 5 ErrMin= 1.17D-06
 ErrMax= 1.17D-06  0.00D+00 EMaxC= 1.00D-01 BMatC= 8.50D-10 BMatP= 1.69D-08
 IDIUse=1 WtCom= 1.00D+00 WtEn= 0.00D+00
 Coeff-Com: -0.507D-02 0.801D-01 0.189D+00 0.266D+00 0.471D+00
 Coeff:     -0.507D-02 0.801D-01 0.189D+00 0.266D+00 0.471D+00
 Gap=     0.200 Goal=   None    Shift=    0.000
 RMSDP=1.04D-07 MaxDP=5.46D-06 DE=-1.56D-08 OVMax= 1.08D-05

 Cycle  13  Pass 1  IDiag  1:
 RMSU=  7.36D-08    CP:  1.00D+00  9.80D-01  6.90D-01  5.35D-01  6.69D-01
 E= -1203.25986477366     Delta-E=       -0.000000000798 Rises=F Damp=F
 DIIS: error= 3.04D-07 at cycle   6 NSaved=   6.
 NSaved= 6 IEnMin= 6 EnMin= -1203.25986477366     IErMin= 6 ErrMin= 3.04D-07
 ErrMax= 3.04D-07  0.00D+00 EMaxC= 1.00D-01 BMatC= 5.14D-11 BMatP= 8.50D-10
 IDIUse=1 WtCom= 1.00D+00 WtEn= 0.00D+00
 Coeff-Com: -0.214D-02 0.281D-01 0.671D-01 0.101D+00 0.250D+00 0.556D+00
 Coeff:     -0.214D-02 0.281D-01 0.671D-01 0.101D+00 0.250D+00 0.556D+00
 Gap=     0.200 Goal=   None    Shift=    0.000
 RMSDP=2.75D-08 MaxDP=1.22D-06 DE=-7.98D-10 OVMax= 2.64D-06

 Cycle  14  Pass 1  IDiag  1:
 RMSU=  2.14D-08    CP:  1.00D+00  9.80D-01  6.91D-01  5.36D-01  6.89D-01
                    CP:  7.76D-01
 E= -1203.25986477374     Delta-E=       -0.000000000081 Rises=F Damp=F
 DIIS: error= 9.20D-08 at cycle   7 NSaved=   7.
 NSaved= 7 IEnMin= 7 EnMin= -1203.25986477374     IErMin= 7 ErrMin= 9.20D-08
 ErrMax= 9.20D-08  0.00D+00 EMaxC= 1.00D-01 BMatC= 5.37D-12 BMatP= 5.14D-11
 IDIUse=1 WtCom= 1.00D+00 WtEn= 0.00D+00
 Coeff-Com: -0.417D-03 0.335D-02 0.816D-02 0.148D-01 0.586D-01 0.280D+00
 Coeff-Com:  0.635D+00
 Coeff:     -0.417D-03 0.335D-02 0.816D-02 0.148D-01 0.586D-01 0.280D+00
 Coeff:      0.635D+00
 Gap=     0.200 Goal=   None    Shift=    0.000
 RMSDP=1.01D-08 MaxDP=4.31D-07 DE=-8.14D-11 OVMax= 9.21D-07

 Cycle  15  Pass 1  IDiag  1:
 RMSU=  8.14D-09    CP:  1.00D+00  9.80D-01  6.91D-01  5.37D-01  7.00D-01
                    CP:  8.05D-01  7.85D-01
 E= -1203.25986477377     Delta-E=       -0.000000000028 Rises=F Damp=F
 DIIS: error= 3.64D-08 at cycle   8 NSaved=   8.
 NSaved= 8 IEnMin= 8 EnMin= -1203.25986477377     IErMin= 8 ErrMin= 3.64D-08
 ErrMax= 3.64D-08  0.00D+00 EMaxC= 1.00D-01 BMatC= 1.09D-12 BMatP= 5.37D-12
 IDIUse=1 WtCom= 1.00D+00 WtEn= 0.00D+00
 Coeff-Com: -0.197D-04-0.968D-03-0.225D-02-0.182D-02 0.684D-02 0.106D+00
 Coeff-Com:  0.384D+00 0.509D+00
 Coeff:     -0.197D-04-0.968D-03-0.225D-02-0.182D-02 0.684D-02 0.106D+00
 Coeff:      0.384D+00 0.509D+00
 Gap=     0.200 Goal=   None    Shift=    0.000
 RMSDP=4.94D-09 MaxDP=2.85D-07 DE=-2.77D-11 OVMax= 4.61D-07

 SCF Done:  E(RB3LYP) =  -1203.25986477     A.U. after   15 cycles
            NFock= 15  Conv=0.49D-08     -V/T= 2.0076
 KE= 1.194218001102D+03 PE=-6.176412667320D+03 EE= 2.097222395215D+03
 Leave Link  502 at Sun Jan 24 22:59:40 2021, MaxMem=   262144000 cpu:       389.4
 (Enter /prod/apps/gaussian/g09d1/l601.exe)
 Copying SCF densities to generalized density rwf, IOpCl= 0 IROHF=0.

 **********************************************************************

            Population analysis using the SCF density.

 **********************************************************************

 Orbital symmetries:
       Occupied  (A) (A) (A) (A) (A) (A) (A) (A) (A) (A) (A) (A)
                 (A) (A) (A) (A) (A) (A) (A) (A) (A) (A) (A) (A)
                 (A) (A) (A) (A) (A) (A) (A) (A) (A) (A) (A) (A)
                 (A) (A) (A) (A) (A) (A) (A) (A) (A) (A) (A) (A)
                 (A) (A) (A) (A) (A) (A) (A) (A) (A) (A) (A) (A)
                 (A) (A) (A) (A) (A) (A) (A) (A) (A) (A) (A) (A)
                 (A) (A) (A) (A) (A) (A) (A)
       Virtual   (A) (A) (A) (A) (A) (A) (A) (A) (A) (A) (A) (A)
                 (A) (A) (A) (A) (A) (A) (A) (A) (A) (A) (A) (A)
                 (A) (A) (A) (A) (A) (A) (A) (A) (A) (A) (A) (A)
                 (A) (A) (A) (A) (A) (A) (A) (A) (A) (A) (A) (A)
                 (A) (A) (A) (A) (A) (A) (A) (A) (A) (A) (A) (A)
                 (A) (A) (A) (A) (A) (A) (A) (A) (A) (A) (A) (A)
                 (A) (A) (A) (A) (A) (A) (A) (A) (A) (A) (A) (A)
                 (A) (A) (A) (A) (A) (A) (A) (A) (A) (A) (A) (A)
                 (A) (A) (A) (A) (A) (A) (A) (A) (A) (A) (A) (A)
                 (A) (A) (A) (A) (A) (A) (A) (A) (A) (A) (A) (A)
                 (A) (A) (A) (A) (A) (A) (A) (A) (A) (A) (A) (A)
                 (A) (A) (A) (A) (A) (A) (A) (A) (A) (A) (A) (A)
                 (A) (A) (A) (A) (A) (A) (A) (A) (A) (A) (A) (A)
                 (A) (A) (A) (A) (A) (A) (A) (A) (A) (A) (A) (A)
                 (A) (A) (A) (A) (A) (A) (A) (A) (A) (A) (A) (A)
                 (A) (A) (A) (A) (A) (A) (A) (A) (A) (A) (A) (A)
                 (A) (A) (A) (A) (A) (A) (A) (A) (A) (A) (A) (A)
                 (A) (A) (A) (A) (A) (A) (A) (A) (A) (A) (A) (A)
                 (A) (A) (A) (A) (A) (A) (A) (A) (A) (A) (A) (A)
                 (A) (A) (A) (A) (A) (A) (A) (A) (A) (A) (A) (A)
                 (A) (A) (A) (A) (A) (A) (A) (A) (A) (A) (A) (A)
                 (A) (A) (A) (A) (A) (A) (A) (A) (A) (A) (A) (A)
                 (A) (A) (A) (A) (A) (A) (A) (A) (A)
 The electronic state is 1-A.
 Alpha  occ. eigenvalues --  -88.79447 -14.39873 -14.36436 -14.35660 -14.31243
 Alpha  occ. eigenvalues --  -10.28380 -10.24204 -10.23156 -10.21647 -10.21247
 Alpha  occ. eigenvalues --  -10.21070 -10.20417 -10.19561 -10.19319 -10.18856
 Alpha  occ. eigenvalues --  -10.18090 -10.17880 -10.17583 -10.17405 -10.17143
 Alpha  occ. eigenvalues --   -7.85661  -5.82244  -5.81588  -5.81268  -1.01648
 Alpha  occ. eigenvalues --   -0.98297  -0.91789  -0.87438  -0.82599  -0.81003
 Alpha  occ. eigenvalues --   -0.76694  -0.75346  -0.73792  -0.73189  -0.70570
 Alpha  occ. eigenvalues --   -0.66583  -0.64133  -0.62286  -0.61242  -0.60790
 Alpha  occ. eigenvalues --   -0.58877  -0.56815  -0.56622  -0.55683  -0.53899
 Alpha  occ. eigenvalues --   -0.52571  -0.49326  -0.48369  -0.47052  -0.45298
 Alpha  occ. eigenvalues --   -0.44484  -0.43921  -0.43706  -0.43464  -0.43147
 Alpha  occ. eigenvalues --   -0.42593  -0.41863  -0.40824  -0.39788  -0.39311
 Alpha  occ. eigenvalues --   -0.38545  -0.37450  -0.37357  -0.35957  -0.34855
 Alpha  occ. eigenvalues --   -0.34265  -0.34112  -0.33429  -0.32899  -0.32165
 Alpha  occ. eigenvalues --   -0.31829  -0.30698  -0.29820  -0.27892  -0.26949
 Alpha  occ. eigenvalues --   -0.22893  -0.22522  -0.19466  -0.18189
 Alpha virt. eigenvalues --    0.01782   0.02393   0.05892   0.06485   0.06678
 Alpha virt. eigenvalues --    0.08531   0.09182   0.10773   0.11979   0.12191
 Alpha virt. eigenvalues --    0.12648   0.13352   0.13786   0.14109   0.14240
 Alpha virt. eigenvalues --    0.14888   0.15151   0.16388   0.16553   0.17242
 Alpha virt. eigenvalues --    0.17494   0.17689   0.18105   0.18215   0.18806
 Alpha virt. eigenvalues --    0.19154   0.19319   0.19692   0.19861   0.21175
 Alpha virt. eigenvalues --    0.21449   0.23170   0.23357   0.24582   0.24673
 Alpha virt. eigenvalues --    0.25430   0.25757   0.26536   0.27460   0.28305
 Alpha virt. eigenvalues --    0.28756   0.28938   0.29699   0.31196   0.32876
 Alpha virt. eigenvalues --    0.33229   0.33864   0.37911   0.39920   0.44536
 Alpha virt. eigenvalues --    0.45263   0.45577   0.48015   0.49766   0.50375
 Alpha virt. eigenvalues --    0.51221   0.52785   0.53658   0.54022   0.54318
 Alpha virt. eigenvalues --    0.54802   0.55378   0.55817   0.56397   0.56931
 Alpha virt. eigenvalues --    0.57598   0.57802   0.58817   0.59661   0.60070
 Alpha virt. eigenvalues --    0.60629   0.62176   0.62610   0.63819   0.63946
 Alpha virt. eigenvalues --    0.65389   0.66156   0.66889   0.67702   0.68254
 Alpha virt. eigenvalues --    0.69076   0.69896   0.71170   0.72073   0.72577
 Alpha virt. eigenvalues --    0.73710   0.75491   0.75836   0.76211   0.77367
 Alpha virt. eigenvalues --    0.77952   0.79593   0.80463   0.81126   0.81964
 Alpha virt. eigenvalues --    0.82194   0.82836   0.83042   0.84181   0.84976
 Alpha virt. eigenvalues --    0.85870   0.86145   0.86474   0.87129   0.87936
 Alpha virt. eigenvalues --    0.87959   0.88524   0.88720   0.89433   0.90056
 Alpha virt. eigenvalues --    0.90371   0.91335   0.91894   0.92345   0.93325
 Alpha virt. eigenvalues --    0.93384   0.93955   0.94908   0.95813   0.95969
 Alpha virt. eigenvalues --    0.96498   0.97387   0.97998   0.98154   0.99224
 Alpha virt. eigenvalues --    1.00280   1.01079   1.02134   1.02982   1.03966
 Alpha virt. eigenvalues --    1.05884   1.08567   1.11583   1.13843   1.14714
 Alpha virt. eigenvalues --    1.15245   1.18036   1.19898   1.21663   1.23732
 Alpha virt. eigenvalues --    1.24348   1.26514   1.28368   1.33607   1.35354
 Alpha virt. eigenvalues --    1.36067   1.36454   1.37877   1.38988   1.40018
 Alpha virt. eigenvalues --    1.40439   1.42222   1.42866   1.46712   1.48608
 Alpha virt. eigenvalues --    1.51602   1.52762   1.55148   1.55797   1.56792
 Alpha virt. eigenvalues --    1.58189   1.59304   1.61388   1.62772   1.67457
 Alpha virt. eigenvalues --    1.69449   1.70527   1.71365   1.73005   1.73673
 Alpha virt. eigenvalues --    1.74611   1.76981   1.78359   1.80176   1.81557
 Alpha virt. eigenvalues --    1.81964   1.85696   1.87786   1.89373   1.89983
 Alpha virt. eigenvalues --    1.90626   1.91745   1.92204   1.95500   1.96201
 Alpha virt. eigenvalues --    1.97221   1.98338   1.98757   1.99486   2.00380
 Alpha virt. eigenvalues --    2.01586   2.02561   2.02866   2.05096   2.05339
 Alpha virt. eigenvalues --    2.05706   2.06667   2.08137   2.09225   2.10016
 Alpha virt. eigenvalues --    2.11702   2.15376   2.15585   2.17987   2.20244
 Alpha virt. eigenvalues --    2.21059   2.22475   2.23244   2.25034   2.27117
 Alpha virt. eigenvalues --    2.27358   2.27824   2.29094   2.31099   2.33239
 Alpha virt. eigenvalues --    2.33567   2.36240   2.36661   2.38188   2.38590
 Alpha virt. eigenvalues --    2.39846   2.40344   2.41065   2.42712   2.44543
 Alpha virt. eigenvalues --    2.46734   2.48926   2.50924   2.52649   2.53649
 Alpha virt. eigenvalues --    2.56928   2.58631   2.59405   2.61192   2.62627
 Alpha virt. eigenvalues --    2.64932   2.65016   2.66191   2.69030   2.71311
 Alpha virt. eigenvalues --    2.72502   2.74428   2.76684   2.78087   2.80160
 Alpha virt. eigenvalues --    2.81516   2.83963   2.90790   2.98272   3.02001
 Alpha virt. eigenvalues --    3.06517   3.12773   3.14501   3.88387   3.99103
 Alpha virt. eigenvalues --    4.01683   4.04466   4.06274   4.14894   4.16162
 Alpha virt. eigenvalues --    4.21640   4.26246   4.26878   4.28961   4.29077
 Alpha virt. eigenvalues --    4.35961   4.41022   4.51990   4.53377   4.55529
 Alpha virt. eigenvalues --    4.56127   4.63523   4.76847
          Condensed to atoms (all electrons):
               1          2          3          4          5          6
     1  S   16.054718   0.453789  -0.094987  -0.013806  -0.005621  -0.000172
     2  C    0.453789   4.679827   0.312604  -0.032301  -0.002430  -0.000017
     3  N   -0.094987   0.312604   7.040629   0.277948  -0.056349   0.004015
     4  C   -0.013806  -0.032301   0.277948   4.834722   0.388804  -0.033701
     5  C   -0.005621  -0.002430  -0.056349   0.388804   5.077672   0.360989
     6  C   -0.000172  -0.000017   0.004015  -0.033701   0.360989   5.004552
     7  C    0.000002   0.000001   0.000169  -0.013760  -0.043718   0.384229
     8  C    0.000029  -0.000071   0.003458  -0.037108  -0.007306  -0.048946
     9  C    0.001690   0.004799  -0.050788   0.375296  -0.058725  -0.009374
    10  H   -0.000101  -0.000229  -0.004944  -0.037451  -0.007347  -0.000320
    11  H    0.000179   0.000446   0.001931  -0.034542   0.005766  -0.000057
    12  H    0.000000   0.000001  -0.000099   0.004242  -0.000063   0.004927
    13  H   -0.000061  -0.000004   0.000014  -0.004899  -0.001015  -0.004304
    14  H   -0.000002   0.000000  -0.000018  -0.000971  -0.004603  -0.041405
    15  H    0.000000   0.000000   0.000003   0.000223   0.004832  -0.032340
    16  H    0.000005  -0.000001  -0.000113   0.004104  -0.029714   0.367769
    17  H    0.000108   0.000002  -0.000007  -0.005685  -0.040022   0.375499
    18  H   -0.000006   0.000004  -0.002865  -0.040489   0.357822  -0.037900
    19  H    0.007695   0.002764  -0.002691  -0.030138   0.365964  -0.026126
    20  H    0.020871  -0.002758  -0.043492   0.377059  -0.045650  -0.001424
    21  H    0.004502  -0.023022   0.280104  -0.028495  -0.002695  -0.000037
    22  N   -0.095449   0.332037  -0.068622   0.003043  -0.000123   0.000000
    23  C    0.004581  -0.031784  -0.008482   0.000371  -0.000029   0.000000
    24  C   -0.000291   0.001980  -0.000574  -0.000012  -0.000001   0.000000
    25  H    0.000006  -0.000136   0.000002   0.000000   0.000000   0.000000
    26  H   -0.000009   0.000712  -0.000050  -0.000016   0.000002   0.000000
    27  H    0.000048   0.002492   0.000481  -0.000003   0.000001   0.000000
    28  H   -0.000124  -0.009034   0.010019   0.000146   0.000052  -0.000001
    29  C   -0.011818  -0.044470   0.003302  -0.000057   0.000003   0.000000
    30  H    0.003215  -0.002042  -0.000048   0.000006   0.000000   0.000000
    31  H    0.012092  -0.004771   0.000267   0.000000  -0.000004   0.000000
    32  C    0.002756   0.006109  -0.000027   0.000000   0.000000   0.000000
    33  H   -0.000087  -0.000298  -0.000001   0.000000   0.000000   0.000000
    34  H    0.000036  -0.000019   0.000002   0.000000   0.000000   0.000000
    35  C   -0.000019   0.000086  -0.000035   0.000001   0.000000   0.000000
    36  H   -0.000047  -0.000263   0.000001   0.000000   0.000000   0.000000
    37  C    0.000000   0.000003   0.000000   0.000000   0.000000   0.000000
    38  C    0.000000   0.000000   0.000000   0.000000   0.000000   0.000000
    39  H    0.000000   0.000000   0.000000   0.000000   0.000000   0.000000
    40  N    0.000000   0.000000   0.000000   0.000000   0.000000   0.000000
    41  H    0.000000   0.000000   0.000000   0.000000   0.000000   0.000000
    42  C    0.000000   0.000000   0.000000   0.000000   0.000000   0.000000
    43  H    0.000000   0.000000   0.000000   0.000000   0.000000   0.000000
    44  N    0.000000   0.000000   0.000000   0.000000   0.000000   0.000000
               7          8          9         10         11         12
     1  S    0.000002   0.000029   0.001690  -0.000101   0.000179   0.000000
     2  C    0.000001  -0.000071   0.004799  -0.000229   0.000446   0.000001
     3  N    0.000169   0.003458  -0.050788  -0.004944   0.001931  -0.000099
     4  C   -0.013760  -0.037108   0.375296  -0.037451  -0.034542   0.004242
     5  C   -0.043718  -0.007306  -0.058725  -0.007347   0.005766  -0.000063
     6  C    0.384229  -0.048946  -0.009374  -0.000320  -0.000057   0.004927
     7  C    4.997250   0.383621  -0.041815  -0.004799   0.004556  -0.032070
     8  C    0.383621   5.003466   0.366105  -0.037922  -0.026666   0.367586
     9  C   -0.041815   0.366105   5.077181   0.357244   0.364154  -0.030687
    10  H   -0.004799  -0.037922   0.357244   0.638489  -0.039486  -0.004829
    11  H    0.004556  -0.026666   0.364154  -0.039486   0.593633  -0.002742
    12  H   -0.032070   0.367586  -0.030687  -0.004829  -0.002742   0.604691
    13  H   -0.040246   0.374555  -0.040552   0.006144  -0.004443  -0.036568
    14  H    0.370919  -0.041756  -0.004950   0.005152  -0.000054  -0.004458
    15  H    0.368843  -0.032737   0.004797  -0.000041  -0.000153  -0.002192
    16  H   -0.032896   0.005059  -0.000002  -0.000042   0.000013  -0.000174
    17  H   -0.041126  -0.004716  -0.000806   0.000166  -0.000031  -0.000056
    18  H   -0.005255  -0.000486  -0.007253   0.005498  -0.000106  -0.000034
    19  H    0.004420   0.000031   0.005465  -0.000118  -0.000163   0.000011
    20  H   -0.000936  -0.002821  -0.039380   0.005510  -0.005143  -0.000066
    21  H   -0.000016  -0.000134  -0.003127   0.006068  -0.000347   0.000002
    22  N    0.000000   0.000001  -0.000086   0.000002  -0.000025   0.000000
    23  C    0.000000   0.000000  -0.000034  -0.000033  -0.000026   0.000000
    24  C    0.000000   0.000000   0.000002   0.000000   0.000000   0.000000
    25  H    0.000000   0.000000   0.000000   0.000000   0.000000   0.000000
    26  H    0.000000   0.000000  -0.000001  -0.000001   0.000000   0.000000
    27  H    0.000000   0.000000  -0.000002   0.000000   0.000002   0.000000
    28  H    0.000000   0.000002   0.000064   0.000039   0.000150   0.000000
    29  C    0.000000   0.000000   0.000001   0.000000   0.000000   0.000000
    30  H    0.000000   0.000000   0.000000   0.000000   0.000000   0.000000
    31  H    0.000000   0.000000   0.000000   0.000000   0.000000   0.000000
    32  C    0.000000   0.000000   0.000000   0.000000   0.000000   0.000000
    33  H    0.000000   0.000000   0.000000   0.000000   0.000000   0.000000
    34  H    0.000000   0.000000   0.000000   0.000000   0.000000   0.000000
    35  C    0.000000   0.000000   0.000000   0.000000   0.000000   0.000000
    36  H    0.000000   0.000000   0.000000   0.000000   0.000000   0.000000
    37  C    0.000000   0.000000   0.000000   0.000000   0.000000   0.000000
    38  C    0.000000   0.000000   0.000000   0.000000   0.000000   0.000000
    39  H    0.000000   0.000000   0.000000   0.000000   0.000000   0.000000
    40  N    0.000000   0.000000   0.000000   0.000000   0.000000   0.000000
    41  H    0.000000   0.000000   0.000000   0.000000   0.000000   0.000000
    42  C    0.000000   0.000000   0.000000   0.000000   0.000000   0.000000
    43  H    0.000000   0.000000   0.000000   0.000000   0.000000   0.000000
    44  N    0.000000   0.000000   0.000000   0.000000   0.000000   0.000000
              13         14         15         16         17         18
     1  S   -0.000061  -0.000002   0.000000   0.000005   0.000108  -0.000006
     2  C   -0.000004   0.000000   0.000000  -0.000001   0.000002   0.000004
     3  N    0.000014  -0.000018   0.000003  -0.000113  -0.000007  -0.002865
     4  C   -0.004899  -0.000971   0.000223   0.004104  -0.005685  -0.040489
     5  C   -0.001015  -0.004603   0.004832  -0.029714  -0.040022   0.357822
     6  C   -0.004304  -0.041405  -0.032340   0.367769   0.375499  -0.037900
     7  C   -0.040246   0.370919   0.368843  -0.032896  -0.041126  -0.005255
     8  C    0.374555  -0.041756  -0.032737   0.005059  -0.004716  -0.000486
     9  C   -0.040552  -0.004950   0.004797  -0.000002  -0.000806  -0.007253
    10  H    0.006144   0.005152  -0.000041  -0.000042   0.000166   0.005498
    11  H   -0.004443  -0.000054  -0.000153   0.000013  -0.000031  -0.000106
    12  H   -0.036568  -0.004458  -0.002192  -0.000174  -0.000056  -0.000034
    13  H    0.601939   0.006052  -0.004322  -0.000068   0.004831   0.000167
    14  H    0.006052   0.621041  -0.037149  -0.004475   0.006012   0.005136
    15  H   -0.004322  -0.037149   0.604267  -0.002138  -0.004168  -0.000030
    16  H   -0.000068  -0.004475  -0.002138   0.602434  -0.036139  -0.004864
    17  H    0.004831   0.006012  -0.004168  -0.036139   0.598503   0.006060
    18  H    0.000167   0.005136  -0.000030  -0.004864   0.006060   0.639293
    19  H   -0.000032  -0.000049  -0.000142  -0.002426  -0.003999  -0.035918
    20  H    0.004461   0.000153  -0.000004  -0.000124   0.004706   0.006014
    21  H    0.000015   0.000001   0.000000   0.000001   0.000010   0.004321
    22  N    0.000000   0.000000   0.000000   0.000000   0.000000  -0.000010
    23  C    0.000000   0.000000   0.000000   0.000000   0.000000  -0.000004
    24  C    0.000000   0.000000   0.000000   0.000000   0.000000   0.000002
    25  H    0.000000   0.000000   0.000000   0.000000   0.000000   0.000000
    26  H    0.000000   0.000000   0.000000   0.000000   0.000000   0.000006
    27  H    0.000000   0.000000   0.000000   0.000000   0.000000   0.000000
    28  H    0.000000   0.000000   0.000000   0.000000   0.000000  -0.000026
    29  C    0.000000   0.000000   0.000000   0.000000   0.000000   0.000000
    30  H    0.000000   0.000000   0.000000   0.000000   0.000000   0.000000
    31  H    0.000000   0.000000   0.000000   0.000000   0.000000   0.000000
    32  C    0.000000   0.000000   0.000000   0.000000   0.000000   0.000000
    33  H    0.000000   0.000000   0.000000   0.000000   0.000000   0.000000
    34  H    0.000000   0.000000   0.000000   0.000000   0.000000   0.000000
    35  C    0.000000   0.000000   0.000000   0.000000   0.000000   0.000000
    36  H    0.000000   0.000000   0.000000   0.000000   0.000000   0.000000
    37  C    0.000000   0.000000   0.000000   0.000000   0.000000   0.000000
    38  C    0.000000   0.000000   0.000000   0.000000   0.000000   0.000000
    39  H    0.000000   0.000000   0.000000   0.000000   0.000000   0.000000
    40  N    0.000000   0.000000   0.000000   0.000000   0.000000   0.000000
    41  H    0.000000   0.000000   0.000000   0.000000   0.000000   0.000000
    42  C    0.000000   0.000000   0.000000   0.000000   0.000000   0.000000
    43  H    0.000000   0.000000   0.000000   0.000000   0.000000   0.000000
    44  N    0.000000   0.000000   0.000000   0.000000   0.000000   0.000000
              19         20         21         22         23         24
     1  S    0.007695   0.020871   0.004502  -0.095449   0.004581  -0.000291
     2  C    0.002764  -0.002758  -0.023022   0.332037  -0.031784   0.001980
     3  N   -0.002691  -0.043492   0.280104  -0.068622  -0.008482  -0.000574
     4  C   -0.030138   0.377059  -0.028495   0.003043   0.000371  -0.000012
     5  C    0.365964  -0.045650  -0.002695  -0.000123  -0.000029  -0.000001
     6  C   -0.026126  -0.001424  -0.000037   0.000000   0.000000   0.000000
     7  C    0.004420  -0.000936  -0.000016   0.000000   0.000000   0.000000
     8  C    0.000031  -0.002821  -0.000134   0.000001   0.000000   0.000000
     9  C    0.005465  -0.039380  -0.003127  -0.000086  -0.000034   0.000002
    10  H   -0.000118   0.005510   0.006068   0.000002  -0.000033   0.000000
    11  H   -0.000163  -0.005143  -0.000347  -0.000025  -0.000026   0.000000
    12  H    0.000011  -0.000066   0.000002   0.000000   0.000000   0.000000
    13  H   -0.000032   0.004461   0.000015   0.000000   0.000000   0.000000
    14  H   -0.000049   0.000153   0.000001   0.000000   0.000000   0.000000
    15  H   -0.000142  -0.000004   0.000000   0.000000   0.000000   0.000000
    16  H   -0.002426  -0.000124   0.000001   0.000000   0.000000   0.000000
    17  H   -0.003999   0.004706   0.000010   0.000000   0.000000   0.000000
    18  H   -0.035918   0.006014   0.004321  -0.000010  -0.000004   0.000002
    19  H    0.554368  -0.005361  -0.000226  -0.000082  -0.000001   0.000001
    20  H   -0.005361   0.539067   0.005920   0.000486  -0.000031   0.000000
    21  H   -0.000226   0.005920   0.434536  -0.005124   0.005249  -0.000166
    22  N   -0.000082   0.000486  -0.005124   6.929110   0.279782  -0.053438
    23  C   -0.000001  -0.000031   0.005249   0.279782   4.998772   0.333628
    24  C    0.000001   0.000000  -0.000166  -0.053438   0.333628   5.145239
    25  H    0.000000   0.000000   0.000000   0.004312  -0.031484   0.352254
    26  H   -0.000001   0.000000   0.000933  -0.000057  -0.032055   0.365895
    27  H    0.000000   0.000002   0.000004  -0.049015   0.377968  -0.051182
    28  H   -0.000001  -0.000043   0.001926  -0.033734   0.364092  -0.034456
    29  C    0.000000   0.000000  -0.000024   0.311229  -0.049948  -0.014038
    30  H    0.000000  -0.000001  -0.000002  -0.045709  -0.000863  -0.000569
    31  H    0.000002   0.000003  -0.000016  -0.040980   0.004524   0.000248
    32  C    0.000000   0.000000  -0.000038  -0.054964   0.000677  -0.048681
    33  H    0.000000   0.000000   0.000003  -0.002168   0.000703  -0.007188
    34  H    0.000000   0.000000   0.000000   0.003500   0.000042   0.005708
    35  C    0.000000   0.000000  -0.000021  -0.004994  -0.047547   0.354269
    36  H    0.000000   0.000000   0.000023   0.001496  -0.001536  -0.038597
    37  C    0.000000   0.000000  -0.000001   0.000742   0.003545  -0.036624
    38  C    0.000000   0.000000   0.000000  -0.000005   0.000163  -0.006780
    39  H    0.000000   0.000000   0.000000   0.000002  -0.000047   0.000527
    40  N    0.000000   0.000000   0.000000   0.000000   0.000000   0.000061
    41  H    0.000000   0.000000   0.000000   0.000000   0.000000  -0.000001
    42  C    0.000000   0.000000   0.000000   0.000000   0.000001  -0.000025
    43  H    0.000000   0.000000   0.000000   0.000000   0.000000   0.000004
    44  N    0.000000   0.000000   0.000000   0.000000  -0.000031   0.001537
              25         26         27         28         29         30
     1  S    0.000006  -0.000009   0.000048  -0.000124  -0.011818   0.003215
     2  C   -0.000136   0.000712   0.002492  -0.009034  -0.044470  -0.002042
     3  N    0.000002  -0.000050   0.000481   0.010019   0.003302  -0.000048
     4  C    0.000000  -0.000016  -0.000003   0.000146  -0.000057   0.000006
     5  C    0.000000   0.000002   0.000001   0.000052   0.000003   0.000000
     6  C    0.000000   0.000000   0.000000  -0.000001   0.000000   0.000000
     7  C    0.000000   0.000000   0.000000   0.000000   0.000000   0.000000
     8  C    0.000000   0.000000   0.000000   0.000002   0.000000   0.000000
     9  C    0.000000  -0.000001  -0.000002   0.000064   0.000001   0.000000
    10  H    0.000000  -0.000001   0.000000   0.000039   0.000000   0.000000
    11  H    0.000000   0.000000   0.000002   0.000150   0.000000   0.000000
    12  H    0.000000   0.000000   0.000000   0.000000   0.000000   0.000000
    13  H    0.000000   0.000000   0.000000   0.000000   0.000000   0.000000
    14  H    0.000000   0.000000   0.000000   0.000000   0.000000   0.000000
    15  H    0.000000   0.000000   0.000000   0.000000   0.000000   0.000000
    16  H    0.000000   0.000000   0.000000   0.000000   0.000000   0.000000
    17  H    0.000000   0.000000   0.000000   0.000000   0.000000   0.000000
    18  H    0.000000   0.000006   0.000000  -0.000026   0.000000   0.000000
    19  H    0.000000  -0.000001   0.000000  -0.000001   0.000000   0.000000
    20  H    0.000000   0.000000   0.000002  -0.000043   0.000000  -0.000001
    21  H    0.000000   0.000933   0.000004   0.001926  -0.000024  -0.000002
    22  N    0.004312  -0.000057  -0.049015  -0.033734   0.311229  -0.045709
    23  C   -0.031484  -0.032055   0.377968   0.364092  -0.049948  -0.000863
    24  C    0.352254   0.365895  -0.051182  -0.034456  -0.014038  -0.000569
    25  H    0.599333  -0.031946  -0.002911   0.001485   0.000147   0.000072
    26  H   -0.031946   0.581307   0.005223  -0.006504   0.000105   0.000020
    27  H   -0.002911   0.005223   0.591761  -0.031187  -0.003106   0.004344
    28  H    0.001485  -0.006504  -0.031187   0.579026   0.004953  -0.000063
    29  C    0.000147   0.000105  -0.003106   0.004953   4.925838   0.378619
    30  H    0.000072   0.000020   0.004344  -0.000063   0.378619   0.587083
    31  H   -0.000006   0.000025  -0.000231  -0.000211   0.383244  -0.038801
    32  C   -0.002761   0.004785  -0.001621   0.000019   0.323261  -0.043782
    33  H    0.002642   0.000009   0.000924  -0.000077  -0.030802  -0.006325
    34  H   -0.000138  -0.000162   0.000008  -0.000002  -0.030131   0.001568
    35  C   -0.036375  -0.030471  -0.003244   0.004041  -0.034626   0.004684
    36  H    0.005527  -0.007579  -0.000023  -0.000127  -0.001439   0.000125
    37  C   -0.005731   0.001286   0.000047  -0.000037   0.003526  -0.000053
    38  C    0.007377  -0.000027  -0.000038  -0.000004   0.000163  -0.000005
    39  H    0.000630  -0.000009   0.000001   0.000001  -0.000018   0.000001
    40  N   -0.000184  -0.000005   0.000000   0.000000  -0.000001   0.000000
    41  H    0.000005   0.000000   0.000000   0.000000   0.000000   0.000000
    42  C   -0.000058  -0.000031   0.000000   0.000000   0.000001   0.000000
    43  H    0.000000   0.000000   0.000000   0.000000   0.000000   0.000000
    44  N   -0.000129   0.000479   0.000000   0.000000  -0.000071   0.000000
              31         32         33         34         35         36
     1  S    0.012092   0.002756  -0.000087   0.000036  -0.000019  -0.000047
     2  C   -0.004771   0.006109  -0.000298  -0.000019   0.000086  -0.000263
     3  N    0.000267  -0.000027  -0.000001   0.000002  -0.000035   0.000001
     4  C    0.000000   0.000000   0.000000   0.000000   0.000001   0.000000
     5  C   -0.000004   0.000000   0.000000   0.000000   0.000000   0.000000
     6  C    0.000000   0.000000   0.000000   0.000000   0.000000   0.000000
     7  C    0.000000   0.000000   0.000000   0.000000   0.000000   0.000000
     8  C    0.000000   0.000000   0.000000   0.000000   0.000000   0.000000
     9  C    0.000000   0.000000   0.000000   0.000000   0.000000   0.000000
    10  H    0.000000   0.000000   0.000000   0.000000   0.000000   0.000000
    11  H    0.000000   0.000000   0.000000   0.000000   0.000000   0.000000
    12  H    0.000000   0.000000   0.000000   0.000000   0.000000   0.000000
    13  H    0.000000   0.000000   0.000000   0.000000   0.000000   0.000000
    14  H    0.000000   0.000000   0.000000   0.000000   0.000000   0.000000
    15  H    0.000000   0.000000   0.000000   0.000000   0.000000   0.000000
    16  H    0.000000   0.000000   0.000000   0.000000   0.000000   0.000000
    17  H    0.000000   0.000000   0.000000   0.000000   0.000000   0.000000
    18  H    0.000000   0.000000   0.000000   0.000000   0.000000   0.000000
    19  H    0.000002   0.000000   0.000000   0.000000   0.000000   0.000000
    20  H    0.000003   0.000000   0.000000   0.000000   0.000000   0.000000
    21  H   -0.000016  -0.000038   0.000003   0.000000  -0.000021   0.000023
    22  N   -0.040980  -0.054964  -0.002168   0.003500  -0.004994   0.001496
    23  C    0.004524   0.000677   0.000703   0.000042  -0.047547  -0.001536
    24  C    0.000248  -0.048681  -0.007188   0.005708   0.354269  -0.038597
    25  H   -0.000006  -0.002761   0.002642  -0.000138  -0.036375   0.005527
    26  H    0.000025   0.004785   0.000009  -0.000162  -0.030471  -0.007579
    27  H   -0.000231  -0.001621   0.000924   0.000008  -0.003244  -0.000023
    28  H   -0.000211   0.000019  -0.000077  -0.000002   0.004041  -0.000127
    29  C    0.383244   0.323261  -0.030802  -0.030131  -0.034626  -0.001439
    30  H   -0.038801  -0.043782  -0.006325   0.001568   0.004684   0.000125
    31  H    0.521262  -0.027428   0.004611  -0.006392  -0.004413   0.003057
    32  C   -0.027428   5.148013   0.356924   0.373284   0.361608  -0.048895
    33  H    0.004611   0.356924   0.620771  -0.035811  -0.037242   0.006070
    34  H   -0.006392   0.373284  -0.035811   0.559941  -0.030985  -0.003082
    35  C   -0.004413   0.361608  -0.037242  -0.030985   5.052073   0.354324
    36  H    0.003057  -0.048895   0.006070  -0.003082   0.354324   0.589767
    37  C   -0.000193  -0.035922  -0.007266   0.000733   0.385127  -0.031546
    38  C    0.000005  -0.002314   0.003375   0.000982  -0.088349   0.008241
    39  H    0.000000   0.000792   0.000893   0.000045  -0.001824  -0.000085
    40  N    0.000000   0.000068  -0.000014  -0.000077   0.004832  -0.000080
    41  H    0.000000  -0.000003   0.000003   0.000000  -0.000100   0.000001
    42  C    0.000000  -0.000190  -0.000002  -0.000032   0.008592   0.000021
    43  H    0.000000   0.000003   0.000000   0.000001  -0.000204  -0.000017
    44  N   -0.000002   0.001456  -0.000057   0.000394  -0.059738   0.002592
              37         38         39         40         41         42
     1  S    0.000000   0.000000   0.000000   0.000000   0.000000   0.000000
     2  C    0.000003   0.000000   0.000000   0.000000   0.000000   0.000000
     3  N    0.000000   0.000000   0.000000   0.000000   0.000000   0.000000
     4  C    0.000000   0.000000   0.000000   0.000000   0.000000   0.000000
     5  C    0.000000   0.000000   0.000000   0.000000   0.000000   0.000000
     6  C    0.000000   0.000000   0.000000   0.000000   0.000000   0.000000
     7  C    0.000000   0.000000   0.000000   0.000000   0.000000   0.000000
     8  C    0.000000   0.000000   0.000000   0.000000   0.000000   0.000000
     9  C    0.000000   0.000000   0.000000   0.000000   0.000000   0.000000
    10  H    0.000000   0.000000   0.000000   0.000000   0.000000   0.000000
    11  H    0.000000   0.000000   0.000000   0.000000   0.000000   0.000000
    12  H    0.000000   0.000000   0.000000   0.000000   0.000000   0.000000
    13  H    0.000000   0.000000   0.000000   0.000000   0.000000   0.000000
    14  H    0.000000   0.000000   0.000000   0.000000   0.000000   0.000000
    15  H    0.000000   0.000000   0.000000   0.000000   0.000000   0.000000
    16  H    0.000000   0.000000   0.000000   0.000000   0.000000   0.000000
    17  H    0.000000   0.000000   0.000000   0.000000   0.000000   0.000000
    18  H    0.000000   0.000000   0.000000   0.000000   0.000000   0.000000
    19  H    0.000000   0.000000   0.000000   0.000000   0.000000   0.000000
    20  H    0.000000   0.000000   0.000000   0.000000   0.000000   0.000000
    21  H   -0.000001   0.000000   0.000000   0.000000   0.000000   0.000000
    22  N    0.000742  -0.000005   0.000002   0.000000   0.000000   0.000000
    23  C    0.003545   0.000163  -0.000047   0.000000   0.000000   0.000001
    24  C   -0.036624  -0.006780   0.000527   0.000061  -0.000001  -0.000025
    25  H   -0.005731   0.007377   0.000630  -0.000184   0.000005  -0.000058
    26  H    0.001286  -0.000027  -0.000009  -0.000005   0.000000  -0.000031
    27  H    0.000047  -0.000038   0.000001   0.000000   0.000000   0.000000
    28  H   -0.000037  -0.000004   0.000001   0.000000   0.000000   0.000000
    29  C    0.003526   0.000163  -0.000018  -0.000001   0.000000   0.000001
    30  H   -0.000053  -0.000005   0.000001   0.000000   0.000000   0.000000
    31  H   -0.000193   0.000005   0.000000   0.000000   0.000000   0.000000
    32  C   -0.035922  -0.002314   0.000792   0.000068  -0.000003  -0.000190
    33  H   -0.007266   0.003375   0.000893  -0.000014   0.000003  -0.000002
    34  H    0.000733   0.000982   0.000045  -0.000077   0.000000  -0.000032
    35  C    0.385127  -0.088349  -0.001824   0.004832  -0.000100   0.008592
    36  H   -0.031546   0.008241  -0.000085  -0.000080   0.000001   0.000021
    37  C    4.659280   0.520962  -0.027657  -0.046502   0.006775  -0.089409
    38  C    0.520962   5.116249   0.359126   0.334906  -0.027788  -0.119271
    39  H   -0.027657   0.359126   0.556847  -0.047166  -0.000572   0.005092
    40  N   -0.046502   0.334906  -0.047166   6.763169   0.301903   0.372118
    41  H    0.006775  -0.027788  -0.000572   0.301903   0.401311  -0.022679
    42  C   -0.089409  -0.119271   0.005092   0.372118  -0.022679   4.740518
    43  H    0.005012   0.004986  -0.000093  -0.058430   0.000379   0.379955
    44  N    0.469235  -0.093421   0.005237  -0.073621   0.005751   0.512233
              43         44
     1  S    0.000000   0.000000
     2  C    0.000000   0.000000
     3  N    0.000000   0.000000
     4  C    0.000000   0.000000
     5  C    0.000000   0.000000
     6  C    0.000000   0.000000
     7  C    0.000000   0.000000
     8  C    0.000000   0.000000
     9  C    0.000000   0.000000
    10  H    0.000000   0.000000
    11  H    0.000000   0.000000
    12  H    0.000000   0.000000
    13  H    0.000000   0.000000
    14  H    0.000000   0.000000
    15  H    0.000000   0.000000
    16  H    0.000000   0.000000
    17  H    0.000000   0.000000
    18  H    0.000000   0.000000
    19  H    0.000000   0.000000
    20  H    0.000000   0.000000
    21  H    0.000000   0.000000
    22  N    0.000000   0.000000
    23  C    0.000000  -0.000031
    24  C    0.000004   0.001537
    25  H    0.000000  -0.000129
    26  H    0.000000   0.000479
    27  H    0.000000   0.000000
    28  H    0.000000   0.000000
    29  C    0.000000  -0.000071
    30  H    0.000000   0.000000
    31  H    0.000000  -0.000002
[...]
     8  C    0.000030  -0.002736  -0.000117   0.000001   0.000000   0.000000
     9  C    0.005481  -0.040478  -0.002913  -0.000095  -0.000031   0.000002
    10  H   -0.000111   0.005523   0.005681   0.000003  -0.000031   0.000000
    11  H   -0.000169  -0.005232  -0.000351  -0.000027  -0.000024   0.000000
    12  H    0.000011  -0.000074   0.000001   0.000000   0.000000   0.000000
    13  H   -0.000031   0.004630   0.000014   0.000000   0.000000   0.000000
    14  H   -0.000046   0.000158   0.000001   0.000000   0.000000   0.000000
    15  H   -0.000146  -0.000005   0.000000   0.000000   0.000000   0.000000
    16  H   -0.002484  -0.000128   0.000001   0.000000   0.000000   0.000000
    17  H   -0.004046   0.004876   0.000010   0.000000   0.000000   0.000000
    18  H   -0.036007   0.006036   0.004067  -0.000009  -0.000004   0.000002
    19  H    0.571403  -0.005615  -0.000240  -0.000093   0.000000   0.000001
    20  H   -0.005615   0.554407   0.005730   0.000447  -0.000028   0.000000
    21  H   -0.000240   0.005730   0.413813  -0.005476   0.005586  -0.000078
    22  N   -0.000093   0.000447  -0.005476   6.910959   0.275162  -0.051808
    23  C    0.000000  -0.000028   0.005586   0.275162   5.004667   0.333301
    24  C    0.000001   0.000000  -0.000078  -0.051808   0.333301   5.138271
    25  H    0.000000   0.000000  -0.000005   0.004095  -0.030511   0.357138
    26  H   -0.000001   0.000000   0.000868  -0.000209  -0.031872   0.366598
    27  H    0.000000   0.000002  -0.000032  -0.048318   0.381301  -0.048463
    28  H   -0.000001  -0.000042   0.002165  -0.033916   0.367693  -0.033335
    29  C    0.000001   0.000002   0.000008   0.309349  -0.048817  -0.014342
    30  H    0.000000  -0.000002  -0.000004  -0.045499  -0.000613  -0.000561
    31  H    0.000002   0.000005  -0.000011  -0.041182   0.004370   0.000229
    32  C    0.000000   0.000000  -0.000032  -0.053865   0.000279  -0.048527
    33  H    0.000000   0.000000   0.000003  -0.002197   0.000843  -0.006911
    34  H    0.000000   0.000000   0.000000   0.003516   0.000046   0.005667
    35  C    0.000000   0.000000  -0.000023  -0.005668  -0.047652   0.354030
    36  H    0.000000   0.000000   0.000022   0.001498  -0.001492  -0.039550
    37  C    0.000000   0.000000  -0.000001   0.000663   0.003541  -0.036813
    38  C    0.000000   0.000000   0.000000  -0.000006   0.000172  -0.006612
    39  H    0.000000   0.000000   0.000000   0.000001  -0.000046   0.000518
    40  N    0.000000   0.000000   0.000000   0.000000   0.000000   0.000060
    41  H    0.000000   0.000000   0.000000   0.000000   0.000000  -0.000001
    42  C    0.000000   0.000000   0.000000   0.000000   0.000000  -0.000019
    43  H    0.000000   0.000000   0.000000   0.000000   0.000000   0.000004
    44  N    0.000000   0.000000   0.000000   0.000000  -0.000031   0.001514
              25         26         27         28         29         30
     1  S    0.000007  -0.000007   0.000040  -0.000113  -0.014080   0.003601
     2  C   -0.000134   0.000765   0.002495  -0.009007  -0.045146  -0.002295
     3  N    0.000002  -0.000059   0.000492   0.009291   0.003158  -0.000051
     4  C    0.000000  -0.000016  -0.000006   0.000215  -0.000054   0.000006
     5  C    0.000000   0.000002   0.000001   0.000047   0.000003   0.000000
     6  C    0.000000   0.000000   0.000000  -0.000001   0.000000   0.000000
     7  C    0.000000   0.000000   0.000000   0.000000   0.000000   0.000000
     8  C    0.000000   0.000000   0.000000   0.000002   0.000000   0.000000
     9  C    0.000000  -0.000001  -0.000002   0.000053   0.000001   0.000000
    10  H    0.000000  -0.000001   0.000000   0.000034   0.000000   0.000000
    11  H    0.000000   0.000000   0.000002   0.000140   0.000000   0.000000
    12  H    0.000000   0.000000   0.000000   0.000000   0.000000   0.000000
    13  H    0.000000   0.000000   0.000000   0.000000   0.000000   0.000000
    14  H    0.000000   0.000000   0.000000   0.000000   0.000000   0.000000
    15  H    0.000000   0.000000   0.000000   0.000000   0.000000   0.000000
    16  H    0.000000   0.000000   0.000000   0.000000   0.000000   0.000000
    17  H    0.000000   0.000000   0.000000   0.000000   0.000000   0.000000
    18  H    0.000000   0.000006   0.000000  -0.000025   0.000000   0.000000
    19  H    0.000000  -0.000001   0.000000  -0.000001   0.000001   0.000000
    20  H    0.000000   0.000000   0.000002  -0.000042   0.000002  -0.000002
    21  H   -0.000005   0.000868  -0.000032   0.002165   0.000008  -0.000004
    22  N    0.004095  -0.000209  -0.048318  -0.033916   0.309349  -0.045499
    23  C   -0.030511  -0.031872   0.381301   0.367693  -0.048817  -0.000613
    24  C    0.357138   0.366598  -0.048463  -0.033335  -0.014342  -0.000561
    25  H    0.581439  -0.031010  -0.003201   0.001345   0.000154   0.000068
    26  H   -0.031010   0.577724   0.005011  -0.006289   0.000134   0.000020
    27  H   -0.003201   0.005011   0.570112  -0.029332  -0.002977   0.004043
    28  H    0.001345  -0.006289  -0.029332   0.559522   0.004784  -0.000062
    29  C    0.000154   0.000134  -0.002977   0.004784   4.926558   0.377160
    30  H    0.000068   0.000020   0.004043  -0.000062   0.377160   0.588627
    31  H   -0.000004   0.000027  -0.000186  -0.000213   0.382452  -0.040265
    32  C   -0.002664   0.004820  -0.001214   0.000023   0.327859  -0.041710
    33  H    0.002496   0.000009   0.000832  -0.000068  -0.030458  -0.006277
    34  H   -0.000133  -0.000161   0.000006  -0.000002  -0.030149   0.001546
    35  C   -0.036119  -0.030950  -0.003305   0.003968  -0.035258   0.004578
    36  H    0.005543  -0.007699  -0.000026  -0.000131  -0.001684   0.000128
    37  C   -0.005410   0.001196   0.000013  -0.000037   0.003631  -0.000053
    38  C    0.007120  -0.000044  -0.000036  -0.000004   0.000171  -0.000005
    39  H    0.000574  -0.000010  -0.000002   0.000001  -0.000017   0.000001
    40  N   -0.000178  -0.000004   0.000000   0.000000  -0.000001   0.000000
    41  H    0.000004   0.000000   0.000000   0.000000   0.000000   0.000000
    42  C   -0.000052  -0.000032   0.000000   0.000000   0.000001   0.000000
    43  H    0.000000   0.000000   0.000000   0.000000   0.000000   0.000000
    44  N   -0.000139   0.000479   0.000000   0.000000  -0.000074   0.000000
              31         32         33         34         35         36
     1  S    0.011128   0.002555  -0.000079   0.000033  -0.000002  -0.000039
     2  C   -0.005703   0.005657  -0.000273  -0.000023   0.000134  -0.000266
     3  N    0.000260  -0.000040   0.000000   0.000001  -0.000034   0.000002
     4  C    0.000000   0.000000   0.000000   0.000000   0.000001   0.000000
     5  C   -0.000004   0.000000   0.000000   0.000000   0.000000   0.000000
     6  C    0.000000   0.000000   0.000000   0.000000   0.000000   0.000000
     7  C    0.000000   0.000000   0.000000   0.000000   0.000000   0.000000
     8  C    0.000000   0.000000   0.000000   0.000000   0.000000   0.000000
     9  C    0.000000   0.000000   0.000000   0.000000   0.000000   0.000000
    10  H    0.000000   0.000000   0.000000   0.000000   0.000000   0.000000
    11  H    0.000000   0.000000   0.000000   0.000000   0.000000   0.000000
    12  H    0.000000   0.000000   0.000000   0.000000   0.000000   0.000000
    13  H    0.000000   0.000000   0.000000   0.000000   0.000000   0.000000
    14  H    0.000000   0.000000   0.000000   0.000000   0.000000   0.000000
    15  H    0.000000   0.000000   0.000000   0.000000   0.000000   0.000000
    16  H    0.000000   0.000000   0.000000   0.000000   0.000000   0.000000
    17  H    0.000000   0.000000   0.000000   0.000000   0.000000   0.000000
    18  H    0.000000   0.000000   0.000000   0.000000   0.000000   0.000000
    19  H    0.000002   0.000000   0.000000   0.000000   0.000000   0.000000
    20  H    0.000005   0.000000   0.000000   0.000000   0.000000   0.000000
    21  H   -0.000011  -0.000032   0.000003   0.000000  -0.000023   0.000022
    22  N   -0.041182  -0.053865  -0.002197   0.003516  -0.005668   0.001498
    23  C    0.004370   0.000279   0.000843   0.000046  -0.047652  -0.001492
    24  C    0.000229  -0.048527  -0.006911   0.005667   0.354030  -0.039550
    25  H   -0.000004  -0.002664   0.002496  -0.000133  -0.036119   0.005543
    26  H    0.000027   0.004820   0.000009  -0.000161  -0.030950  -0.007699
    27  H   -0.000186  -0.001214   0.000832   0.000006  -0.003305  -0.000026
    28  H   -0.000213   0.000023  -0.000068  -0.000002   0.003968  -0.000131
    29  C    0.382452   0.327859  -0.030458  -0.030149  -0.035258  -0.001684
    30  H   -0.040265  -0.041710  -0.006277   0.001546   0.004578   0.000128
    31  H    0.535612  -0.027929   0.004618  -0.006494  -0.004392   0.003175
    32  C   -0.027929   5.138787   0.361576   0.372591   0.362827  -0.050310
    33  H    0.004618   0.361576   0.598487  -0.034411  -0.036169   0.006040
    34  H   -0.006494   0.372591  -0.034411   0.559174  -0.031336  -0.003078
    35  C   -0.004392   0.362827  -0.036169  -0.031336   5.046845   0.352247
    36  H    0.003175  -0.050310   0.006040  -0.003078   0.352247   0.609492
    37  C   -0.000189  -0.035753  -0.007037   0.000893   0.385966  -0.033192
    38  C    0.000005  -0.002430   0.003241   0.000997  -0.083933   0.008126
    39  H    0.000000   0.000728   0.000801   0.000044  -0.001853  -0.000087
    40  N    0.000000   0.000073  -0.000016  -0.000077   0.004909  -0.000085
    41  H    0.000000  -0.000003   0.000002   0.000000  -0.000101   0.000001
    42  C    0.000000  -0.000177  -0.000001  -0.000035   0.007984   0.000101
    43  H    0.000000   0.000003   0.000000   0.000001  -0.000207  -0.000016
    44  N   -0.000002   0.001415  -0.000054   0.000402  -0.058546   0.002651
              37         38         39         40         41         42
     1  S    0.000001   0.000000   0.000000   0.000000   0.000000   0.000000
     2  C    0.000003   0.000000   0.000000   0.000000   0.000000   0.000000
     3  N    0.000000   0.000000   0.000000   0.000000   0.000000   0.000000
     4  C    0.000000   0.000000   0.000000   0.000000   0.000000   0.000000
     5  C    0.000000   0.000000   0.000000   0.000000   0.000000   0.000000
     6  C    0.000000   0.000000   0.000000   0.000000   0.000000   0.000000
     7  C    0.000000   0.000000   0.000000   0.000000   0.000000   0.000000
     8  C    0.000000   0.000000   0.000000   0.000000   0.000000   0.000000
     9  C    0.000000   0.000000   0.000000   0.000000   0.000000   0.000000
    10  H    0.000000   0.000000   0.000000   0.000000   0.000000   0.000000
    11  H    0.000000   0.000000   0.000000   0.000000   0.000000   0.000000
    12  H    0.000000   0.000000   0.000000   0.000000   0.000000   0.000000
    13  H    0.000000   0.000000   0.000000   0.000000   0.000000   0.000000
    14  H    0.000000   0.000000   0.000000   0.000000   0.000000   0.000000
    15  H    0.000000   0.000000   0.000000   0.000000   0.000000   0.000000
    16  H    0.000000   0.000000   0.000000   0.000000   0.000000   0.000000
    17  H    0.000000   0.000000   0.000000   0.000000   0.000000   0.000000
    18  H    0.000000   0.000000   0.000000   0.000000   0.000000   0.000000
    19  H    0.000000   0.000000   0.000000   0.000000   0.000000   0.000000
    20  H    0.000000   0.000000   0.000000   0.000000   0.000000   0.000000
    21  H   -0.000001   0.000000   0.000000   0.000000   0.000000   0.000000
    22  N    0.000663  -0.000006   0.000001   0.000000   0.000000   0.000000
    23  C    0.003541   0.000172  -0.000046   0.000000   0.000000   0.000000
    24  C   -0.036813  -0.006612   0.000518   0.000060  -0.000001  -0.000019
    25  H   -0.005410   0.007120   0.000574  -0.000178   0.000004  -0.000052
    26  H    0.001196  -0.000044  -0.000010  -0.000004   0.000000  -0.000032
    27  H    0.000013  -0.000036  -0.000002   0.000000   0.000000   0.000000
    28  H   -0.000037  -0.000004   0.000001   0.000000   0.000000   0.000000
    29  C    0.003631   0.000171  -0.000017  -0.000001   0.000000   0.000001
    30  H   -0.000053  -0.000005   0.000001   0.000000   0.000000   0.000000
    31  H   -0.000189   0.000005   0.000000   0.000000   0.000000   0.000000
    32  C   -0.035753  -0.002430   0.000728   0.000073  -0.000003  -0.000177
    33  H   -0.007037   0.003241   0.000801  -0.000016   0.000002  -0.000001
    34  H    0.000893   0.000997   0.000044  -0.000077   0.000000  -0.000035
    35  C    0.385966  -0.083933  -0.001853   0.004909  -0.000101   0.007984
    36  H   -0.033192   0.008126  -0.000087  -0.000085   0.000001   0.000101
    37  C    4.658680   0.538783  -0.030091  -0.045331   0.005661  -0.096979
    38  C    0.538783   5.085366   0.363187   0.338180  -0.024336  -0.113977
    39  H   -0.030091   0.363187   0.536998  -0.044360  -0.000738   0.004964
    40  N   -0.045331   0.338180  -0.044360   6.737396   0.305779   0.385095
    41  H    0.005661  -0.024336  -0.000738   0.305779   0.359713  -0.021559
    42  C   -0.096979  -0.113977   0.004964   0.385095  -0.021559   4.741047
    43  H    0.004610   0.005135  -0.000093  -0.053715   0.000018   0.380907
    44  N    0.469991  -0.096024   0.005240  -0.077670   0.005328   0.510515
              43         44
     1  S    0.000000   0.000000
     2  C    0.000000   0.000000
     3  N    0.000000   0.000000
     4  C    0.000000   0.000000
     5  C    0.000000   0.000000
     6  C    0.000000   0.000000
     7  C    0.000000   0.000000
     8  C    0.000000   0.000000
     9  C    0.000000   0.000000
    10  H    0.000000   0.000000
    11  H    0.000000   0.000000
    12  H    0.000000   0.000000
    13  H    0.000000   0.000000
    14  H    0.000000   0.000000
    15  H    0.000000   0.000000
    16  H    0.000000   0.000000
    17  H    0.000000   0.000000
    18  H    0.000000   0.000000
    19  H    0.000000   0.000000
    20  H    0.000000   0.000000
    21  H    0.000000   0.000000
    22  N    0.000000   0.000000
    23  C    0.000000  -0.000031
    24  C    0.000004   0.001514
    25  H    0.000000  -0.000139
    26  H    0.000000   0.000479
    27  H    0.000000   0.000000
    28  H    0.000000   0.000000
    29  C    0.000000  -0.000074
    30  H    0.000000   0.000000
    31  H    0.000000  -0.000002
    32  C    0.000003   0.001415
    33  H    0.000000  -0.000054
    34  H    0.000001   0.000402
    35  C   -0.000207  -0.058546
    36  H   -0.000016   0.002651
    37  C    0.004610   0.469991
    38  C    0.005135  -0.096024
    39  H   -0.000093   0.005240
    40  N   -0.053715  -0.077670
    41  H    0.000018   0.005328
    42  C    0.380907   0.510515
    43  H    0.534339  -0.038578
    44  N   -0.038578   6.776138
 Mulliken charges:
               1
     1  S   -0.412195
     2  C    0.370129
     3  N   -0.598750
     4  C    0.047229
     5  C   -0.257484
     6  C   -0.266436
     7  C   -0.259300
     8  C   -0.264956
     9  C   -0.271834
    10  H    0.126867
    11  H    0.144305
    12  H    0.137679
    13  H    0.136883
    14  H    0.131086
    15  H    0.134699
    16  H    0.136621
    17  H    0.136595
    18  H    0.122812
    19  H    0.154458
    20  H    0.172632
    21  H    0.334810
    22  N   -0.409174
    23  C   -0.179403
    24  C   -0.271540
    25  H    0.149576
    26  H    0.150706
    27  H    0.172752
    28  H    0.163294
    29  C   -0.112368
    30  H    0.157620
    31  H    0.184691
    32  C   -0.314541
    33  H    0.145004
    34  H    0.160984
    35  C   -0.147938
    36  H    0.148629
    37  C    0.217255
    38  C   -0.023074
    39  H    0.164240
    40  N   -0.550053
    41  H    0.370232
    42  C    0.202219
    43  H    0.167593
    44  N   -0.502555
 Sum of Mulliken charges =   0.00000
 Mulliken charges with hydrogens summed into heavy atoms:
               1
     1  S   -0.412195
     2  C    0.370129
     3  N   -0.263940
     4  C    0.219862
     5  C    0.019786
     6  C    0.006780
     7  C    0.006485
     8  C    0.009606
     9  C   -0.000662
    22  N   -0.409174
    23  C    0.156643
    24  C    0.028741
    29  C    0.229942
    32  C   -0.008553
    35  C    0.000691
    37  C    0.217255
    38  C    0.141166
    40  N   -0.179820
    42  C    0.369812
    44  N   -0.502555
 Electronic spatial extent (au):  <R**2>=           9711.8865
 Charge=              0.0000 electrons
 Dipole moment (field-independent basis, Debye):
    X=              6.2765    Y=             -4.8363    Z=              6.0700  Tot=              9.9814
 Quadrupole moment (field-independent basis, Debye-Ang):
   XX=            -80.4707   YY=           -138.9331   ZZ=           -129.8432
   XY=              7.3086   XZ=              8.0977   YZ=              2.8562
 Traceless Quadrupole moment (field-independent basis, Debye-Ang):
   XX=             35.9449   YY=            -22.5174   ZZ=            -13.4275
   XY=              7.3086   XZ=              8.0977   YZ=              2.8562
 Octapole moment (field-independent basis, Debye-Ang**2):
  XXX=            368.5773  YYY=            -37.9332  ZZZ=             20.7304  XYY=             37.7581
  XXY=            -82.8301  XXZ=             61.8663  XZZ=             11.0800  YZZ=             -4.5602
  YYZ=             13.4414  XYZ=             -8.0789
 Hexadecapole moment (field-independent basis, Debye-Ang**3):
 XXXX=          -7644.6004 YYYY=          -1639.2006 ZZZZ=           -844.3093 XXXY=           -552.1942
 XXXZ=            252.8192 YYYX=             41.3169 YYYZ=             32.3564 ZZZX=             25.6483
 ZZZY=             11.4515 XXYY=          -1979.8503 XXZZ=          -1902.9388 YYZZ=           -405.4909
 XXYZ=             22.3963 YYXZ=            -27.5938 ZZXY=             15.6900
 N-N= 1.681696614216D+03 E-N=-6.176610273566D+03  KE= 1.194204269185D+03
 No NMR shielding tensors so no spin-rotation constants.
 Leave Link  601 at Sun Jan 24 23:04:34 2021, MaxMem=   262144000 cpu:         0.4
 (Enter /prod/apps/gaussian/g09d1/l9999.exe)
 1\1\GINC-PIRINEUS43\SP\RB3LYP\6-31G(d)\C15H24N4S1\UBAFAR01\24-Jan-2021
 \0\\#p b3lyp/6-31G(d) scrf=(iefpcm,read,solvent=n-Octanol) geom=allche
 ck guess=read\\SET_328_BBB227_conf1.geo_075_180_240.n.pdb.xyz\\0,1\S,0
 ,-0.613,-3.04,0.469\C,0,0.037,-1.558,-0.08\N,0,-0.414,-0.947,-1.21\C,0
 ,-1.488,-1.435,-2.075\C,0,-2.855,-0.868,-1.662\C,0,-3.967,-1.346,-2.60
 6\C,0,-3.646,-1.011,-4.068\C,0,-2.278,-1.572,-4.481\C,0,-1.164,-1.097,
 -3.537\H,0,-1.044,-0.009,-3.638\H,0,-0.205,-1.548,-3.812\H,0,-2.04,-1.
 282,-5.51\H,0,-2.318,-2.669,-4.466\H,0,-3.643,0.08,-4.197\H,0,-4.429,-
 1.402,-4.728\H,0,-4.923,-0.899,-2.313\H,0,-4.086,-2.433,-2.501\H,0,-2.
 805,0.23,-1.681\H,0,-3.067,-1.164,-0.63\H,0,-1.506,-2.519,-1.945\H,0,-
 0.179,0.028,-1.344\N,0,1.051,-0.941,0.584\C,0,1.85,0.173,0.064\C,0,1.6
 63,1.436,0.92\H,0,2.538,2.079,0.785\H,0,0.791,2.008,0.588\H,0,2.899,-0
 .143,0.101\H,0,1.628,0.347,-0.987\C,0,1.501,-1.415,1.899\H,0,2.165,-2.
 28,1.784\H,0,0.621,-1.763,2.437\C,0,2.199,-0.287,2.678\H,0,3.256,-0.21
 7,2.395\H,0,2.175,-0.538,3.741\C,0,1.5,1.062,2.421\H,0,0.431,0.918,2.6
 18\C,0,1.946,2.159,3.346\C,0,3.222,2.607,3.614\H,0,4.194,2.307,3.257\N
 ,0,3.07,3.63,4.525\H,0,3.813,4.174,4.938\C,0,1.739,3.76,4.771\H,0,1.34
 8,4.498,5.458\N,0,1.029,2.891,4.078\\Version=AM64L-G09RevD.01\State=1-
 A\HF=-1203.2891728\RMSD=6.123e-09\Dipole=2.4519591,3.059998,-0.2134394
 \Quadrupole=7.3705084,-12.3977881,5.0272798,9.947234,17.000366,10.6171
 939\PG=C01 [X(C15H24N4S1)]\\@


 THE 2ND LAW OF THERMODYNAMICS HAS THE SAME
 DEGREE OF TRUTH AS THE STATEMENT THAT IF YOU THROW
 A TUMBLERFULL OF WATER INTO THE SEA, YOU CANNOT GET
 THE SAME TUMBLERFULL OF WATER OUT AGAIN.
          - J.C. MAXWELL, LETTER TO LORD RAYLEIGH, DECEMBER 6,1870
 Job cpu time:       0 days  0 hours  4 minutes 54.1 seconds.
 File lengths (MBytes):  RWF=    226 Int=      0 D2E=      0 Chk=      7 Scr=      1
 Normal termination of Gaussian 09 at Sun Jan 24 23:04:35 2021.
