 Entering Gaussian System, Link 0=g09
 Initial command:
 /prod/apps/gaussian/g09d1/l1.exe "/tmp/ubafar01/1642346/Gau-47710.inp" -scrdir="/tmp/ubafar01/1642346/"
 Entering Link 1 = /prod/apps/gaussian/g09d1/l1.exe PID=     47712.
  
 Copyright (c) 1988,1990,1992,1993,1995,1998,2003,2009,2013,
            Gaussian, Inc.  All Rights Reserved.
  
 This is part of the Gaussian(R) 09 program.  It is based on
 the Gaussian(R) 03 system (copyright 2003, Gaussian, Inc.),
 the Gaussian(R) 98 system (copyright 1998, Gaussian, Inc.),
 the Gaussian(R) 94 system (copyright 1995, Gaussian, Inc.),
 the Gaussian 92(TM) system (copyright 1992, Gaussian, Inc.),
 the Gaussian 90(TM) system (copyright 1990, Gaussian, Inc.),
 the Gaussian 88(TM) system (copyright 1988, Gaussian, Inc.),
 the Gaussian 86(TM) system (copyright 1986, Carnegie Mellon
 University), and the Gaussian 82(TM) system (copyright 1983,
 Carnegie Mellon University). Gaussian is a federally registered
 trademark of Gaussian, Inc.
  
 This software contains proprietary and confidential information,
 including trade secrets, belonging to Gaussian, Inc.
  
 This software is provided under written license and may be
 used, copied, transmitted, or stored only in accord with that
 written license.
  
 The following legend is applicable only to US Government
 contracts under FAR:
  
                    RESTRICTED RIGHTS LEGEND
  
 Use, reproduction and disclosure by the US Government is
 subject to restrictions as set forth in subparagraphs (a)
 and (c) of the Commercial Computer Software - Restricted
 Rights clause in FAR 52.227-19.
  
 Gaussian, Inc.
 340 Quinnipiac St., Bldg. 40, Wallingford CT 06492
  
  
 ---------------------------------------------------------------
 Warning -- This program may not be used in any manner that
 competes with the business of Gaussian, Inc. or will provide
 assistance to any competitor of Gaussian, Inc.  The licensee
 of this program is prohibited from giving any competitor of
 Gaussian, Inc. access to this program.  By using this program,
 the user acknowledges that Gaussian, Inc. is engaged in the
 business of creating and licensing software in the field of
 computational chemistry and represents and warrants to the
 licensee that it is not a competitor of Gaussian, Inc. and that
 it will not use this program in any manner prohibited above.
 ---------------------------------------------------------------
  

 Cite this work as:
 Gaussian 09, Revision D.01,
 M. J. Frisch, G. W. Trucks, H. B. Schlegel, G. E. Scuseria, 
 M. A. Robb, J. R. Cheeseman, G. Scalmani, V. Barone, B. Mennucci, 
 G. A. Petersson, H. Nakatsuji, M. Caricato, X. Li, H. P. Hratchian, 
 A. F. Izmaylov, J. Bloino, G. Zheng, J. L. Sonnenberg, M. Hada, 
 M. Ehara, K. Toyota, R. Fukuda, J. Hasegawa, M. Ishida, T. Nakajima, 
 Y. Honda, O. Kitao, H. Nakai, T. Vreven, J. A. Montgomery, Jr., 
 J. E. Peralta, F. Ogliaro, M. Bearpark, J. J. Heyd, E. Brothers, 
 K. N. Kudin, V. N. Staroverov, T. Keith, R. Kobayashi, J. Normand, 
 K. Raghavachari, A. Rendell, J. C. Burant, S. S. Iyengar, J. Tomasi, 
 M. Cossi, N. Rega, J. M. Millam, M. Klene, J. E. Knox, J. B. Cross, 
 V. Bakken, C. Adamo, J. Jaramillo, R. Gomperts, R. E. Stratmann, 
 O. Yazyev, A. J. Austin, R. Cammi, C. Pomelli, J. W. Ochterski, 
 R. L. Martin, K. Morokuma, V. G. Zakrzewski, G. A. Voth, 
 P. Salvador, J. J. Dannenberg, S. Dapprich, A. D. Daniels, 
 O. Farkas, J. B. Foresman, J. V. Ortiz, J. Cioslowski, 
 and D. J. Fox, Gaussian, Inc., Wallingford CT, 2013.
 
 ******************************************
 Gaussian 09:  AM64L-G09RevD.01 24-Apr-2013
                24-Jan-2021 
 ******************************************
 %nproc=1
 Will use up to    1 processors via shared memory.
 %Chk=SET_328_BBB29_conf1.geo_105_180_075.n.pdb.xyz.mst.n.o.chk
 %mem=2000MB
 -----------------
 #p b3lyp/6-31G(d)
 -----------------
 1/38=1/1;
 2/12=2,17=6,18=5,40=1/2;
 3/5=1,6=6,7=1,11=2,16=1,25=1,30=1,74=-5/1,2,3;
 4//1;
 5/5=2,38=5/2;
 6/7=2,8=2,9=2,10=2,28=1/1;
 99/5=1,9=1/99;
 Leave Link    1 at Sun Jan 24 23:11:24 2021, MaxMem=   262144000 cpu:         0.0
 (Enter /prod/apps/gaussian/g09d1/l101.exe)
 ---------------------------------------------
 SET_328_BBB29_conf1.geo_105_180_075.n.pdb.xyz
 ---------------------------------------------
 Symbolic Z-matrix:
 Charge =  0 Multiplicity = 1
 N                    -3.453     0.857     2.447 
 H                    -3.691    -0.127     2.338 
 H                    -3.534     1.276     1.525 
 C                    -2.085     0.987     2.96 
 H                    -2.077     0.597     3.984 
 H                    -1.86      2.057     3.038 
 C                    -0.968     0.281     2.169 
 H                    -1.216    -0.779     2.065 
 H                    -0.03      0.333     2.737 
 C                    -0.729     0.901     0.789 
 H                    -0.387     1.927     0.927 
 H                    -1.663     0.953     0.213 
 N                     0.315     0.202     0.032 
 C                     0.106    -1.148    -0.313 
 C                    -1.172    -1.723    -0.29 
 H                    -2.035    -1.134    -0.017 
 C                    -1.332    -3.066    -0.617 
 Cl                   -2.947    -3.756    -0.552 
 C                    -0.263    -3.866    -1.001 
 H                    -0.413    -4.908    -1.253 
 C                     1.005    -3.287    -1.052 
 H                     1.858    -3.883    -1.357 
 C                     1.198    -1.954    -0.694 
 S                     2.836    -1.262    -0.627 
 C                     2.433     0.385    -1.168 
 C                     1.216     0.96     -0.758 
 C                     0.937     2.274    -1.161 
 H                    -0.008     2.731    -0.9 
 C                     1.864     3.003    -1.905 
 H                     1.628     4.023    -2.19 
 C                     3.07      2.426    -2.298 
 H                     3.788     2.989    -2.882 
 C                     3.34      1.105    -1.942 
 H                     4.264     0.629    -2.252 
 
 NAtoms=     34 NQM=       34 NQMF=       0 NMMI=      0 NMMIF=      0
                NMic=       0 NMicF=      0.
                    Isotopes and Nuclear Properties:
 (Nuclear quadrupole moments (NQMom) in fm**2, nuclear magnetic moments (NMagM)
  in nuclear magnetons)

  Atom         1           2           3           4           5           6           7           8           9          10
 IAtWgt=          14           1           1          12           1           1          12           1           1          12
 AtmWgt=  14.0030740   1.0078250   1.0078250  12.0000000   1.0078250   1.0078250  12.0000000   1.0078250   1.0078250  12.0000000
 NucSpn=           2           1           1           0           1           1           0           1           1           0
 AtZEff=   0.0000000   0.0000000   0.0000000   0.0000000   0.0000000   0.0000000   0.0000000   0.0000000   0.0000000   0.0000000
 NQMom=    2.0440000   0.0000000   0.0000000   0.0000000   0.0000000   0.0000000   0.0000000   0.0000000   0.0000000   0.0000000
 NMagM=    0.4037610   2.7928460   2.7928460   0.0000000   2.7928460   2.7928460   0.0000000   2.7928460   2.7928460   0.0000000
 AtZNuc=   7.0000000   1.0000000   1.0000000   6.0000000   1.0000000   1.0000000   6.0000000   1.0000000   1.0000000   6.0000000

  Atom        11          12          13          14          15          16          17          18          19          20
 IAtWgt=           1           1          14          12          12           1          12          35          12           1
 AtmWgt=   1.0078250   1.0078250  14.0030740  12.0000000  12.0000000   1.0078250  12.0000000  34.9688527  12.0000000   1.0078250
 NucSpn=           1           1           2           0           0           1           0           3           0           1
 AtZEff=   0.0000000   0.0000000   0.0000000   0.0000000   0.0000000   0.0000000   0.0000000   0.0000000   0.0000000   0.0000000
 NQMom=    0.0000000   0.0000000   2.0440000   0.0000000   0.0000000   0.0000000   0.0000000  -8.1650000   0.0000000   0.0000000
 NMagM=    2.7928460   2.7928460   0.4037610   0.0000000   0.0000000   2.7928460   0.0000000   0.8218740   0.0000000   2.7928460
 AtZNuc=   1.0000000   1.0000000   7.0000000   6.0000000   6.0000000   1.0000000   6.0000000  17.0000000   6.0000000   1.0000000

  Atom        21          22          23          24          25          26          27          28          29          30
 IAtWgt=          12           1          12          32          12          12          12           1          12           1
 AtmWgt=  12.0000000   1.0078250  12.0000000  31.9720718  12.0000000  12.0000000  12.0000000   1.0078250  12.0000000   1.0078250
 NucSpn=           0           1           0           0           0           0           0           1           0           1
 AtZEff=   0.0000000   0.0000000   0.0000000   0.0000000   0.0000000   0.0000000   0.0000000   0.0000000   0.0000000   0.0000000
 NQMom=    0.0000000   0.0000000   0.0000000   0.0000000   0.0000000   0.0000000   0.0000000   0.0000000   0.0000000   0.0000000
 NMagM=    0.0000000   2.7928460   0.0000000   0.0000000   0.0000000   0.0000000   0.0000000   2.7928460   0.0000000   2.7928460
 AtZNuc=   6.0000000   1.0000000   6.0000000  16.0000000   6.0000000   6.0000000   6.0000000   1.0000000   6.0000000   1.0000000

  Atom        31          32          33          34
 IAtWgt=          12           1          12           1
 AtmWgt=  12.0000000   1.0078250  12.0000000   1.0078250
 NucSpn=           0           1           0           1
 AtZEff=   0.0000000   0.0000000   0.0000000   0.0000000
 NQMom=    0.0000000   0.0000000   0.0000000   0.0000000
 NMagM=    0.0000000   2.7928460   0.0000000   2.7928460
 AtZNuc=   6.0000000   1.0000000   6.0000000   1.0000000
 Leave Link  101 at Sun Jan 24 23:11:24 2021, MaxMem=   262144000 cpu:         0.1
 (Enter /prod/apps/gaussian/g09d1/l202.exe)
                          Input orientation:                          
 ---------------------------------------------------------------------
 Center     Atomic      Atomic             Coordinates (Angstroms)
 Number     Number       Type             X           Y           Z
 ---------------------------------------------------------------------
      1          7           0       -3.453000    0.857000    2.447000
      2          1           0       -3.691000   -0.127000    2.338000
      3          1           0       -3.534000    1.276000    1.525000
      4          6           0       -2.085000    0.987000    2.960000
      5          1           0       -2.077000    0.597000    3.984000
      6          1           0       -1.860000    2.057000    3.038000
      7          6           0       -0.968000    0.281000    2.169000
      8          1           0       -1.216000   -0.779000    2.065000
      9          1           0       -0.030000    0.333000    2.737000
     10          6           0       -0.729000    0.901000    0.789000
     11          1           0       -0.387000    1.927000    0.927000
     12          1           0       -1.663000    0.953000    0.213000
     13          7           0        0.315000    0.202000    0.032000
     14          6           0        0.106000   -1.148000   -0.313000
     15          6           0       -1.172000   -1.723000   -0.290000
     16          1           0       -2.035000   -1.134000   -0.017000
     17          6           0       -1.332000   -3.066000   -0.617000
     18         17           0       -2.947000   -3.756000   -0.552000
     19          6           0       -0.263000   -3.866000   -1.001000
     20          1           0       -0.413000   -4.908000   -1.253000
     21          6           0        1.005000   -3.287000   -1.052000
     22          1           0        1.858000   -3.883000   -1.357000
     23          6           0        1.198000   -1.954000   -0.694000
     24         16           0        2.836000   -1.262000   -0.627000
     25          6           0        2.433000    0.385000   -1.168000
     26          6           0        1.216000    0.960000   -0.758000
     27          6           0        0.937000    2.274000   -1.161000
     28          1           0       -0.008000    2.731000   -0.900000
     29          6           0        1.864000    3.003000   -1.905000
     30          1           0        1.628000    4.023000   -2.190000
     31          6           0        3.070000    2.426000   -2.298000
     32          1           0        3.788000    2.989000   -2.882000
     33          6           0        3.340000    1.105000   -1.942000
     34          1           0        4.264000    0.629000   -2.252000
 ---------------------------------------------------------------------
                    Distance matrix (angstroms):
                    1          2          3          4          5
     1  N    0.000000
     2  H    1.018224   0.000000
     3  H    1.015975   1.629118   0.000000
     4  C    1.466797   2.051126   2.059696   0.000000
     5  H    2.079265   2.416296   2.937783   1.095783   0.000000
     6  H    2.080127   2.934692   2.387762   1.096179   1.753170
     7  C    2.565986   2.758578   2.826503   1.540067   2.150340
     8  H    2.797604   2.573958   3.144479   2.162161   2.513416
     9  H    3.474997   3.711297   3.825730   2.168057   2.411413
    10  C    3.189212   3.497089   2.924097   2.561127   3.481026
    11  H    3.585478   4.138388   3.268794   2.810675   3.737680
    12  H    2.864275   3.129666   2.307881   2.779433   3.810325
    13  N    4.523171   4.633995   4.265832   3.866447   4.636377
    14  C    4.929919   4.742094   4.743798   4.480093   5.125888
    15  C    4.398924   3.974791   4.226969   4.328992   4.946565
    16  H    3.470749   3.049985   3.229995   3.655635   4.359602
    17  C    5.410792   4.789011   5.318828   5.457907   5.928052
    18  Cl   5.525378   4.698433   5.475356   5.964330   6.346716
    19  C    6.661196   6.072909   6.596990   6.523865   6.932474
    20  H    7.494453   6.818983   7.463229   7.436127   7.778180
    21  C    7.020648   6.597736   6.932851   6.626562   7.067211
    22  H    8.071229   7.651925   7.999679   7.609247   8.005055
    23  C    6.276894   6.035998   6.143996   5.725320   6.254351
    24  S    7.313765   7.258180   7.186755   6.491595   6.989619
    25  C    6.923583   7.075136   6.606907   6.149399   6.850412
    26  C    5.664115   5.903002   5.279625   4.972007   5.784651
    27  C    5.856420   6.279027   5.310409   5.269867   6.194155
    28  H    5.155804   5.676028   4.519992   4.717527   5.717357
    29  C    7.198313   7.658849   6.624638   6.582331   7.483357
    30  H    7.572443   8.125087   6.927733   7.037483   7.973881
    31  C    8.217440   8.586118   7.716906   7.502753   8.324685
    32  H    9.239900   9.638117   8.715945   8.522271   9.341405
    33  C    8.091333   8.322931   7.700728   7.312602   8.044839
    34  H    9.037957   9.215295   8.688679   8.222099   8.893649
                    6          7          8          9         10
     6  H    0.000000
     7  C    2.169101   0.000000
     8  H    3.066653   1.093581   0.000000
     9  H    2.532129   1.097803   1.759183   0.000000
    10  C    2.770108   1.531640   2.165120   2.146143   0.000000
    11  H    2.577392   2.142298   3.050364   2.438111   1.090268
    12  H    3.039449   2.181867   2.574789   3.069473   1.098561
    13  N    4.148215   2.493812   2.727528   2.730057   1.466829
    14  C    5.036505   3.058732   2.745675   3.393281   2.471847
    15  C    5.083043   3.178728   2.537538   3.833279   2.871562
    16  H    4.421101   2.814127   2.265284   3.708993   2.548823
    17  C    6.315294   4.369977   3.526606   4.949517   4.251768
    18  Cl   6.918138   5.255250   4.325226   6.003860   5.329677
    19  C    7.344784   5.267213   4.454002   5.626592   5.113271
    20  H    8.307690   6.240499   5.357478   6.598096   6.165558
    21  C    7.314004   5.195979   4.575871   5.341549   4.892380
    22  H    8.271829   6.144741   5.549268   6.172523   5.846755
    23  C    6.274337   4.228895   3.849689   4.302338   3.750152
    24  S    6.819120   4.966778   4.888646   4.698348   4.403731
    25  C    6.238258   4.765835   5.012224   4.617153   3.754244
    26  C    5.007475   3.714596   4.111943   3.763067   2.485903
    27  C    5.049940   4.323190   4.935919   4.460602   2.909155
    28  H    4.403638   4.042630   4.750851   4.356450   2.592578
    29  C    6.260698   5.659239   6.288945   5.680167   4.289486
    30  H    6.585080   6.304178   7.018017   6.374982   4.916988
    31  C    7.274198   6.392226   6.904896   6.272310   5.127143
    32  H    8.234982   7.447510   7.981895   7.294150   6.183791
    33  C    7.262693   6.011502   6.353160   5.817725   4.904767
    34  H    8.217461   6.858584   7.116836   6.589095   5.852496
                   11         12         13         14         15
    11  H    0.000000
    12  H    1.756886   0.000000
    13  N    2.066266   2.123499   0.000000
    14  C    3.352055   2.796469   1.408973   0.000000
    15  C    3.926807   2.766779   2.453666   1.401584   0.000000
    16  H    3.602327   2.132335   2.703664   2.161410   1.079916
    17  C    5.311027   4.117138   3.716670   2.416399   1.391466
    18  Cl   6.406054   4.940502   5.162118   4.022387   2.711523
    19  C    6.106669   5.162999   4.236720   2.827902   2.433978
    20  H    7.174281   6.169520   5.319146   3.910315   3.412869
    21  C    5.748035   5.166822   3.718101   2.435086   2.786767
    22  H    6.634213   6.184597   4.582291   3.411695   3.871045
    23  C    4.494667   4.178351   2.440308   1.409702   2.415259
    24  S    4.792950   5.084567   2.988815   2.750362   4.048476
    25  C    3.836560   4.359702   2.441191   2.914797   4.267385
    26  C    2.518715   3.038343   1.417909   2.423590   3.622162
    27  C    2.496624   3.223805   2.470489   3.622119   4.602448
    28  H    2.031745   2.671905   2.714552   3.924819   4.643825
    29  C    3.774255   4.596537   3.741253   4.780777   5.844707
    30  H    4.262526   5.101959   4.610997   5.707789   6.668322
    31  C    4.753996   5.556630   4.238526   5.049653   6.264250
    32  H    5.750387   6.590730   5.321700   6.105052   7.315942
    33  C    4.774660   5.449508   3.723266   4.264787   5.575377
    34  H    5.781232   6.427327   4.581876   4.920001   6.239507
                   16         17         18         19         20
    16  H    0.000000
    17  C    2.141689   0.000000
    18  Cl   2.827163   1.757427   0.000000
    19  C    3.401774   1.389322   2.723519   0.000000
    20  H    4.289715   2.154535   2.870481   1.082482   0.000000
    21  C    3.866295   2.387391   4.011018   1.394871   2.163046
    22  H    4.950561   3.375084   4.873621   2.150736   2.493769
    23  C    3.403383   2.764665   4.521990   2.425802   3.410853
    24  S    4.910715   4.541667   6.298313   4.065033   4.923535
    25  C    4.857488   5.136947   6.817018   5.036597   6.010224
    26  C    3.937375   4.766640   6.293938   5.053392   6.109999
    27  C    4.664331   5.827512   7.198419   6.258211   7.308357
    28  H    4.452712   5.953005   7.130217   6.602699   7.657869
    29  C    5.990118   6.978977   8.405975   7.247379   8.257951
    30  H    6.688359   7.841546   9.172050   8.199142   9.209040
    31  C    6.628543   7.236396   8.801700   7.237428   8.186017
    32  H    7.688607   8.246675   9.812449   8.181674   9.092010
    33  C    6.132648   6.401597   8.067700   6.211114   7.121510
    34  H    6.912365   6.902280   8.609108   6.501058   7.316468
                   21         22         23         24         25
    21  C    0.000000
    22  H    1.084366   0.000000
    23  C    1.393665   2.143877   0.000000
    24  S    2.762935   2.891198   1.779437   0.000000
    25  C    3.941602   4.310704   2.687159   1.779803   0.000000
    26  C    4.262390   4.921952   2.914758   2.752970   1.407059
    27  C    5.562484   6.228588   4.261713   4.049031   2.409644
    28  H    6.104555   6.887365   4.842117   4.909879   3.396177
    29  C    6.405434   6.907774   5.146059   4.557224   2.778642
    30  H    7.424236   7.953089   6.176362   5.642115   3.863619
    31  C    6.201218   6.492912   5.026092   4.055655   2.418336
    32  H    7.105080   7.298966   5.994055   4.905337   3.399211
    33  C    5.053117   5.236286   3.937404   2.754257   1.392884
    34  H    5.234132   5.191147   4.301117   2.873272   2.141764
                   26         27         28         29         30
    26  C    0.000000
    27  C    1.402443   0.000000
    28  H    2.157494   1.081663   0.000000
    29  C    2.430918   1.394384   2.142053   0.000000
    30  H    3.406220   2.143670   2.451502   1.085044   0.000000
    31  C    2.821005   2.421892   3.394335   1.393490   2.154399
    32  H    3.904280   3.406063   4.290047   2.157893   2.492713
    33  C    2.436033   2.784049   3.865067   2.404652   3.392222
    34  H    3.410557   3.868493   4.949373   3.393565   4.297857
                   31         32         33         34
    31  C    0.000000
    32  H    1.083305   0.000000
    33  C    1.394517   2.152617   0.000000
    34  H    2.157999   2.488589   1.084644   0.000000
 Stoichiometry    C15H15ClN2S
 Framework group  C1[X(C15H15ClN2S)]
 Deg. of freedom    96
 Full point group                 C1      NOp   1
 Largest Abelian subgroup         C1      NOp   1
 Largest concise Abelian subgroup C1      NOp   1
                         Standard orientation:                         
 ---------------------------------------------------------------------
 Center     Atomic      Atomic             Coordinates (Angstroms)
 Number     Number       Type             X           Y           Z
 ---------------------------------------------------------------------
      1          7           0       -2.666360    3.884559   -0.009061
      2          1           0       -3.390760    3.170025    0.029256
      3          1           0       -2.208950    3.781884   -0.910415
      4          6           0       -1.710434    3.687088    1.085792
      5          1           0       -2.236041    3.892121    2.025174
      6          1           0       -0.936221    4.457600    0.993522
      7          6           0       -1.048447    2.301176    1.199053
      8          1           0       -1.826445    1.534731    1.255629
      9          1           0       -0.478739    2.244524    2.135747
     10          6           0       -0.096406    1.996665    0.038531
     11          1           0        0.722463    2.715915    0.067104
     12          1           0       -0.599726    2.127687   -0.929114
     13          7           0        0.504593    0.662459    0.139917
     14          6           0       -0.342829   -0.462246    0.093865
     15          6           0       -1.650464   -0.377243   -0.403432
     16          1           0       -2.036369    0.559220   -0.778043
     17          6           0       -2.462160   -1.507405   -0.411171
     18         17           0       -4.103755   -1.354001   -1.019599
     19          6           0       -2.011881   -2.744271    0.033382
     20          1           0       -2.661659   -3.609853    0.015367
     21          6           0       -0.701158   -2.836057    0.501619
     22          1           0       -0.317433   -3.789745    0.846708
     23          6           0        0.120385   -1.711516    0.554319
     24         16           0        1.741452   -1.807167    1.281911
     25          6           0        2.563727   -0.646822    0.211789
     26          6           0        1.862191    0.489683   -0.230949
     27          6           0        2.541807    1.412467   -1.039305
     28          1           0        2.020199    2.274582   -1.432594
     29          6           0        3.888392    1.229731   -1.351754
     30          1           0        4.393071    1.967693   -1.966597
     31          6           0        4.575433    0.104561   -0.900333
     32          1           0        5.619745   -0.042078   -1.148239
     33          6           0        3.898826   -0.843293   -0.133225
     34          1           0        4.407950   -1.735854    0.214020
 ---------------------------------------------------------------------
 Rotational constants (GHZ):      0.3922012      0.2378215      0.1675549
 Leave Link  202 at Sun Jan 24 23:11:24 2021, MaxMem=   262144000 cpu:         0.0
 (Enter /prod/apps/gaussian/g09d1/l301.exe)
 Standard basis: 6-31G(d) (6D, 7F)
 Ernie: Thresh=  0.10000D-02 Tol=  0.10000D-05 Strict=F.
 There are   323 symmetry adapted cartesian basis functions of A   symmetry.
 There are   323 symmetry adapted basis functions of A   symmetry.
   323 basis functions,   640 primitive gaussians,   323 cartesian basis functions
    76 alpha electrons       76 beta electrons
       nuclear repulsion energy      1631.4374970098 Hartrees.
 IExCor=  402 DFT=T Ex+Corr=B3LYP ExCW=0 ScaHFX=  0.200000
 ScaDFX=  0.800000  0.720000  1.000000  0.810000 ScalE2=  1.000000  1.000000
 IRadAn=      0 IRanWt=     -1 IRanGd=            0 ICorTp=0 IEmpDi=  4
 NAtoms=   34 NActive=   34 NUniq=   34 SFac= 1.00D+00 NAtFMM=   60 NAOKFM=F Big=F
 Integral buffers will be    131072 words long.
 Raffenetti 2 integral format.
 Two-electron integral symmetry is turned on.
 Leave Link  301 at Sun Jan 24 23:11:24 2021, MaxMem=   262144000 cpu:         0.0
 (Enter /prod/apps/gaussian/g09d1/l302.exe)
 NPDir=0 NMtPBC=     1 NCelOv=     1 NCel=       1 NClECP=     1 NCelD=      1
         NCelK=      1 NCelE2=     1 NClLst=     1 CellRange=     0.0.
 One-electron integrals computed using PRISM.
 NBasis=   323 RedAO= T EigKep=  4.13D-04  NBF=   323
 NBsUse=   323 1.00D-06 EigRej= -1.00D+00 NBFU=   323
 Precomputing XC quadrature grid using
 IXCGrd= 4 IRadAn=           0 IRanWt=          -1 IRanGd=           0 AccXCQ= 0.00D+00.
 Generated NRdTot=       0 NPtTot=           0 NUsed=           0 NTot=          32
 NSgBfM=   321   321   321   321   321 MxSgAt=    34 MxSgA2=    34.
 Leave Link  302 at Sun Jan 24 23:11:25 2021, MaxMem=   262144000 cpu:         0.9
 (Enter /prod/apps/gaussian/g09d1/l303.exe)
 DipDrv:  MaxL=1.
 Leave Link  303 at Sun Jan 24 23:11:25 2021, MaxMem=   262144000 cpu:         0.0
 (Enter /prod/apps/gaussian/g09d1/l401.exe)
 ExpMin= 1.17D-01 ExpMax= 2.52D+04 ExpMxC= 3.78D+03 IAcc=1 IRadAn=         1 AccDes= 0.00D+00
 Harris functional with IExCor=  402 and IRadAn=       1 diagonalized for initial guess.
 HarFok:  IExCor=  402 AccDes= 0.00D+00 IRadAn=         1 IDoV= 1 UseB2=F ITyADJ=14
 ICtDFT=  3500011 ScaDFX=  1.000000  1.000000  1.000000  1.000000
 FoFCou: FMM=F IPFlag=           0 FMFlag=      100000 FMFlg1=           0
         NFxFlg=           0 DoJE=T BraDBF=F KetDBF=T FulRan=T
         wScrn=  0.000000 ICntrl=     500 IOpCl=  0 I1Cent=   200000004 NGrid=           0
         NMat0=    1 NMatS0=      1 NMatT0=    0 NMatD0=    1 NMtDS0=    0 NMtDT0=    0
 Petite list used in FoFCou.
 Harris En= -1548.39566910061    
 JPrj=0 DoOrth=F DoCkMO=F.
 Leave Link  401 at Sun Jan 24 23:11:29 2021, MaxMem=   262144000 cpu:         3.9
 (Enter /prod/apps/gaussian/g09d1/l502.exe)
 Closed shell SCF:
 Using DIIS extrapolation, IDIIS=  1040.
 Integral symmetry usage will be decided dynamically.
 IVT=      335912 IEndB=      335912 NGot=   262144000 MDV=   261929381
 LenX=   261929381 LenY=   261824611
 Requested convergence on RMS density matrix=1.00D-08 within 128 cycles.
 Requested convergence on MAX density matrix=1.00D-06.
 Requested convergence on             energy=1.00D-06.
 No special actions if energy rises.
 Fock matrices will be formed incrementally for  20 cycles.
 Integral accuracy reduced to 1.0D-05 until final iterations.

 Cycle   1  Pass 0  IDiag  1:
 FoFJK:  IHMeth= 1 ICntrl=       0 DoSepK=F KAlg= 0 I1Cent=   0 FoldK=F
 IRaf= 790000000 NMat=   1 IRICut=       1 DoRegI=T DoRafI=F ISym2E= 0.
 FoFCou: FMM=F IPFlag=           0 FMFlag=      100000 FMFlg1=           0
         NFxFlg=           0 DoJE=F BraDBF=F KetDBF=F FulRan=T
         wScrn=  0.000000 ICntrl=       0 IOpCl=  0 I1Cent=           0 NGrid=           0
         NMat0=    1 NMatS0=      1 NMatT0=    0 NMatD0=    1 NMtDS0=    0 NMtDT0=    0
 Symmetry not used in FoFCou.
 E= -1548.02793534735    
 DIIS: error= 2.54D-02 at cycle   1 NSaved=   1.
 NSaved= 1 IEnMin= 1 EnMin= -1548.02793534735     IErMin= 1 ErrMin= 2.54D-02
 ErrMax= 2.54D-02  0.00D+00 EMaxC= 1.00D-01 BMatC= 4.63D-01 BMatP= 4.63D-01
 IDIUse=3 WtCom= 7.46D-01 WtEn= 2.54D-01
 Coeff-Com:  0.100D+01
 Coeff-En:   0.100D+01
 Coeff:      0.100D+01
 Gap=     0.309 Goal=   None    Shift=    0.000
 GapD=    0.309 DampG=1.000 DampE=0.500 DampFc=0.5000 IDamp=-1.
 Damping current iteration by 5.00D-01
 RMSDP=5.50D-03 MaxDP=1.57D-01              OVMax= 2.32D-01

 Cycle   2  Pass 0  IDiag  1:
 RMSU=  2.72D-03    CP:  9.82D-01
 E= -1548.21505857550     Delta-E=       -0.187123228148 Rises=F Damp=T
 DIIS: error= 7.94D-03 at cycle   2 NSaved=   2.
 NSaved= 2 IEnMin= 2 EnMin= -1548.21505857550     IErMin= 2 ErrMin= 7.94D-03
 ErrMax= 7.94D-03  0.00D+00 EMaxC= 1.00D-01 BMatC= 4.00D-02 BMatP= 4.63D-01
 IDIUse=3 WtCom= 9.21D-01 WtEn= 7.94D-02
 Coeff-Com:  0.116D+00 0.884D+00
 Coeff-En:   0.217D+00 0.783D+00
 Coeff:      0.124D+00 0.876D+00
 Gap=     0.259 Goal=   None    Shift=    0.000
 RMSDP=1.59D-03 MaxDP=6.76D-02 DE=-1.87D-01 OVMax= 1.97D-01

 Cycle   3  Pass 0  IDiag  1:
 RMSU=  1.46D-03    CP:  9.74D-01  7.80D-01
 E= -1548.47481638692     Delta-E=       -0.259757811420 Rises=F Damp=F
 DIIS: error= 7.68D-03 at cycle   3 NSaved=   3.
 NSaved= 3 IEnMin= 3 EnMin= -1548.47481638692     IErMin= 3 ErrMin= 7.68D-03
 ErrMax= 7.68D-03  0.00D+00 EMaxC= 1.00D-01 BMatC= 3.05D-02 BMatP= 4.00D-02
 IDIUse=3 WtCom= 9.23D-01 WtEn= 7.68D-02
 Coeff-Com:  0.114D-01 0.458D+00 0.531D+00
 Coeff-En:   0.000D+00 0.000D+00 0.100D+01
 Coeff:      0.105D-01 0.423D+00 0.567D+00
 Gap=     0.184 Goal=   None    Shift=    0.000
 RMSDP=1.15D-03 MaxDP=4.76D-02 DE=-2.60D-01 OVMax= 1.10D-01

 Cycle   4  Pass 0  IDiag  1:
 RMSU=  9.09D-04    CP:  9.76D-01  8.57D-01  5.37D-01
 E= -1548.48987591972     Delta-E=       -0.015059532801 Rises=F Damp=F
 DIIS: error= 6.06D-03 at cycle   4 NSaved=   4.
 NSaved= 4 IEnMin= 4 EnMin= -1548.48987591972     IErMin= 4 ErrMin= 6.06D-03
 ErrMax= 6.06D-03  0.00D+00 EMaxC= 1.00D-01 BMatC= 1.67D-02 BMatP= 3.05D-02
 IDIUse=3 WtCom= 9.39D-01 WtEn= 6.06D-02
 Coeff-Com: -0.118D-01 0.112D+00 0.424D+00 0.477D+00
 Coeff-En:   0.000D+00 0.000D+00 0.388D+00 0.612D+00
 Coeff:     -0.111D-01 0.105D+00 0.421D+00 0.485D+00
 Gap=     0.175 Goal=   None    Shift=    0.000
 RMSDP=5.78D-04 MaxDP=1.84D-02 DE=-1.51D-02 OVMax= 4.77D-02

 Cycle   5  Pass 0  IDiag  1:
 RMSU=  2.18D-04    CP:  9.76D-01  8.53D-01  7.01D-01  4.74D-01
 E= -1548.50787961369     Delta-E=       -0.018003693972 Rises=F Damp=F
 DIIS: error= 7.73D-04 at cycle   5 NSaved=   5.
 NSaved= 5 IEnMin= 5 EnMin= -1548.50787961369     IErMin= 5 ErrMin= 7.73D-04
 ErrMax= 7.73D-04  0.00D+00 EMaxC= 1.00D-01 BMatC= 5.33D-04 BMatP= 1.67D-02
 IDIUse=3 WtCom= 9.92D-01 WtEn= 7.73D-03
 Coeff-Com: -0.512D-02 0.214D-01 0.179D+00 0.251D+00 0.554D+00
 Coeff-En:   0.000D+00 0.000D+00 0.000D+00 0.000D+00 0.100D+01
 Coeff:     -0.508D-02 0.212D-01 0.177D+00 0.249D+00 0.557D+00
 Gap=     0.172 Goal=   None    Shift=    0.000
 RMSDP=1.16D-04 MaxDP=6.89D-03 DE=-1.80D-02 OVMax= 6.14D-03

 Cycle   6  Pass 0  IDiag  1:
 RMSU=  6.25D-05    CP:  9.75D-01  8.47D-01  7.15D-01  5.23D-01  6.19D-01
 E= -1548.50839253754     Delta-E=       -0.000512923849 Rises=F Damp=F
 DIIS: error= 2.11D-04 at cycle   6 NSaved=   6.
 NSaved= 6 IEnMin= 6 EnMin= -1548.50839253754     IErMin= 6 ErrMin= 2.11D-04
 ErrMax= 2.11D-04  0.00D+00 EMaxC= 1.00D-01 BMatC= 5.87D-05 BMatP= 5.33D-04
 IDIUse=3 WtCom= 9.98D-01 WtEn= 2.11D-03
 Coeff-Com: -0.131D-02 0.537D-03 0.548D-01 0.861D-01 0.301D+00 0.559D+00
 Coeff-En:   0.000D+00 0.000D+00 0.000D+00 0.000D+00 0.293D-01 0.971D+00
 Coeff:     -0.131D-02 0.536D-03 0.547D-01 0.859D-01 0.301D+00 0.559D+00
 Gap=     0.172 Goal=   None    Shift=    0.000
 RMSDP=3.29D-05 MaxDP=1.12D-03 DE=-5.13D-04 OVMax= 2.10D-03

 Cycle   7  Pass 0  IDiag  1:
 RMSU=  2.16D-05    CP:  9.75D-01  8.47D-01  7.16D-01  5.26D-01  6.68D-01
                    CP:  6.46D-01
 E= -1548.50844547023     Delta-E=       -0.000052932685 Rises=F Damp=F
 DIIS: error= 7.77D-05 at cycle   7 NSaved=   7.
 NSaved= 7 IEnMin= 7 EnMin= -1548.50844547023     IErMin= 7 ErrMin= 7.77D-05
 ErrMax= 7.77D-05  0.00D+00 EMaxC= 1.00D-01 BMatC= 6.37D-06 BMatP= 5.87D-05
 IDIUse=1 WtCom= 1.00D+00 WtEn= 0.00D+00
 Coeff-Com: -0.310D-03-0.134D-02 0.184D-01 0.298D-01 0.127D+00 0.323D+00
 Coeff-Com:  0.503D+00
 Coeff:     -0.310D-03-0.134D-02 0.184D-01 0.298D-01 0.127D+00 0.323D+00
 Coeff:      0.503D+00
 Gap=     0.172 Goal=   None    Shift=    0.000
 RMSDP=1.21D-05 MaxDP=5.70D-04 DE=-5.29D-05 OVMax= 1.02D-03

 Cycle   8  Pass 0  IDiag  1:
 RMSU=  6.81D-06    CP:  9.75D-01  8.47D-01  7.16D-01  5.27D-01  6.74D-01
                    CP:  7.01D-01  5.77D-01
 E= -1548.50845195271     Delta-E=       -0.000006482487 Rises=F Damp=F
 DIIS: error= 2.31D-05 at cycle   8 NSaved=   8.
 NSaved= 8 IEnMin= 8 EnMin= -1548.50845195271     IErMin= 8 ErrMin= 2.31D-05
 ErrMax= 2.31D-05  0.00D+00 EMaxC= 1.00D-01 BMatC= 6.47D-07 BMatP= 6.37D-06
 IDIUse=1 WtCom= 1.00D+00 WtEn= 0.00D+00
 Coeff-Com:  0.102D-03-0.912D-03 0.177D-02 0.237D-02 0.223D-01 0.928D-01
 Coeff-Com:  0.274D+00 0.608D+00
 Coeff:      0.102D-03-0.912D-03 0.177D-02 0.237D-02 0.223D-01 0.928D-01
 Coeff:      0.274D+00 0.608D+00
 Gap=     0.172 Goal=   None    Shift=    0.000
 RMSDP=3.61D-06 MaxDP=1.38D-04 DE=-6.48D-06 OVMax= 2.64D-04

 Initial convergence to 1.0D-05 achieved.  Increase integral accuracy.
 Cycle   9  Pass 1  IDiag  1:
 E= -1548.50854006325     Delta-E=       -0.000088110538 Rises=F Damp=F
 DIIS: error= 7.92D-05 at cycle   1 NSaved=   1.
 NSaved= 1 IEnMin= 1 EnMin= -1548.50854006325     IErMin= 1 ErrMin= 7.92D-05
 ErrMax= 7.92D-05  0.00D+00 EMaxC= 1.00D-01 BMatC= 7.94D-07 BMatP= 7.94D-07
 IDIUse=1 WtCom= 1.00D+00 WtEn= 0.00D+00
 Coeff-Com:  0.100D+01
 Coeff:      0.100D+01
 Gap=     0.172 Goal=   None    Shift=    0.000
 RMSDP=3.61D-06 MaxDP=1.38D-04 DE=-8.81D-05 OVMax= 2.78D-04

 Cycle  10  Pass 1  IDiag  1:
 RMSU=  3.39D-05    CP:  1.00D+00
 E= -1548.50854069969     Delta-E=       -0.000000636440 Rises=F Damp=F
 DIIS: error= 1.39D-05 at cycle   2 NSaved=   2.
 NSaved= 2 IEnMin= 2 EnMin= -1548.50854069969     IErMin= 2 ErrMin= 1.39D-05
 ErrMax= 1.39D-05  0.00D+00 EMaxC= 1.00D-01 BMatC= 2.33D-07 BMatP= 7.94D-07
 IDIUse=1 WtCom= 1.00D+00 WtEn= 0.00D+00
 Coeff-Com:  0.276D+00 0.724D+00
 Coeff:      0.276D+00 0.724D+00
 Gap=     0.172 Goal=   None    Shift=    0.000
 RMSDP=4.02D-06 MaxDP=1.09D-04 DE=-6.36D-07 OVMax= 3.01D-04

 Cycle  11  Pass 1  IDiag  1:
 RMSU=  4.01D-06    CP:  1.00D+00  1.00D+00
 E= -1548.50854058794     Delta-E=        0.000000111755 Rises=F Damp=F
 DIIS: error= 1.81D-05 at cycle   3 NSaved=   3.
 NSaved= 3 IEnMin= 2 EnMin= -1548.50854069969     IErMin= 2 ErrMin= 1.39D-05
 ErrMax= 1.81D-05  0.00D+00 EMaxC= 1.00D-01 BMatC= 3.27D-07 BMatP= 2.33D-07
 IDIUse=1 WtCom= 1.00D+00 WtEn= 0.00D+00
 Coeff-Com: -0.913D-03 0.543D+00 0.458D+00
 Coeff:     -0.913D-03 0.543D+00 0.458D+00
 Gap=     0.172 Goal=   None    Shift=    0.000
 RMSDP=2.32D-06 MaxDP=6.63D-05 DE= 1.12D-07 OVMax= 1.91D-04

 Cycle  12  Pass 1  IDiag  1:
 RMSU=  6.45D-07    CP:  1.00D+00  1.01D+00  4.47D-01
 E= -1548.50854095183     Delta-E=       -0.000000363895 Rises=F Damp=F
 DIIS: error= 2.58D-06 at cycle   4 NSaved=   4.
 NSaved= 4 IEnMin= 4 EnMin= -1548.50854095183     IErMin= 4 ErrMin= 2.58D-06
 ErrMax= 2.58D-06  0.00D+00 EMaxC= 1.00D-01 BMatC= 7.87D-09 BMatP= 2.33D-07
 IDIUse=1 WtCom= 1.00D+00 WtEn= 0.00D+00
 Coeff-Com: -0.746D-02 0.315D+00 0.282D+00 0.411D+00
 Coeff:     -0.746D-02 0.315D+00 0.282D+00 0.411D+00
 Gap=     0.172 Goal=   None    Shift=    0.000
 RMSDP=3.72D-07 MaxDP=2.17D-05 DE=-3.64D-07 OVMax= 3.52D-05

 Cycle  13  Pass 1  IDiag  1:
 RMSU=  2.19D-07    CP:  1.00D+00  1.01D+00  4.70D-01  5.58D-01
 E= -1548.50854095923     Delta-E=       -0.000000007404 Rises=F Damp=F
 DIIS: error= 6.04D-07 at cycle   5 NSaved=   5.
 NSaved= 5 IEnMin= 5 EnMin= -1548.50854095923     IErMin= 5 ErrMin= 6.04D-07
 ErrMax= 6.04D-07  0.00D+00 EMaxC= 1.00D-01 BMatC= 4.06D-10 BMatP= 7.87D-09
 IDIUse=1 WtCom= 1.00D+00 WtEn= 0.00D+00
 Coeff-Com: -0.423D-02 0.147D+00 0.135D+00 0.243D+00 0.479D+00
 Coeff:     -0.423D-02 0.147D+00 0.135D+00 0.243D+00 0.479D+00
 Gap=     0.172 Goal=   None    Shift=    0.000
 RMSDP=1.06D-07 MaxDP=3.46D-06 DE=-7.40D-09 OVMax= 7.61D-06

 Cycle  14  Pass 1  IDiag  1:
 RMSU=  9.00D-08    CP:  1.00D+00  1.01D+00  4.68D-01  5.71D-01  7.54D-01
 E= -1548.50854095965     Delta-E=       -0.000000000417 Rises=F Damp=F
 DIIS: error= 2.17D-07 at cycle   6 NSaved=   6.
 NSaved= 6 IEnMin= 6 EnMin= -1548.50854095965     IErMin= 6 ErrMin= 2.17D-07
 ErrMax= 2.17D-07  0.00D+00 EMaxC= 1.00D-01 BMatC= 4.41D-11 BMatP= 4.06D-10
 IDIUse=1 WtCom= 1.00D+00 WtEn= 0.00D+00
 Coeff-Com: -0.119D-02 0.328D-01 0.312D-01 0.707D-01 0.269D+00 0.597D+00
 Coeff:     -0.119D-02 0.328D-01 0.312D-01 0.707D-01 0.269D+00 0.597D+00
 Gap=     0.172 Goal=   None    Shift=    0.000
 RMSDP=3.28D-08 MaxDP=1.10D-06 DE=-4.17D-10 OVMax= 3.25D-06

 Cycle  15  Pass 1  IDiag  1:
 RMSU=  2.38D-08    CP:  1.00D+00  1.01D+00  4.68D-01  5.74D-01  8.24D-01
                    CP:  8.21D-01
 E= -1548.50854095969     Delta-E=       -0.000000000039 Rises=F Damp=F
 DIIS: error= 1.00D-07 at cycle   7 NSaved=   7.
 NSaved= 7 IEnMin= 7 EnMin= -1548.50854095969     IErMin= 7 ErrMin= 1.00D-07
 ErrMax= 1.00D-07  0.00D+00 EMaxC= 1.00D-01 BMatC= 8.22D-12 BMatP= 4.41D-11
 IDIUse=1 WtCom= 1.00D+00 WtEn= 0.00D+00
 Coeff-Com: -0.132D-03-0.675D-03 0.849D-04 0.958D-02 0.919D-01 0.359D+00
 Coeff-Com:  0.540D+00
 Coeff:     -0.132D-03-0.675D-03 0.849D-04 0.958D-02 0.919D-01 0.359D+00
 Coeff:      0.540D+00
 Gap=     0.172 Goal=   None    Shift=    0.000
 RMSDP=1.22D-08 MaxDP=5.17D-07 DE=-3.87D-11 OVMax= 8.94D-07

 Cycle  16  Pass 1  IDiag  1:
 RMSU=  8.14D-09    CP:  1.00D+00  1.01D+00  4.69D-01  5.78D-01  8.23D-01
                    CP:  8.60D-01  6.68D-01
 E= -1548.50854095970     Delta-E=       -0.000000000013 Rises=F Damp=F
 DIIS: error= 2.20D-08 at cycle   8 NSaved=   8.
 NSaved= 8 IEnMin= 8 EnMin= -1548.50854095970     IErMin= 8 ErrMin= 2.20D-08
 ErrMax= 2.20D-08  0.00D+00 EMaxC= 1.00D-01 BMatC= 6.68D-13 BMatP= 8.22D-12
 IDIUse=1 WtCom= 1.00D+00 WtEn= 0.00D+00
 Coeff-Com:  0.309D-04-0.346D-02-0.294D-02-0.113D-02 0.247D-01 0.144D+00
 Coeff-Com:  0.299D+00 0.539D+00
 Coeff:      0.309D-04-0.346D-02-0.294D-02-0.113D-02 0.247D-01 0.144D+00
 Coeff:      0.299D+00 0.539D+00
 Gap=     0.172 Goal=   None    Shift=    0.000
 RMSDP=3.68D-09 MaxDP=1.70D-07 DE=-1.27D-11 OVMax= 3.35D-07

 SCF Done:  E(RB3LYP) =  -1548.50854096     A.U. after   16 cycles
            NFock= 16  Conv=0.37D-08     -V/T= 2.0061
 KE= 1.539172521643D+03 PE=-6.900999746979D+03 EE= 2.181881187367D+03
 Leave Link  502 at Sun Jan 24 23:16:51 2021, MaxMem=   262144000 cpu:       321.0
 (Enter /prod/apps/gaussian/g09d1/l601.exe)
 Copying SCF densities to generalized density rwf, IOpCl= 0 IROHF=0.

 **********************************************************************

            Population analysis using the SCF density.

 **********************************************************************

 Orbital symmetries:
       Occupied  (A) (A) (A) (A) (A) (A) (A) (A) (A) (A) (A) (A)
                 (A) (A) (A) (A) (A) (A) (A) (A) (A) (A) (A) (A)
                 (A) (A) (A) (A) (A) (A) (A) (A) (A) (A) (A) (A)
                 (A) (A) (A) (A) (A) (A) (A) (A) (A) (A) (A) (A)
                 (A) (A) (A) (A) (A) (A) (A) (A) (A) (A) (A) (A)
                 (A) (A) (A) (A) (A) (A) (A) (A) (A) (A) (A) (A)
                 (A) (A) (A) (A)
       Virtual   (A) (A) (A) (A) (A) (A) (A) (A) (A) (A) (A) (A)
                 (A) (A) (A) (A) (A) (A) (A) (A) (A) (A) (A) (A)
                 (A) (A) (A) (A) (A) (A) (A) (A) (A) (A) (A) (A)
                 (A) (A) (A) (A) (A) (A) (A) (A) (A) (A) (A) (A)
                 (A) (A) (A) (A) (A) (A) (A) (A) (A) (A) (A) (A)
                 (A) (A) (A) (A) (A) (A) (A) (A) (A) (A) (A) (A)
                 (A) (A) (A) (A) (A) (A) (A) (A) (A) (A) (A) (A)
                 (A) (A) (A) (A) (A) (A) (A) (A) (A) (A) (A) (A)
                 (A) (A) (A) (A) (A) (A) (A) (A) (A) (A) (A) (A)
                 (A) (A) (A) (A) (A) (A) (A) (A) (A) (A) (A) (A)
                 (A) (A) (A) (A) (A) (A) (A) (A) (A) (A) (A) (A)
                 (A) (A) (A) (A) (A) (A) (A) (A) (A) (A) (A) (A)
                 (A) (A) (A) (A) (A) (A) (A) (A) (A) (A) (A) (A)
                 (A) (A) (A) (A) (A) (A) (A) (A) (A) (A) (A) (A)
                 (A) (A) (A) (A) (A) (A) (A) (A) (A) (A) (A) (A)
                 (A) (A) (A) (A) (A) (A) (A) (A) (A) (A) (A) (A)
                 (A) (A) (A) (A) (A) (A) (A) (A) (A) (A) (A) (A)
                 (A) (A) (A) (A) (A) (A) (A) (A) (A) (A) (A) (A)
                 (A) (A) (A) (A) (A) (A) (A) (A) (A) (A) (A) (A)
                 (A) (A) (A) (A) (A) (A) (A) (A) (A) (A) (A) (A)
                 (A) (A) (A) (A) (A) (A) (A)
 The electronic state is 1-A.
 Alpha  occ. eigenvalues -- -101.55065 -88.89393 -14.37723 -14.31970 -10.25640
 Alpha  occ. eigenvalues --  -10.24978 -10.24357 -10.23423 -10.22887 -10.22516
 Alpha  occ. eigenvalues --  -10.21491 -10.20834 -10.20697 -10.20300 -10.20018
 Alpha  occ. eigenvalues --  -10.19867 -10.19754 -10.19346 -10.19044  -9.46698
 Alpha  occ. eigenvalues --   -7.95448  -7.23089  -7.22125  -7.22098  -5.91953
 Alpha  occ. eigenvalues --   -5.91599  -5.90939  -0.97752  -0.89357  -0.88695
 Alpha  occ. eigenvalues --   -0.86417  -0.84850  -0.80105  -0.77816  -0.77172
 Alpha  occ. eigenvalues --   -0.74687  -0.73632  -0.69456  -0.67532  -0.63650
 Alpha  occ. eigenvalues --   -0.61801  -0.61431  -0.59101  -0.56888  -0.54372
 Alpha  occ. eigenvalues --   -0.52454  -0.50065  -0.49176  -0.48841  -0.47741
 Alpha  occ. eigenvalues --   -0.46849  -0.46338  -0.45017  -0.44155  -0.43132
 Alpha  occ. eigenvalues --   -0.42996  -0.41741  -0.40572  -0.40037  -0.39071
 Alpha  occ. eigenvalues --   -0.38806  -0.38240  -0.36996  -0.36153  -0.35669
 Alpha  occ. eigenvalues --   -0.34998  -0.34740  -0.32917  -0.31610  -0.31117
 Alpha  occ. eigenvalues --   -0.29246  -0.26388  -0.25345  -0.24117  -0.23031
 Alpha  occ. eigenvalues --   -0.19418
 Alpha virt. eigenvalues --   -0.02213  -0.01762  -0.00984   0.00354   0.02251
 Alpha virt. eigenvalues --    0.03754   0.05742   0.07844   0.10178   0.10422
 Alpha virt. eigenvalues --    0.11487   0.12779   0.13326   0.13754   0.14046
 Alpha virt. eigenvalues --    0.14598   0.15310   0.16012   0.16783   0.16955
 Alpha virt. eigenvalues --    0.17589   0.18438   0.18577   0.19391   0.21591
 Alpha virt. eigenvalues --    0.23096   0.23756   0.23971   0.24448   0.26172
 Alpha virt. eigenvalues --    0.26469   0.27938   0.28572   0.30138   0.31348
 Alpha virt. eigenvalues --    0.31378   0.32282   0.35814   0.35980   0.37207
 Alpha virt. eigenvalues --    0.37667   0.39350   0.40790   0.42205   0.43666
 Alpha virt. eigenvalues --    0.44358   0.46383   0.49684   0.50297   0.51104
 Alpha virt. eigenvalues --    0.51972   0.53095   0.53656   0.53768   0.54669
 Alpha virt. eigenvalues --    0.55365   0.56202   0.57083   0.57652   0.58065
 Alpha virt. eigenvalues --    0.58590   0.59478   0.59725   0.60120   0.60451
 Alpha virt. eigenvalues --    0.60780   0.60848   0.61282   0.61746   0.63080
 Alpha virt. eigenvalues --    0.63595   0.65579   0.65872   0.66087   0.67326
 Alpha virt. eigenvalues --    0.69731   0.70729   0.72170   0.73718   0.74680
 Alpha virt. eigenvalues --    0.75269   0.77456   0.78536   0.80495   0.80942
 Alpha virt. eigenvalues --    0.81335   0.82179   0.82844   0.83393   0.84194
 Alpha virt. eigenvalues --    0.84814   0.85364   0.86765   0.86870   0.87036
 Alpha virt. eigenvalues --    0.88651   0.89113   0.89821   0.90863   0.91253
 Alpha virt. eigenvalues --    0.91523   0.92058   0.92364   0.93376   0.94596
 Alpha virt. eigenvalues --    0.95224   0.95797   0.96955   0.97219   0.98523
 Alpha virt. eigenvalues --    1.00192   1.00959   1.01212   1.02178   1.02259
 Alpha virt. eigenvalues --    1.02902   1.06338   1.06480   1.08629   1.08860
 Alpha virt. eigenvalues --    1.10717   1.11365   1.13672   1.14616   1.15829
 Alpha virt. eigenvalues --    1.20871   1.22059   1.23376   1.24502   1.25652
 Alpha virt. eigenvalues --    1.28385   1.31675   1.32648   1.34172   1.36265
 Alpha virt. eigenvalues --    1.38473   1.39489   1.42360   1.42736   1.45581
 Alpha virt. eigenvalues --    1.45940   1.46311   1.46913   1.47696   1.48849
 Alpha virt. eigenvalues --    1.50056   1.51968   1.53594   1.55813   1.56556
 Alpha virt. eigenvalues --    1.58321   1.61437   1.64119   1.66682   1.69145
 Alpha virt. eigenvalues --    1.75625   1.77156   1.77442   1.78703   1.80291
 Alpha virt. eigenvalues --    1.81608   1.82961   1.84615   1.86694   1.88683
 Alpha virt. eigenvalues --    1.89245   1.91797   1.92917   1.93140   1.94088
 Alpha virt. eigenvalues --    1.95932   1.97920   2.00554   2.01001   2.02347
 Alpha virt. eigenvalues --    2.05100   2.05851   2.05914   2.07665   2.09871
 Alpha virt. eigenvalues --    2.11426   2.12259   2.12796   2.13805   2.15305
 Alpha virt. eigenvalues --    2.15743   2.17348   2.20201   2.21716   2.23875
 Alpha virt. eigenvalues --    2.26731   2.27976   2.28519   2.28866   2.29824
 Alpha virt. eigenvalues --    2.30398   2.31885   2.37441   2.40134   2.42388
 Alpha virt. eigenvalues --    2.46831   2.48312   2.51611   2.51689   2.55865
 Alpha virt. eigenvalues --    2.57045   2.59007   2.61805   2.62568   2.63175
 Alpha virt. eigenvalues --    2.64970   2.68106   2.68774   2.69668   2.72332
 Alpha virt. eigenvalues --    2.73448   2.74529   2.75331   2.76173   2.79958
 Alpha virt. eigenvalues --    2.83482   2.85721   2.92432   2.97989   3.10724
 Alpha virt. eigenvalues --    3.19123   3.35266   3.39499   3.77381   3.96083
 Alpha virt. eigenvalues --    4.05810   4.08396   4.10518   4.11360   4.12140
 Alpha virt. eigenvalues --    4.14921   4.18452   4.25232   4.28309   4.33360
 Alpha virt. eigenvalues --    4.35231   4.37169   4.38134   4.40838   4.51743
 Alpha virt. eigenvalues --    4.68182   4.72321
          Condensed to atoms (all electrons):
               1          2          3          4          5          6
     1  N    6.863197   0.316186   0.317706   0.349837  -0.039168  -0.040364
     2  H    0.316186   0.457875  -0.034797  -0.044010  -0.004094   0.006637
     3  H    0.317706  -0.034797   0.458905  -0.044039   0.006209  -0.005058
     4  C    0.349837  -0.044010  -0.044039   4.878732   0.380956   0.379473
     5  H   -0.039168  -0.004094   0.006209   0.380956   0.581312  -0.033183
     6  H   -0.040364   0.006637  -0.005058   0.379473  -0.033183   0.598249
     7  C   -0.065267  -0.002801  -0.003719   0.343093  -0.044729  -0.050793
     8  H   -0.002688   0.005021  -0.000244  -0.034153  -0.003121   0.005328
     9  H    0.004805   0.000049   0.000014  -0.022995  -0.001215  -0.000463
    10  C   -0.005174  -0.000717   0.002419  -0.036315   0.004516  -0.006832
    11  H    0.000001   0.000056  -0.000012  -0.002750  -0.000035   0.004858
    12  H    0.006888   0.000295   0.005540  -0.000249   0.000036   0.000224
    13  N    0.000124   0.000005  -0.000044   0.003178  -0.000094   0.000085
    14  C    0.000010  -0.000005   0.000002   0.000168  -0.000001   0.000005
    15  C   -0.000911  -0.000387  -0.000167  -0.000055  -0.000003  -0.000019
    16  H    0.002819   0.001303   0.000516  -0.000344   0.000027   0.000022
    17  C   -0.000005   0.000001  -0.000002  -0.000007   0.000000   0.000000
    18  Cl  -0.000011   0.000064   0.000001   0.000001   0.000000   0.000000
    19  C    0.000000   0.000000   0.000000   0.000000   0.000000   0.000000
    20  H    0.000000   0.000000   0.000000   0.000000   0.000000   0.000000
    21  C    0.000000   0.000000   0.000000   0.000000   0.000000   0.000000
    22  H    0.000000   0.000000   0.000000   0.000000   0.000000   0.000000
    23  C    0.000000   0.000000   0.000000   0.000000   0.000000   0.000000
    24  S    0.000000   0.000000   0.000000   0.000005   0.000000   0.000000
    25  C    0.000000   0.000000   0.000000   0.000001   0.000000   0.000000
    26  C   -0.000003   0.000000   0.000000  -0.000068   0.000001  -0.000003
    27  C    0.000002   0.000000   0.000004  -0.000007   0.000000  -0.000013
    28  H    0.000000   0.000000   0.000001   0.000013   0.000000   0.000001
    29  C    0.000000   0.000000   0.000000   0.000000   0.000000   0.000000
    30  H    0.000000   0.000000   0.000000   0.000000   0.000000   0.000000
    31  C    0.000000   0.000000   0.000000   0.000000   0.000000   0.000000
    32  H    0.000000   0.000000   0.000000   0.000000   0.000000   0.000000
    33  C    0.000000   0.000000   0.000000   0.000000   0.000000   0.000000
    34  H    0.000000   0.000000   0.000000   0.000000   0.000000   0.000000
               7          8          9         10         11         12
     1  N   -0.065267  -0.002688   0.004805  -0.005174   0.000001   0.006888
     2  H   -0.002801   0.005021   0.000049  -0.000717   0.000056   0.000295
     3  H   -0.003719  -0.000244   0.000014   0.002419  -0.000012   0.005540
     4  C    0.343093  -0.034153  -0.022995  -0.036315  -0.002750  -0.000249
     5  H   -0.044729  -0.003121  -0.001215   0.004516  -0.000035   0.000036
     6  H   -0.050793   0.005328  -0.000463  -0.006832   0.004858   0.000224
     7  C    5.169949   0.372459   0.344279   0.365488  -0.030228  -0.058757
     8  H    0.372459   0.574448  -0.031050  -0.044174   0.005214  -0.005614
     9  H    0.344279  -0.031050   0.587216  -0.035004  -0.006170   0.006676
    10  C    0.365488  -0.044174  -0.035004   4.969112   0.372162   0.351218
    11  H   -0.030228   0.005214  -0.006170   0.372162   0.565108  -0.043909
    12  H   -0.058757  -0.005614   0.006676   0.351218  -0.043909   0.642003
    13  N   -0.046952  -0.004755   0.001419   0.286899  -0.035493  -0.042937
    14  C   -0.005203   0.003353   0.000691  -0.044762   0.004351  -0.005190
    15  C   -0.005704   0.006993  -0.000120  -0.000521   0.000188   0.001403
    16  H   -0.003194   0.000196   0.000289   0.004540  -0.000025   0.005538
    17  C   -0.000147   0.000133  -0.000017   0.000397  -0.000005  -0.000093
    18  Cl   0.000004   0.000064   0.000000  -0.000016   0.000000   0.000004
    19  C    0.000010  -0.000019   0.000003  -0.000016   0.000000   0.000003
    20  H    0.000000   0.000000   0.000000   0.000000   0.000000   0.000000
    21  C    0.000000  -0.000038  -0.000006  -0.000090   0.000002  -0.000003
    22  H    0.000000   0.000000   0.000000   0.000002   0.000000   0.000000
    23  C   -0.000237  -0.000067  -0.000074   0.006644  -0.000122  -0.000228
    24  S   -0.000115  -0.000008   0.000234  -0.000834  -0.000123   0.000219
    25  C   -0.000161   0.000005  -0.000076   0.006208   0.000113  -0.000248
    26  C    0.002299   0.000031   0.000409  -0.041380  -0.005128   0.000383
    27  C    0.000455  -0.000008   0.000050  -0.010347   0.006558   0.001438
    28  H   -0.000023  -0.000001   0.000017   0.004315   0.001468   0.001378
    29  C   -0.000004   0.000000  -0.000001   0.000225   0.000408  -0.000061
    30  H    0.000000   0.000000   0.000000   0.000001   0.000003   0.000000
    31  C    0.000000   0.000000   0.000000  -0.000011  -0.000021   0.000002
    32  H    0.000000   0.000000   0.000000   0.000000   0.000000   0.000000
    33  C    0.000002   0.000000  -0.000001  -0.000074  -0.000033   0.000002
    34  H    0.000000   0.000000   0.000000   0.000002   0.000000   0.000000
              13         14         15         16         17         18
     1  N    0.000124   0.000010  -0.000911   0.002819  -0.000005  -0.000011
     2  H    0.000005  -0.000005  -0.000387   0.001303   0.000001   0.000064
     3  H   -0.000044   0.000002  -0.000167   0.000516  -0.000002   0.000001
     4  C    0.003178   0.000168  -0.000055  -0.000344  -0.000007   0.000001
     5  H   -0.000094  -0.000001  -0.000003   0.000027   0.000000   0.000000
     6  H    0.000085   0.000005  -0.000019   0.000022   0.000000   0.000000
     7  C   -0.046952  -0.005203  -0.005704  -0.003194  -0.000147   0.000004
     8  H   -0.004755   0.003353   0.006993   0.000196   0.000133   0.000064
     9  H    0.001419   0.000691  -0.000120   0.000289  -0.000017   0.000000
    10  C    0.286899  -0.044762  -0.000521   0.004540   0.000397  -0.000016
    11  H   -0.035493   0.004351   0.000188  -0.000025  -0.000005   0.000000
    12  H   -0.042937  -0.005190   0.001403   0.005538  -0.000093   0.000004
    13  N    7.097117   0.307132  -0.073833  -0.012521   0.005748  -0.000101
    14  C    0.307132   4.631752   0.476327  -0.038718   0.003182   0.004183
    15  C   -0.073833   0.476327   5.130214   0.346699   0.490910  -0.067328
    16  H   -0.012521  -0.038718   0.346699   0.579806  -0.045292  -0.000569
    17  C    0.005748   0.003182   0.490910  -0.045292   4.956652   0.233198
    18  Cl  -0.000101   0.004183  -0.067328  -0.000569   0.233198  16.920311
    19  C    0.000358  -0.034516  -0.044700   0.004779   0.533677  -0.065722
    20  H    0.000002   0.000481   0.004817  -0.000165  -0.041310  -0.000601
    21  C    0.004933  -0.002232  -0.049390   0.000198  -0.015737   0.004639
    22  H   -0.000113   0.003656   0.000776   0.000015   0.004393  -0.000164
    23  C   -0.071992   0.481899  -0.061639   0.005943  -0.038987   0.000607
    24  S    0.006170  -0.063825   0.007845  -0.000182   0.000083   0.000014
    25  C   -0.071808  -0.022978   0.000182  -0.000002   0.000001   0.000000
    26  C    0.299411  -0.021148   0.003033  -0.000087  -0.000066   0.000001
    27  C   -0.070200   0.002654   0.000070   0.000006  -0.000001   0.000000
    28  H   -0.011853  -0.000083  -0.000005  -0.000008   0.000000   0.000000
    29  C    0.005674  -0.000080  -0.000002   0.000000   0.000000   0.000000
    30  H   -0.000108   0.000000   0.000000   0.000000   0.000000   0.000000
    31  C    0.000282  -0.000037  -0.000001   0.000000   0.000000   0.000000
    32  H    0.000003   0.000001   0.000000   0.000000   0.000000   0.000000
    33  C    0.004826   0.000868   0.000015   0.000000  -0.000001   0.000000
    34  H   -0.000107  -0.000009   0.000000   0.000000   0.000000   0.000000
              19         20         21         22         23         24
     1  N    0.000000   0.000000   0.000000   0.000000   0.000000   0.000000
     2  H    0.000000   0.000000   0.000000   0.000000   0.000000   0.000000
     3  H    0.000000   0.000000   0.000000   0.000000   0.000000   0.000000
     4  C    0.000000   0.000000   0.000000   0.000000   0.000000   0.000005
     5  H    0.000000   0.000000   0.000000   0.000000   0.000000   0.000000
     6  H    0.000000   0.000000   0.000000   0.000000   0.000000   0.000000
     7  C    0.000010   0.000000   0.000000   0.000000  -0.000237  -0.000115
     8  H   -0.000019   0.000000  -0.000038   0.000000  -0.000067  -0.000008
     9  H    0.000003   0.000000  -0.000006   0.000000  -0.000074   0.000234
    10  C   -0.000016   0.000000  -0.000090   0.000002   0.006644  -0.000834
    11  H    0.000000   0.000000   0.000002   0.000000  -0.000122  -0.000123
    12  H    0.000003   0.000000  -0.000003   0.000000  -0.000228   0.000219
    13  N    0.000358   0.000002   0.004933  -0.000113  -0.071992   0.006170
    14  C   -0.034516   0.000481  -0.002232   0.003656   0.481899  -0.063825
    15  C   -0.044700   0.004817  -0.049390   0.000776  -0.061639   0.007845
    16  H    0.004779  -0.000165   0.000198   0.000015   0.005943  -0.000182
    17  C    0.533677  -0.041310  -0.015737   0.004393  -0.038987   0.000083
    18  Cl  -0.065722  -0.000601   0.004639  -0.000164   0.000607   0.000014
    19  C    4.932923   0.362851   0.503559  -0.039503  -0.038931   0.004588
    20  H    0.362851   0.558396  -0.037948  -0.005444   0.004511  -0.000145
    21  C    0.503559  -0.037948   4.948768   0.359063   0.513229  -0.052856
    22  H   -0.039503  -0.005444   0.359063   0.562999  -0.039466   0.000042
    23  C   -0.038931   0.004511   0.513229  -0.039466   5.136202   0.234708
    24  S    0.004588  -0.000145  -0.052856   0.000042   0.234708  15.571307
    25  C   -0.000114   0.000000   0.000579   0.000058   0.009173   0.231887
    26  C   -0.000038   0.000001   0.000887  -0.000009  -0.022428  -0.065328
    27  C   -0.000001   0.000000   0.000017   0.000000   0.000235   0.007735
    28  H    0.000000   0.000000   0.000000   0.000000  -0.000002  -0.000211
    29  C    0.000000   0.000000  -0.000001   0.000000   0.000005  -0.000007
    30  H    0.000000   0.000000   0.000000   0.000000   0.000000   0.000020
    31  C    0.000000   0.000000   0.000001   0.000000  -0.000113   0.004703
    32  H    0.000000   0.000000   0.000000   0.000000   0.000000  -0.000177
    33  C    0.000001   0.000000  -0.000092   0.000001   0.000341  -0.053375
    34  H    0.000000   0.000000   0.000001   0.000001   0.000059  -0.000561
              25         26         27         28         29         30
     1  N    0.000000  -0.000003   0.000002   0.000000   0.000000   0.000000
     2  H    0.000000   0.000000   0.000000   0.000000   0.000000   0.000000
     3  H    0.000000   0.000000   0.000004   0.000001   0.000000   0.000000
     4  C    0.000001  -0.000068  -0.000007   0.000013   0.000000   0.000000
     5  H    0.000000   0.000001   0.000000   0.000000   0.000000   0.000000
     6  H    0.000000  -0.000003  -0.000013   0.000001   0.000000   0.000000
     7  C   -0.000161   0.002299   0.000455  -0.000023  -0.000004   0.000000
     8  H    0.000005   0.000031  -0.000008  -0.000001   0.000000   0.000000
     9  H   -0.000076   0.000409   0.000050   0.000017  -0.000001   0.000000
    10  C    0.006208  -0.041380  -0.010347   0.004315   0.000225   0.000001
    11  H    0.000113  -0.005128   0.006558   0.001468   0.000408   0.000003
    12  H   -0.000248   0.000383   0.001438   0.001378  -0.000061   0.000000
    13  N   -0.071808   0.299411  -0.070200  -0.011853   0.005674  -0.000108
    14  C   -0.022978  -0.021148   0.002654  -0.000083  -0.000080   0.000000
    15  C    0.000182   0.003033   0.000070  -0.000005  -0.000002   0.000000
    16  H   -0.000002  -0.000087   0.000006  -0.000008   0.000000   0.000000
    17  C    0.000001  -0.000066  -0.000001   0.000000   0.000000   0.000000
    18  Cl   0.000000   0.000001   0.000000   0.000000   0.000000   0.000000
    19  C   -0.000114  -0.000038  -0.000001   0.000000   0.000000   0.000000
    20  H    0.000000   0.000001   0.000000   0.000000   0.000000   0.000000
    21  C    0.000579   0.000887   0.000017   0.000000  -0.000001   0.000000
    22  H    0.000058  -0.000009   0.000000   0.000000   0.000000   0.000000
    23  C    0.009173  -0.022428   0.000235  -0.000002   0.000005   0.000000
    24  S    0.231887  -0.065328   0.007735  -0.000211  -0.000007   0.000020
    25  C    5.131318   0.486271  -0.058345   0.005825  -0.041727   0.000946
    26  C    0.486271   4.628682   0.509765  -0.042571  -0.004718   0.003577
    27  C   -0.058345   0.509765   5.029086   0.352107   0.516050  -0.038996
    28  H    0.005825  -0.042571   0.352107   0.596247  -0.041877  -0.005784
    29  C   -0.041727  -0.004718   0.516050  -0.041877   4.864034   0.357073
    30  H    0.000946   0.003577  -0.038996  -0.005784   0.357073   0.590987
    31  C   -0.037954  -0.036520  -0.034936   0.004511   0.551154  -0.041005
    32  H    0.004902   0.000670   0.004912  -0.000181  -0.042056  -0.005273
    33  C    0.521090  -0.008245  -0.049826   0.000513  -0.023163   0.004694
    34  H   -0.042453   0.004095   0.000651   0.000016   0.004583  -0.000189
              31         32         33         34
     1  N    0.000000   0.000000   0.000000   0.000000
     2  H    0.000000   0.000000   0.000000   0.000000
     3  H    0.000000   0.000000   0.000000   0.000000
     4  C    0.000000   0.000000   0.000000   0.000000
     5  H    0.000000   0.000000   0.000000   0.000000
     6  H    0.000000   0.000000   0.000000   0.000000
     7  C    0.000000   0.000000   0.000002   0.000000
     8  H    0.000000   0.000000   0.000000   0.000000
     9  H    0.000000   0.000000  -0.000001   0.000000
    10  C   -0.000011   0.000000  -0.000074   0.000002
    11  H   -0.000021   0.000000  -0.000033   0.000000
    12  H    0.000002   0.000000   0.000002   0.000000
    13  N    0.000282   0.000003   0.004826  -0.000107
    14  C   -0.000037   0.000001   0.000868  -0.000009
    15  C   -0.000001   0.000000   0.000015   0.000000
    16  H    0.000000   0.000000   0.000000   0.000000
    17  C    0.000000   0.000000  -0.000001   0.000000
    18  Cl   0.000000   0.000000   0.000000   0.000000
    19  C    0.000000   0.000000   0.000001   0.000000
    20  H    0.000000   0.000000   0.000000   0.000000
    21  C    0.000001   0.000000  -0.000092   0.000001
    22  H    0.000000   0.000000   0.000001   0.000001
    23  C   -0.000113   0.000000   0.000341   0.000059
    24  S    0.004703  -0.000177  -0.053375  -0.000561
    25  C   -0.037954   0.004902   0.521090  -0.042453
    26  C   -0.036520   0.000670  -0.008245   0.004095
    27  C   -0.034936   0.004912  -0.049826   0.000651
    28  H    0.004511  -0.000181   0.000513   0.000016
    29  C    0.551154  -0.042056  -0.023163   0.004583
    30  H   -0.041005  -0.005273   0.004694  -0.000189
    31  C    4.858241   0.361259   0.527764  -0.039930
    32  H    0.361259   0.590568  -0.042537  -0.005430
    33  C    0.527764  -0.042537   4.934923   0.357590
    34  H   -0.039930  -0.005430   0.357590   0.575555
 Mulliken charges:
               1
     1  N   -0.707984
     2  H    0.299319
     3  H    0.296767
     4  C   -0.150466
     5  H    0.152586
     6  H    0.141848
     7  C   -0.280003
     8  H    0.152696
     9  H    0.151039
    10  C   -0.147880
    11  H    0.163564
    12  H    0.134037
    13  N   -0.580454
    14  C    0.318071
    15  C   -0.164685
    16  H    0.148410
    17  C   -0.086705
    18  Cl  -0.028578
    19  C   -0.119191
    20  H    0.154554
    21  C   -0.177485
    22  H    0.153692
    23  C   -0.119270
    24  S    0.168185
    25  C   -0.122696
    26  C    0.308223
    27  C   -0.169116
    28  H    0.136185
    29  C   -0.145509
    30  H    0.134052
    31  C   -0.117390
    32  H    0.133340
    33  C   -0.175285
    34  H    0.146127
 Sum of Mulliken charges =   0.00000
 Mulliken charges with hydrogens summed into heavy atoms:
               1
     1  N   -0.111898
     4  C    0.143967
     7  C    0.023733
    10  C    0.149721
    13  N   -0.580454
    14  C    0.318071
    15  C   -0.016275
    17  C   -0.086705
    18  Cl  -0.028578
    19  C    0.035363
    21  C   -0.023793
    23  C   -0.119270
    24  S    0.168185
    25  C   -0.122696
    26  C    0.308223
    27  C   -0.032930
    29  C   -0.011457
    31  C    0.015950
    33  C   -0.029158
 Electronic spatial extent (au):  <R**2>=           6437.7593
 Charge=              0.0000 electrons
 Dipole moment (field-independent basis, Debye):
    X=              1.7035    Y=              0.4860    Z=             -0.5587  Tot=              1.8575
 Quadrupole moment (field-independent basis, Debye-Ang):
   XX=           -126.1461   YY=           -125.3859   ZZ=           -126.9590
   XY=              5.8059   XZ=             -4.6108   YZ=             -3.8657
 Traceless Quadrupole moment (field-independent basis, Debye-Ang):
   XX=              0.0175   YY=              0.7778   ZZ=             -0.7953
   XY=              5.8059   XZ=             -4.6108   YZ=             -3.8657
 Octapole moment (field-independent basis, Debye-Ang**2):
  XXX=             51.3344  YYY=            -68.4148  ZZZ=             -2.1272  XYY=             28.5888
  XXY=            -13.9794  XXZ=             -9.9941  XZZ=            -10.9999  YZZ=             17.8557
  YYZ=              0.4754  XYZ=             -2.6255
 Hexadecapole moment (field-independent basis, Debye-Ang**3):
 XXXX=          -4776.5884 YYYY=          -3250.3197 ZZZZ=           -671.7186 XXXY=             -7.7504
 XXXZ=            -67.3735 YYYX=            297.4370 YYYZ=            -34.1579 ZZZX=             12.9455
 ZZZY=              3.6208 XXYY=          -1450.7899 XXZZ=           -939.4779 YYZZ=           -589.9953
 XXYZ=            -38.6912 YYXZ=            -13.3937 ZZXY=             -7.4366
 N-N= 1.631437497010D+03 E-N=-6.900999756061D+03  KE= 1.539172521643D+03
 No NMR shielding tensors so no spin-rotation constants.
 Leave Link  601 at Sun Jan 24 23:16:51 2021, MaxMem=   262144000 cpu:         0.3
 (Enter /prod/apps/gaussian/g09d1/l9999.exe)
 1\1\GINC-PIRINEUS45\SP\RB3LYP\6-31G(d)\C15H15Cl1N2S1\UBAFAR01\24-Jan-2
 021\0\\#p b3lyp/6-31G(d)\\SET_328_BBB29_conf1.geo_105_180_075.n.pdb.xy
 z\\0,1\N,0,-3.453,0.857,2.447\H,0,-3.691,-0.127,2.338\H,0,-3.534,1.276
 ,1.525\C,0,-2.085,0.987,2.96\H,0,-2.077,0.597,3.984\H,0,-1.86,2.057,3.
 038\C,0,-0.968,0.281,2.169\H,0,-1.216,-0.779,2.065\H,0,-0.03,0.333,2.7
 37\C,0,-0.729,0.901,0.789\H,0,-0.387,1.927,0.927\H,0,-1.663,0.953,0.21
 3\N,0,0.315,0.202,0.032\C,0,0.106,-1.148,-0.313\C,0,-1.172,-1.723,-0.2
 9\H,0,-2.035,-1.134,-0.017\C,0,-1.332,-3.066,-0.617\Cl,0,-2.947,-3.756
 ,-0.552\C,0,-0.263,-3.866,-1.001\H,0,-0.413,-4.908,-1.253\C,0,1.005,-3
 .287,-1.052\H,0,1.858,-3.883,-1.357\C,0,1.198,-1.954,-0.694\S,0,2.836,
 -1.262,-0.627\C,0,2.433,0.385,-1.168\C,0,1.216,0.96,-0.758\C,0,0.937,2
 .274,-1.161\H,0,-0.008,2.731,-0.9\C,0,1.864,3.003,-1.905\H,0,1.628,4.0
 23,-2.19\C,0,3.07,2.426,-2.298\H,0,3.788,2.989,-2.882\C,0,3.34,1.105,-
 1.942\H,0,4.264,0.629,-2.252\\Version=AM64L-G09RevD.01\State=1-A\HF=-1
 548.508541\RMSD=3.683e-09\Dipole=0.314211,0.5961279,-0.2827723\Quadrup
 ole=-4.1610358,6.3513069,-2.1902711,-0.4400844,0.3841722,-2.723892\PG=
 C01 [X(C15H15Cl1N2S1)]\\@


 ON A CLEAR DISK YOU CAN SEEK FOREVER.
 Job cpu time:       0 days  0 hours  5 minutes 26.4 seconds.
 File lengths (MBytes):  RWF=     58 Int=      0 D2E=      0 Chk=      5 Scr=      1
 Normal termination of Gaussian 09 at Sun Jan 24 23:16:51 2021.
 Initial command:
 /prod/apps/gaussian/g09d1/l1.exe "/tmp/ubafar01/1642346/Gau-47710.inp" -scrdir="/tmp/ubafar01/1642346/"
 Entering Link 1 = /prod/apps/gaussian/g09d1/l1.exe PID=     47998.
  
 Copyright (c) 1988,1990,1992,1993,1995,1998,2003,2009,2013,
            Gaussian, Inc.  All Rights Reserved.
  
 This is part of the Gaussian(R) 09 program.  It is based on
 the Gaussian(R) 03 system (copyright 2003, Gaussian, Inc.),
 the Gaussian(R) 98 system (copyright 1998, Gaussian, Inc.),
 the Gaussian(R) 94 system (copyright 1995, Gaussian, Inc.),
 the Gaussian 92(TM) system (copyright 1992, Gaussian, Inc.),
 the Gaussian 90(TM) system (copyright 1990, Gaussian, Inc.),
 the Gaussian 88(TM) system (copyright 1988, Gaussian, Inc.),
 the Gaussian 86(TM) system (copyright 1986, Carnegie Mellon
 University), and the Gaussian 82(TM) system (copyright 1983,
 Carnegie Mellon University). Gaussian is a federally registered
 trademark of Gaussian, Inc.
  
 This software contains proprietary and confidential information,
 including trade secrets, belonging to Gaussian, Inc.
  
 This software is provided under written license and may be
 used, copied, transmitted, or stored only in accord with that
 written license.
  
 The following legend is applicable only to US Government
 contracts under FAR:
  
                    RESTRICTED RIGHTS LEGEND
  
 Use, reproduction and disclosure by the US Government is
 subject to restrictions as set forth in subparagraphs (a)
 and (c) of the Commercial Computer Software - Restricted
 Rights clause in FAR 52.227-19.
  
 Gaussian, Inc.
 340 Quinnipiac St., Bldg. 40, Wallingford CT 06492
  
  
 ---------------------------------------------------------------
 Warning -- This program may not be used in any manner that
 competes with the business of Gaussian, Inc. or will provide
 assistance to any competitor of Gaussian, Inc.  The licensee
 of this program is prohibited from giving any competitor of
 Gaussian, Inc. access to this program.  By using this program,
 the user acknowledges that Gaussian, Inc. is engaged in the
 business of creating and licensing software in the field of
 computational chemistry and represents and warrants to the
 licensee that it is not a competitor of Gaussian, Inc. and that
 it will not use this program in any manner prohibited above.
 ---------------------------------------------------------------
  

 Cite this work as:
 Gaussian 09, Revision D.01,
 M. J. Frisch, G. W. Trucks, H. B. Schlegel, G. E. Scuseria, 
 M. A. Robb, J. R. Cheeseman, G. Scalmani, V. Barone, B. Mennucci, 
 G. A. Petersson, H. Nakatsuji, M. Caricato, X. Li, H. P. Hratchian, 
 A. F. Izmaylov, J. Bloino, G. Zheng, J. L. Sonnenberg, M. Hada, 
 M. Ehara, K. Toyota, R. Fukuda, J. Hasegawa, M. Ishida, T. Nakajima, 
 Y. Honda, O. Kitao, H. Nakai, T. Vreven, J. A. Montgomery, Jr., 
 J. E. Peralta, F. Ogliaro, M. Bearpark, J. J. Heyd, E. Brothers, 
 K. N. Kudin, V. N. Staroverov, T. Keith, R. Kobayashi, J. Normand, 
 K. Raghavachari, A. Rendell, J. C. Burant, S. S. Iyengar, J. Tomasi, 
 M. Cossi, N. Rega, J. M. Millam, M. Klene, J. E. Knox, J. B. Cross, 
 V. Bakken, C. Adamo, J. Jaramillo, R. Gomperts, R. E. Stratmann, 
 O. Yazyev, A. J. Austin, R. Cammi, C. Pomelli, J. W. Ochterski, 
 R. L. Martin, K. Morokuma, V. G. Zakrzewski, G. A. Voth, 
 P. Salvador, J. J. Dannenberg, S. Dapprich, A. D. Daniels, 
 O. Farkas, J. B. Foresman, J. V. Ortiz, J. Cioslowski, 
 and D. J. Fox, Gaussian, Inc., Wallingford CT, 2013.
 
 ******************************************
 Gaussian 09:  AM64L-G09RevD.01 24-Apr-2013
                24-Jan-2021 
 ******************************************
 %nproc=1
 Will use up to    1 processors via shared memory.
 %Chk=SET_328_BBB29_conf1.geo_105_180_075.n.pdb.xyz.mst.n.o.chk
 %mem=2000MB
 %subst l301 /dades/curu/work_g09D01_MST_AddSphPartition_ReadGammas/exe-dir/
 %subst l502 /dades/curu/work_g09D01_MST_AddSphPartition_ReadGammas/exe-dir/
 ----------------------------------------------------------------------
 #p b3lyp/6-31G(d) scrf=(iefpcm,read,solvent=n-Octanol) geom=allcheck g
 uess=read
 ----------------------------------------------------------------------
 1/29=7,38=1,40=2/1;
 2/12=2,40=1/2;
 3/5=1,6=6,7=1,11=2,14=-4,16=1,25=1,30=1,70=2203,72=25,74=-5,116=-2/1,2,3;
 4/5=1/1;
 5/5=2,38=6,53=25/2;
 6/7=2,8=2,9=2,10=2,28=1/1;
 99/5=1,9=1/99;
 Leave Link    1 at Sun Jan 24 23:16:51 2021, MaxMem=   262144000 cpu:         0.0
 (Enter /prod/apps/gaussian/g09d1/l101.exe)
 Structure from the checkpoint file:  "SET_328_BBB29_conf1.geo_105_180_075.n.pdb.xyz.mst.n.o.chk"
 ---------------------------------------------
 SET_328_BBB29_conf1.geo_105_180_075.n.pdb.xyz
 ---------------------------------------------
 Charge =  0 Multiplicity = 1
 Z-Matrix found in file.
 N,0,-3.453,0.857,2.447
 H,0,-3.691,-0.127,2.338
 H,0,-3.534,1.276,1.525
 C,0,-2.085,0.987,2.96
 H,0,-2.077,0.597,3.984
 H,0,-1.86,2.057,3.038
 C,0,-0.968,0.281,2.169
 H,0,-1.216,-0.779,2.065
 H,0,-0.03,0.333,2.737
 C,0,-0.729,0.901,0.789
 H,0,-0.387,1.927,0.927
 H,0,-1.663,0.953,0.213
 N,0,0.315,0.202,0.032
 C,0,0.106,-1.148,-0.313
 C,0,-1.172,-1.723,-0.29
 H,0,-2.035,-1.134,-0.017
 C,0,-1.332,-3.066,-0.617
 Cl,0,-2.947,-3.756,-0.552
 C,0,-0.263,-3.866,-1.001
 H,0,-0.413,-4.908,-1.253
 C,0,1.005,-3.287,-1.052
 H,0,1.858,-3.883,-1.357
 C,0,1.198,-1.954,-0.694
 S,0,2.836,-1.262,-0.627
 C,0,2.433,0.385,-1.168
 C,0,1.216,0.96,-0.758
 C,0,0.937,2.274,-1.161
 H,0,-0.008,2.731,-0.9
 C,0,1.864,3.003,-1.905
 H,0,1.628,4.023,-2.19
 C,0,3.07,2.426,-2.298
 H,0,3.788,2.989,-2.882
 C,0,3.34,1.105,-1.942
 H,0,4.264,0.629,-2.252
 Recover connectivity data from disk.
 NAtoms=     34 NQM=       34 NQMF=       0 NMMI=      0 NMMIF=      0
                NMic=       0 NMicF=      0.
                    Isotopes and Nuclear Properties:
 (Nuclear quadrupole moments (NQMom) in fm**2, nuclear magnetic moments (NMagM)
  in nuclear magnetons)

  Atom         1           2           3           4           5           6           7           8           9          10
 IAtWgt=          14           1           1          12           1           1          12           1           1          12
 AtmWgt=  14.0030740   1.0078250   1.0078250  12.0000000   1.0078250   1.0078250  12.0000000   1.0078250   1.0078250  12.0000000
 NucSpn=           2           1           1           0           1           1           0           1           1           0
 AtZEff=  -4.5500000  -1.0000000  -1.0000000  -3.6000000  -1.0000000  -1.0000000  -3.6000000  -1.0000000  -1.0000000  -3.6000000
 NQMom=    2.0440000   0.0000000   0.0000000   0.0000000   0.0000000   0.0000000   0.0000000   0.0000000   0.0000000   0.0000000
 NMagM=    0.4037610   2.7928460   2.7928460   0.0000000   2.7928460   2.7928460   0.0000000   2.7928460   2.7928460   0.0000000
 AtZNuc=   7.0000000   1.0000000   1.0000000   6.0000000   1.0000000   1.0000000   6.0000000   1.0000000   1.0000000   6.0000000

  Atom        11          12          13          14          15          16          17          18          19          20
 IAtWgt=           1           1          14          12          12           1          12          35          12           1
 AtmWgt=   1.0078250   1.0078250  14.0030740  12.0000000  12.0000000   1.0078250  12.0000000  34.9688527  12.0000000   1.0078250
 NucSpn=           1           1           2           0           0           1           0           3           0           1
 AtZEff=  -1.0000000  -1.0000000  -4.5500000  -3.6000000  -3.6000000  -1.0000000  -3.6000000 -14.2400000  -3.6000000  -1.0000000
 NQMom=    0.0000000   0.0000000   2.0440000   0.0000000   0.0000000   0.0000000   0.0000000  -8.1650000   0.0000000   0.0000000
 NMagM=    2.7928460   2.7928460   0.4037610   0.0000000   0.0000000   2.7928460   0.0000000   0.8218740   0.0000000   2.7928460
 AtZNuc=   1.0000000   1.0000000   7.0000000   6.0000000   6.0000000   1.0000000   6.0000000  17.0000000   6.0000000   1.0000000

  Atom        21          22          23          24          25          26          27          28          29          30
 IAtWgt=          12           1          12          32          12          12          12           1          12           1
 AtmWgt=  12.0000000   1.0078250  12.0000000  31.9720718  12.0000000  12.0000000  12.0000000   1.0078250  12.0000000   1.0078250
 NucSpn=           0           1           0           0           0           0           0           1           0           1
 AtZEff=  -3.6000000  -1.0000000  -3.6000000 -13.6000000  -3.6000000  -3.6000000  -3.6000000  -1.0000000  -3.6000000  -1.0000000
 NQMom=    0.0000000   0.0000000   0.0000000   0.0000000   0.0000000   0.0000000   0.0000000   0.0000000   0.0000000   0.0000000
 NMagM=    0.0000000   2.7928460   0.0000000   0.0000000   0.0000000   0.0000000   0.0000000   2.7928460   0.0000000   2.7928460
 AtZNuc=   6.0000000   1.0000000   6.0000000  16.0000000   6.0000000   6.0000000   6.0000000   1.0000000   6.0000000   1.0000000

  Atom        31          32          33          34
 IAtWgt=          12           1          12           1
 AtmWgt=  12.0000000   1.0078250  12.0000000   1.0078250
 NucSpn=           0           1           0           1
 AtZEff=  -3.6000000  -1.0000000  -3.6000000  -1.0000000
 NQMom=    0.0000000   0.0000000   0.0000000   0.0000000
 NMagM=    0.0000000   2.7928460   0.0000000   2.7928460
 AtZNuc=   6.0000000   1.0000000   6.0000000   1.0000000
 Leave Link  101 at Sun Jan 24 23:16:51 2021, MaxMem=   262144000 cpu:         0.1
 (Enter /prod/apps/gaussian/g09d1/l202.exe)
                          Input orientation:                          
 ---------------------------------------------------------------------
 Center     Atomic      Atomic             Coordinates (Angstroms)
 Number     Number       Type             X           Y           Z
 ---------------------------------------------------------------------
      1          7           0       -3.453000    0.857000    2.447000
      2          1           0       -3.691000   -0.127000    2.338000
      3          1           0       -3.534000    1.276000    1.525000
      4          6           0       -2.085000    0.987000    2.960000
      5          1           0       -2.077000    0.597000    3.984000
      6          1           0       -1.860000    2.057000    3.038000
      7          6           0       -0.968000    0.281000    2.169000
      8          1           0       -1.216000   -0.779000    2.065000
      9          1           0       -0.030000    0.333000    2.737000
     10          6           0       -0.729000    0.901000    0.789000
     11          1           0       -0.387000    1.927000    0.927000
     12          1           0       -1.663000    0.953000    0.213000
     13          7           0        0.315000    0.202000    0.032000
     14          6           0        0.106000   -1.148000   -0.313000
     15          6           0       -1.172000   -1.723000   -0.290000
     16          1           0       -2.035000   -1.134000   -0.017000
     17          6           0       -1.332000   -3.066000   -0.617000
     18         17           0       -2.947000   -3.756000   -0.552000
     19          6           0       -0.263000   -3.866000   -1.001000
     20          1           0       -0.413000   -4.908000   -1.253000
     21          6           0        1.005000   -3.287000   -1.052000
     22          1           0        1.858000   -3.883000   -1.357000
     23          6           0        1.198000   -1.954000   -0.694000
     24         16           0        2.836000   -1.262000   -0.627000
     25          6           0        2.433000    0.385000   -1.168000
     26          6           0        1.216000    0.960000   -0.758000
     27          6           0        0.937000    2.274000   -1.161000
     28          1           0       -0.008000    2.731000   -0.900000
     29          6           0        1.864000    3.003000   -1.905000
     30          1           0        1.628000    4.023000   -2.190000
     31          6           0        3.070000    2.426000   -2.298000
     32          1           0        3.788000    2.989000   -2.882000
     33          6           0        3.340000    1.105000   -1.942000
     34          1           0        4.264000    0.629000   -2.252000
 ---------------------------------------------------------------------
                    Distance matrix (angstroms):
                    1          2          3          4          5
     1  N    0.000000
     2  H    1.018224   0.000000
     3  H    1.015975   1.629118   0.000000
     4  C    1.466797   2.051126   2.059696   0.000000
     5  H    2.079265   2.416296   2.937783   1.095783   0.000000
     6  H    2.080127   2.934692   2.387762   1.096179   1.753170
     7  C    2.565986   2.758578   2.826503   1.540067   2.150340
     8  H    2.797604   2.573958   3.144479   2.162161   2.513416
     9  H    3.474997   3.711297   3.825730   2.168057   2.411413
    10  C    3.189212   3.497089   2.924097   2.561127   3.481026
    11  H    3.585478   4.138388   3.268794   2.810675   3.737680
    12  H    2.864275   3.129666   2.307881   2.779433   3.810325
    13  N    4.523171   4.633995   4.265832   3.866447   4.636377
    14  C    4.929919   4.742094   4.743798   4.480093   5.125888
    15  C    4.398924   3.974791   4.226969   4.328992   4.946565
    16  H    3.470749   3.049985   3.229995   3.655635   4.359602
    17  C    5.410792   4.789011   5.318828   5.457907   5.928052
[...]
     1  N    6.894715   0.316848   0.319853   0.345063  -0.039607  -0.040436
     2  H    0.316848   0.446653  -0.033222  -0.043006  -0.004123   0.006429
     3  H    0.319853  -0.033222   0.436555  -0.041996   0.005933  -0.004972
     4  C    0.345063  -0.043006  -0.041996   4.875761   0.380882   0.380498
     5  H   -0.039607  -0.004123   0.005933   0.380882   0.582645  -0.033801
     6  H   -0.040436   0.006429  -0.004972   0.380498  -0.033801   0.592616
     7  C   -0.065746  -0.002697  -0.003415   0.346618  -0.043515  -0.049243
     8  H   -0.002622   0.004923  -0.000229  -0.034263  -0.003156   0.005282
     9  H    0.004757   0.000038  -0.000002  -0.022531  -0.001371  -0.000511
    10  C   -0.004722  -0.000690   0.002520  -0.036260   0.004491  -0.006745
    11  H   -0.000015   0.000052   0.000000  -0.002685  -0.000033   0.004621
    12  H    0.006808   0.000248   0.004872  -0.000301   0.000032   0.000199
    13  N    0.000120   0.000004  -0.000044   0.003147  -0.000092   0.000081
    14  C    0.000009  -0.000004   0.000002   0.000166  -0.000002   0.000006
    15  C   -0.000906  -0.000362  -0.000149  -0.000058  -0.000002  -0.000019
    16  H    0.002818   0.001234   0.000466  -0.000341   0.000026   0.000021
    17  C   -0.000005   0.000001  -0.000001  -0.000007   0.000000   0.000000
    18  Cl  -0.000010   0.000061   0.000001   0.000001   0.000000   0.000000
    19  C    0.000000   0.000000   0.000000   0.000000   0.000000   0.000000
    20  H    0.000000   0.000000   0.000000   0.000000   0.000000   0.000000
    21  C    0.000000   0.000000   0.000000   0.000000   0.000000   0.000000
    22  H    0.000000   0.000000   0.000000   0.000000   0.000000   0.000000
    23  C    0.000000   0.000000   0.000000   0.000000   0.000000   0.000000
    24  S    0.000000   0.000000   0.000000   0.000005   0.000000   0.000000
    25  C    0.000000   0.000000   0.000000   0.000001   0.000000   0.000000
    26  C   -0.000003   0.000000   0.000000  -0.000070   0.000001  -0.000003
    27  C    0.000002   0.000000   0.000003  -0.000007   0.000000  -0.000013
    28  H    0.000000   0.000000   0.000001   0.000013   0.000000   0.000001
    29  C    0.000000   0.000000   0.000000   0.000000   0.000000   0.000000
    30  H    0.000000   0.000000   0.000000   0.000000   0.000000   0.000000
    31  C    0.000000   0.000000   0.000000   0.000000   0.000000   0.000000
    32  H    0.000000   0.000000   0.000000   0.000000   0.000000   0.000000
    33  C    0.000000   0.000000   0.000000   0.000000   0.000000   0.000000
    34  H    0.000000   0.000000   0.000000   0.000000   0.000000   0.000000
               7          8          9         10         11         12
     1  N   -0.065746  -0.002622   0.004757  -0.004722  -0.000015   0.006808
     2  H   -0.002697   0.004923   0.000038  -0.000690   0.000052   0.000248
     3  H   -0.003415  -0.000229  -0.000002   0.002520   0.000000   0.004872
     4  C    0.346618  -0.034263  -0.022531  -0.036260  -0.002685  -0.000301
     5  H   -0.043515  -0.003156  -0.001371   0.004491  -0.000033   0.000032
     6  H   -0.049243   0.005282  -0.000511  -0.006745   0.004621   0.000199
     7  C    5.161965   0.372462   0.345185   0.363898  -0.030276  -0.057169
     8  H    0.372462   0.576870  -0.031368  -0.044647   0.005140  -0.005405
     9  H    0.345185  -0.031368   0.586605  -0.035104  -0.006099   0.006466
    10  C    0.363898  -0.044647  -0.035104   4.974209   0.374048   0.356642
    11  H   -0.030276   0.005140  -0.006099   0.374048   0.553588  -0.041574
    12  H   -0.057169  -0.005405   0.006466   0.356642  -0.041574   0.619465
    13  N   -0.046388  -0.004851   0.001404   0.282465  -0.035459  -0.042324
    14  C   -0.005313   0.003440   0.000705  -0.044831   0.004395  -0.005178
    15  C   -0.005430   0.006746  -0.000121  -0.000227   0.000175   0.001376
    16  H   -0.003240   0.000205   0.000284   0.005071  -0.000031   0.005475
    17  C   -0.000144   0.000091  -0.000016   0.000402  -0.000006  -0.000070
    18  Cl   0.000005   0.000066   0.000000  -0.000015   0.000000   0.000004
    19  C    0.000009  -0.000017   0.000003  -0.000015   0.000000   0.000003
    20  H    0.000000   0.000000   0.000000   0.000000   0.000000   0.000000
    21  C   -0.000001  -0.000037  -0.000006  -0.000087   0.000002  -0.000003
    22  H    0.000000   0.000000   0.000000   0.000002   0.000000   0.000000
    23  C   -0.000239  -0.000070  -0.000079   0.006558  -0.000123  -0.000223
    24  S   -0.000118  -0.000007   0.000243  -0.000866  -0.000118   0.000217
    25  C   -0.000166   0.000005  -0.000077   0.006151   0.000124  -0.000239
    26  C    0.002406   0.000022   0.000398  -0.041220  -0.005214   0.000262
    27  C    0.000447  -0.000007   0.000048  -0.009518   0.006387   0.001348
    28  H   -0.000016  -0.000001   0.000017   0.004294   0.001333   0.001233
    29  C   -0.000005   0.000000  -0.000001   0.000241   0.000425  -0.000058
    30  H    0.000000   0.000000   0.000000   0.000002   0.000004   0.000000
    31  C    0.000000   0.000000   0.000000  -0.000012  -0.000021   0.000002
    32  H    0.000000   0.000000   0.000000   0.000000   0.000000   0.000000
    33  C    0.000002   0.000000  -0.000001  -0.000074  -0.000031   0.000002
    34  H    0.000000   0.000000   0.000000   0.000002   0.000000   0.000000
              13         14         15         16         17         18
     1  N    0.000120   0.000009  -0.000906   0.002818  -0.000005  -0.000010
     2  H    0.000004  -0.000004  -0.000362   0.001234   0.000001   0.000061
     3  H   -0.000044   0.000002  -0.000149   0.000466  -0.000001   0.000001
     4  C    0.003147   0.000166  -0.000058  -0.000341  -0.000007   0.000001
     5  H   -0.000092  -0.000002  -0.000002   0.000026   0.000000   0.000000
     6  H    0.000081   0.000006  -0.000019   0.000021   0.000000   0.000000
     7  C   -0.046388  -0.005313  -0.005430  -0.003240  -0.000144   0.000005
     8  H   -0.004851   0.003440   0.006746   0.000205   0.000091   0.000066
     9  H    0.001404   0.000705  -0.000121   0.000284  -0.000016   0.000000
    10  C    0.282465  -0.044831  -0.000227   0.005071   0.000402  -0.000015
    11  H   -0.035459   0.004395   0.000175  -0.000031  -0.000006   0.000000
    12  H   -0.042324  -0.005178   0.001376   0.005475  -0.000070   0.000004
    13  N    7.098612   0.308438  -0.073711  -0.012419   0.005787  -0.000101
    14  C    0.308438   4.628492   0.478935  -0.036990   0.002348   0.004083
    15  C   -0.073711   0.478935   5.128662   0.348367   0.489662  -0.067156
    16  H   -0.012419  -0.036990   0.348367   0.566412  -0.045165  -0.000682
    17  C    0.005787   0.002348   0.489662  -0.045165   4.969814   0.231073
    18  Cl  -0.000101   0.004083  -0.067156  -0.000682   0.231073  16.928434
    19  C    0.000350  -0.034499  -0.044166   0.004632   0.530791  -0.065993
    20  H    0.000002   0.000467   0.004668  -0.000159  -0.042350  -0.000565
    21  C    0.004885  -0.002281  -0.049463   0.000181  -0.017093   0.004677
    22  H   -0.000110   0.003548   0.000749   0.000014   0.004344  -0.000162
    23  C   -0.072766   0.481675  -0.062410   0.005883  -0.038931   0.000603
    24  S    0.006472  -0.063999   0.008025  -0.000178   0.000062   0.000014
    25  C   -0.072905  -0.022805   0.000156  -0.000002   0.000000   0.000000
    26  C    0.299884  -0.021170   0.003037  -0.000076  -0.000068   0.000001
    27  C   -0.069935   0.002681   0.000071   0.000006  -0.000001   0.000000
    28  H   -0.011454  -0.000069  -0.000004  -0.000007   0.000000   0.000000
    29  C    0.005667  -0.000078  -0.000003   0.000000   0.000000   0.000000
    30  H   -0.000105   0.000000   0.000000   0.000000   0.000000   0.000000
    31  C    0.000262  -0.000037  -0.000001   0.000000   0.000000   0.000000
    32  H    0.000003   0.000001   0.000000   0.000000   0.000000   0.000000
    33  C    0.004814   0.000846   0.000015   0.000000  -0.000001   0.000000
    34  H   -0.000105  -0.000009   0.000000   0.000000   0.000000   0.000000
              19         20         21         22         23         24
     1  N    0.000000   0.000000   0.000000   0.000000   0.000000   0.000000
     2  H    0.000000   0.000000   0.000000   0.000000   0.000000   0.000000
     3  H    0.000000   0.000000   0.000000   0.000000   0.000000   0.000000
     4  C    0.000000   0.000000   0.000000   0.000000   0.000000   0.000005
     5  H    0.000000   0.000000   0.000000   0.000000   0.000000   0.000000
     6  H    0.000000   0.000000   0.000000   0.000000   0.000000   0.000000
     7  C    0.000009   0.000000  -0.000001   0.000000  -0.000239  -0.000118
     8  H   -0.000017   0.000000  -0.000037   0.000000  -0.000070  -0.000007
     9  H    0.000003   0.000000  -0.000006   0.000000  -0.000079   0.000243
    10  C   -0.000015   0.000000  -0.000087   0.000002   0.006558  -0.000866
    11  H    0.000000   0.000000   0.000002   0.000000  -0.000123  -0.000118
    12  H    0.000003   0.000000  -0.000003   0.000000  -0.000223   0.000217
    13  N    0.000350   0.000002   0.004885  -0.000110  -0.072766   0.006472
    14  C   -0.034499   0.000467  -0.002281   0.003548   0.481675  -0.063999
    15  C   -0.044166   0.004668  -0.049463   0.000749  -0.062410   0.008025
    16  H    0.004632  -0.000159   0.000181   0.000014   0.005883  -0.000178
    17  C    0.530791  -0.042350  -0.017093   0.004344  -0.038931   0.000062
    18  Cl  -0.065993  -0.000565   0.004677  -0.000162   0.000603   0.000014
    19  C    4.938741   0.364322   0.506205  -0.037551  -0.040347   0.004626
    20  H    0.364322   0.547165  -0.035959  -0.005304   0.004470  -0.000143
    21  C    0.506205  -0.035959   4.952070   0.360751   0.511440  -0.052890
    22  H   -0.037551  -0.005304   0.360751   0.550338  -0.040263   0.000010
    23  C   -0.040347   0.004470   0.511440  -0.040263   5.150009   0.230777
    24  S    0.004626  -0.000143  -0.052890   0.000010   0.230777  15.595565
    25  C   -0.000115   0.000000   0.000589   0.000056   0.008605   0.227784
    26  C   -0.000039   0.000001   0.000856  -0.000009  -0.022127  -0.065802
    27  C   -0.000001   0.000000   0.000017   0.000000   0.000211   0.007863
    28  H    0.000000   0.000000   0.000000   0.000000  -0.000001  -0.000205
    29  C    0.000000   0.000000  -0.000001   0.000000   0.000004  -0.000061
    30  H    0.000000   0.000000   0.000000   0.000000   0.000000   0.000020
    31  C    0.000000   0.000000   0.000001   0.000000  -0.000112   0.004750
    32  H    0.000000   0.000000   0.000000   0.000000   0.000000  -0.000175
    33  C    0.000001   0.000000  -0.000091   0.000001   0.000332  -0.053486
    34  H    0.000000   0.000000   0.000001   0.000001   0.000059  -0.000588
              25         26         27         28         29         30
     1  N    0.000000  -0.000003   0.000002   0.000000   0.000000   0.000000
     2  H    0.000000   0.000000   0.000000   0.000000   0.000000   0.000000
     3  H    0.000000   0.000000   0.000003   0.000001   0.000000   0.000000
     4  C    0.000001  -0.000070  -0.000007   0.000013   0.000000   0.000000
     5  H    0.000000   0.000001   0.000000   0.000000   0.000000   0.000000
     6  H    0.000000  -0.000003  -0.000013   0.000001   0.000000   0.000000
     7  C   -0.000166   0.002406   0.000447  -0.000016  -0.000005   0.000000
     8  H    0.000005   0.000022  -0.000007  -0.000001   0.000000   0.000000
     9  H   -0.000077   0.000398   0.000048   0.000017  -0.000001   0.000000
    10  C    0.006151  -0.041220  -0.009518   0.004294   0.000241   0.000002
    11  H    0.000124  -0.005214   0.006387   0.001333   0.000425   0.000004
    12  H   -0.000239   0.000262   0.001348   0.001233  -0.000058   0.000000
    13  N   -0.072905   0.299884  -0.069935  -0.011454   0.005667  -0.000105
    14  C   -0.022805  -0.021170   0.002681  -0.000069  -0.000078   0.000000
    15  C    0.000156   0.003037   0.000071  -0.000004  -0.000003   0.000000
    16  H   -0.000002  -0.000076   0.000006  -0.000007   0.000000   0.000000
    17  C    0.000000  -0.000068  -0.000001   0.000000   0.000000   0.000000
    18  Cl   0.000000   0.000001   0.000000   0.000000   0.000000   0.000000
    19  C   -0.000115  -0.000039  -0.000001   0.000000   0.000000   0.000000
    20  H    0.000000   0.000001   0.000000   0.000000   0.000000   0.000000
    21  C    0.000589   0.000856   0.000017   0.000000  -0.000001   0.000000
    22  H    0.000056  -0.000009   0.000000   0.000000   0.000000   0.000000
    23  C    0.008605  -0.022127   0.000211  -0.000001   0.000004   0.000000
    24  S    0.227784  -0.065802   0.007863  -0.000205  -0.000061   0.000020
    25  C    5.147403   0.486561  -0.058681   0.005670  -0.041667   0.000917
    26  C    0.486561   4.631274   0.509949  -0.041571  -0.006093   0.003487
    27  C   -0.058681   0.509949   5.034582   0.355160   0.514411  -0.037887
    28  H    0.005670  -0.041571   0.355160   0.573629  -0.040108  -0.005488
    29  C   -0.041667  -0.006093   0.514411  -0.040108   4.875875   0.359432
    30  H    0.000917   0.003487  -0.037887  -0.005488   0.359432   0.573845
    31  C   -0.039272  -0.036459  -0.035962   0.004388   0.548274  -0.040464
    32  H    0.004848   0.000637   0.004830  -0.000172  -0.041275  -0.005055
    33  C    0.518600  -0.008543  -0.049968   0.000484  -0.024537   0.004635
    34  H   -0.043517   0.004011   0.000602   0.000015   0.004554  -0.000182
              31         32         33         34
     1  N    0.000000   0.000000   0.000000   0.000000
     2  H    0.000000   0.000000   0.000000   0.000000
     3  H    0.000000   0.000000   0.000000   0.000000
     4  C    0.000000   0.000000   0.000000   0.000000
     5  H    0.000000   0.000000   0.000000   0.000000
     6  H    0.000000   0.000000   0.000000   0.000000
     7  C    0.000000   0.000000   0.000002   0.000000
     8  H    0.000000   0.000000   0.000000   0.000000
     9  H    0.000000   0.000000  -0.000001   0.000000
    10  C   -0.000012   0.000000  -0.000074   0.000002
    11  H   -0.000021   0.000000  -0.000031   0.000000
    12  H    0.000002   0.000000   0.000002   0.000000
    13  N    0.000262   0.000003   0.004814  -0.000105
    14  C   -0.000037   0.000001   0.000846  -0.000009
    15  C   -0.000001   0.000000   0.000015   0.000000
    16  H    0.000000   0.000000   0.000000   0.000000
    17  C    0.000000   0.000000  -0.000001   0.000000
    18  Cl   0.000000   0.000000   0.000000   0.000000
    19  C    0.000000   0.000000   0.000001   0.000000
    20  H    0.000000   0.000000   0.000000   0.000000
    21  C    0.000001   0.000000  -0.000091   0.000001
    22  H    0.000000   0.000000   0.000001   0.000001
    23  C   -0.000112   0.000000   0.000332   0.000059
    24  S    0.004750  -0.000175  -0.053486  -0.000588
    25  C   -0.039272   0.004848   0.518600  -0.043517
    26  C   -0.036459   0.000637  -0.008543   0.004011
    27  C   -0.035962   0.004830  -0.049968   0.000602
    28  H    0.004388  -0.000172   0.000484   0.000015
    29  C    0.548274  -0.041275  -0.024537   0.004554
    30  H   -0.040464  -0.005055   0.004635  -0.000182
    31  C    4.869845   0.363394   0.527713  -0.038427
    32  H    0.363394   0.575582  -0.041921  -0.005280
    33  C    0.527713  -0.041921   4.945253   0.359355
    34  H   -0.038427  -0.005280   0.359355   0.565913
 Mulliken charges:
               1
     1  N   -0.736922
     2  H    0.307612
     3  H    0.313826
     4  C   -0.150631
     5  H    0.151692
     6  H    0.145989
     7  C   -0.279874
     8  H    0.151428
     9  H    0.151133
    10  C   -0.155962
    11  H    0.171389
    12  H    0.147889
    13  N   -0.579628
    14  C    0.317030
    15  C   -0.166457
    16  H    0.158190
    17  C   -0.090518
    18  Cl  -0.034339
    19  C   -0.126943
    20  H    0.163383
    21  C   -0.183765
    22  H    0.163586
    23  C   -0.122938
    24  S    0.152201
    25  C   -0.128024
    26  C    0.305677
    27  C   -0.176639
    28  H    0.152859
    29  C   -0.154998
    30  H    0.146839
    31  C   -0.127861
    32  H    0.144583
    33  C   -0.183402
    34  H    0.153594
 Sum of Mulliken charges =   0.00000
 Mulliken charges with hydrogens summed into heavy atoms:
               1
     1  N   -0.115484
     4  C    0.147051
     7  C    0.022687
    10  C    0.163316
    13  N   -0.579628
    14  C    0.317030
    15  C   -0.008267
    17  C   -0.090518
    18  Cl  -0.034339
    19  C    0.036441
    21  C   -0.020179
    23  C   -0.122938
    24  S    0.152201
    25  C   -0.128024
    26  C    0.305677
    27  C   -0.023780
    29  C   -0.008159
    31  C    0.016721
    33  C   -0.029808
 Electronic spatial extent (au):  <R**2>=           6437.3924
 Charge=              0.0000 electrons
 Dipole moment (field-independent basis, Debye):
    X=              1.8367    Y=              0.8055    Z=             -0.8378  Tot=              2.1735
 Quadrupole moment (field-independent basis, Debye-Ang):
   XX=           -126.0383   YY=           -125.0558   ZZ=           -126.9034
   XY=              6.6821   XZ=             -5.1379   YZ=             -4.4583
 Traceless Quadrupole moment (field-independent basis, Debye-Ang):
   XX=             -0.0391   YY=              0.9434   ZZ=             -0.9043
   XY=              6.6821   XZ=             -5.1379   YZ=             -4.4583
 Octapole moment (field-independent basis, Debye-Ang**2):
  XXX=             59.0844  YYY=            -70.8646  ZZZ=             -3.3188  XYY=             31.5740
  XXY=            -13.0563  XXZ=            -12.1172  XZZ=            -10.4593  YZZ=             19.1621
  YYZ=             -1.1460  XYZ=             -2.2578
 Hexadecapole moment (field-independent basis, Debye-Ang**3):
 XXXX=          -4755.2916 YYYY=          -3253.9660 ZZZZ=           -671.7617 XXXY=             -0.9970
 XXXZ=            -79.9690 YYYX=            316.7070 YYYZ=            -41.0793 ZZZX=             10.0535
 ZZZY=              2.1295 XXYY=          -1454.8132 XXZZ=           -937.5138 YYZZ=           -588.4062
 XXYZ=            -44.0870 YYXZ=            -14.2720 ZZXY=             -5.5925
 N-N= 1.631421043045D+03 E-N=-6.901176142202D+03  KE= 1.539177754890D+03
 No NMR shielding tensors so no spin-rotation constants.
 Leave Link  601 at Sun Jan 24 23:20:14 2021, MaxMem=   262144000 cpu:         0.3
 (Enter /prod/apps/gaussian/g09d1/l9999.exe)
 1\1\GINC-PIRINEUS45\SP\RB3LYP\6-31G(d)\C15H15Cl1N2S1\UBAFAR01\24-Jan-2
 021\0\\#p b3lyp/6-31G(d) scrf=(iefpcm,read,solvent=n-Octanol) geom=all
 check guess=read\\SET_328_BBB29_conf1.geo_105_180_075.n.pdb.xyz\\0,1\N
 ,0,-3.453,0.857,2.447\H,0,-3.691,-0.127,2.338\H,0,-3.534,1.276,1.525\C
 ,0,-2.085,0.987,2.96\H,0,-2.077,0.597,3.984\H,0,-1.86,2.057,3.038\C,0,
 -0.968,0.281,2.169\H,0,-1.216,-0.779,2.065\H,0,-0.03,0.333,2.737\C,0,-
 0.729,0.901,0.789\H,0,-0.387,1.927,0.927\H,0,-1.663,0.953,0.213\N,0,0.
 315,0.202,0.032\C,0,0.106,-1.148,-0.313\C,0,-1.172,-1.723,-0.29\H,0,-2
 .035,-1.134,-0.017\C,0,-1.332,-3.066,-0.617\Cl,0,-2.947,-3.756,-0.552\
 C,0,-0.263,-3.866,-1.001\H,0,-0.413,-4.908,-1.253\C,0,1.005,-3.287,-1.
 052\H,0,1.858,-3.883,-1.357\C,0,1.198,-1.954,-0.694\S,0,2.836,-1.262,-
 0.627\C,0,2.433,0.385,-1.168\C,0,1.216,0.96,-0.758\C,0,0.937,2.274,-1.
 161\H,0,-0.008,2.731,-0.9\C,0,1.864,3.003,-1.905\H,0,1.628,4.023,-2.19
 \C,0,3.07,2.426,-2.298\H,0,3.788,2.989,-2.882\C,0,3.34,1.105,-1.942\H,
 0,4.264,0.629,-2.252\\Version=AM64L-G09RevD.01\State=1-A\HF=-1548.5309
 223\RMSD=9.931e-09\Dipole=0.24606,0.751466,-0.3255455\Quadrupole=-4.70
 50441,7.281541,-2.5764969,-0.5275845,0.506759,-3.0492726\PG=C01 [X(C15
 H15Cl1N2S1)]\\@


 GOOD SENSE ABOUT TRIVIALITIES IS BETTER THAN NONSENSE
 ABOUT THINGS THAT MATTER

                                       -- MAX BEERBOHM
 Job cpu time:       0 days  0 hours  3 minutes 23.3 seconds.
 File lengths (MBytes):  RWF=    183 Int=      0 D2E=      0 Chk=      6 Scr=      1
 Normal termination of Gaussian 09 at Sun Jan 24 23:20:14 2021.
