 Entering Gaussian System, Link 0=g09
 Initial command:
 /prod/apps/gaussian/g09d1/l1.exe "/tmp/ubafar01/1642356/Gau-161583.inp" -scrdir="/tmp/ubafar01/1642356/"
 Entering Link 1 = /prod/apps/gaussian/g09d1/l1.exe PID=    161584.
  
 Copyright (c) 1988,1990,1992,1993,1995,1998,2003,2009,2013,
            Gaussian, Inc.  All Rights Reserved.
  
 This is part of the Gaussian(R) 09 program.  It is based on
 the Gaussian(R) 03 system (copyright 2003, Gaussian, Inc.),
 the Gaussian(R) 98 system (copyright 1998, Gaussian, Inc.),
 the Gaussian(R) 94 system (copyright 1995, Gaussian, Inc.),
 the Gaussian 92(TM) system (copyright 1992, Gaussian, Inc.),
 the Gaussian 90(TM) system (copyright 1990, Gaussian, Inc.),
 the Gaussian 88(TM) system (copyright 1988, Gaussian, Inc.),
 the Gaussian 86(TM) system (copyright 1986, Carnegie Mellon
 University), and the Gaussian 82(TM) system (copyright 1983,
 Carnegie Mellon University). Gaussian is a federally registered
 trademark of Gaussian, Inc.
  
 This software contains proprietary and confidential information,
 including trade secrets, belonging to Gaussian, Inc.
  
 This software is provided under written license and may be
 used, copied, transmitted, or stored only in accord with that
 written license.
  
 The following legend is applicable only to US Government
 contracts under FAR:
  
                    RESTRICTED RIGHTS LEGEND
  
 Use, reproduction and disclosure by the US Government is
 subject to restrictions as set forth in subparagraphs (a)
 and (c) of the Commercial Computer Software - Restricted
 Rights clause in FAR 52.227-19.
  
 Gaussian, Inc.
 340 Quinnipiac St., Bldg. 40, Wallingford CT 06492
  
  
 ---------------------------------------------------------------
 Warning -- This program may not be used in any manner that
 competes with the business of Gaussian, Inc. or will provide
 assistance to any competitor of Gaussian, Inc.  The licensee
 of this program is prohibited from giving any competitor of
 Gaussian, Inc. access to this program.  By using this program,
 the user acknowledges that Gaussian, Inc. is engaged in the
 business of creating and licensing software in the field of
 computational chemistry and represents and warrants to the
 licensee that it is not a competitor of Gaussian, Inc. and that
 it will not use this program in any manner prohibited above.
 ---------------------------------------------------------------
  

 Cite this work as:
 Gaussian 09, Revision D.01,
 M. J. Frisch, G. W. Trucks, H. B. Schlegel, G. E. Scuseria, 
 M. A. Robb, J. R. Cheeseman, G. Scalmani, V. Barone, B. Mennucci, 
 G. A. Petersson, H. Nakatsuji, M. Caricato, X. Li, H. P. Hratchian, 
 A. F. Izmaylov, J. Bloino, G. Zheng, J. L. Sonnenberg, M. Hada, 
 M. Ehara, K. Toyota, R. Fukuda, J. Hasegawa, M. Ishida, T. Nakajima, 
 Y. Honda, O. Kitao, H. Nakai, T. Vreven, J. A. Montgomery, Jr., 
 J. E. Peralta, F. Ogliaro, M. Bearpark, J. J. Heyd, E. Brothers, 
 K. N. Kudin, V. N. Staroverov, T. Keith, R. Kobayashi, J. Normand, 
 K. Raghavachari, A. Rendell, J. C. Burant, S. S. Iyengar, J. Tomasi, 
 M. Cossi, N. Rega, J. M. Millam, M. Klene, J. E. Knox, J. B. Cross, 
 V. Bakken, C. Adamo, J. Jaramillo, R. Gomperts, R. E. Stratmann, 
 O. Yazyev, A. J. Austin, R. Cammi, C. Pomelli, J. W. Ochterski, 
 R. L. Martin, K. Morokuma, V. G. Zakrzewski, G. A. Voth, 
 P. Salvador, J. J. Dannenberg, S. Dapprich, A. D. Daniels, 
 O. Farkas, J. B. Foresman, J. V. Ortiz, J. Cioslowski, 
 and D. J. Fox, Gaussian, Inc., Wallingford CT, 2013.
 
 ******************************************
 Gaussian 09:  AM64L-G09RevD.01 24-Apr-2013
                24-Jan-2021 
 ******************************************
 %nproc=1
 Will use up to    1 processors via shared memory.
 %Chk=SET_328_BBB29_conf1.geo_285_180_180.n.pdb.xyz.mst.n.o.chk
 %mem=2000MB
 -----------------
 #p b3lyp/6-31G(d)
 -----------------
 1/38=1/1;
 2/12=2,17=6,18=5,40=1/2;
 3/5=1,6=6,7=1,11=2,16=1,25=1,30=1,74=-5/1,2,3;
 4//1;
 5/5=2,38=5/2;
 6/7=2,8=2,9=2,10=2,28=1/1;
 99/5=1,9=1/99;
 Leave Link    1 at Sun Jan 24 23:11:25 2021, MaxMem=   262144000 cpu:         0.0
 (Enter /prod/apps/gaussian/g09d1/l101.exe)
 ---------------------------------------------
 SET_328_BBB29_conf1.geo_285_180_180.n.pdb.xyz
 ---------------------------------------------
 Symbolic Z-matrix:
 Charge =  0 Multiplicity = 1
 N                     4.367    -1.194     0.077 
 H                     4.189    -1.873     0.818 
 H                     5.345    -0.923     0.187 
 C                     3.514    -0.02      0.289 
 H                     3.816     0.748    -0.433 
 H                     3.618     0.434     1.289 
 C                     2.049    -0.385     0.057 
 H                     1.752    -1.167     0.763 
 H                     1.951    -0.824    -0.939 
 C                     1.131     0.836     0.213 
 H                     1.404     1.6      -0.52 
 H                     1.282     1.287     1.198 
 N                    -0.309     0.597     0.069 
 C                    -0.856     0.557    -1.225 
 C                    -0.03      0.463    -2.358 
 H                     1.042     0.397    -2.255 
 C                    -0.584     0.449    -3.635 
 Cl                    0.501     0.35     -5.016 
 C                    -1.955     0.49     -3.847 
 H                    -2.367     0.465    -4.847 
 C                    -2.78      0.571    -2.725 
 H                    -3.856     0.616    -2.852 
 C                    -2.25      0.633    -1.438 
 S                    -3.347     0.963    -0.08 
 C                    -2.439     0.165     1.224 
 C                    -1.03      0.128     1.192 
 C                    -0.37     -0.372     2.328 
 H                     0.709    -0.42      2.347 
 C                    -1.083    -0.817     3.442 
 H                    -0.536    -1.187     4.302 
 C                    -2.474    -0.803     3.445 
 H                    -3.032    -1.16      4.302 
 C                    -3.146    -0.319     2.323 
 H                    -4.229    -0.289     2.302 
 
 NAtoms=     34 NQM=       34 NQMF=       0 NMMI=      0 NMMIF=      0
                NMic=       0 NMicF=      0.
                    Isotopes and Nuclear Properties:
 (Nuclear quadrupole moments (NQMom) in fm**2, nuclear magnetic moments (NMagM)
  in nuclear magnetons)

  Atom         1           2           3           4           5           6           7           8           9          10
 IAtWgt=          14           1           1          12           1           1          12           1           1          12
 AtmWgt=  14.0030740   1.0078250   1.0078250  12.0000000   1.0078250   1.0078250  12.0000000   1.0078250   1.0078250  12.0000000
 NucSpn=           2           1           1           0           1           1           0           1           1           0
 AtZEff=   0.0000000   0.0000000   0.0000000   0.0000000   0.0000000   0.0000000   0.0000000   0.0000000   0.0000000   0.0000000
 NQMom=    2.0440000   0.0000000   0.0000000   0.0000000   0.0000000   0.0000000   0.0000000   0.0000000   0.0000000   0.0000000
 NMagM=    0.4037610   2.7928460   2.7928460   0.0000000   2.7928460   2.7928460   0.0000000   2.7928460   2.7928460   0.0000000
 AtZNuc=   7.0000000   1.0000000   1.0000000   6.0000000   1.0000000   1.0000000   6.0000000   1.0000000   1.0000000   6.0000000

  Atom        11          12          13          14          15          16          17          18          19          20
 IAtWgt=           1           1          14          12          12           1          12          35          12           1
 AtmWgt=   1.0078250   1.0078250  14.0030740  12.0000000  12.0000000   1.0078250  12.0000000  34.9688527  12.0000000   1.0078250
 NucSpn=           1           1           2           0           0           1           0           3           0           1
 AtZEff=   0.0000000   0.0000000   0.0000000   0.0000000   0.0000000   0.0000000   0.0000000   0.0000000   0.0000000   0.0000000
 NQMom=    0.0000000   0.0000000   2.0440000   0.0000000   0.0000000   0.0000000   0.0000000  -8.1650000   0.0000000   0.0000000
 NMagM=    2.7928460   2.7928460   0.4037610   0.0000000   0.0000000   2.7928460   0.0000000   0.8218740   0.0000000   2.7928460
 AtZNuc=   1.0000000   1.0000000   7.0000000   6.0000000   6.0000000   1.0000000   6.0000000  17.0000000   6.0000000   1.0000000

  Atom        21          22          23          24          25          26          27          28          29          30
 IAtWgt=          12           1          12          32          12          12          12           1          12           1
 AtmWgt=  12.0000000   1.0078250  12.0000000  31.9720718  12.0000000  12.0000000  12.0000000   1.0078250  12.0000000   1.0078250
 NucSpn=           0           1           0           0           0           0           0           1           0           1
 AtZEff=   0.0000000   0.0000000   0.0000000   0.0000000   0.0000000   0.0000000   0.0000000   0.0000000   0.0000000   0.0000000
 NQMom=    0.0000000   0.0000000   0.0000000   0.0000000   0.0000000   0.0000000   0.0000000   0.0000000   0.0000000   0.0000000
 NMagM=    0.0000000   2.7928460   0.0000000   0.0000000   0.0000000   0.0000000   0.0000000   2.7928460   0.0000000   2.7928460
 AtZNuc=   6.0000000   1.0000000   6.0000000  16.0000000   6.0000000   6.0000000   6.0000000   1.0000000   6.0000000   1.0000000

  Atom        31          32          33          34
 IAtWgt=          12           1          12           1
 AtmWgt=  12.0000000   1.0078250  12.0000000   1.0078250
 NucSpn=           0           1           0           1
 AtZEff=   0.0000000   0.0000000   0.0000000   0.0000000
 NQMom=    0.0000000   0.0000000   0.0000000   0.0000000
 NMagM=    0.0000000   2.7928460   0.0000000   2.7928460
 AtZNuc=   6.0000000   1.0000000   6.0000000   1.0000000
 Leave Link  101 at Sun Jan 24 23:11:25 2021, MaxMem=   262144000 cpu:         0.1
 (Enter /prod/apps/gaussian/g09d1/l202.exe)
                          Input orientation:                          
 ---------------------------------------------------------------------
 Center     Atomic      Atomic             Coordinates (Angstroms)
 Number     Number       Type             X           Y           Z
 ---------------------------------------------------------------------
      1          7           0        4.367000   -1.194000    0.077000
      2          1           0        4.189000   -1.873000    0.818000
      3          1           0        5.345000   -0.923000    0.187000
      4          6           0        3.514000   -0.020000    0.289000
      5          1           0        3.816000    0.748000   -0.433000
      6          1           0        3.618000    0.434000    1.289000
      7          6           0        2.049000   -0.385000    0.057000
      8          1           0        1.752000   -1.167000    0.763000
      9          1           0        1.951000   -0.824000   -0.939000
     10          6           0        1.131000    0.836000    0.213000
     11          1           0        1.404000    1.600000   -0.520000
     12          1           0        1.282000    1.287000    1.198000
     13          7           0       -0.309000    0.597000    0.069000
     14          6           0       -0.856000    0.557000   -1.225000
     15          6           0       -0.030000    0.463000   -2.358000
     16          1           0        1.042000    0.397000   -2.255000
     17          6           0       -0.584000    0.449000   -3.635000
     18         17           0        0.501000    0.350000   -5.016000
     19          6           0       -1.955000    0.490000   -3.847000
     20          1           0       -2.367000    0.465000   -4.847000
     21          6           0       -2.780000    0.571000   -2.725000
     22          1           0       -3.856000    0.616000   -2.852000
     23          6           0       -2.250000    0.633000   -1.438000
     24         16           0       -3.347000    0.963000   -0.080000
     25          6           0       -2.439000    0.165000    1.224000
     26          6           0       -1.030000    0.128000    1.192000
     27          6           0       -0.370000   -0.372000    2.328000
     28          1           0        0.709000   -0.420000    2.347000
     29          6           0       -1.083000   -0.817000    3.442000
     30          1           0       -0.536000   -1.187000    4.302000
     31          6           0       -2.474000   -0.803000    3.445000
     32          1           0       -3.032000   -1.160000    4.302000
     33          6           0       -3.146000   -0.319000    2.323000
     34          1           0       -4.229000   -0.289000    2.302000
 ---------------------------------------------------------------------
                    Distance matrix (angstroms):
                    1          2          3          4          5
     1  N    0.000000
     2  H    1.020689   0.000000
     3  H    1.020796   1.623883   0.000000
     4  C    1.466570   2.041831   2.044107   0.000000
     5  H    2.082082   2.928100   2.348293   1.096500   0.000000
     6  H    2.163407   2.422835   2.457312   1.103146   1.761557
     7  C    2.455200   2.715302   3.342149   1.527506   2.155476
     8  H    2.703618   2.537800   3.647048   2.155210   3.059042
     9  H    2.646925   3.032506   3.577277   2.144148   2.491073
    10  C    3.822446   4.129900   4.566460   2.533219   2.763021
    11  H    4.116092   4.648462   4.732532   2.780464   2.559535
    12  H    4.114514   4.310528   4.734363   2.741597   3.061346
    13  N    5.007267   5.185933   5.855941   3.878713   4.158176
    14  C    5.660471   5.960770   6.529667   4.660689   4.742502
    15  C    5.292304   5.774412   6.106443   4.449700   4.310286
    16  H    4.361781   4.949731   5.120700   3.571640   3.337358
    17  C    6.402405   6.928378   7.186314   5.693096   5.449973
    18  Cl   6.577883   7.251112   7.221916   6.112127   5.670231
    19  C    7.628979   8.068131   8.459298   6.875795   6.710171
    20  H    8.505575   8.974386   9.313573   7.823035   7.602169
    21  C    7.876931   8.191028   8.759418   7.003422   6.985113
    22  H    8.914756   9.186188   9.811343   8.036621   8.045407
    23  C    7.029783   7.268445   7.921224   6.052490   6.149765
    24  S    8.011435   8.101888   8.898267   6.940877   7.174915
    25  C    7.034495   6.946126   7.927785   6.028819   6.496966
    26  C    5.667320   5.601949   6.538750   4.635218   5.148664
    27  C    5.308658   5.031658   6.127700   4.400782   5.138104
    28  H    4.374122   4.069330   5.139174   3.501912   4.329674
    29  C    6.416218   5.982850   7.205931   5.631077   6.439336
    30  H    6.472255   5.910539   7.182554   5.819670   6.715978
    31  C    7.635155   7.241657   8.471465   6.813925   7.550403
    32  H    8.520386   8.049190   9.336141   7.762338   8.541416
    33  C    7.890203   7.647363   8.776354   6.970090   7.563297
    34  H    8.925294   8.693333   9.825307   8.004910   8.560235
                    6          7          8          9         10
     6  H    0.000000
     7  C    2.156466   0.000000
     8  H    2.514326   1.094609   0.000000
     9  H    3.053758   1.092859   1.747585   0.000000
    10  C    2.739443   1.535546   2.167983   2.180620   0.000000
    11  H    3.087691   2.165451   3.069769   2.520029   1.093396
    12  H    2.488531   2.164660   2.536186   3.077442   1.093813
    13  N    4.115373   2.554336   2.800188   2.853578   1.466785
    14  C    5.133420   3.312086   3.704860   3.141370   2.468573
    15  C    5.158426   3.297510   3.946272   2.755774   2.845539
    16  H    4.381447   2.640249   3.472538   2.012207   2.508319
    17  C    6.473238   4.610760   5.235528   3.913460   4.230614
    18  Cl   7.033901   5.354611   6.104353   4.483604   5.289191
    19  C    7.578916   5.660288   6.143256   5.043798   5.111430
    20  H    8.571562   6.653779   7.148544   5.964823   6.162568
    21  C    7.554162   5.654441   5.977107   5.245778   4.898774
    22  H    8.546443   6.658326   6.906300   6.281275   5.857712
    23  C    6.473759   4.663984   4.909216   4.474400   3.768046
    24  S    7.117951   5.563514   5.589933   5.656859   4.489372
    25  C    6.063319   4.669747   4.421677   4.992874   3.770578
    26  C    4.659072   3.321391   3.098482   3.786004   2.475808
    27  C    4.199202   3.318007   2.753931   4.032944   2.861030
    28  H    3.211069   2.653474   2.038361   3.536040   2.511887
    29  C    5.319757   4.631876   3.916218   5.329012   4.249782
    30  H    5.381591   5.034427   4.214245   5.812488   4.857092
    31  C    6.579587   5.666639   5.018436   6.229007   5.111572
    32  H    7.472717   6.666124   5.950733   7.239563   6.167212
    33  C    6.883884   5.668081   5.209905   6.072485   4.907021
    34  H    7.945081   6.668023   6.237930   6.998765   5.861668
                   11         12         13         14         15
    11  H    0.000000
    12  H    1.750536   0.000000
    13  N    2.070579   2.069305   0.000000
    14  C    2.586982   3.312835   1.405434   0.000000
    15  C    2.593717   3.878847   2.446656   1.405276   0.000000
    16  H    2.142073   3.573921   2.695585   2.165388   1.078957
    17  C    3.870422   5.248056   3.717142   2.427704   1.392064
    18  Cl   4.753096   6.332592   5.155030   4.031870   2.712876
    19  C    4.856327   6.046933   4.249214   2.843796   2.433819
    20  H    5.850777   7.108650   5.331027   3.925617   3.414190
    21  C    4.840116   5.692313   3.730007   2.439666   2.776482
    22  H    5.837301   6.576609   4.594977   3.413299   3.860793
    23  C    3.889670   4.455473   2.457606   1.412226   2.409087
    24  S    4.813665   4.813097   3.063593   2.771451   4.054846
    25  C    4.457512   3.886567   2.461209   2.942304   4.326986
    26  C    3.319952   2.586245   1.414543   2.460936   3.703340
    27  C    3.891910   2.599670   2.458813   3.704463   4.771941
    28  H    3.575348   2.135973   2.694420   4.020316   4.843845
    29  C    5.265406   3.880152   3.738396   4.870348   6.032181
    30  H    5.897682   4.365847   4.599182   5.804452   6.879981
    31  C    6.044379   4.850221   4.247894   5.126053   6.422671
    32  H    7.109668   5.850916   5.331047   6.183106   7.483431
    33  C    5.698044   4.842731   3.737398   4.312746   5.677389
    34  H    6.577438   5.837269   4.597574   4.953037   6.317650
                   16         17         18         19         20
    16  H    0.000000
    17  C    2.133303   0.000000
    18  Cl   2.813896   1.759030   0.000000
    19  C    3.394867   1.387900   2.723618   0.000000
    20  H    4.283033   2.155989   2.875276   1.081836   0.000000
    21  C    3.854719   2.380210   4.007803   1.395016   2.164414
    22  H    4.939107   3.368525   4.872074   2.149349   2.493982
    23  C    3.400066   2.763371   4.522187   2.431204   3.415142
    24  S    4.930953   4.531709   6.288638   4.043721   4.892105
    25  C    4.926929   5.208797   6.900393   5.104402   6.078834
    26  C    4.030801   4.858177   6.397852   5.135970   6.194405
    27  C    4.856850   6.023056   7.430630   6.433187   7.494612
    28  H    4.685806   6.181532   7.406074   6.803722   7.873921
    29  C    6.200422   7.206642   8.683819   7.456417   8.485264
    30  H    6.927726   8.103997   9.500677   8.439911   9.475540
    31  C    6.803841   7.434111   9.042597   7.423912   8.389072
    32  H    7.875022   8.460352  10.079053   8.383831   9.315957
    33  C    6.245805   6.530806   8.222475   6.335761   7.254681
    34  H    7.001449   7.005615   8.736953   6.602130   7.425885
                   21         22         23         24         25
    21  C    0.000000
    22  H    1.084403   0.000000
    23  C    1.393238   2.139841   0.000000
    24  S    2.733346   2.839626   1.776647   0.000000
    25  C    3.984434   4.338786   2.709426   1.778112   0.000000
    26  C    4.312962   4.957656   2.942843   2.771948   1.409849
    27  C    5.677161   6.321451   4.327491   4.055024   2.405815
    28  H    6.235414   6.995865   4.918406   4.924851   3.393119
    29  C    6.545093   7.025486   5.222910   4.549569   2.778954
    30  H    7.583194   8.090298   6.260814   5.632597   3.863081
    31  C    6.328539   6.601189   5.094699   4.038132   2.423033
    32  H    7.241450   7.417066   6.064155   4.879373   3.403139
    33  C    5.138906   5.306501   3.981738   2.730995   1.393523
    34  H    5.301880   5.246129   4.330603   2.831846   2.138294
                   26         27         28         29         30
    26  C    0.000000
    27  C    1.405737   0.000000
    28  H    2.158344   1.080234   0.000000
    29  C    2.440970   1.395489   2.137264   0.000000
    30  H    3.412530   2.142068   2.441381   1.084301   0.000000
    31  C    2.833356   2.420799   3.388773   1.391074   2.153543
    32  H    3.916510   3.406444   4.285406   2.157742   2.496146
    33  C    2.440579   2.776510   3.856398   2.399194   3.388505
    34  H    3.411684   3.859980   4.939942   3.387580   4.294724
                   31         32         33         34
    31  C    0.000000
    32  H    1.083172   0.000000
    33  C    1.394534   2.153304   0.000000
    34  H    2.156541   2.488262   1.083619   0.000000
 Stoichiometry    C15H15ClN2S
 Framework group  C1[X(C15H15ClN2S)]
 Deg. of freedom    96
 Full point group                 C1      NOp   1
 Largest Abelian subgroup         C1      NOp   1
 Largest concise Abelian subgroup C1      NOp   1
                         Standard orientation:                         
 ---------------------------------------------------------------------
 Center     Atomic      Atomic             Coordinates (Angstroms)
 Number     Number       Type             X           Y           Z
 ---------------------------------------------------------------------
      1          7           0       -0.790108    5.016099   -0.590901
      2          1           0        0.030198    5.179365   -1.175921
      3          1           0       -1.014598    5.923079   -0.179785
      4          6           0       -0.436104    4.076062    0.477668
      5          1           0       -1.285250    4.020015    1.169132
      6          1           0        0.434925    4.388537    1.078168
      7          6           0       -0.167295    2.690927   -0.107495
      8          1           0        0.666486    2.749388   -0.814292
      9          1           0       -1.037814    2.382727   -0.691918
     10          6           0        0.149427    1.665417    0.990648
     11          1           0       -0.700764    1.579539    1.672787
     12          1           0        0.991987    2.018280    1.592318
     13          7           0        0.481854    0.308137    0.544847
     14          6           0       -0.569172   -0.577171    0.250198
     15          6           0       -1.888127   -0.113733    0.107421
     16          1           0       -2.116548    0.936748    0.199405
     17          6           0       -2.923355   -1.005079   -0.160247
     18         17           0       -4.556709   -0.369212   -0.308623
     19          6           0       -2.703071   -2.364603   -0.331814
     20          1           0       -3.519181   -3.039674   -0.552297
     21          6           0       -1.393606   -2.828104   -0.203213
     22          1           0       -1.184670   -3.885791   -0.319720
     23          6           0       -0.346013   -1.964565    0.109775
     24         16           0        1.247492   -2.657531    0.479930
     25          6           0        2.275251   -1.287587    0.001759
     26          6           0        1.811967    0.035935    0.147810
     27          6           0        2.729478    1.072992   -0.094643
     28          1           0        2.417716    2.102540    0.004056
     29          6           0        4.046332    0.801637   -0.468346
     30          1           0        4.725453    1.629873   -0.637254
     31          6           0        4.478773   -0.509495   -0.638672
     32          1           0        5.496152   -0.724701   -0.941803
     33          6           0        3.579736   -1.551062   -0.411528
     34          1           0        3.892543   -2.581912   -0.528700
 ---------------------------------------------------------------------
 Rotational constants (GHZ):      0.3561818      0.2536867      0.1535553
 Leave Link  202 at Sun Jan 24 23:11:25 2021, MaxMem=   262144000 cpu:         0.0
 (Enter /prod/apps/gaussian/g09d1/l301.exe)
 Standard basis: 6-31G(d) (6D, 7F)
 Ernie: Thresh=  0.10000D-02 Tol=  0.10000D-05 Strict=F.
 There are   323 symmetry adapted cartesian basis functions of A   symmetry.
 There are   323 symmetry adapted basis functions of A   symmetry.
   323 basis functions,   640 primitive gaussians,   323 cartesian basis functions
    76 alpha electrons       76 beta electrons
       nuclear repulsion energy      1619.1191469344 Hartrees.
 IExCor=  402 DFT=T Ex+Corr=B3LYP ExCW=0 ScaHFX=  0.200000
 ScaDFX=  0.800000  0.720000  1.000000  0.810000 ScalE2=  1.000000  1.000000
 IRadAn=      0 IRanWt=     -1 IRanGd=            0 ICorTp=0 IEmpDi=  4
 NAtoms=   34 NActive=   34 NUniq=   34 SFac= 1.00D+00 NAtFMM=   60 NAOKFM=F Big=F
 Integral buffers will be    131072 words long.
 Raffenetti 2 integral format.
 Two-electron integral symmetry is turned on.
 Leave Link  301 at Sun Jan 24 23:11:25 2021, MaxMem=   262144000 cpu:         0.0
 (Enter /prod/apps/gaussian/g09d1/l302.exe)
 NPDir=0 NMtPBC=     1 NCelOv=     1 NCel=       1 NClECP=     1 NCelD=      1
         NCelK=      1 NCelE2=     1 NClLst=     1 CellRange=     0.0.
 One-electron integrals computed using PRISM.
 NBasis=   323 RedAO= T EigKep=  4.02D-04  NBF=   323
 NBsUse=   323 1.00D-06 EigRej= -1.00D+00 NBFU=   323
 Precomputing XC quadrature grid using
 IXCGrd= 4 IRadAn=           0 IRanWt=          -1 IRanGd=           0 AccXCQ= 0.00D+00.
 Generated NRdTot=       0 NPtTot=           0 NUsed=           0 NTot=          32
 NSgBfM=   320   320   320   320   320 MxSgAt=    34 MxSgA2=    34.
 Leave Link  302 at Sun Jan 24 23:11:26 2021, MaxMem=   262144000 cpu:         1.2
 (Enter /prod/apps/gaussian/g09d1/l303.exe)
 DipDrv:  MaxL=1.
 Leave Link  303 at Sun Jan 24 23:11:26 2021, MaxMem=   262144000 cpu:         0.0
 (Enter /prod/apps/gaussian/g09d1/l401.exe)
 ExpMin= 1.17D-01 ExpMax= 2.52D+04 ExpMxC= 3.78D+03 IAcc=1 IRadAn=         1 AccDes= 0.00D+00
 Harris functional with IExCor=  402 and IRadAn=       1 diagonalized for initial guess.
 HarFok:  IExCor=  402 AccDes= 0.00D+00 IRadAn=         1 IDoV= 1 UseB2=F ITyADJ=14
 ICtDFT=  3500011 ScaDFX=  1.000000  1.000000  1.000000  1.000000
 FoFCou: FMM=F IPFlag=           0 FMFlag=      100000 FMFlg1=           0
         NFxFlg=           0 DoJE=T BraDBF=F KetDBF=T FulRan=T
         wScrn=  0.000000 ICntrl=     500 IOpCl=  0 I1Cent=   200000004 NGrid=           0
         NMat0=    1 NMatS0=      1 NMatT0=    0 NMatD0=    1 NMtDS0=    0 NMtDT0=    0
 Petite list used in FoFCou.
 Harris En= -1548.39478295507    
 JPrj=0 DoOrth=F DoCkMO=F.
 Leave Link  401 at Sun Jan 24 23:11:30 2021, MaxMem=   262144000 cpu:         4.0
 (Enter /prod/apps/gaussian/g09d1/l502.exe)
 Closed shell SCF:
 Using DIIS extrapolation, IDIIS=  1040.
 Integral symmetry usage will be decided dynamically.
 IVT=      335912 IEndB=      335912 NGot=   262144000 MDV=   261929381
 LenX=   261929381 LenY=   261824611
 Requested convergence on RMS density matrix=1.00D-08 within 128 cycles.
 Requested convergence on MAX density matrix=1.00D-06.
 Requested convergence on             energy=1.00D-06.
 No special actions if energy rises.
 Fock matrices will be formed incrementally for  20 cycles.
 Integral accuracy reduced to 1.0D-05 until final iterations.

 Cycle   1  Pass 0  IDiag  1:
 FoFJK:  IHMeth= 1 ICntrl=       0 DoSepK=F KAlg= 0 I1Cent=   0 FoldK=F
 IRaf= 780000000 NMat=   1 IRICut=       1 DoRegI=T DoRafI=F ISym2E= 0.
 FoFCou: FMM=F IPFlag=           0 FMFlag=      100000 FMFlg1=           0
         NFxFlg=           0 DoJE=F BraDBF=F KetDBF=F FulRan=T
         wScrn=  0.000000 ICntrl=       0 IOpCl=  0 I1Cent=           0 NGrid=           0
         NMat0=    1 NMatS0=      1 NMatT0=    0 NMatD0=    1 NMtDS0=    0 NMtDT0=    0
 Symmetry not used in FoFCou.
 E= -1548.01606881231    
 DIIS: error= 2.45D-02 at cycle   1 NSaved=   1.
 NSaved= 1 IEnMin= 1 EnMin= -1548.01606881231     IErMin= 1 ErrMin= 2.45D-02
 ErrMax= 2.45D-02  0.00D+00 EMaxC= 1.00D-01 BMatC= 4.73D-01 BMatP= 4.73D-01
 IDIUse=3 WtCom= 7.55D-01 WtEn= 2.45D-01
 Coeff-Com:  0.100D+01
 Coeff-En:   0.100D+01
 Coeff:      0.100D+01
 Gap=     0.284 Goal=   None    Shift=    0.000
 GapD=    0.284 DampG=1.000 DampE=0.500 DampFc=0.5000 IDamp=-1.
 Damping current iteration by 5.00D-01
 RMSDP=5.54D-03 MaxDP=1.64D-01              OVMax= 2.49D-01

 Cycle   2  Pass 0  IDiag  1:
 RMSU=  2.74D-03    CP:  9.81D-01
 E= -1548.20062379455     Delta-E=       -0.184554982247 Rises=F Damp=T
 DIIS: error= 7.61D-03 at cycle   2 NSaved=   2.
 NSaved= 2 IEnMin= 2 EnMin= -1548.20062379455     IErMin= 2 ErrMin= 7.61D-03
 ErrMax= 7.61D-03  0.00D+00 EMaxC= 1.00D-01 BMatC= 4.46D-02 BMatP= 4.73D-01
 IDIUse=3 WtCom= 9.24D-01 WtEn= 7.61D-02
 Coeff-Com:  0.130D+00 0.870D+00
 Coeff-En:   0.238D+00 0.762D+00
 Coeff:      0.138D+00 0.862D+00
 Gap=     0.239 Goal=   None    Shift=    0.000
 RMSDP=1.65D-03 MaxDP=7.00D-02 DE=-1.85D-01 OVMax= 2.32D-01

 Cycle   3  Pass 0  IDiag  1:
 RMSU=  1.51D-03    CP:  9.74D-01  7.67D-01
 E= -1548.46646762757     Delta-E=       -0.265843833017 Rises=F Damp=F
 DIIS: error= 6.92D-03 at cycle   3 NSaved=   3.
 NSaved= 3 IEnMin= 3 EnMin= -1548.46646762757     IErMin= 3 ErrMin= 6.92D-03
 ErrMax= 6.92D-03  0.00D+00 EMaxC= 1.00D-01 BMatC= 3.68D-02 BMatP= 4.46D-02
 IDIUse=3 WtCom= 9.31D-01 WtEn= 6.92D-02
 Coeff-Com:  0.203D-01 0.469D+00 0.510D+00
 Coeff-En:   0.000D+00 0.000D+00 0.100D+01
 Coeff:      0.189D-01 0.437D+00 0.544D+00
 Gap=     0.172 Goal=   None    Shift=    0.000
 RMSDP=1.21D-03 MaxDP=4.89D-02 DE=-2.66D-01 OVMax= 1.23D-01

 Cycle   4  Pass 0  IDiag  1:
 RMSU=  9.30D-04    CP:  9.75D-01  8.62D-01  5.19D-01
 E= -1548.48831327480     Delta-E=       -0.021845647228 Rises=F Damp=F
 DIIS: error= 5.33D-03 at cycle   4 NSaved=   4.
 NSaved= 4 IEnMin= 4 EnMin= -1548.48831327480     IErMin= 4 ErrMin= 5.33D-03
 ErrMax= 5.33D-03  0.00D+00 EMaxC= 1.00D-01 BMatC= 1.70D-02 BMatP= 3.68D-02
 IDIUse=3 WtCom= 9.47D-01 WtEn= 5.33D-02
 Coeff-Com: -0.949D-02 0.106D+00 0.404D+00 0.499D+00
 Coeff-En:   0.000D+00 0.000D+00 0.358D+00 0.642D+00
 Coeff:     -0.899D-02 0.101D+00 0.402D+00 0.507D+00
 Gap=     0.165 Goal=   None    Shift=    0.000
 RMSDP=5.74D-04 MaxDP=1.69D-02 DE=-2.18D-02 OVMax= 4.72D-02

 Cycle   5  Pass 0  IDiag  1:
 RMSU=  2.16D-04    CP:  9.75D-01  8.51D-01  6.86D-01  4.97D-01
 E= -1548.50673499807     Delta-E=       -0.018421723270 Rises=F Damp=F
 DIIS: error= 8.07D-04 at cycle   5 NSaved=   5.
 NSaved= 5 IEnMin= 5 EnMin= -1548.50673499807     IErMin= 5 ErrMin= 8.07D-04
 ErrMax= 8.07D-04  0.00D+00 EMaxC= 1.00D-01 BMatC= 5.11D-04 BMatP= 1.70D-02
 IDIUse=3 WtCom= 9.92D-01 WtEn= 8.07D-03
 Coeff-Com: -0.432D-02 0.183D-01 0.167D+00 0.255D+00 0.564D+00
 Coeff-En:   0.000D+00 0.000D+00 0.000D+00 0.000D+00 0.100D+01
 Coeff:     -0.429D-02 0.181D-01 0.165D+00 0.253D+00 0.567D+00
 Gap=     0.162 Goal=   None    Shift=    0.000
 RMSDP=1.13D-04 MaxDP=7.15D-03 DE=-1.84D-02 OVMax= 5.84D-03

 Cycle   6  Pass 0  IDiag  1:
 RMSU=  6.25D-05    CP:  9.75D-01  8.45D-01  6.98D-01  5.46D-01  6.34D-01
 E= -1548.50722284311     Delta-E=       -0.000487845042 Rises=F Damp=F
 DIIS: error= 3.01D-04 at cycle   6 NSaved=   6.
 NSaved= 6 IEnMin= 6 EnMin= -1548.50722284311     IErMin= 6 ErrMin= 3.01D-04
 ErrMax= 3.01D-04  0.00D+00 EMaxC= 1.00D-01 BMatC= 5.80D-05 BMatP= 5.11D-04
 IDIUse=3 WtCom= 9.97D-01 WtEn= 3.01D-03
 Coeff-Com: -0.103D-02-0.374D-03 0.501D-01 0.853D-01 0.302D+00 0.564D+00
 Coeff-En:   0.000D+00 0.000D+00 0.000D+00 0.000D+00 0.271D-01 0.973D+00
 Coeff:     -0.103D-02-0.372D-03 0.499D-01 0.851D-01 0.301D+00 0.565D+00
 Gap=     0.162 Goal=   None    Shift=    0.000
 RMSDP=3.30D-05 MaxDP=1.13D-03 DE=-4.88D-04 OVMax= 2.15D-03

 Cycle   7  Pass 0  IDiag  1:
 RMSU=  2.22D-05    CP:  9.75D-01  8.45D-01  7.00D-01  5.49D-01  6.82D-01
                    CP:  6.54D-01
 E= -1548.50727456815     Delta-E=       -0.000051725036 Rises=F Damp=F
 DIIS: error= 9.13D-05 at cycle   7 NSaved=   7.
 NSaved= 7 IEnMin= 7 EnMin= -1548.50727456815     IErMin= 7 ErrMin= 9.13D-05
 ErrMax= 9.13D-05  0.00D+00 EMaxC= 1.00D-01 BMatC= 6.99D-06 BMatP= 5.80D-05
 IDIUse=1 WtCom= 1.00D+00 WtEn= 0.00D+00
 Coeff-Com: -0.170D-03-0.174D-02 0.155D-01 0.275D-01 0.123D+00 0.327D+00
 Coeff-Com:  0.508D+00
 Coeff:     -0.170D-03-0.174D-02 0.155D-01 0.275D-01 0.123D+00 0.327D+00
 Coeff:      0.508D+00
 Gap=     0.162 Goal=   None    Shift=    0.000
 RMSDP=1.24D-05 MaxDP=5.82D-04 DE=-5.17D-05 OVMax= 1.07D-03

 Cycle   8  Pass 0  IDiag  1:
 RMSU=  7.04D-06    CP:  9.75D-01  8.45D-01  6.99D-01  5.50D-01  6.89D-01
                    CP:  7.16D-01  5.87D-01
 E= -1548.50728164279     Delta-E=       -0.000007074639 Rises=F Damp=F
 DIIS: error= 2.46D-05 at cycle   8 NSaved=   8.
 NSaved= 8 IEnMin= 8 EnMin= -1548.50728164279     IErMin= 8 ErrMin= 2.46D-05
 ErrMax= 2.46D-05  0.00D+00 EMaxC= 1.00D-01 BMatC= 6.89D-07 BMatP= 6.99D-06
 IDIUse=1 WtCom= 1.00D+00 WtEn= 0.00D+00
 Coeff-Com:  0.140D-03-0.100D-02 0.122D-02 0.168D-02 0.212D-01 0.975D-01
 Coeff-Com:  0.275D+00 0.604D+00
 Coeff:      0.140D-03-0.100D-02 0.122D-02 0.168D-02 0.212D-01 0.975D-01
 Coeff:      0.275D+00 0.604D+00
 Gap=     0.162 Goal=   None    Shift=    0.000
 RMSDP=3.71D-06 MaxDP=1.49D-04 DE=-7.07D-06 OVMax= 3.01D-04

 Initial convergence to 1.0D-05 achieved.  Increase integral accuracy.
 Cycle   9  Pass 1  IDiag  1:
 E= -1548.50735223793     Delta-E=       -0.000070595144 Rises=F Damp=F
 DIIS: error= 5.02D-05 at cycle   1 NSaved=   1.
 NSaved= 1 IEnMin= 1 EnMin= -1548.50735223793     IErMin= 1 ErrMin= 5.02D-05
 ErrMax= 5.02D-05  0.00D+00 EMaxC= 1.00D-01 BMatC= 5.94D-07 BMatP= 5.94D-07
 IDIUse=1 WtCom= 1.00D+00 WtEn= 0.00D+00
 Coeff-Com:  0.100D+01
 Coeff:      0.100D+01
 Gap=     0.162 Goal=   None    Shift=    0.000
 RMSDP=3.71D-06 MaxDP=1.49D-04 DE=-7.06D-05 OVMax= 2.51D-04

 Cycle  10  Pass 1  IDiag  1:
 RMSU=  2.86D-05    CP:  1.00D+00
 E= -1548.50735256523     Delta-E=       -0.000000327301 Rises=F Damp=F
 DIIS: error= 2.54D-05 at cycle   2 NSaved=   2.
 NSaved= 2 IEnMin= 2 EnMin= -1548.50735256523     IErMin= 2 ErrMin= 2.54D-05
 ErrMax= 2.54D-05  0.00D+00 EMaxC= 1.00D-01 BMatC= 2.64D-07 BMatP= 5.94D-07
 IDIUse=1 WtCom= 1.00D+00 WtEn= 0.00D+00
 Coeff-Com:  0.352D+00 0.648D+00
 Coeff:      0.352D+00 0.648D+00
 Gap=     0.162 Goal=   None    Shift=    0.000
 RMSDP=3.85D-06 MaxDP=1.01D-04 DE=-3.27D-07 OVMax= 3.11D-04

 Cycle  11  Pass 1  IDiag  1:
 RMSU=  3.84D-06    CP:  1.00D+00  9.93D-01
 E= -1548.50735257982     Delta-E=       -0.000000014592 Rises=F Damp=F
 DIIS: error= 2.61D-05 at cycle   3 NSaved=   3.
 NSaved= 3 IEnMin= 3 EnMin= -1548.50735257982     IErMin= 2 ErrMin= 2.54D-05
 ErrMax= 2.61D-05  0.00D+00 EMaxC= 1.00D-01 BMatC= 2.51D-07 BMatP= 2.64D-07
 IDIUse=1 WtCom= 1.00D+00 WtEn= 0.00D+00
 Coeff-Com:  0.851D-02 0.492D+00 0.500D+00
 Coeff:      0.851D-02 0.492D+00 0.500D+00
 Gap=     0.162 Goal=   None    Shift=    0.000
 RMSDP=2.04D-06 MaxDP=5.73D-05 DE=-1.46D-08 OVMax= 1.74D-04

 Cycle  12  Pass 1  IDiag  1:
 RMSU=  6.77D-07    CP:  1.00D+00  1.01D+00  5.07D-01
 E= -1548.50735285704     Delta-E=       -0.000000277219 Rises=F Damp=F
 DIIS: error= 3.19D-06 at cycle   4 NSaved=   4.
 NSaved= 4 IEnMin= 4 EnMin= -1548.50735285704     IErMin= 4 ErrMin= 3.19D-06
 ErrMax= 3.19D-06  0.00D+00 EMaxC= 1.00D-01 BMatC= 9.46D-09 BMatP= 2.51D-07
 IDIUse=1 WtCom= 1.00D+00 WtEn= 0.00D+00
 Coeff-Com: -0.623D-02 0.286D+00 0.309D+00 0.411D+00
 Coeff:     -0.623D-02 0.286D+00 0.309D+00 0.411D+00
 Gap=     0.162 Goal=   None    Shift=    0.000
 RMSDP=4.03D-07 MaxDP=2.20D-05 DE=-2.77D-07 OVMax= 3.75D-05

 Cycle  13  Pass 1  IDiag  1:
 RMSU=  2.06D-07    CP:  1.00D+00  1.01D+00  5.26D-01  5.01D-01
 E= -1548.50735286580     Delta-E=       -0.000000008760 Rises=F Damp=F
 DIIS: error= 8.28D-07 at cycle   5 NSaved=   5.
 NSaved= 5 IEnMin= 5 EnMin= -1548.50735286580     IErMin= 5 ErrMin= 8.28D-07
 ErrMax= 8.28D-07  0.00D+00 EMaxC= 1.00D-01 BMatC= 4.87D-10 BMatP= 9.46D-09
 IDIUse=1 WtCom= 1.00D+00 WtEn= 0.00D+00
 Coeff-Com: -0.415D-02 0.148D+00 0.161D+00 0.255D+00 0.441D+00
 Coeff:     -0.415D-02 0.148D+00 0.161D+00 0.255D+00 0.441D+00
 Gap=     0.162 Goal=   None    Shift=    0.000
 RMSDP=1.07D-07 MaxDP=4.18D-06 DE=-8.76D-09 OVMax= 8.58D-06

 Cycle  14  Pass 1  IDiag  1:
 RMSU=  8.50D-08    CP:  1.00D+00  1.01D+00  5.22D-01  5.11D-01  7.00D-01
 E= -1548.50735286633     Delta-E=       -0.000000000527 Rises=F Damp=F
 DIIS: error= 2.65D-07 at cycle   6 NSaved=   6.
 NSaved= 6 IEnMin= 6 EnMin= -1548.50735286633     IErMin= 6 ErrMin= 2.65D-07
 ErrMax= 2.65D-07  0.00D+00 EMaxC= 1.00D-01 BMatC= 2.97D-11 BMatP= 4.87D-10
 IDIUse=1 WtCom= 1.00D+00 WtEn= 0.00D+00
 Coeff-Com: -0.139D-02 0.405D-01 0.438D-01 0.807D-01 0.228D+00 0.609D+00
 Coeff:     -0.139D-02 0.405D-01 0.438D-01 0.807D-01 0.228D+00 0.609D+00
 Gap=     0.162 Goal=   None    Shift=    0.000
 RMSDP=2.75D-08 MaxDP=8.80D-07 DE=-5.27D-10 OVMax= 2.45D-06

 Cycle  15  Pass 1  IDiag  1:
 RMSU=  2.20D-08    CP:  1.00D+00  1.01D+00  5.21D-01  5.13D-01  7.66D-01
                    CP:  8.94D-01
 E= -1548.50735286638     Delta-E=       -0.000000000047 Rises=F Damp=F
 DIIS: error= 1.02D-07 at cycle   7 NSaved=   7.
 NSaved= 7 IEnMin= 7 EnMin= -1548.50735286638     IErMin= 7 ErrMin= 1.02D-07
 ErrMax= 1.02D-07  0.00D+00 EMaxC= 1.00D-01 BMatC= 5.79D-12 BMatP= 2.97D-11
 IDIUse=1 WtCom= 1.00D+00 WtEn= 0.00D+00
 Coeff-Com: -0.130D-03-0.683D-03-0.108D-02 0.574D-02 0.571D-01 0.348D+00
 Coeff-Com:  0.591D+00
 Coeff:     -0.130D-03-0.683D-03-0.108D-02 0.574D-02 0.571D-01 0.348D+00
 Coeff:      0.591D+00
 Gap=     0.162 Goal=   None    Shift=    0.000
 RMSDP=1.09D-08 MaxDP=4.68D-07 DE=-4.73D-11 OVMax= 7.74D-07

 Cycle  16  Pass 1  IDiag  1:
 RMSU=  7.25D-09    CP:  1.00D+00  1.01D+00  5.21D-01  5.17D-01  7.68D-01
                    CP:  9.34D-01  6.91D-01
 E= -1548.50735286639     Delta-E=       -0.000000000012 Rises=F Damp=F
 DIIS: error= 2.71D-08 at cycle   8 NSaved=   8.
 NSaved= 8 IEnMin= 8 EnMin= -1548.50735286639     IErMin= 8 ErrMin= 2.71D-08
 ErrMax= 2.71D-08  0.00D+00 EMaxC= 1.00D-01 BMatC= 6.44D-13 BMatP= 5.79D-12
 IDIUse=1 WtCom= 1.00D+00 WtEn= 0.00D+00
 Coeff-Com:  0.491D-04-0.399D-02-0.454D-02-0.378D-02 0.114D-01 0.140D+00
 Coeff-Com:  0.335D+00 0.526D+00
 Coeff:      0.491D-04-0.399D-02-0.454D-02-0.378D-02 0.114D-01 0.140D+00
 Coeff:      0.335D+00 0.526D+00
 Gap=     0.162 Goal=   None    Shift=    0.000
 RMSDP=3.47D-09 MaxDP=1.80D-07 DE=-1.18D-11 OVMax= 3.33D-07

 SCF Done:  E(RB3LYP) =  -1548.50735287     A.U. after   16 cycles
            NFock= 16  Conv=0.35D-08     -V/T= 2.0061
 KE= 1.539164867067D+03 PE=-6.876638738861D+03 EE= 2.169847371993D+03
 Leave Link  502 at Sun Jan 24 23:16:43 2021, MaxMem=   262144000 cpu:       313.0
 (Enter /prod/apps/gaussian/g09d1/l601.exe)
 Copying SCF densities to generalized density rwf, IOpCl= 0 IROHF=0.

 **********************************************************************

            Population analysis using the SCF density.

 **********************************************************************

 Orbital symmetries:
       Occupied  (A) (A) (A) (A) (A) (A) (A) (A) (A) (A) (A) (A)
                 (A) (A) (A) (A) (A) (A) (A) (A) (A) (A) (A) (A)
                 (A) (A) (A) (A) (A) (A) (A) (A) (A) (A) (A) (A)
                 (A) (A) (A) (A) (A) (A) (A) (A) (A) (A) (A) (A)
                 (A) (A) (A) (A) (A) (A) (A) (A) (A) (A) (A) (A)
                 (A) (A) (A) (A) (A) (A) (A) (A) (A) (A) (A) (A)
                 (A) (A) (A) (A)
       Virtual   (A) (A) (A) (A) (A) (A) (A) (A) (A) (A) (A) (A)
                 (A) (A) (A) (A) (A) (A) (A) (A) (A) (A) (A) (A)
                 (A) (A) (A) (A) (A) (A) (A) (A) (A) (A) (A) (A)
                 (A) (A) (A) (A) (A) (A) (A) (A) (A) (A) (A) (A)
                 (A) (A) (A) (A) (A) (A) (A) (A) (A) (A) (A) (A)
                 (A) (A) (A) (A) (A) (A) (A) (A) (A) (A) (A) (A)
                 (A) (A) (A) (A) (A) (A) (A) (A) (A) (A) (A) (A)
                 (A) (A) (A) (A) (A) (A) (A) (A) (A) (A) (A) (A)
                 (A) (A) (A) (A) (A) (A) (A) (A) (A) (A) (A) (A)
                 (A) (A) (A) (A) (A) (A) (A) (A) (A) (A) (A) (A)
                 (A) (A) (A) (A) (A) (A) (A) (A) (A) (A) (A) (A)
                 (A) (A) (A) (A) (A) (A) (A) (A) (A) (A) (A) (A)
                 (A) (A) (A) (A) (A) (A) (A) (A) (A) (A) (A) (A)
                 (A) (A) (A) (A) (A) (A) (A) (A) (A) (A) (A) (A)
                 (A) (A) (A) (A) (A) (A) (A) (A) (A) (A) (A) (A)
                 (A) (A) (A) (A) (A) (A) (A) (A) (A) (A) (A) (A)
                 (A) (A) (A) (A) (A) (A) (A) (A) (A) (A) (A) (A)
                 (A) (A) (A) (A) (A) (A) (A) (A) (A) (A) (A) (A)
                 (A) (A) (A) (A) (A) (A) (A) (A) (A) (A) (A) (A)
                 (A) (A) (A) (A) (A) (A) (A) (A) (A) (A) (A) (A)
                 (A) (A) (A) (A) (A) (A) (A)
 The electronic state is 1-A.
 Alpha  occ. eigenvalues -- -101.54508 -88.89207 -14.37973 -14.32084 -10.25121
 Alpha  occ. eigenvalues --  -10.24978 -10.24466 -10.23345 -10.22657 -10.22454
 Alpha  occ. eigenvalues --  -10.21867 -10.20382 -10.20143 -10.19782 -10.19761
 Alpha  occ. eigenvalues --  -10.19615 -10.19514 -10.19156 -10.19069  -9.46138
 Alpha  occ. eigenvalues --   -7.95286  -7.22531  -7.21565  -7.21537  -5.91793
 Alpha  occ. eigenvalues --   -5.91429  -5.90776  -0.97649  -0.88959  -0.88794
 Alpha  occ. eigenvalues --   -0.86275  -0.84539  -0.79846  -0.78068  -0.76974
 Alpha  occ. eigenvalues --   -0.74437  -0.73564  -0.69217  -0.67073  -0.63587
 Alpha  occ. eigenvalues --   -0.61404  -0.60942  -0.60162  -0.56431  -0.54478
 Alpha  occ. eigenvalues --   -0.51741  -0.50034  -0.48878  -0.48198  -0.47984
 Alpha  occ. eigenvalues --   -0.46853  -0.45674  -0.45107  -0.43973  -0.43140
 Alpha  occ. eigenvalues --   -0.42776  -0.42192  -0.39961  -0.39764  -0.39045
 Alpha  occ. eigenvalues --   -0.38512  -0.37978  -0.36974  -0.36148  -0.35375
 Alpha  occ. eigenvalues --   -0.34987  -0.34338  -0.32721  -0.31293  -0.31035
 Alpha  occ. eigenvalues --   -0.29310  -0.26181  -0.25198  -0.24378  -0.22806
 Alpha  occ. eigenvalues --   -0.18495
 Alpha virt. eigenvalues --   -0.02298  -0.01376  -0.00780   0.01509   0.02628
 Alpha virt. eigenvalues --    0.03971   0.06567   0.07790   0.09503   0.10605
 Alpha virt. eigenvalues --    0.11727   0.12307   0.13403   0.14034   0.14302
 Alpha virt. eigenvalues --    0.14849   0.15368   0.16422   0.17298   0.17829
 Alpha virt. eigenvalues --    0.18340   0.18618   0.18984   0.20019   0.20285
 Alpha virt. eigenvalues --    0.21636   0.23245   0.24009   0.26045   0.26499
 Alpha virt. eigenvalues --    0.27128   0.27751   0.28652   0.30288   0.31523
 Alpha virt. eigenvalues --    0.31977   0.32206   0.36170   0.36735   0.37293
 Alpha virt. eigenvalues --    0.38761   0.39736   0.41267   0.42886   0.43872
 Alpha virt. eigenvalues --    0.44856   0.46577   0.48179   0.50862   0.52047
 Alpha virt. eigenvalues --    0.52987   0.53213   0.53579   0.54218   0.54995
 Alpha virt. eigenvalues --    0.55288   0.57388   0.57800   0.58219   0.58915
 Alpha virt. eigenvalues --    0.59423   0.59537   0.60146   0.60465   0.60556
 Alpha virt. eigenvalues --    0.60776   0.61101   0.61638   0.62633   0.63319
 Alpha virt. eigenvalues --    0.64033   0.65583   0.65950   0.66475   0.68493
 Alpha virt. eigenvalues --    0.69280   0.72239   0.72928   0.73430   0.74333
 Alpha virt. eigenvalues --    0.75798   0.76980   0.78133   0.80118   0.80843
 Alpha virt. eigenvalues --    0.82197   0.83292   0.83614   0.84858   0.85143
 Alpha virt. eigenvalues --    0.86136   0.86499   0.87260   0.87582   0.88314
 Alpha virt. eigenvalues --    0.89092   0.89715   0.90286   0.90742   0.91089
 Alpha virt. eigenvalues --    0.91674   0.92229   0.92660   0.93128   0.94961
 Alpha virt. eigenvalues --    0.95478   0.95737   0.96387   0.97143   0.98289
 Alpha virt. eigenvalues --    0.99815   1.00896   1.01479   1.02198   1.04153
 Alpha virt. eigenvalues --    1.04859   1.06274   1.07587   1.09374   1.10764
 Alpha virt. eigenvalues --    1.11205   1.12216   1.15445   1.16047   1.17874
 Alpha virt. eigenvalues --    1.19209   1.21908   1.22834   1.23403   1.25571
 Alpha virt. eigenvalues --    1.26637   1.32037   1.32824   1.35926   1.36804
 Alpha virt. eigenvalues --    1.39514   1.41042   1.41828   1.43039   1.44515
 Alpha virt. eigenvalues --    1.44979   1.46903   1.47288   1.49306   1.50076
 Alpha virt. eigenvalues --    1.51345   1.51860   1.53475   1.55411   1.58193
 Alpha virt. eigenvalues --    1.59475   1.61481   1.63120   1.70507   1.70745
 Alpha virt. eigenvalues --    1.75314   1.77475   1.78451   1.79794   1.80460
 Alpha virt. eigenvalues --    1.82029   1.83347   1.84884   1.87043   1.89240
 Alpha virt. eigenvalues --    1.91364   1.91772   1.93189   1.93956   1.94891
 Alpha virt. eigenvalues --    1.96001   1.98432   1.98558   2.00499   2.02890
 Alpha virt. eigenvalues --    2.03913   2.06315   2.06509   2.08194   2.10538
 Alpha virt. eigenvalues --    2.12326   2.12871   2.14104   2.14123   2.16243
 Alpha virt. eigenvalues --    2.16759   2.20592   2.21223   2.22737   2.23645
 Alpha virt. eigenvalues --    2.26177   2.26484   2.28076   2.28950   2.29876
 Alpha virt. eigenvalues --    2.30502   2.34523   2.38181   2.39786   2.45372
 Alpha virt. eigenvalues --    2.46605   2.47418   2.49510   2.54109   2.55948
 Alpha virt. eigenvalues --    2.57962   2.59088   2.60153   2.63402   2.63738
 Alpha virt. eigenvalues --    2.64888   2.67627   2.69023   2.69710   2.73414
 Alpha virt. eigenvalues --    2.75207   2.75502   2.75947   2.79478   2.81555
 Alpha virt. eigenvalues --    2.83805   2.87104   2.93481   2.94828   3.09854
 Alpha virt. eigenvalues --    3.22277   3.35578   3.40170   3.77313   3.96386
 Alpha virt. eigenvalues --    4.06004   4.08920   4.10042   4.10781   4.12313
 Alpha virt. eigenvalues --    4.15556   4.18124   4.25879   4.29167   4.33392
 Alpha virt. eigenvalues --    4.34690   4.37105   4.38680   4.42542   4.54461
 Alpha virt. eigenvalues --    4.66826   4.73627
          Condensed to atoms (all electrons):
               1          2          3          4          5          6
     1  N    6.913031   0.307362   0.306789   0.318626  -0.041102  -0.046206
     2  H    0.307362   0.468446  -0.032916  -0.037063   0.006784  -0.006007
     3  H    0.306789  -0.032916   0.460976  -0.032603  -0.003917  -0.002805
     4  C    0.318626  -0.037063  -0.032603   4.889512   0.379348   0.370866
     5  H   -0.041102   0.006784  -0.003917   0.379348   0.597636  -0.050259
     6  H   -0.046206  -0.006007  -0.002805   0.370866  -0.050259   0.670561
     7  C   -0.055908  -0.004617   0.006103   0.353789  -0.032650  -0.058012
     8  H   -0.002434   0.005191  -0.000053  -0.037248   0.005638  -0.006852
     9  H    0.006840  -0.000868  -0.000106  -0.033094  -0.007015   0.006770
    10  C    0.003031  -0.000148  -0.000199  -0.031300  -0.004367   0.000611
    11  H   -0.000071   0.000013   0.000007  -0.001398   0.004855  -0.000448
    12  H   -0.000076  -0.000003   0.000004  -0.001332  -0.000412   0.006148
    13  N   -0.000042   0.000001   0.000001   0.002909   0.000000  -0.000030
    14  C    0.000000   0.000000   0.000000   0.000108   0.000007  -0.000005
    15  C    0.000003  -0.000001   0.000000  -0.000196  -0.000024   0.000001
    16  H   -0.000063   0.000003   0.000001   0.000383   0.000313  -0.000029
    17  C    0.000000   0.000000   0.000000  -0.000007  -0.000002   0.000000
    18  Cl   0.000000   0.000000   0.000000   0.000000   0.000000   0.000000
    19  C    0.000000   0.000000   0.000000   0.000000   0.000000   0.000000
    20  H    0.000000   0.000000   0.000000   0.000000   0.000000   0.000000
    21  C    0.000000   0.000000   0.000000   0.000000   0.000000   0.000000
    22  H    0.000000   0.000000   0.000000   0.000000   0.000000   0.000000
    23  C    0.000000   0.000000   0.000000   0.000003   0.000000   0.000000
    24  S    0.000000   0.000000   0.000000  -0.000001   0.000000   0.000000
    25  C    0.000000   0.000000   0.000000   0.000003   0.000000   0.000000
    26  C   -0.000001   0.000000   0.000000   0.000084  -0.000005   0.000018
    27  C    0.000006  -0.000004   0.000000  -0.000225   0.000004  -0.000109
    28  H   -0.000038  -0.000016   0.000000   0.000566  -0.000022   0.000611
    29  C    0.000000   0.000000   0.000000  -0.000006   0.000000  -0.000004
    30  H    0.000000   0.000000   0.000000   0.000000   0.000000  -0.000001
    31  C    0.000000   0.000000   0.000000   0.000000   0.000000   0.000000
    32  H    0.000000   0.000000   0.000000   0.000000   0.000000   0.000000
    33  C    0.000000   0.000000   0.000000   0.000000   0.000000   0.000000
    34  H    0.000000   0.000000   0.000000   0.000000   0.000000   0.000000
               7          8          9         10         11         12
     1  N   -0.055908  -0.002434   0.006840   0.003031  -0.000071  -0.000076
     2  H   -0.004617   0.005191  -0.000868  -0.000148   0.000013  -0.000003
     3  H    0.006103  -0.000053  -0.000106  -0.000199   0.000007   0.000004
     4  C    0.353789  -0.037248  -0.033094  -0.031300  -0.001398  -0.001332
     5  H   -0.032650   0.005638  -0.007015  -0.004367   0.004855  -0.000412
     6  H   -0.058012  -0.006852   0.006770   0.000611  -0.000448   0.006148
     7  C    5.158415   0.373025   0.365324   0.335732  -0.051513  -0.052342
     8  H    0.373025   0.588322  -0.034010  -0.040860   0.005194  -0.005813
     9  H    0.365324  -0.034010   0.554945  -0.034754  -0.006369   0.004905
    10  C    0.335732  -0.040860  -0.034754   4.962041   0.371448   0.369721
    11  H   -0.051513   0.005194  -0.006369   0.371448   0.572172  -0.025465
    12  H   -0.052342  -0.005813   0.004905   0.369721  -0.025465   0.575769
    13  N   -0.043142  -0.003158  -0.002521   0.307083  -0.038776  -0.038418
    14  C   -0.004118   0.000118   0.001024  -0.044686  -0.005608   0.004256
    15  C   -0.003600   0.000177   0.000614  -0.001816   0.007012   0.000298
    16  H   -0.001126  -0.000166   0.005098   0.005858  -0.000394   0.000152
    17  C    0.000336  -0.000009   0.000152   0.000100   0.000282  -0.000006
    18  Cl  -0.000011   0.000000   0.000018  -0.000008  -0.000008   0.000000
    19  C   -0.000003   0.000000  -0.000001  -0.000011  -0.000015   0.000000
    20  H    0.000000   0.000000   0.000000   0.000000   0.000000   0.000000
    21  C    0.000002   0.000000  -0.000003  -0.000056  -0.000027   0.000001
    22  H    0.000000   0.000000   0.000000   0.000002   0.000000   0.000000
    23  C   -0.000236   0.000004  -0.000054   0.005294  -0.000001  -0.000106
    24  S    0.000096  -0.000003  -0.000001   0.000123  -0.000185  -0.000183
    25  C   -0.000201  -0.000070   0.000006   0.005195  -0.000108  -0.000019
    26  C   -0.003433   0.001532   0.000087  -0.043115   0.004087  -0.005468
    27  C   -0.003828   0.001217   0.000141  -0.002180   0.000283   0.006720
    28  H   -0.003386   0.004194  -0.000042   0.006022   0.000157  -0.000232
    29  C    0.000198   0.000108  -0.000005   0.000098  -0.000005   0.000257
    30  H    0.000000   0.000005   0.000000   0.000009   0.000000  -0.000006
    31  C   -0.000004   0.000000   0.000000  -0.000008   0.000000  -0.000016
    32  H    0.000000   0.000000   0.000000   0.000000   0.000000   0.000000
    33  C    0.000001  -0.000005   0.000000  -0.000050   0.000002  -0.000028
    34  H    0.000000   0.000000   0.000000   0.000002   0.000000   0.000000
              13         14         15         16         17         18
     1  N   -0.000042   0.000000   0.000003  -0.000063   0.000000   0.000000
     2  H    0.000001   0.000000  -0.000001   0.000003   0.000000   0.000000
     3  H    0.000001   0.000000   0.000000   0.000001   0.000000   0.000000
     4  C    0.002909   0.000108  -0.000196   0.000383  -0.000007   0.000000
     5  H    0.000000   0.000007  -0.000024   0.000313  -0.000002   0.000000
     6  H   -0.000030  -0.000005   0.000001  -0.000029   0.000000   0.000000
     7  C   -0.043142  -0.004118  -0.003600  -0.001126   0.000336  -0.000011
     8  H   -0.003158   0.000118   0.000177  -0.000166  -0.000009   0.000000
     9  H   -0.002521   0.001024   0.000614   0.005098   0.000152   0.000018
    10  C    0.307083  -0.044686  -0.001816   0.005858   0.000100  -0.000008
    11  H   -0.038776  -0.005608   0.007012  -0.000394   0.000282  -0.000008
    12  H   -0.038418   0.004256   0.000298   0.000152  -0.000006   0.000000
    13  N    7.096349   0.305912  -0.068780  -0.012135   0.005286  -0.000090
    14  C    0.305912   4.609395   0.484156  -0.036243  -0.003539   0.004123
    15  C   -0.068780   0.484156   5.117679   0.347571   0.501394  -0.067217
    16  H   -0.012135  -0.036243   0.347571   0.562311  -0.040187  -0.000421
    17  C    0.005286  -0.003539   0.501394  -0.040187   4.939174   0.236036
    18  Cl  -0.000090   0.004123  -0.067217  -0.000421   0.236036  16.917141
    19  C    0.000364  -0.033668  -0.046859   0.004644   0.537316  -0.066423
    20  H    0.000003   0.000517   0.004763  -0.000174  -0.041011  -0.000645
    21  C    0.004648  -0.001108  -0.047742   0.000357  -0.017511   0.004765
    22  H   -0.000111   0.003710   0.000815   0.000015   0.004408  -0.000167
    23  C   -0.068453   0.476231  -0.063113   0.005628  -0.038185   0.000576
    24  S   -0.000149  -0.060777   0.006220  -0.000205   0.000263   0.000012
    25  C   -0.068724  -0.019907   0.000408   0.000001   0.000003   0.000000
    26  C    0.292302  -0.021953   0.003186  -0.000139  -0.000046   0.000001
    27  C   -0.068532   0.003112  -0.000202  -0.000013   0.000002   0.000000
    28  H   -0.012144  -0.000140  -0.000013   0.000000   0.000000   0.000000
    29  C    0.005266  -0.000053   0.000002   0.000000   0.000000   0.000000
    30  H   -0.000105   0.000000   0.000000   0.000000   0.000000   0.000000
    31  C    0.000282  -0.000030  -0.000001   0.000000   0.000000   0.000000
    32  H    0.000003   0.000000   0.000000   0.000000   0.000000   0.000000
    33  C    0.004724   0.000766   0.000013   0.000000   0.000000   0.000000
    34  H   -0.000102  -0.000008   0.000000   0.000000   0.000000   0.000000
              19         20         21         22         23         24
     1  N    0.000000   0.000000   0.000000   0.000000   0.000000   0.000000
     2  H    0.000000   0.000000   0.000000   0.000000   0.000000   0.000000
     3  H    0.000000   0.000000   0.000000   0.000000   0.000000   0.000000
     4  C    0.000000   0.000000   0.000000   0.000000   0.000003  -0.000001
     5  H    0.000000   0.000000   0.000000   0.000000   0.000000   0.000000
     6  H    0.000000   0.000000   0.000000   0.000000   0.000000   0.000000
     7  C   -0.000003   0.000000   0.000002   0.000000  -0.000236   0.000096
     8  H    0.000000   0.000000   0.000000   0.000000   0.000004  -0.000003
     9  H   -0.000001   0.000000  -0.000003   0.000000  -0.000054  -0.000001
    10  C   -0.000011   0.000000  -0.000056   0.000002   0.005294   0.000123
    11  H   -0.000015   0.000000  -0.000027   0.000000  -0.000001  -0.000185
    12  H    0.000000   0.000000   0.000001   0.000000  -0.000106  -0.000183
    13  N    0.000364   0.000003   0.004648  -0.000111  -0.068453  -0.000149
    14  C   -0.033668   0.000517  -0.001108   0.003710   0.476231  -0.060777
    15  C   -0.046859   0.004763  -0.047742   0.000815  -0.063113   0.006220
    16  H    0.004644  -0.000174   0.000357   0.000015   0.005628  -0.000205
    17  C    0.537316  -0.041011  -0.017511   0.004408  -0.038185   0.000263
    18  Cl  -0.066423  -0.000645   0.004765  -0.000167   0.000576   0.000012
    19  C    4.934529   0.362463   0.502549  -0.039340  -0.038842   0.004618
    20  H    0.362463   0.560344  -0.038295  -0.005438   0.004570  -0.000148
    21  C    0.502549  -0.038295   4.945683   0.359347   0.519837  -0.053967
    22  H   -0.039340  -0.005438   0.359347   0.566311  -0.040873  -0.000008
    23  C   -0.038842   0.004570   0.519837  -0.040873   5.135670   0.234399
    24  S    0.004618  -0.000148  -0.053967  -0.000008   0.234399  15.568543
    25  C   -0.000105   0.000000   0.000786   0.000068   0.007762   0.232949
    26  C   -0.000027   0.000000   0.000758  -0.000008  -0.019340  -0.061846
    27  C   -0.000001   0.000000   0.000012   0.000000   0.000447   0.006105
    28  H    0.000000   0.000000   0.000000   0.000000   0.000001  -0.000236
    29  C    0.000000   0.000000   0.000000   0.000000   0.000002   0.000227
    30  H    0.000000   0.000000   0.000000   0.000000   0.000000   0.000018
    31  C    0.000000   0.000000   0.000001   0.000000  -0.000102   0.004619
    32  H    0.000000   0.000000   0.000000   0.000000   0.000000  -0.000175
    33  C    0.000001   0.000000  -0.000103   0.000002   0.000641  -0.054112
    34  H    0.000000   0.000000   0.000002   0.000001   0.000067  -0.000437
              25         26         27         28         29         30
     1  N    0.000000  -0.000001   0.000006  -0.000038   0.000000   0.000000
     2  H    0.000000   0.000000  -0.000004  -0.000016   0.000000   0.000000
     3  H    0.000000   0.000000   0.000000   0.000000   0.000000   0.000000
     4  C    0.000003   0.000084  -0.000225   0.000566  -0.000006   0.000000
     5  H    0.000000  -0.000005   0.000004  -0.000022   0.000000   0.000000
     6  H    0.000000   0.000018  -0.000109   0.000611  -0.000004  -0.000001
     7  C   -0.000201  -0.003433  -0.003828  -0.003386   0.000198   0.000000
     8  H   -0.000070   0.001532   0.001217   0.004194   0.000108   0.000005
     9  H    0.000006   0.000087   0.000141  -0.000042  -0.000005   0.000000
    10  C    0.005195  -0.043115  -0.002180   0.006022   0.000098   0.000009
    11  H   -0.000108   0.004087   0.000283   0.000157  -0.000005   0.000000
    12  H   -0.000019  -0.005468   0.006720  -0.000232   0.000257  -0.000006
    13  N   -0.068724   0.292302  -0.068532  -0.012144   0.005266  -0.000105
    14  C   -0.019907  -0.021953   0.003112  -0.000140  -0.000053   0.000000
    15  C    0.000408   0.003186  -0.000202  -0.000013   0.000002   0.000000
    16  H    0.000001  -0.000139  -0.000013   0.000000   0.000000   0.000000
    17  C    0.000003  -0.000046   0.000002   0.000000   0.000000   0.000000
    18  Cl   0.000000   0.000001   0.000000   0.000000   0.000000   0.000000
    19  C   -0.000105  -0.000027  -0.000001   0.000000   0.000000   0.000000
    20  H    0.000000   0.000000   0.000000   0.000000   0.000000   0.000000
    21  C    0.000786   0.000758   0.000012   0.000000   0.000000   0.000000
    22  H    0.000068  -0.000008   0.000000   0.000000   0.000000   0.000000
    23  C    0.007762  -0.019340   0.000447   0.000001   0.000002   0.000000
    24  S    0.232949  -0.061846   0.006105  -0.000236   0.000227   0.000018
    25  C    5.134247   0.480949  -0.059162   0.006097  -0.042441   0.000893
    26  C    0.480949   4.613304   0.512414  -0.041552  -0.008128   0.003795
    27  C   -0.059162   0.512414   5.022067   0.346852   0.525426  -0.039772
    28  H    0.006097  -0.041552   0.346852   0.603419  -0.041320  -0.006149
    29  C   -0.042441  -0.008128   0.525426  -0.041320   4.857036   0.357283
    30  H    0.000893   0.003795  -0.039772  -0.006149   0.357283   0.594931
    31  C   -0.036771  -0.036395  -0.035679   0.004643   0.553514  -0.041367
    32  H    0.004930   0.000693   0.004902  -0.000189  -0.042199  -0.005314
    33  C    0.522522  -0.005665  -0.048972   0.000552  -0.023832   0.004803
    34  H   -0.043501   0.004094   0.000697   0.000016   0.004619  -0.000194
              31         32         33         34
     1  N    0.000000   0.000000   0.000000   0.000000
     2  H    0.000000   0.000000   0.000000   0.000000
     3  H    0.000000   0.000000   0.000000   0.000000
     4  C    0.000000   0.000000   0.000000   0.000000
     5  H    0.000000   0.000000   0.000000   0.000000
     6  H    0.000000   0.000000   0.000000   0.000000
     7  C   -0.000004   0.000000   0.000001   0.000000
     8  H    0.000000   0.000000  -0.000005   0.000000
     9  H    0.000000   0.000000   0.000000   0.000000
    10  C   -0.000008   0.000000  -0.000050   0.000002
    11  H    0.000000   0.000000   0.000002   0.000000
    12  H   -0.000016   0.000000  -0.000028   0.000000
    13  N    0.000282   0.000003   0.004724  -0.000102
    14  C   -0.000030   0.000000   0.000766  -0.000008
    15  C   -0.000001   0.000000   0.000013   0.000000
    16  H    0.000000   0.000000   0.000000   0.000000
    17  C    0.000000   0.000000   0.000000   0.000000
    18  Cl   0.000000   0.000000   0.000000   0.000000
    19  C    0.000000   0.000000   0.000001   0.000000
    20  H    0.000000   0.000000   0.000000   0.000000
    21  C    0.000001   0.000000  -0.000103   0.000002
    22  H    0.000000   0.000000   0.000002   0.000001
    23  C   -0.000102   0.000000   0.000641   0.000067
    24  S    0.004619  -0.000175  -0.054112  -0.000437
    25  C   -0.036771   0.004930   0.522522  -0.043501
    26  C   -0.036395   0.000693  -0.005665   0.004094
    27  C   -0.035679   0.004902  -0.048972   0.000697
    28  H    0.004643  -0.000189   0.000552   0.000016
    29  C    0.553514  -0.042199  -0.023832   0.004619
    30  H   -0.041367  -0.005314   0.004803  -0.000194
    31  C    4.857687   0.360894   0.526337  -0.039818
    32  H    0.360894   0.592636  -0.042594  -0.005425
    33  C    0.526337  -0.042594   4.935434   0.358060
    34  H   -0.039818  -0.005425   0.358060   0.577032
 Mulliken charges:
               1
     1  N   -0.709746
     2  H    0.293843
     3  H    0.298717
     4  C   -0.141723
     5  H    0.145190
     6  H    0.115182
     7  C   -0.274889
     8  H    0.145956
     9  H    0.172920
    10  C   -0.168812
    11  H    0.164880
    12  H    0.161694
    13  N   -0.599718
    14  C    0.338406
    15  C   -0.174747
    16  H    0.158959
    17  C   -0.084246
    18  Cl  -0.027682
    19  C   -0.121187
    20  H    0.153050
    21  C   -0.179937
    22  H    0.151265
    23  C   -0.121825
    24  S    0.174241
    25  C   -0.125811
    26  C    0.329818
    27  C   -0.171729
    28  H    0.132351
    29  C   -0.146040
    30  H    0.131170
    31  C   -0.117787
    32  H    0.131838
    33  C   -0.178497
    34  H    0.144894
 Sum of Mulliken charges =   0.00000
 Mulliken charges with hydrogens summed into heavy atoms:
               1
     1  N   -0.117186
     4  C    0.118650
     7  C    0.043987
    10  C    0.157762
    13  N   -0.599718
    14  C    0.338406
    15  C   -0.015788
    17  C   -0.084246
    18  Cl  -0.027682
    19  C    0.031863
    21  C   -0.028672
    23  C   -0.121825
    24  S    0.174241
    25  C   -0.125811
    26  C    0.329818
    27  C   -0.039378
    29  C   -0.014869
    31  C    0.014051
    33  C   -0.033603
 Electronic spatial extent (au):  <R**2>=           6694.6916
 Charge=              0.0000 electrons
 Dipole moment (field-independent basis, Debye):
    X=              2.5302    Y=              2.5827    Z=              0.5726  Tot=              3.6606
 Quadrupole moment (field-independent basis, Debye-Ang):
   XX=           -127.3285   YY=           -107.0389   ZZ=           -129.5788
   XY=              7.1812   XZ=             -4.7694   YZ=              5.7291
 Traceless Quadrupole moment (field-independent basis, Debye-Ang):
   XX=             -6.0131   YY=             14.2765   ZZ=             -8.2634
   XY=              7.1812   XZ=             -4.7694   YZ=              5.7291
 Octapole moment (field-independent basis, Debye-Ang**2):
  XXX=             56.4453  YYY=             82.6960  ZZZ=              1.5738  XYY=              3.2751
  XXY=             -7.4696  XXZ=            -10.1453  XZZ=             -8.4189  YZZ=             10.7371
  YYZ=              5.8060  XYZ=            -12.2519
 Hexadecapole moment (field-independent basis, Debye-Ang**3):
 XXXX=          -4843.3852 YYYY=          -3062.3134 ZZZZ=           -315.2328 XXXY=            -21.4825
 XXXZ=            -69.1684 YYYX=            110.8568 YYYZ=             51.0973 ZZZX=              7.3306
 ZZZY=             -1.3328 XXYY=          -1386.1616 XXZZ=           -915.4395 YYZZ=           -692.5630
 XXYZ=             28.7060 YYXZ=            -51.2199 ZZXY=              7.8626
 N-N= 1.619119146934D+03 E-N=-6.876638748529D+03  KE= 1.539164867067D+03
 No NMR shielding tensors so no spin-rotation constants.
 Leave Link  601 at Sun Jan 24 23:16:43 2021, MaxMem=   262144000 cpu:         0.5
 (Enter /prod/apps/gaussian/g09d1/l9999.exe)
 1\1\GINC-PIRINEUS46\SP\RB3LYP\6-31G(d)\C15H15Cl1N2S1\UBAFAR01\24-Jan-2
 021\0\\#p b3lyp/6-31G(d)\\SET_328_BBB29_conf1.geo_285_180_180.n.pdb.xy
 z\\0,1\N,0,4.367,-1.194,0.077\H,0,4.189,-1.873,0.818\H,0,5.345,-0.923,
 0.187\C,0,3.514,-0.02,0.289\H,0,3.816,0.748,-0.433\H,0,3.618,0.434,1.2
 89\C,0,2.049,-0.385,0.057\H,0,1.752,-1.167,0.763\H,0,1.951,-0.824,-0.9
 39\C,0,1.131,0.836,0.213\H,0,1.404,1.6,-0.52\H,0,1.282,1.287,1.198\N,0
 ,-0.309,0.597,0.069\C,0,-0.856,0.557,-1.225\C,0,-0.03,0.463,-2.358\H,0
 ,1.042,0.397,-2.255\C,0,-0.584,0.449,-3.635\Cl,0,0.501,0.35,-5.016\C,0
 ,-1.955,0.49,-3.847\H,0,-2.367,0.465,-4.847\C,0,-2.78,0.571,-2.725\H,0
 ,-3.856,0.616,-2.852\C,0,-2.25,0.633,-1.438\S,0,-3.347,0.963,-0.08\C,0
 ,-2.439,0.165,1.224\C,0,-1.03,0.128,1.192\C,0,-0.37,-0.372,2.328\H,0,0
 .709,-0.42,2.347\C,0,-1.083,-0.817,3.442\H,0,-0.536,-1.187,4.302\C,0,-
 2.474,-0.803,3.445\H,0,-3.032,-1.16,4.302\C,0,-3.146,-0.319,2.323\H,0,
 -4.229,-0.289,2.302\\Version=AM64L-G09RevD.01\State=1-A\HF=-1548.50735
 29\RMSD=3.469e-09\Dipole=0.6781514,-0.0449485,1.2697272\Quadrupole=7.1
 123469,-6.2358232,-0.8765237,2.1445877,8.8227144,-4.1058992\PG=C01 [X(
 C15H15Cl1N2S1)]\\@


 WHEN IT COMES TO CASH FLOW, IT SEEMS LIKE THE TIDE IS ALWAYS GOING OUT.
 Job cpu time:       0 days  0 hours  5 minutes 19.0 seconds.
 File lengths (MBytes):  RWF=     58 Int=      0 D2E=      0 Chk=      5 Scr=      1
 Normal termination of Gaussian 09 at Sun Jan 24 23:16:44 2021.
 Initial command:
 /prod/apps/gaussian/g09d1/l1.exe "/tmp/ubafar01/1642356/Gau-161583.inp" -scrdir="/tmp/ubafar01/1642356/"
 Entering Link 1 = /prod/apps/gaussian/g09d1/l1.exe PID=    162325.
  
 Copyright (c) 1988,1990,1992,1993,1995,1998,2003,2009,2013,
            Gaussian, Inc.  All Rights Reserved.
  
 This is part of the Gaussian(R) 09 program.  It is based on
 the Gaussian(R) 03 system (copyright 2003, Gaussian, Inc.),
 the Gaussian(R) 98 system (copyright 1998, Gaussian, Inc.),
 the Gaussian(R) 94 system (copyright 1995, Gaussian, Inc.),
 the Gaussian 92(TM) system (copyright 1992, Gaussian, Inc.),
 the Gaussian 90(TM) system (copyright 1990, Gaussian, Inc.),
 the Gaussian 88(TM) system (copyright 1988, Gaussian, Inc.),
 the Gaussian 86(TM) system (copyright 1986, Carnegie Mellon
 University), and the Gaussian 82(TM) system (copyright 1983,
 Carnegie Mellon University). Gaussian is a federally registered
 trademark of Gaussian, Inc.
  
 This software contains proprietary and confidential information,
 including trade secrets, belonging to Gaussian, Inc.
  
 This software is provided under written license and may be
 used, copied, transmitted, or stored only in accord with that
 written license.
  
 The following legend is applicable only to US Government
 contracts under FAR:
  
                    RESTRICTED RIGHTS LEGEND
  
 Use, reproduction and disclosure by the US Government is
 subject to restrictions as set forth in subparagraphs (a)
 and (c) of the Commercial Computer Software - Restricted
 Rights clause in FAR 52.227-19.
  
 Gaussian, Inc.
 340 Quinnipiac St., Bldg. 40, Wallingford CT 06492
  
  
 ---------------------------------------------------------------
 Warning -- This program may not be used in any manner that
 competes with the business of Gaussian, Inc. or will provide
 assistance to any competitor of Gaussian, Inc.  The licensee
 of this program is prohibited from giving any competitor of
 Gaussian, Inc. access to this program.  By using this program,
 the user acknowledges that Gaussian, Inc. is engaged in the
 business of creating and licensing software in the field of
 computational chemistry and represents and warrants to the
 licensee that it is not a competitor of Gaussian, Inc. and that
 it will not use this program in any manner prohibited above.
 ---------------------------------------------------------------
  

 Cite this work as:
 Gaussian 09, Revision D.01,
 M. J. Frisch, G. W. Trucks, H. B. Schlegel, G. E. Scuseria, 
 M. A. Robb, J. R. Cheeseman, G. Scalmani, V. Barone, B. Mennucci, 
 G. A. Petersson, H. Nakatsuji, M. Caricato, X. Li, H. P. Hratchian, 
 A. F. Izmaylov, J. Bloino, G. Zheng, J. L. Sonnenberg, M. Hada, 
 M. Ehara, K. Toyota, R. Fukuda, J. Hasegawa, M. Ishida, T. Nakajima, 
 Y. Honda, O. Kitao, H. Nakai, T. Vreven, J. A. Montgomery, Jr., 
 J. E. Peralta, F. Ogliaro, M. Bearpark, J. J. Heyd, E. Brothers, 
 K. N. Kudin, V. N. Staroverov, T. Keith, R. Kobayashi, J. Normand, 
 K. Raghavachari, A. Rendell, J. C. Burant, S. S. Iyengar, J. Tomasi, 
 M. Cossi, N. Rega, J. M. Millam, M. Klene, J. E. Knox, J. B. Cross, 
 V. Bakken, C. Adamo, J. Jaramillo, R. Gomperts, R. E. Stratmann, 
 O. Yazyev, A. J. Austin, R. Cammi, C. Pomelli, J. W. Ochterski, 
 R. L. Martin, K. Morokuma, V. G. Zakrzewski, G. A. Voth, 
 P. Salvador, J. J. Dannenberg, S. Dapprich, A. D. Daniels, 
 O. Farkas, J. B. Foresman, J. V. Ortiz, J. Cioslowski, 
 and D. J. Fox, Gaussian, Inc., Wallingford CT, 2013.
 
 ******************************************
 Gaussian 09:  AM64L-G09RevD.01 24-Apr-2013
                24-Jan-2021 
 ******************************************
 %nproc=1
 Will use up to    1 processors via shared memory.
 %Chk=SET_328_BBB29_conf1.geo_285_180_180.n.pdb.xyz.mst.n.o.chk
 %mem=2000MB
 %subst l301 /dades/curu/work_g09D01_MST_AddSphPartition_ReadGammas/exe-dir/
 %subst l502 /dades/curu/work_g09D01_MST_AddSphPartition_ReadGammas/exe-dir/
 ----------------------------------------------------------------------
 #p b3lyp/6-31G(d) scrf=(iefpcm,read,solvent=n-Octanol) geom=allcheck g
 uess=read
 ----------------------------------------------------------------------
 1/29=7,38=1,40=2/1;
 2/12=2,40=1/2;
 3/5=1,6=6,7=1,11=2,14=-4,16=1,25=1,30=1,70=2203,72=25,74=-5,116=-2/1,2,3;
 4/5=1/1;
 5/5=2,38=6,53=25/2;
 6/7=2,8=2,9=2,10=2,28=1/1;
 99/5=1,9=1/99;
 Leave Link    1 at Sun Jan 24 23:16:44 2021, MaxMem=   262144000 cpu:         0.0
 (Enter /prod/apps/gaussian/g09d1/l101.exe)
 Structure from the checkpoint file:  "SET_328_BBB29_conf1.geo_285_180_180.n.pdb.xyz.mst.n.o.chk"
 ---------------------------------------------
 SET_328_BBB29_conf1.geo_285_180_180.n.pdb.xyz
 ---------------------------------------------
 Charge =  0 Multiplicity = 1
 Z-Matrix found in file.
 N,0,4.367,-1.194,0.077
 H,0,4.189,-1.873,0.818
 H,0,5.345,-0.923,0.187
 C,0,3.514,-0.02,0.289
 H,0,3.816,0.748,-0.433
 H,0,3.618,0.434,1.289
 C,0,2.049,-0.385,0.057
 H,0,1.752,-1.167,0.763
 H,0,1.951,-0.824,-0.939
 C,0,1.131,0.836,0.213
 H,0,1.404,1.6,-0.52
 H,0,1.282,1.287,1.198
 N,0,-0.309,0.597,0.069
 C,0,-0.856,0.557,-1.225
 C,0,-0.03,0.463,-2.358
 H,0,1.042,0.397,-2.255
 C,0,-0.584,0.449,-3.635
 Cl,0,0.501,0.35,-5.016
 C,0,-1.955,0.49,-3.847
 H,0,-2.367,0.465,-4.847
 C,0,-2.78,0.571,-2.725
 H,0,-3.856,0.616,-2.852
 C,0,-2.25,0.633,-1.438
 S,0,-3.347,0.963,-0.08
 C,0,-2.439,0.165,1.224
 C,0,-1.03,0.128,1.192
 C,0,-0.37,-0.372,2.328
 H,0,0.709,-0.42,2.347
 C,0,-1.083,-0.817,3.442
 H,0,-0.536,-1.187,4.302
 C,0,-2.474,-0.803,3.445
 H,0,-3.032,-1.16,4.302
 C,0,-3.146,-0.319,2.323
 H,0,-4.229,-0.289,2.302
 Recover connectivity data from disk.
 NAtoms=     34 NQM=       34 NQMF=       0 NMMI=      0 NMMIF=      0
                NMic=       0 NMicF=      0.
                    Isotopes and Nuclear Properties:
 (Nuclear quadrupole moments (NQMom) in fm**2, nuclear magnetic moments (NMagM)
  in nuclear magnetons)

  Atom         1           2           3           4           5           6           7           8           9          10
 IAtWgt=          14           1           1          12           1           1          12           1           1          12
 AtmWgt=  14.0030740   1.0078250   1.0078250  12.0000000   1.0078250   1.0078250  12.0000000   1.0078250   1.0078250  12.0000000
 NucSpn=           2           1           1           0           1           1           0           1           1           0
 AtZEff=  -4.5500000  -1.0000000  -1.0000000  -3.6000000  -1.0000000  -1.0000000  -3.6000000  -1.0000000  -1.0000000  -3.6000000
 NQMom=    2.0440000   0.0000000   0.0000000   0.0000000   0.0000000   0.0000000   0.0000000   0.0000000   0.0000000   0.0000000
 NMagM=    0.4037610   2.7928460   2.7928460   0.0000000   2.7928460   2.7928460   0.0000000   2.7928460   2.7928460   0.0000000
 AtZNuc=   7.0000000   1.0000000   1.0000000   6.0000000   1.0000000   1.0000000   6.0000000   1.0000000   1.0000000   6.0000000

  Atom        11          12          13          14          15          16          17          18          19          20
 IAtWgt=           1           1          14          12          12           1          12          35          12           1
 AtmWgt=   1.0078250   1.0078250  14.0030740  12.0000000  12.0000000   1.0078250  12.0000000  34.9688527  12.0000000   1.0078250
 NucSpn=           1           1           2           0           0           1           0           3           0           1
 AtZEff=  -1.0000000  -1.0000000  -4.5500000  -3.6000000  -3.6000000  -1.0000000  -3.6000000 -14.2400000  -3.6000000  -1.0000000
 NQMom=    0.0000000   0.0000000   2.0440000   0.0000000   0.0000000   0.0000000   0.0000000  -8.1650000   0.0000000   0.0000000
 NMagM=    2.7928460   2.7928460   0.4037610   0.0000000   0.0000000   2.7928460   0.0000000   0.8218740   0.0000000   2.7928460
 AtZNuc=   1.0000000   1.0000000   7.0000000   6.0000000   6.0000000   1.0000000   6.0000000  17.0000000   6.0000000   1.0000000

  Atom        21          22          23          24          25          26          27          28          29          30
 IAtWgt=          12           1          12          32          12          12          12           1          12           1
 AtmWgt=  12.0000000   1.0078250  12.0000000  31.9720718  12.0000000  12.0000000  12.0000000   1.0078250  12.0000000   1.0078250
 NucSpn=           0           1           0           0           0           0           0           1           0           1
 AtZEff=  -3.6000000  -1.0000000  -3.6000000 -13.6000000  -3.6000000  -3.6000000  -3.6000000  -1.0000000  -3.6000000  -1.0000000
 NQMom=    0.0000000   0.0000000   0.0000000   0.0000000   0.0000000   0.0000000   0.0000000   0.0000000   0.0000000   0.0000000
 NMagM=    0.0000000   2.7928460   0.0000000   0.0000000   0.0000000   0.0000000   0.0000000   2.7928460   0.0000000   2.7928460
 AtZNuc=   6.0000000   1.0000000   6.0000000  16.0000000   6.0000000   6.0000000   6.0000000   1.0000000   6.0000000   1.0000000

  Atom        31          32          33          34
 IAtWgt=          12           1          12           1
 AtmWgt=  12.0000000   1.0078250  12.0000000   1.0078250
 NucSpn=           0           1           0           1
 AtZEff=  -3.6000000  -1.0000000  -3.6000000  -1.0000000
 NQMom=    0.0000000   0.0000000   0.0000000   0.0000000
 NMagM=    0.0000000   2.7928460   0.0000000   2.7928460
 AtZNuc=   6.0000000   1.0000000   6.0000000   1.0000000
 Leave Link  101 at Sun Jan 24 23:16:44 2021, MaxMem=   262144000 cpu:         0.1
 (Enter /prod/apps/gaussian/g09d1/l202.exe)
                          Input orientation:                          
 ---------------------------------------------------------------------
 Center     Atomic      Atomic             Coordinates (Angstroms)
 Number     Number       Type             X           Y           Z
 ---------------------------------------------------------------------
      1          7           0        4.367000   -1.194000    0.077000
      2          1           0        4.189000   -1.873000    0.818000
      3          1           0        5.345000   -0.923000    0.187000
      4          6           0        3.514000   -0.020000    0.289000
      5          1           0        3.816000    0.748000   -0.433000
      6          1           0        3.618000    0.434000    1.289000
      7          6           0        2.049000   -0.385000    0.057000
      8          1           0        1.752000   -1.167000    0.763000
      9          1           0        1.951000   -0.824000   -0.939000
     10          6           0        1.131000    0.836000    0.213000
     11          1           0        1.404000    1.600000   -0.520000
     12          1           0        1.282000    1.287000    1.198000
     13          7           0       -0.309000    0.597000    0.069000
     14          6           0       -0.856000    0.557000   -1.225000
     15          6           0       -0.030000    0.463000   -2.358000
     16          1           0        1.042000    0.397000   -2.255000
     17          6           0       -0.584000    0.449000   -3.635000
     18         17           0        0.501000    0.350000   -5.016000
     19          6           0       -1.955000    0.490000   -3.847000
     20          1           0       -2.367000    0.465000   -4.847000
     21          6           0       -2.780000    0.571000   -2.725000
     22          1           0       -3.856000    0.616000   -2.852000
     23          6           0       -2.250000    0.633000   -1.438000
     24         16           0       -3.347000    0.963000   -0.080000
     25          6           0       -2.439000    0.165000    1.224000
     26          6           0       -1.030000    0.128000    1.192000
     27          6           0       -0.370000   -0.372000    2.328000
     28          1           0        0.709000   -0.420000    2.347000
     29          6           0       -1.083000   -0.817000    3.442000
     30          1           0       -0.536000   -1.187000    4.302000
     31          6           0       -2.474000   -0.803000    3.445000
     32          1           0       -3.032000   -1.160000    4.302000
     33          6           0       -3.146000   -0.319000    2.323000
     34          1           0       -4.229000   -0.289000    2.302000
 ---------------------------------------------------------------------
                    Distance matrix (angstroms):
                    1          2          3          4          5
     1  N    0.000000
     2  H    1.020689   0.000000
     3  H    1.020796   1.623883   0.000000
     4  C    1.466570   2.041831   2.044107   0.000000
     5  H    2.082082   2.928100   2.348293   1.096500   0.000000
     6  H    2.163407   2.422835   2.457312   1.103146   1.761557
     7  C    2.455200   2.715302   3.342149   1.527506   2.155476
     8  H    2.703618   2.537800   3.647048   2.155210   3.059042
     9  H    2.646925   3.032506   3.577277   2.144148   2.491073
    10  C    3.822446   4.129900   4.566460   2.533219   2.763021
    11  H    4.116092   4.648462   4.732532   2.780464   2.559535
    12  H    4.114514   4.310528   4.734363   2.741597   3.061346
    13  N    5.007267   5.185933   5.855941   3.878713   4.158176
    14  C    5.660471   5.960770   6.529667   4.660689   4.742502
    15  C    5.292304   5.774412   6.106443   4.449700   4.310286
    16  H    4.361781   4.949731   5.120700   3.571640   3.337358
    17  C    6.402405   6.928378   7.186314   5.693096   5.449973
[...]
    27  C   -0.003759   0.001320   0.000129  -0.001483   0.000283   0.006391
    28  H   -0.003071   0.004075  -0.000046   0.005963   0.000152  -0.000276
    29  C    0.000203   0.000122  -0.000006   0.000114  -0.000005   0.000249
    30  H    0.000000   0.000006   0.000000   0.000009   0.000000  -0.000005
    31  C   -0.000005   0.000000   0.000000  -0.000007   0.000000  -0.000015
    32  H    0.000000   0.000000   0.000000   0.000000   0.000000   0.000000
    33  C    0.000001  -0.000004   0.000000  -0.000050   0.000002  -0.000027
    34  H    0.000000   0.000000   0.000000   0.000002   0.000000   0.000000
              13         14         15         16         17         18
     1  N   -0.000043   0.000000   0.000004  -0.000072   0.000000   0.000000
     2  H    0.000001   0.000000  -0.000001   0.000003   0.000000   0.000000
     3  H    0.000001   0.000000   0.000000   0.000001   0.000000   0.000000
     4  C    0.002869   0.000107  -0.000192   0.000380  -0.000007   0.000000
     5  H    0.000001   0.000009  -0.000032   0.000322  -0.000002   0.000000
     6  H   -0.000030  -0.000005   0.000001  -0.000030   0.000000   0.000000
     7  C   -0.042672  -0.004271  -0.003538  -0.000880   0.000339  -0.000011
     8  H   -0.003105   0.000140   0.000159  -0.000173  -0.000009   0.000000
     9  H   -0.002554   0.001077   0.000364   0.005063   0.000143   0.000022
    10  C    0.300669  -0.044688  -0.001213   0.005913   0.000137  -0.000007
    11  H   -0.038903  -0.005796   0.006784  -0.000495   0.000291  -0.000008
    12  H   -0.038348   0.004266   0.000264   0.000139  -0.000006   0.000000
    13  N    7.099314   0.308852  -0.068743  -0.012118   0.005345  -0.000090
    14  C    0.308852   4.606946   0.486097  -0.034538  -0.004013   0.004070
    15  C   -0.068743   0.486097   5.117455   0.348531   0.499512  -0.067220
    16  H   -0.012118  -0.034538   0.348531   0.556041  -0.041254  -0.000511
    17  C    0.005345  -0.004013   0.499512  -0.041254   4.955937   0.232676
    18  Cl  -0.000090   0.004070  -0.067220  -0.000511   0.232676  16.928225
    19  C    0.000350  -0.033796  -0.046052   0.004570   0.534263  -0.066489
    20  H    0.000002   0.000506   0.004584  -0.000168  -0.042070  -0.000622
    21  C    0.004611  -0.001162  -0.047789   0.000324  -0.018998   0.004788
    22  H   -0.000108   0.003590   0.000795   0.000015   0.004355  -0.000164
    23  C   -0.069405   0.474676  -0.063975   0.005691  -0.038333   0.000567
    24  S    0.000029  -0.060931   0.006355  -0.000202   0.000248   0.000012
    25  C   -0.069639  -0.019901   0.000389   0.000002   0.000003   0.000000
    26  C    0.292310  -0.022099   0.003212  -0.000136  -0.000047   0.000001
    27  C   -0.068485   0.003101  -0.000198  -0.000012   0.000002   0.000000
    28  H   -0.011793  -0.000132  -0.000013   0.000000   0.000000   0.000000
    29  C    0.005261  -0.000053   0.000002   0.000000   0.000000   0.000000
    30  H   -0.000101   0.000000   0.000000   0.000000   0.000000   0.000000
    31  C    0.000258  -0.000031  -0.000001   0.000000   0.000000   0.000000
    32  H    0.000003   0.000000   0.000000   0.000000   0.000000   0.000000
    33  C    0.004709   0.000747   0.000013   0.000000   0.000000   0.000000
    34  H   -0.000099  -0.000008   0.000000   0.000000   0.000000   0.000000
              19         20         21         22         23         24
     1  N    0.000000   0.000000   0.000000   0.000000   0.000000   0.000000
     2  H    0.000000   0.000000   0.000000   0.000000   0.000000   0.000000
     3  H    0.000000   0.000000   0.000000   0.000000   0.000000   0.000000
     4  C    0.000000   0.000000   0.000000   0.000000   0.000003  -0.000001
     5  H    0.000000   0.000000   0.000000   0.000000   0.000000   0.000000
     6  H    0.000000   0.000000   0.000000   0.000000   0.000000   0.000000
     7  C   -0.000003   0.000000   0.000002   0.000000  -0.000241   0.000099
     8  H    0.000000   0.000000   0.000000   0.000000   0.000004  -0.000003
     9  H   -0.000001   0.000000  -0.000003   0.000000  -0.000056  -0.000002
    10  C   -0.000011   0.000000  -0.000056   0.000002   0.005235   0.000079
    11  H   -0.000015   0.000000  -0.000026   0.000000   0.000003  -0.000181
    12  H    0.000000   0.000000   0.000001   0.000000  -0.000107  -0.000177
    13  N    0.000350   0.000002   0.004611  -0.000108  -0.069405   0.000029
    14  C   -0.033796   0.000506  -0.001162   0.003590   0.474676  -0.060931
    15  C   -0.046052   0.004584  -0.047789   0.000795  -0.063975   0.006355
    16  H    0.004570  -0.000168   0.000324   0.000015   0.005691  -0.000202
    17  C    0.534263  -0.042070  -0.018998   0.004355  -0.038333   0.000248
    18  Cl  -0.066489  -0.000622   0.004788  -0.000164   0.000567   0.000012
    19  C    4.940164   0.364023   0.505282  -0.037360  -0.040154   0.004637
    20  H    0.364023   0.548183  -0.036075  -0.005279   0.004511  -0.000145
    21  C    0.505282  -0.036075   4.949578   0.361164   0.517489  -0.054125
    22  H   -0.037360  -0.005279   0.361164   0.552211  -0.041498   0.000001
    23  C   -0.040154   0.004511   0.517489  -0.041498   5.151382   0.230758
    24  S    0.004637  -0.000145  -0.054125   0.000001   0.230758  15.591958
    25  C   -0.000106   0.000000   0.000811   0.000067   0.007354   0.228483
    26  C   -0.000028   0.000000   0.000735  -0.000008  -0.019113  -0.062322
    27  C   -0.000001   0.000000   0.000012   0.000000   0.000431   0.006208
    28  H    0.000000   0.000000   0.000000   0.000000   0.000002  -0.000229
    29  C    0.000000   0.000000   0.000000   0.000000   0.000002   0.000173
    30  H    0.000000   0.000000   0.000000   0.000000   0.000000   0.000018
    31  C    0.000000   0.000000   0.000001   0.000000  -0.000101   0.004659
    32  H    0.000000   0.000000   0.000000   0.000000   0.000000  -0.000172
    33  C    0.000001   0.000000  -0.000101   0.000002   0.000640  -0.054192
    34  H    0.000000   0.000000   0.000002   0.000001   0.000067  -0.000457
              25         26         27         28         29         30
     1  N    0.000000  -0.000001   0.000006  -0.000038   0.000000   0.000000
     2  H    0.000000   0.000000  -0.000003  -0.000018   0.000000   0.000000
     3  H    0.000000   0.000000   0.000000   0.000000   0.000000   0.000000
     4  C    0.000002   0.000081  -0.000227   0.000549  -0.000006   0.000000
     5  H    0.000000  -0.000005   0.000005  -0.000023   0.000000   0.000000
     6  H    0.000000   0.000018  -0.000107   0.000583  -0.000004  -0.000001
     7  C   -0.000203  -0.003479  -0.003759  -0.003071   0.000203   0.000000
     8  H   -0.000072   0.001490   0.001320   0.004075   0.000122   0.000006
     9  H    0.000007   0.000103   0.000129  -0.000046  -0.000006   0.000000
    10  C    0.005130  -0.042933  -0.001483   0.005963   0.000114   0.000009
    11  H   -0.000111   0.004099   0.000283   0.000152  -0.000005   0.000000
    12  H   -0.000009  -0.005418   0.006391  -0.000276   0.000249  -0.000005
    13  N   -0.069639   0.292310  -0.068485  -0.011793   0.005261  -0.000101
    14  C   -0.019901  -0.022099   0.003101  -0.000132  -0.000053   0.000000
    15  C    0.000389   0.003212  -0.000198  -0.000013   0.000002   0.000000
    16  H    0.000002  -0.000136  -0.000012   0.000000   0.000000   0.000000
    17  C    0.000003  -0.000047   0.000002   0.000000   0.000000   0.000000
    18  Cl   0.000000   0.000001   0.000000   0.000000   0.000000   0.000000
    19  C   -0.000106  -0.000028  -0.000001   0.000000   0.000000   0.000000
    20  H    0.000000   0.000000   0.000000   0.000000   0.000000   0.000000
    21  C    0.000811   0.000735   0.000012   0.000000   0.000000   0.000000
    22  H    0.000067  -0.000008   0.000000   0.000000   0.000000   0.000000
    23  C    0.007354  -0.019113   0.000431   0.000002   0.000002   0.000000
    24  S    0.228483  -0.062322   0.006208  -0.000229   0.000173   0.000018
    25  C    5.150891   0.481260  -0.059229   0.005914  -0.042351   0.000862
    26  C    0.481260   4.618481   0.511912  -0.041485  -0.009381   0.003694
    27  C   -0.059229   0.511912   5.025761   0.350196   0.524435  -0.038271
    28  H    0.005914  -0.041485   0.350196   0.581642  -0.039166  -0.005853
    29  C   -0.042351  -0.009381   0.524435  -0.039166   4.867483   0.359956
    30  H    0.000862   0.003694  -0.038271  -0.005853   0.359956   0.574913
    31  C   -0.038130  -0.036404  -0.036779   0.004537   0.550384  -0.040759
    32  H    0.004862   0.000664   0.004808  -0.000179  -0.041240  -0.005059
    33  C    0.520006  -0.006054  -0.049080   0.000522  -0.025220   0.004726
    34  H   -0.044616   0.004002   0.000650   0.000015   0.004575  -0.000185
              31         32         33         34
     1  N    0.000000   0.000000   0.000000   0.000000
     2  H    0.000000   0.000000   0.000000   0.000000
     3  H    0.000000   0.000000   0.000000   0.000000
     4  C    0.000000   0.000000   0.000000   0.000000
     5  H    0.000000   0.000000   0.000000   0.000000
     6  H    0.000000   0.000000   0.000000   0.000000
     7  C   -0.000005   0.000000   0.000001   0.000000
     8  H    0.000000   0.000000  -0.000004   0.000000
     9  H    0.000000   0.000000   0.000000   0.000000
    10  C   -0.000007   0.000000  -0.000050   0.000002
    11  H    0.000000   0.000000   0.000002   0.000000
    12  H   -0.000015   0.000000  -0.000027   0.000000
    13  N    0.000258   0.000003   0.004709  -0.000099
    14  C   -0.000031   0.000000   0.000747  -0.000008
    15  C   -0.000001   0.000000   0.000013   0.000000
    16  H    0.000000   0.000000   0.000000   0.000000
    17  C    0.000000   0.000000   0.000000   0.000000
    18  Cl   0.000000   0.000000   0.000000   0.000000
    19  C    0.000000   0.000000   0.000001   0.000000
    20  H    0.000000   0.000000   0.000000   0.000000
    21  C    0.000001   0.000000  -0.000101   0.000002
    22  H    0.000000   0.000000   0.000002   0.000001
    23  C   -0.000101   0.000000   0.000640   0.000067
    24  S    0.004659  -0.000172  -0.054192  -0.000457
    25  C   -0.038130   0.004862   0.520006  -0.044616
    26  C   -0.036404   0.000664  -0.006054   0.004002
    27  C   -0.036779   0.004808  -0.049080   0.000650
    28  H    0.004537  -0.000179   0.000522   0.000015
    29  C    0.550384  -0.041240  -0.025220   0.004575
    30  H   -0.040759  -0.005059   0.004726  -0.000185
    31  C    4.869264   0.363163   0.526377  -0.038161
    32  H    0.363163   0.576337  -0.041945  -0.005258
    33  C    0.526377  -0.041945   4.945636   0.359916
    34  H   -0.038161  -0.005258   0.359916   0.566556
 Mulliken charges:
               1
     1  N   -0.741886
     2  H    0.309435
     3  H    0.314632
     4  C   -0.136980
     5  H    0.145497
     6  H    0.124601
     7  C   -0.276761
     8  H    0.151046
     9  H    0.160829
    10  C   -0.174220
    11  H    0.169933
    12  H    0.170083
    13  N   -0.598350
    14  C    0.337237
    15  C   -0.175555
    16  H    0.163595
    17  C   -0.088510
    18  Cl  -0.035237
    19  C   -0.129275
    20  H    0.162549
    21  C   -0.186464
    22  H    0.162216
    23  C   -0.125832
    24  S    0.159421
    25  C   -0.131678
    26  C    0.326851
    27  C   -0.178014
    28  H    0.148171
    29  C   -0.155526
    30  H    0.146050
    31  C   -0.128250
    32  H    0.144018
    33  C   -0.186623
    34  H    0.152998
 Sum of Mulliken charges =   0.00000
 Mulliken charges with hydrogens summed into heavy atoms:
               1
     1  N   -0.117819
     4  C    0.133118
     7  C    0.035114
    10  C    0.165796
    13  N   -0.598350
    14  C    0.337237
    15  C   -0.011960
    17  C   -0.088510
    18  Cl  -0.035237
    19  C    0.033274
    21  C   -0.024249
    23  C   -0.125832
    24  S    0.159421
    25  C   -0.131678
    26  C    0.326851
    27  C   -0.029843
    29  C   -0.009476
    31  C    0.015768
    33  C   -0.033625
 Electronic spatial extent (au):  <R**2>=           6692.5339
 Charge=              0.0000 electrons
 Dipole moment (field-independent basis, Debye):
    X=              2.9924    Y=              3.1602    Z=              0.6406  Tot=              4.3990
 Quadrupole moment (field-independent basis, Debye-Ang):
   XX=           -126.7668   YY=           -104.7429   ZZ=           -129.5344
   XY=              8.4791   XZ=             -5.2009   YZ=              6.3407
 Traceless Quadrupole moment (field-independent basis, Debye-Ang):
   XX=             -6.4188   YY=             15.6051   ZZ=             -9.1863
   XY=              8.4791   XZ=             -5.2009   YZ=              6.3407
 Octapole moment (field-independent basis, Debye-Ang**2):
  XXX=             68.3150  YYY=             94.6990  ZZZ=              1.8205  XYY=              5.1383
  XXY=             -6.3147  XXZ=            -11.0678  XZZ=             -7.9162  YZZ=             11.7430
  YYZ=              6.5610  XYZ=            -12.7394
 Hexadecapole moment (field-independent basis, Debye-Ang**3):
 XXXX=          -4815.8664 YYYY=          -2979.4099 ZZZZ=           -314.8017 XXXY=            -13.8241
 XXXZ=            -78.2981 YYYX=            124.9222 YYYZ=             58.8283 ZZZX=              6.4590
 ZZZY=              0.2531 XXYY=          -1378.5389 XXZZ=           -914.8411 YYZZ=           -690.3152
 XXYZ=             30.2707 YYXZ=            -54.0116 ZZXY=              9.4255
 N-N= 1.619102855088D+03 E-N=-6.876931896898D+03  KE= 1.539169641965D+03
 No NMR shielding tensors so no spin-rotation constants.
 Leave Link  601 at Sun Jan 24 23:20:23 2021, MaxMem=   262144000 cpu:         0.4
 (Enter /prod/apps/gaussian/g09d1/l9999.exe)
 1\1\GINC-PIRINEUS46\SP\RB3LYP\6-31G(d)\C15H15Cl1N2S1\UBAFAR01\24-Jan-2
 021\0\\#p b3lyp/6-31G(d) scrf=(iefpcm,read,solvent=n-Octanol) geom=all
 check guess=read\\SET_328_BBB29_conf1.geo_285_180_180.n.pdb.xyz\\0,1\N
 ,0,4.367,-1.194,0.077\H,0,4.189,-1.873,0.818\H,0,5.345,-0.923,0.187\C,
 0,3.514,-0.02,0.289\H,0,3.816,0.748,-0.433\H,0,3.618,0.434,1.289\C,0,2
 .049,-0.385,0.057\H,0,1.752,-1.167,0.763\H,0,1.951,-0.824,-0.939\C,0,1
 .131,0.836,0.213\H,0,1.404,1.6,-0.52\H,0,1.282,1.287,1.198\N,0,-0.309,
 0.597,0.069\C,0,-0.856,0.557,-1.225\C,0,-0.03,0.463,-2.358\H,0,1.042,0
 .397,-2.255\C,0,-0.584,0.449,-3.635\Cl,0,0.501,0.35,-5.016\C,0,-1.955,
 0.49,-3.847\H,0,-2.367,0.465,-4.847\C,0,-2.78,0.571,-2.725\H,0,-3.856,
 0.616,-2.852\C,0,-2.25,0.633,-1.438\S,0,-3.347,0.963,-0.08\C,0,-2.439,
 0.165,1.224\C,0,-1.03,0.128,1.192\C,0,-0.37,-0.372,2.328\H,0,0.709,-0.
 42,2.347\C,0,-1.083,-0.817,3.442\H,0,-0.536,-1.187,4.302\C,0,-2.474,-0
 .803,3.445\H,0,-3.032,-1.16,4.302\C,0,-3.146,-0.319,2.323\H,0,-4.229,-
 0.289,2.302\\Version=AM64L-G09RevD.01\State=1-A\HF=-1548.5299685\RMSD=
 2.694e-09\Dipole=0.8392931,-0.0743049,1.5117532\Quadrupole=7.5239468,-
 6.9313536,-0.5925932,2.3652467,9.9935914,-4.5782757\PG=C01 [X(C15H15Cl
 1N2S1)]\\@


                                                                                    A
                                                                                  AA
                                                                                 AAA
                                                                                AAAA
                                                                               AAAAA
                                                                              AAAAAA   KKKKKKKK
                                                                             AAAAAAA   KKKKKKKK
                                                                            AAAAAAAA   KKKKKKKK
                                       ZZZZZZZZZZZZZZZZZZZZ                AAAA  AAA   KKKKKKKK
                                       ZZZZZZZZZZZZZZZZZZZ                AAAA   AAA   KKKKKKKK          K
                                       ZZZZZZZZZZZZZZZZZZ                AAAA    AAA   KKKKKKKK         KKK
                                       ZZZZZZZZZZZZZZZZZ                AAAA     AAA   KKKKKKKK        KKKKK
                                       ZZZZZZZZZZZZZZZZ                AAAA      AAA   KKKKKKKK       KKKKKKK
                                                ZZZZZZ                AAAA       AAA   KKKKKKKK      KKKKKKK
                                               ZZZZZZ                AAAA        AAA   KKKKKKKK     KKKKKKK
                                              ZZZZZZ                AAAA         AAA   KKKKKKKK    KKKKKKK
                                             ZZZZZZ                AAAA          AAA   KKKKKKKK   KKKKKKK
                                            ZZZZZZ                AAAAAAAAAAAAAAAAAA   KKKKKKKK  KKKKKKK
                                           ZZZZZZ                AAAAAAAAAAAAAAAAAAA   KKKKKKKK KKKKKKK
                                          ZZZZZZ                AAAAAAAAAAAAAAAAAAAA   KKKKKKKKKKKKKKK
                                         ZZZZZZ                AAAAAAAAAAAAAAAAAAAAA   KKKKKKKKKKKKKK
                                        ZZZZZZ                AAAAAA        AAAAAAAA   KKKKKKKKKKKKK
                                       ZZZZZZ                AAAAAA         AAAAAAAA   KKKKKKKKKKKK
                                      ZZZZZZ                AAAAAA          AAAAAAAA   KKKKKKKKKKK
                                     ZZZZZZ                AAAAAA           AAAAAAAA   KKKKKKKKKKKK
                                    ZZZZZZ                AAAAAA            AAAAAAAA   KKKKKKKKKKKKK
                                   ZZZZZZ                AAAAAA             AAAAAAAA   KKKKKKKKKKKKKK
                                  ZZZZZZ                AAAAAA              AAAAAAAA   KKKKKKKKKKKKKKK
                                 ZZZZZZ                AAAAAA               AAAAAAAA   KKKKK KKKKKKKKKK
                                ZZZZZZ                AAAAAA                AAAAAAAA   KKKKK  KKKKKKKKKK
                               ZZZZZZ                AAAAAA                            KKKKK   KKKKKKKKKK
                              ZZZZZZ                AAAAAA                             KKKKK    KKKKKKKKKK
                             ZZZZZZ                                                    KKKKK     KKKKKKKKKK
                            ZZZZZZ                                                     KKKKK      KKKKKKKKKK
                           ZZZZZZ                                                      KKKKK       KKKKKKKKKK
                          ZZZZZZ                                                       KKKKK        KKKKKKKKKK
                         ZZZZZZZZZZZZZZZZZZZZZZZZZZZZZZZZZZZZZZZZ                      KKKKK         KKKKKKKKKK
                        ZZZZZZZZZZZZZZZZZZZZZZZZZZZZZZZZZZZZZZZZZ                      KKKKK          KKKKKKKKKK
                       ZZZZZZZZZZZZZZZZZZZZZZZZZZZZZZZZZZZZZZZZZZ                      KKKKK           KKKKKKKKKK
                       ZZZZZZZZZZZZZZZZZZZZZZZZZZZZZZZZZZZZZZZZZZ                      KKKKK            KKKKKKKKKK
                       ZZZZZZZZZZZZZZZZZZZZZZZZZZZZZZZZZZZZZZZZZZ                      KKKKK             KKKKKKKKKK
                       ZZZZZZZZZZZZZZZZZZZZZZZZZZZZZZZZZZZZZZZZZZ                      KKKKK              KKKKKKKKKK
                       ZZZZZZZZZZZZZZZZZZZZZZZZZZZZZZZZZZZZZZZZZZ                      KKKKK               KKKKKKKKKK
                       ZZZZZZZZZZZZZZZZZZZZZZZZZZZZZZZZZZZZZZZZZZ                      KKKKK                KKKKKKKKKK
                       ZZZZZZZZZZZZZZZZZZZZZZZZZZZZZZZZZZZZZZZZZZ                      KKKKK
                                                                                       KKKKK
                                                                                          (J.P.)
 Job cpu time:       0 days  0 hours  3 minutes 39.4 seconds.
 File lengths (MBytes):  RWF=    186 Int=      0 D2E=      0 Chk=      6 Scr=      1
 Normal termination of Gaussian 09 at Sun Jan 24 23:20:23 2021.
