 Entering Gaussian System, Link 0=g09
 Initial command:
 /prod/apps/gaussian/g09d1/l1.exe "/tmp/ubafar01/1643584/Gau-212135.inp" -scrdir="/tmp/ubafar01/1643584/"
 Entering Link 1 = /prod/apps/gaussian/g09d1/l1.exe PID=    212136.
  
 Copyright (c) 1988,1990,1992,1993,1995,1998,2003,2009,2013,
            Gaussian, Inc.  All Rights Reserved.
  
 This is part of the Gaussian(R) 09 program.  It is based on
 the Gaussian(R) 03 system (copyright 2003, Gaussian, Inc.),
 the Gaussian(R) 98 system (copyright 1998, Gaussian, Inc.),
 the Gaussian(R) 94 system (copyright 1995, Gaussian, Inc.),
 the Gaussian 92(TM) system (copyright 1992, Gaussian, Inc.),
 the Gaussian 90(TM) system (copyright 1990, Gaussian, Inc.),
 the Gaussian 88(TM) system (copyright 1988, Gaussian, Inc.),
 the Gaussian 86(TM) system (copyright 1986, Carnegie Mellon
 University), and the Gaussian 82(TM) system (copyright 1983,
 Carnegie Mellon University). Gaussian is a federally registered
 trademark of Gaussian, Inc.
  
 This software contains proprietary and confidential information,
 including trade secrets, belonging to Gaussian, Inc.
  
 This software is provided under written license and may be
 used, copied, transmitted, or stored only in accord with that
 written license.
  
 The following legend is applicable only to US Government
 contracts under FAR:
  
                    RESTRICTED RIGHTS LEGEND
  
 Use, reproduction and disclosure by the US Government is
 subject to restrictions as set forth in subparagraphs (a)
 and (c) of the Commercial Computer Software - Restricted
 Rights clause in FAR 52.227-19.
  
 Gaussian, Inc.
 340 Quinnipiac St., Bldg. 40, Wallingford CT 06492
  
  
 ---------------------------------------------------------------
 Warning -- This program may not be used in any manner that
 competes with the business of Gaussian, Inc. or will provide
 assistance to any competitor of Gaussian, Inc.  The licensee
 of this program is prohibited from giving any competitor of
 Gaussian, Inc. access to this program.  By using this program,
 the user acknowledges that Gaussian, Inc. is engaged in the
 business of creating and licensing software in the field of
 computational chemistry and represents and warrants to the
 licensee that it is not a competitor of Gaussian, Inc. and that
 it will not use this program in any manner prohibited above.
 ---------------------------------------------------------------
  

 Cite this work as:
 Gaussian 09, Revision D.01,
 M. J. Frisch, G. W. Trucks, H. B. Schlegel, G. E. Scuseria, 
 M. A. Robb, J. R. Cheeseman, G. Scalmani, V. Barone, B. Mennucci, 
 G. A. Petersson, H. Nakatsuji, M. Caricato, X. Li, H. P. Hratchian, 
 A. F. Izmaylov, J. Bloino, G. Zheng, J. L. Sonnenberg, M. Hada, 
 M. Ehara, K. Toyota, R. Fukuda, J. Hasegawa, M. Ishida, T. Nakajima, 
 Y. Honda, O. Kitao, H. Nakai, T. Vreven, J. A. Montgomery, Jr., 
 J. E. Peralta, F. Ogliaro, M. Bearpark, J. J. Heyd, E. Brothers, 
 K. N. Kudin, V. N. Staroverov, T. Keith, R. Kobayashi, J. Normand, 
 K. Raghavachari, A. Rendell, J. C. Burant, S. S. Iyengar, J. Tomasi, 
 M. Cossi, N. Rega, J. M. Millam, M. Klene, J. E. Knox, J. B. Cross, 
 V. Bakken, C. Adamo, J. Jaramillo, R. Gomperts, R. E. Stratmann, 
 O. Yazyev, A. J. Austin, R. Cammi, C. Pomelli, J. W. Ochterski, 
 R. L. Martin, K. Morokuma, V. G. Zakrzewski, G. A. Voth, 
 P. Salvador, J. J. Dannenberg, S. Dapprich, A. D. Daniels, 
 O. Farkas, J. B. Foresman, J. V. Ortiz, J. Cioslowski, 
 and D. J. Fox, Gaussian, Inc., Wallingford CT, 2013.
 
 ******************************************
 Gaussian 09:  AM64L-G09RevD.01 24-Apr-2013
                25-Jan-2021 
 ******************************************
 %nproc=1
 Will use up to    1 processors via shared memory.
 %Chk=SET_328_BBB272_conf1.geo_195_315_180.n.pdb.xyz.mst.n.o.chk
 %mem=2000MB
 -----------------
 #p b3lyp/6-31G(d)
 -----------------
 1/38=1/1;
 2/12=2,17=6,18=5,40=1/2;
 3/5=1,6=6,7=1,11=2,16=1,25=1,30=1,74=-5/1,2,3;
 4//1;
 5/5=2,38=5/2;
 6/7=2,8=2,9=2,10=2,28=1/1;
 99/5=1,9=1/99;
 Leave Link    1 at Mon Jan 25 16:22:28 2021, MaxMem=   262144000 cpu:         0.0
 (Enter /prod/apps/gaussian/g09d1/l101.exe)
 ----------------------------------------------
 SET_328_BBB272_conf1.geo_195_315_180.n.pdb.xyz
 ----------------------------------------------
 Symbolic Z-matrix:
 Charge =  0 Multiplicity = 1
 C                    -0.904     2.716    -1.94 
 H                     0.055     3.234    -1.846 
 H                    -1.594     3.164    -1.221 
 H                    -1.283     2.838    -2.952 
 C                    -0.725     1.255    -1.654 
 O                    -0.795     0.345    -2.435 
 O                    -0.447     1.066    -0.302 
 C                    -0.251    -0.231     0.189 
 C                     0.913    -0.499     0.927 
 C                     2.022     0.471     1.217 
 O                     1.827     1.773     0.94 
 H                     0.936     1.913     0.559 
 O                     3.073     0.112     1.708 
 C                     1.068    -1.788     1.457 
 H                     1.973    -1.985     2.019 
 C                     0.103    -2.769     1.271 
 H                     0.245    -3.757     1.694 
 C                    -1.051    -2.472     0.542 
 H                    -1.816    -3.227     0.394 
 C                    -1.23     -1.201     0. 
 H                    -2.118    -0.959    -0.569 
 
 NAtoms=     21 NQM=       21 NQMF=       0 NMMI=      0 NMMIF=      0
                NMic=       0 NMicF=      0.
                    Isotopes and Nuclear Properties:
 (Nuclear quadrupole moments (NQMom) in fm**2, nuclear magnetic moments (NMagM)
  in nuclear magnetons)

  Atom         1           2           3           4           5           6           7           8           9          10
 IAtWgt=          12           1           1           1          12          16          16          12          12          12
 AtmWgt=  12.0000000   1.0078250   1.0078250   1.0078250  12.0000000  15.9949146  15.9949146  12.0000000  12.0000000  12.0000000
 NucSpn=           0           1           1           1           0           0           0           0           0           0
 AtZEff=   0.0000000   0.0000000   0.0000000   0.0000000   0.0000000   0.0000000   0.0000000   0.0000000   0.0000000   0.0000000
 NQMom=    0.0000000   0.0000000   0.0000000   0.0000000   0.0000000   0.0000000   0.0000000   0.0000000   0.0000000   0.0000000
 NMagM=    0.0000000   2.7928460   2.7928460   2.7928460   0.0000000   0.0000000   0.0000000   0.0000000   0.0000000   0.0000000
 AtZNuc=   6.0000000   1.0000000   1.0000000   1.0000000   6.0000000   8.0000000   8.0000000   6.0000000   6.0000000   6.0000000

  Atom        11          12          13          14          15          16          17          18          19          20
 IAtWgt=          16           1          16          12           1          12           1          12           1          12
 AtmWgt=  15.9949146   1.0078250  15.9949146  12.0000000   1.0078250  12.0000000   1.0078250  12.0000000   1.0078250  12.0000000
 NucSpn=           0           1           0           0           1           0           1           0           1           0
 AtZEff=   0.0000000   0.0000000   0.0000000   0.0000000   0.0000000   0.0000000   0.0000000   0.0000000   0.0000000   0.0000000
 NQMom=    0.0000000   0.0000000   0.0000000   0.0000000   0.0000000   0.0000000   0.0000000   0.0000000   0.0000000   0.0000000
 NMagM=    0.0000000   2.7928460   0.0000000   0.0000000   2.7928460   0.0000000   2.7928460   0.0000000   2.7928460   0.0000000
 AtZNuc=   8.0000000   1.0000000   8.0000000   6.0000000   1.0000000   6.0000000   1.0000000   6.0000000   1.0000000   6.0000000

  Atom        21
 IAtWgt=           1
 AtmWgt=   1.0078250
 NucSpn=           1
 AtZEff=   0.0000000
 NQMom=    0.0000000
 NMagM=    2.7928460
 AtZNuc=   1.0000000
 Leave Link  101 at Mon Jan 25 16:22:28 2021, MaxMem=   262144000 cpu:         0.1
 (Enter /prod/apps/gaussian/g09d1/l202.exe)
                          Input orientation:                          
 ---------------------------------------------------------------------
 Center     Atomic      Atomic             Coordinates (Angstroms)
 Number     Number       Type             X           Y           Z
 ---------------------------------------------------------------------
      1          6           0       -0.904000    2.716000   -1.940000
      2          1           0        0.055000    3.234000   -1.846000
      3          1           0       -1.594000    3.164000   -1.221000
      4          1           0       -1.283000    2.838000   -2.952000
      5          6           0       -0.725000    1.255000   -1.654000
      6          8           0       -0.795000    0.345000   -2.435000
      7          8           0       -0.447000    1.066000   -0.302000
      8          6           0       -0.251000   -0.231000    0.189000
      9          6           0        0.913000   -0.499000    0.927000
     10          6           0        2.022000    0.471000    1.217000
     11          8           0        1.827000    1.773000    0.940000
     12          1           0        0.936000    1.913000    0.559000
     13          8           0        3.073000    0.112000    1.708000
     14          6           0        1.068000   -1.788000    1.457000
     15          1           0        1.973000   -1.985000    2.019000
     16          6           0        0.103000   -2.769000    1.271000
     17          1           0        0.245000   -3.757000    1.694000
     18          6           0       -1.051000   -2.472000    0.542000
     19          1           0       -1.816000   -3.227000    0.394000
     20          6           0       -1.230000   -1.201000    0.000000
     21          1           0       -2.118000   -0.959000   -0.569000
 ---------------------------------------------------------------------
                    Distance matrix (angstroms):
                    1          2          3          4          5
     1  C    0.000000
     2  H    1.094002   0.000000
     3  H    1.092596   1.764859   0.000000
     4  H    1.087506   1.780533   1.788675   0.000000
     5  C    1.499453   2.135815   2.141712   2.121805   0.000000
     6  O    2.424572   3.068508   3.171586   2.592389   1.201233
     7  O    2.369471   2.708535   2.561596   3.295661   1.393165
     8  C    3.693759   4.030023   3.913793   4.511060   2.414440
     9  C    4.675190   4.728740   4.931179   5.568180   3.524361
    10  C    4.854704   4.570036   5.125578   5.822909   4.050100
    11  O    4.079462   3.610582   4.278790   5.094506   3.675577
    12  H    3.205528   2.881879   3.336810   4.255198   2.844161
    13  O    5.992099   5.611250   6.298780   6.936960   5.199452
    14  C    5.976153   6.095610   6.227378   6.809285   4.706699
    15  H    6.786031   6.771625   7.052183   7.653346   5.591756
    16  C    6.435044   6.764170   6.655100   7.154941   5.043192
    17  H    7.511717   7.838481   7.731713   8.210611   6.104928
    18  C    5.753023   6.283647   5.930220   6.360657   4.338113
    19  H    6.449694   7.089624   6.595634   6.947232   5.047069
    20  C    4.383237   4.972742   4.547149   5.003062   3.003777
    21  H    4.105979   4.892229   4.206995   4.559948   2.831867
                    6          7          8          9         10
     6  O    0.000000
     7  O    2.278296   0.000000
     8  C    2.741001   1.400609   0.000000
     9  C    3.864278   2.410242   1.404053   0.000000
    10  C    4.613943   2.959282   2.591547   1.501626   0.000000
    11  O    4.506073   2.685794   2.982968   2.448989   1.345347
    12  H    3.797239   1.836142   2.478428   2.440020   1.921386
    13  O    5.672756   4.164207   3.670693   2.376738   1.214316
    14  C    4.813328   3.678943   2.402464   1.402300   2.463899
    15  H    5.738366   4.533436   3.372179   2.127031   2.584094
    16  C    4.923194   4.181394   2.781633   2.434612   3.766043
    17  H    5.912414   5.265378   3.865710   3.413074   4.610991
    18  C    4.106526   3.687085   2.405554   2.810383   4.308155
    19  H    4.669568   4.559433   3.386335   3.895319   5.392845
    20  C    2.916945   2.417350   1.391065   2.438151   3.853852
    21  H    2.633002   2.638969   2.142484   3.411243   4.730148
                   11         12         13         14         15
    11  O    0.000000
    12  H    0.979103   0.000000
    13  O    2.213879   3.021683   0.000000
    14  C    3.677512   3.810673   2.773630   0.000000
    15  H    3.912559   4.289682   2.388332   1.083364   0.000000
    16  C    4.869446   4.808530   4.160773   1.388590   2.161264
    17  H    5.801046   5.823625   4.792384   2.147198   2.496316
    18  C    5.144056   4.814217   5.004397   2.407331   3.400481
    19  H    6.210440   5.832695   6.064473   3.393839   4.305776
    20  C    4.367325   3.834193   4.812176   2.783563   3.866552
    21  H    5.030301   4.341392   5.768730   3.865555   4.948404
                   16         17         18         19         20
    16  C    0.000000
    17  H    1.084083   0.000000
    18  C    1.396913   2.158227   0.000000
    19  H    2.159040   2.493716   1.084967   0.000000
    20  C    2.418875   3.402704   1.393286   2.145532   0.000000
    21  H    3.405076   4.305083   2.159162   2.482418   1.082067
                   21
    21  H    0.000000
 Stoichiometry    C9H8O4
 Framework group  C1[X(C9H8O4)]
 Deg. of freedom    57
 Full point group                 C1      NOp   1
 Largest Abelian subgroup         C1      NOp   1
 Largest concise Abelian subgroup C1      NOp   1
                         Standard orientation:                         
 ---------------------------------------------------------------------
 Center     Atomic      Atomic             Coordinates (Angstroms)
 Number     Number       Type             X           Y           Z
 ---------------------------------------------------------------------
      1          6           0        3.557062    0.444845   -0.194564
      2          1           0        3.468029    1.489367    0.118308
      3          1           0        3.655752    0.432543   -1.282624
      4          1           0        4.436152    0.002583    0.268334
      5          6           0        2.339442   -0.320490    0.229726
      6          8           0        2.269278   -1.166796    1.079317
      7          8           0        1.236006    0.091503   -0.514316
      8          6           0       -0.012070   -0.502058   -0.286942
      9          6           0       -1.114031    0.330896   -0.035483
     10          6           0       -1.089012    1.829139    0.062101
     11          8           0        0.024054    2.480497   -0.321010
     12          1           0        0.706043    1.846145   -0.622889
     13          8           0       -2.048204    2.459945    0.457824
     14          6           0       -2.366131   -0.276617    0.136618
     15          1           0       -3.207797    0.375535    0.336553
     16          6           0       -2.521041   -1.654004    0.053010
     17          1           0       -3.500517   -2.099016    0.186530
     18          6           0       -1.409603   -2.458480   -0.209458
     19          1           0       -1.517082   -3.535569   -0.283492
     20          6           0       -0.152380   -1.882855   -0.380612
     21          1           0        0.716930   -2.495037   -0.581614
 ---------------------------------------------------------------------
 Rotational constants (GHZ):      1.0594595      0.7260156      0.4582770
 Leave Link  202 at Mon Jan 25 16:22:28 2021, MaxMem=   262144000 cpu:         0.0
 (Enter /prod/apps/gaussian/g09d1/l301.exe)
 Standard basis: 6-31G(d) (6D, 7F)
 Ernie: Thresh=  0.10000D-02 Tol=  0.10000D-05 Strict=F.
 There are   211 symmetry adapted cartesian basis functions of A   symmetry.
 There are   211 symmetry adapted basis functions of A   symmetry.
   211 basis functions,   396 primitive gaussians,   211 cartesian basis functions
    47 alpha electrons       47 beta electrons
       nuclear repulsion energy       774.2499827602 Hartrees.
 IExCor=  402 DFT=T Ex+Corr=B3LYP ExCW=0 ScaHFX=  0.200000
 ScaDFX=  0.800000  0.720000  1.000000  0.810000 ScalE2=  1.000000  1.000000
 IRadAn=      0 IRanWt=     -1 IRanGd=            0 ICorTp=0 IEmpDi=  4
 NAtoms=   21 NActive=   21 NUniq=   21 SFac= 1.00D+00 NAtFMM=   60 NAOKFM=F Big=F
 Integral buffers will be    131072 words long.
 Raffenetti 2 integral format.
 Two-electron integral symmetry is turned on.
 Leave Link  301 at Mon Jan 25 16:22:28 2021, MaxMem=   262144000 cpu:         0.0
 (Enter /prod/apps/gaussian/g09d1/l302.exe)
 NPDir=0 NMtPBC=     1 NCelOv=     1 NCel=       1 NClECP=     1 NCelD=      1
         NCelK=      1 NCelE2=     1 NClLst=     1 CellRange=     0.0.
 One-electron integrals computed using PRISM.
 NBasis=   211 RedAO= T EigKep=  3.94D-04  NBF=   211
 NBsUse=   211 1.00D-06 EigRej= -1.00D+00 NBFU=   211
 Precomputing XC quadrature grid using
 IXCGrd= 4 IRadAn=           0 IRanWt=          -1 IRanGd=           0 AccXCQ= 0.00D+00.
 Generated NRdTot=       0 NPtTot=           0 NUsed=           0 NTot=          32
 NSgBfM=   210   210   210   210   210 MxSgAt=    21 MxSgA2=    21.
 Leave Link  302 at Mon Jan 25 16:22:29 2021, MaxMem=   262144000 cpu:         1.0
 (Enter /prod/apps/gaussian/g09d1/l303.exe)
 DipDrv:  MaxL=1.
 Leave Link  303 at Mon Jan 25 16:22:29 2021, MaxMem=   262144000 cpu:         0.0
 (Enter /prod/apps/gaussian/g09d1/l401.exe)
 ExpMin= 1.61D-01 ExpMax= 5.48D+03 ExpMxC= 8.25D+02 IAcc=1 IRadAn=         1 AccDes= 0.00D+00
 Harris functional with IExCor=  402 and IRadAn=       1 diagonalized for initial guess.
 HarFok:  IExCor=  402 AccDes= 0.00D+00 IRadAn=         1 IDoV= 1 UseB2=F ITyADJ=14
 ICtDFT=  3500011 ScaDFX=  1.000000  1.000000  1.000000  1.000000
 FoFCou: FMM=F IPFlag=           0 FMFlag=      100000 FMFlg1=           0
         NFxFlg=           0 DoJE=T BraDBF=F KetDBF=T FulRan=T
         wScrn=  0.000000 ICntrl=     500 IOpCl=  0 I1Cent=   200000004 NGrid=           0
         NMat0=    1 NMatS0=      1 NMatT0=    0 NMatD0=    1 NMtDS0=    0 NMtDT0=    0
 Petite list used in FoFCou.
 Harris En= -648.727999178310    
 JPrj=0 DoOrth=F DoCkMO=F.
 Leave Link  401 at Mon Jan 25 16:22:31 2021, MaxMem=   262144000 cpu:         2.0
 (Enter /prod/apps/gaussian/g09d1/l502.exe)
 Closed shell SCF:
 Using DIIS extrapolation, IDIIS=  1040.
 Integral symmetry usage will be decided dynamically.
 Keep R1 ints in memory in canonical form, NReq=255049085.
 IVT=      154966 IEndB=      154966 NGot=   262144000 MDV=    11858874
 LenX=    11858874 LenY=    11813912
 Requested convergence on RMS density matrix=1.00D-08 within 128 cycles.
 Requested convergence on MAX density matrix=1.00D-06.
 Requested convergence on             energy=1.00D-06.
 No special actions if energy rises.
 FoFCou: FMM=F IPFlag=           0 FMFlag=           0 FMFlg1=           0
         NFxFlg=           0 DoJE=F BraDBF=F KetDBF=F FulRan=T
         wScrn=  0.000000 ICntrl=     600 IOpCl=  0 I1Cent=           0 NGrid=           0
         NMat0=    1 NMatS0=  22366 NMatT0=    0 NMatD0=    1 NMtDS0=    0 NMtDT0=    0
 Symmetry not used in FoFCou.
 Integral accuracy reduced to 1.0D-05 until final iterations.

 Cycle   1  Pass 0  IDiag  1:
 E= -648.332785144221    
 DIIS: error= 2.73D-02 at cycle   1 NSaved=   1.
 NSaved= 1 IEnMin= 1 EnMin= -648.332785144221     IErMin= 1 ErrMin= 2.73D-02
 ErrMax= 2.73D-02  0.00D+00 EMaxC= 1.00D-01 BMatC= 4.16D-01 BMatP= 4.16D-01
 IDIUse=3 WtCom= 7.27D-01 WtEn= 2.73D-01
 Coeff-Com:  0.100D+01
 Coeff-En:   0.100D+01
 Coeff:      0.100D+01
 Gap=     0.231 Goal=   None    Shift=    0.000
 GapD=    0.231 DampG=1.000 DampE=0.500 DampFc=0.5000 IDamp=-1.
 Damping current iteration by 5.00D-01
 RMSDP=7.49D-03 MaxDP=2.14D-01              OVMax= 2.67D-01

 Cycle   2  Pass 0  IDiag  1:
 E= -648.383089384070     Delta-E=       -0.050304239850 Rises=F Damp=T
 DIIS: error= 1.43D-02 at cycle   2 NSaved=   2.
 NSaved= 2 IEnMin= 2 EnMin= -648.383089384070     IErMin= 2 ErrMin= 1.43D-02
 ErrMax= 1.43D-02  0.00D+00 EMaxC= 1.00D-01 BMatC= 1.02D-01 BMatP= 4.16D-01
 IDIUse=3 WtCom= 8.57D-01 WtEn= 1.43D-01
 Coeff-Com:  0.283D+00 0.717D+00
 Coeff-En:   0.435D+00 0.565D+00
 Coeff:      0.305D+00 0.695D+00
 Gap=     0.219 Goal=   None    Shift=    0.000
 RMSDP=2.60D-03 MaxDP=7.09D-02 DE=-5.03D-02 OVMax= 2.16D-01

 Cycle   3  Pass 0  IDiag  1:
 E= -648.623581087116     Delta-E=       -0.240491703045 Rises=F Damp=F
 DIIS: error= 1.23D-02 at cycle   3 NSaved=   3.
 NSaved= 3 IEnMin= 3 EnMin= -648.623581087116     IErMin= 3 ErrMin= 1.23D-02
 ErrMax= 1.23D-02  0.00D+00 EMaxC= 1.00D-01 BMatC= 7.52D-02 BMatP= 1.02D-01
 IDIUse=3 WtCom= 8.77D-01 WtEn= 1.23D-01
 Coeff-Com:  0.108D+00 0.450D+00 0.442D+00
 Coeff-En:   0.000D+00 0.000D+00 0.100D+01
 Coeff:      0.949D-01 0.394D+00 0.511D+00
 Gap=     0.216 Goal=   None    Shift=    0.000
 RMSDP=1.58D-03 MaxDP=4.17D-02 DE=-2.40D-01 OVMax= 8.26D-02

 Cycle   4  Pass 0  IDiag  1:
 E= -648.680140573679     Delta-E=       -0.056559486563 Rises=F Damp=F
 DIIS: error= 5.84D-03 at cycle   4 NSaved=   4.
 NSaved= 4 IEnMin= 4 EnMin= -648.680140573679     IErMin= 4 ErrMin= 5.84D-03
 ErrMax= 5.84D-03  0.00D+00 EMaxC= 1.00D-01 BMatC= 1.22D-02 BMatP= 7.52D-02
 IDIUse=3 WtCom= 9.42D-01 WtEn= 5.84D-02
 Coeff-Com:  0.252D-01 0.868D-01 0.296D+00 0.592D+00
 Coeff-En:   0.000D+00 0.000D+00 0.147D+00 0.853D+00
 Coeff:      0.237D-01 0.817D-01 0.288D+00 0.607D+00
 Gap=     0.215 Goal=   None    Shift=    0.000
 RMSDP=4.94D-04 MaxDP=1.66D-02 DE=-5.66D-02 OVMax= 2.74D-02

 Cycle   5  Pass 0  IDiag  1:
 E= -648.689015517087     Delta-E=       -0.008874943408 Rises=F Damp=F
 DIIS: error= 1.59D-03 at cycle   5 NSaved=   5.
 NSaved= 5 IEnMin= 5 EnMin= -648.689015517087     IErMin= 5 ErrMin= 1.59D-03
 ErrMax= 1.59D-03  0.00D+00 EMaxC= 1.00D-01 BMatC= 7.53D-04 BMatP= 1.22D-02
 IDIUse=3 WtCom= 9.84D-01 WtEn= 1.59D-02
 Coeff-Com:  0.454D-02 0.421D-02 0.114D+00 0.338D+00 0.539D+00
 Coeff-En:   0.000D+00 0.000D+00 0.000D+00 0.000D+00 0.100D+01
 Coeff:      0.447D-02 0.415D-02 0.112D+00 0.333D+00 0.546D+00
 Gap=     0.211 Goal=   None    Shift=    0.000
 RMSDP=1.39D-04 MaxDP=5.06D-03 DE=-8.87D-03 OVMax= 5.90D-03

 Cycle   6  Pass 0  IDiag  1:
 E= -648.689591875581     Delta-E=       -0.000576358494 Rises=F Damp=F
 DIIS: error= 3.51D-04 at cycle   6 NSaved=   6.
 NSaved= 6 IEnMin= 6 EnMin= -648.689591875581     IErMin= 6 ErrMin= 3.51D-04
 ErrMax= 3.51D-04  0.00D+00 EMaxC= 1.00D-01 BMatC= 5.13D-05 BMatP= 7.53D-04
 IDIUse=3 WtCom= 9.96D-01 WtEn= 3.51D-03
 Coeff-Com:  0.807D-03-0.342D-02 0.371D-01 0.120D+00 0.286D+00 0.559D+00
 Coeff-En:   0.000D+00 0.000D+00 0.000D+00 0.000D+00 0.000D+00 0.100D+01
 Coeff:      0.804D-03-0.341D-02 0.369D-01 0.120D+00 0.285D+00 0.561D+00
 Gap=     0.211 Goal=   None    Shift=    0.000
 RMSDP=3.84D-05 MaxDP=1.29D-03 DE=-5.76D-04 OVMax= 1.99D-03

 Cycle   7  Pass 0  IDiag  1:
 E= -648.689631650445     Delta-E=       -0.000039774864 Rises=F Damp=F
 DIIS: error= 1.40D-04 at cycle   7 NSaved=   7.
 NSaved= 7 IEnMin= 7 EnMin= -648.689631650445     IErMin= 7 ErrMin= 1.40D-04
 ErrMax= 1.40D-04  0.00D+00 EMaxC= 1.00D-01 BMatC= 4.49D-06 BMatP= 5.13D-05
 IDIUse=3 WtCom= 9.99D-01 WtEn= 1.40D-03
 Coeff-Com:  0.213D-03-0.243D-02 0.117D-01 0.386D-01 0.118D+00 0.305D+00
 Coeff-Com:  0.529D+00
 Coeff-En:   0.000D+00 0.000D+00 0.000D+00 0.000D+00 0.000D+00 0.000D+00
 Coeff-En:   0.100D+01
 Coeff:      0.213D-03-0.243D-02 0.117D-01 0.386D-01 0.118D+00 0.304D+00
 Coeff:      0.530D+00
 Gap=     0.211 Goal=   None    Shift=    0.000
 RMSDP=1.22D-05 MaxDP=4.48D-04 DE=-3.98D-05 OVMax= 8.65D-04

 Cycle   8  Pass 0  IDiag  1:
 E= -648.689635734556     Delta-E=       -0.000004084111 Rises=F Damp=F
 DIIS: error= 5.44D-05 at cycle   8 NSaved=   8.
 NSaved= 8 IEnMin= 8 EnMin= -648.689635734556     IErMin= 8 ErrMin= 5.44D-05
 ErrMax= 5.44D-05  0.00D+00 EMaxC= 1.00D-01 BMatC= 5.21D-07 BMatP= 4.49D-06
 IDIUse=1 WtCom= 1.00D+00 WtEn= 0.00D+00
 Coeff-Com:  0.846D-04-0.105D-02 0.293D-02 0.904D-02 0.390D-01 0.114D+00
 Coeff-Com:  0.303D+00 0.533D+00
 Coeff:      0.846D-04-0.105D-02 0.293D-02 0.904D-02 0.390D-01 0.114D+00
 Coeff:      0.303D+00 0.533D+00
 Gap=     0.211 Goal=   None    Shift=    0.000
 RMSDP=4.61D-06 MaxDP=1.22D-04 DE=-4.08D-06 OVMax= 3.56D-04

 Initial convergence to 1.0D-05 achieved.  Increase integral accuracy.
 Cycle   9  Pass 1  IDiag  1:
 E= -648.689687713871     Delta-E=       -0.000051979315 Rises=F Damp=F
 DIIS: error= 2.82D-05 at cycle   1 NSaved=   1.
 NSaved= 1 IEnMin= 1 EnMin= -648.689687713871     IErMin= 1 ErrMin= 2.82D-05
 ErrMax= 2.82D-05  0.00D+00 EMaxC= 1.00D-01 BMatC= 1.27D-07 BMatP= 1.27D-07
 IDIUse=1 WtCom= 1.00D+00 WtEn= 0.00D+00
 Coeff-Com:  0.100D+01
 Coeff:      0.100D+01
 Gap=     0.211 Goal=   None    Shift=    0.000
 RMSDP=4.61D-06 MaxDP=1.22D-04 DE=-5.20D-05 OVMax= 2.48D-04

 Cycle  10  Pass 1  IDiag  1:
 E= -648.689687756862     Delta-E=       -0.000000042991 Rises=F Damp=F
 DIIS: error= 1.83D-05 at cycle   2 NSaved=   2.
 NSaved= 2 IEnMin= 2 EnMin= -648.689687756862     IErMin= 2 ErrMin= 1.83D-05
 ErrMax= 1.83D-05  0.00D+00 EMaxC= 1.00D-01 BMatC= 1.25D-07 BMatP= 1.27D-07
 IDIUse=1 WtCom= 1.00D+00 WtEn= 0.00D+00
 Coeff-Com:  0.497D+00 0.503D+00
 Coeff:      0.497D+00 0.503D+00
 Gap=     0.211 Goal=   None    Shift=    0.000
 RMSDP=2.52D-06 MaxDP=6.27D-05 DE=-4.30D-08 OVMax= 2.07D-04

 Cycle  11  Pass 1  IDiag  1:
 E= -648.689687846096     Delta-E=       -0.000000089234 Rises=F Damp=F
 DIIS: error= 1.02D-05 at cycle   3 NSaved=   3.
 NSaved= 3 IEnMin= 3 EnMin= -648.689687846096     IErMin= 3 ErrMin= 1.02D-05
 ErrMax= 1.02D-05  0.00D+00 EMaxC= 1.00D-01 BMatC= 3.92D-08 BMatP= 1.25D-07
 IDIUse=1 WtCom= 1.00D+00 WtEn= 0.00D+00
 Coeff-Com:  0.332D-01 0.352D+00 0.615D+00
 Coeff:      0.332D-01 0.352D+00 0.615D+00
 Gap=     0.211 Goal=   None    Shift=    0.000
 RMSDP=9.75D-07 MaxDP=2.94D-05 DE=-8.92D-08 OVMax= 6.27D-05

 Cycle  12  Pass 1  IDiag  1:
 E= -648.689687878383     Delta-E=       -0.000000032287 Rises=F Damp=F
 DIIS: error= 3.46D-06 at cycle   4 NSaved=   4.
 NSaved= 4 IEnMin= 4 EnMin= -648.689687878383     IErMin= 4 ErrMin= 3.46D-06
 ErrMax= 3.46D-06  0.00D+00 EMaxC= 1.00D-01 BMatC= 5.45D-09 BMatP= 3.92D-08
 IDIUse=1 WtCom= 1.00D+00 WtEn= 0.00D+00
 Coeff-Com: -0.144D-01 0.195D+00 0.398D+00 0.422D+00
 Coeff:     -0.144D-01 0.195D+00 0.398D+00 0.422D+00
 Gap=     0.211 Goal=   None    Shift=    0.000
 RMSDP=3.31D-07 MaxDP=1.27D-05 DE=-3.23D-08 OVMax= 1.64D-05

 Cycle  13  Pass 1  IDiag  1:
 E= -648.689687882599     Delta-E=       -0.000000004216 Rises=F Damp=F
 DIIS: error= 8.09D-07 at cycle   5 NSaved=   5.
 NSaved= 5 IEnMin= 5 EnMin= -648.689687882599     IErMin= 5 ErrMin= 8.09D-07
 ErrMax= 8.09D-07  0.00D+00 EMaxC= 1.00D-01 BMatC= 2.21D-10 BMatP= 5.45D-09
 IDIUse=1 WtCom= 1.00D+00 WtEn= 0.00D+00
 Coeff-Com: -0.106D-01 0.101D+00 0.209D+00 0.256D+00 0.444D+00
 Coeff:     -0.106D-01 0.101D+00 0.209D+00 0.256D+00 0.444D+00
 Gap=     0.211 Goal=   None    Shift=    0.000
 RMSDP=7.03D-08 MaxDP=1.97D-06 DE=-4.22D-09 OVMax= 3.93D-06

 Cycle  14  Pass 1  IDiag  1:
 E= -648.689687882773     Delta-E=       -0.000000000174 Rises=F Damp=F
 DIIS: error= 2.25D-07 at cycle   6 NSaved=   6.
 NSaved= 6 IEnMin= 6 EnMin= -648.689687882773     IErMin= 6 ErrMin= 2.25D-07
 ErrMax= 2.25D-07  0.00D+00 EMaxC= 1.00D-01 BMatC= 1.14D-11 BMatP= 2.21D-10
 IDIUse=1 WtCom= 1.00D+00 WtEn= 0.00D+00
 Coeff-Com: -0.392D-02 0.328D-01 0.669D-01 0.903D-01 0.230D+00 0.584D+00
 Coeff:     -0.392D-02 0.328D-01 0.669D-01 0.903D-01 0.230D+00 0.584D+00
 Gap=     0.211 Goal=   None    Shift=    0.000
 RMSDP=2.12D-08 MaxDP=6.60D-07 DE=-1.74D-10 OVMax= 1.20D-06

 Cycle  15  Pass 1  IDiag  1:
 E= -648.689687882783     Delta-E=       -0.000000000010 Rises=F Damp=F
 DIIS: error= 1.14D-07 at cycle   7 NSaved=   7.
 NSaved= 7 IEnMin= 7 EnMin= -648.689687882783     IErMin= 7 ErrMin= 1.14D-07
 ErrMax= 1.14D-07  0.00D+00 EMaxC= 1.00D-01 BMatC= 2.46D-12 BMatP= 1.14D-11
 IDIUse=1 WtCom= 1.00D+00 WtEn= 0.00D+00
 Coeff-Com: -0.714D-03 0.434D-02 0.797D-02 0.153D-01 0.718D-01 0.363D+00
 Coeff-Com:  0.538D+00
 Coeff:     -0.714D-03 0.434D-02 0.797D-02 0.153D-01 0.718D-01 0.363D+00
 Coeff:      0.538D+00
 Gap=     0.211 Goal=   None    Shift=    0.000
 RMSDP=7.87D-09 MaxDP=2.61D-07 DE=-1.02D-11 OVMax= 4.18D-07

 SCF Done:  E(RB3LYP) =  -648.689687883     A.U. after   15 cycles
            NFock= 15  Conv=0.79D-08     -V/T= 2.0091
 KE= 6.428679588971D+02 PE=-3.062771239635D+03 EE= 9.969636100951D+02
 Leave Link  502 at Mon Jan 25 16:23:37 2021, MaxMem=   262144000 cpu:        65.7
 (Enter /prod/apps/gaussian/g09d1/l601.exe)
 Copying SCF densities to generalized density rwf, IOpCl= 0 IROHF=0.

 **********************************************************************

            Population analysis using the SCF density.

 **********************************************************************

 Orbital symmetries:
       Occupied  (A) (A) (A) (A) (A) (A) (A) (A) (A) (A) (A) (A)
                 (A) (A) (A) (A) (A) (A) (A) (A) (A) (A) (A) (A)
                 (A) (A) (A) (A) (A) (A) (A) (A) (A) (A) (A) (A)
                 (A) (A) (A) (A) (A) (A) (A) (A) (A) (A) (A)
       Virtual   (A) (A) (A) (A) (A) (A) (A) (A) (A) (A) (A) (A)
                 (A) (A) (A) (A) (A) (A) (A) (A) (A) (A) (A) (A)
                 (A) (A) (A) (A) (A) (A) (A) (A) (A) (A) (A) (A)
                 (A) (A) (A) (A) (A) (A) (A) (A) (A) (A) (A) (A)
                 (A) (A) (A) (A) (A) (A) (A) (A) (A) (A) (A) (A)
                 (A) (A) (A) (A) (A) (A) (A) (A) (A) (A) (A) (A)
                 (A) (A) (A) (A) (A) (A) (A) (A) (A) (A) (A) (A)
                 (A) (A) (A) (A) (A) (A) (A) (A) (A) (A) (A) (A)
                 (A) (A) (A) (A) (A) (A) (A) (A) (A) (A) (A) (A)
                 (A) (A) (A) (A) (A) (A) (A) (A) (A) (A) (A) (A)
                 (A) (A) (A) (A) (A) (A) (A) (A) (A) (A) (A) (A)
                 (A) (A) (A) (A) (A) (A) (A) (A) (A) (A) (A) (A)
                 (A) (A) (A) (A) (A) (A) (A) (A) (A) (A) (A) (A)
                 (A) (A) (A) (A) (A) (A) (A) (A)
 The electronic state is 1-A.
 Alpha  occ. eigenvalues --  -19.23494 -19.18510 -19.17177 -19.12573 -10.35336
 Alpha  occ. eigenvalues --  -10.31895 -10.28009 -10.22362 -10.22206 -10.21579
 Alpha  occ. eigenvalues --  -10.21367 -10.20897 -10.20751  -1.13806  -1.09357
 Alpha  occ. eigenvalues --   -1.05601  -1.00779  -0.87893  -0.80042  -0.77941
 Alpha  occ. eigenvalues --   -0.75623  -0.66810  -0.65185  -0.61367  -0.59612
 Alpha  occ. eigenvalues --   -0.54651  -0.52029  -0.51429  -0.50766  -0.48790
 Alpha  occ. eigenvalues --   -0.47262  -0.45132  -0.44586  -0.43726  -0.43199
 Alpha  occ. eigenvalues --   -0.42634  -0.41458  -0.40403  -0.38430  -0.37658
 Alpha  occ. eigenvalues --   -0.36360  -0.34085  -0.30932  -0.30573  -0.27299
 Alpha  occ. eigenvalues --   -0.26691  -0.26439
 Alpha virt. eigenvalues --   -0.05350  -0.03017  -0.01014   0.05343   0.07014
 Alpha virt. eigenvalues --    0.08094   0.11770   0.13294   0.14168   0.14644
 Alpha virt. eigenvalues --    0.15161   0.16183   0.16907   0.18733   0.21013
 Alpha virt. eigenvalues --    0.23453   0.25758   0.26644   0.29680   0.30831
 Alpha virt. eigenvalues --    0.32143   0.32535   0.38035   0.38742   0.48172
 Alpha virt. eigenvalues --    0.48625   0.50626   0.51003   0.52619   0.53032
 Alpha virt. eigenvalues --    0.53647   0.55028   0.55389   0.56518   0.57905
 Alpha virt. eigenvalues --    0.58909   0.59304   0.60010   0.60813   0.62077
 Alpha virt. eigenvalues --    0.62775   0.65426   0.66604   0.66953   0.68711
 Alpha virt. eigenvalues --    0.71994   0.73331   0.75959   0.79757   0.80073
 Alpha virt. eigenvalues --    0.81763   0.81991   0.83059   0.83930   0.86191
 Alpha virt. eigenvalues --    0.87107   0.88041   0.88646   0.91462   0.92613
 Alpha virt. eigenvalues --    0.94085   0.94981   0.96195   1.00134   1.00492
 Alpha virt. eigenvalues --    1.03346   1.05470   1.06105   1.07065   1.08921
 Alpha virt. eigenvalues --    1.09593   1.12348   1.16416   1.18026   1.20446
 Alpha virt. eigenvalues --    1.23684   1.25084   1.27629   1.33053   1.35813
 Alpha virt. eigenvalues --    1.37929   1.40861   1.41306   1.42489   1.43065
 Alpha virt. eigenvalues --    1.45797   1.46747   1.48101   1.49710   1.51027
 Alpha virt. eigenvalues --    1.56164   1.62762   1.64069   1.67791   1.68623
 Alpha virt. eigenvalues --    1.71359   1.75931   1.77365   1.77566   1.78126
 Alpha virt. eigenvalues --    1.79038   1.83058   1.84911   1.85942   1.86047
 Alpha virt. eigenvalues --    1.87707   1.90833   1.92429   1.93774   1.94356
 Alpha virt. eigenvalues --    1.97593   1.98222   2.01847   2.04195   2.06572
 Alpha virt. eigenvalues --    2.09212   2.12577   2.13931   2.15938   2.19246
 Alpha virt. eigenvalues --    2.21613   2.25402   2.27152   2.27763   2.29436
 Alpha virt. eigenvalues --    2.33037   2.37254   2.40172   2.44940   2.47949
 Alpha virt. eigenvalues --    2.50368   2.54297   2.57556   2.59375   2.61764
 Alpha virt. eigenvalues --    2.65191   2.65909   2.67914   2.70905   2.72757
 Alpha virt. eigenvalues --    2.76598   2.80356   2.82959   2.87504   2.94661
 Alpha virt. eigenvalues --    2.98540   3.01566   3.08733   3.10266   3.24516
 Alpha virt. eigenvalues --    3.42310   3.89435   4.00615   4.06301   4.07437
 Alpha virt. eigenvalues --    4.10627   4.12941   4.21512   4.30524   4.39385
 Alpha virt. eigenvalues --    4.40031   4.43925   4.53877   4.76732
          Condensed to atoms (all electrons):
               1          2          3          4          5          6
     1  C    5.264655   0.356583   0.354816   0.363145   0.359666  -0.068366
     2  H    0.356583   0.502394  -0.023730  -0.019562  -0.018761   0.000560
     3  H    0.354816  -0.023730   0.513413  -0.021210  -0.021878   0.001458
     4  H    0.363145  -0.019562  -0.021210   0.495752  -0.023678   0.002218
     5  C    0.359666  -0.018761  -0.021878  -0.023678   4.322837   0.594317
     6  O   -0.068366   0.000560   0.001458   0.002218   0.594317   7.959137
     7  O   -0.095029   0.000940   0.003691   0.003265   0.191177  -0.077621
     8  C    0.003033  -0.000255   0.000097  -0.000058  -0.005031   0.002658
     9  C   -0.000326   0.000070  -0.000005   0.000002  -0.000974  -0.000680
    10  C   -0.000073  -0.000020   0.000003   0.000001   0.000173   0.000019
    11  O   -0.000297   0.000373  -0.000001   0.000000   0.000947  -0.000009
    12  H    0.000621   0.000739   0.000030   0.000009  -0.001557   0.000183
    13  O    0.000000   0.000000   0.000000   0.000000   0.000002   0.000000
    14  C    0.000005   0.000000   0.000000   0.000000   0.000032  -0.000011
    15  H    0.000000   0.000000   0.000000   0.000000  -0.000001   0.000000
    16  C    0.000000   0.000000   0.000000   0.000000   0.000020   0.000009
    17  H    0.000000   0.000000   0.000000   0.000000   0.000000   0.000000
    18  C    0.000001   0.000000  -0.000001   0.000000   0.000144  -0.000212
    19  H    0.000000   0.000000   0.000000   0.000000  -0.000015  -0.000005
    20  C    0.000357  -0.000007  -0.000010   0.000005  -0.003618   0.002798
    21  H   -0.000232   0.000004  -0.000008   0.000013   0.003720   0.002235
               7          8          9         10         11         12
     1  C   -0.095029   0.003033  -0.000326  -0.000073  -0.000297   0.000621
     2  H    0.000940  -0.000255   0.000070  -0.000020   0.000373   0.000739
     3  H    0.003691   0.000097  -0.000005   0.000003  -0.000001   0.000030
     4  H    0.003265  -0.000058   0.000002   0.000001   0.000000   0.000009
     5  C    0.191177  -0.005031  -0.000974   0.000173   0.000947  -0.001557
     6  O   -0.077621   0.002658  -0.000680   0.000019  -0.000009   0.000183
     7  O    8.464936   0.159947  -0.050364  -0.006121  -0.017713   0.042713
     8  C    0.159947   4.707198   0.476967  -0.037973  -0.005440  -0.005848
     9  C   -0.050364   0.476967   5.138731   0.248918  -0.085370   0.002495
    10  C   -0.006121  -0.037973   0.248918   4.398769   0.282719  -0.013679
    11  O   -0.017713  -0.005440  -0.085370   0.282719   8.285318   0.210998
    12  H    0.042713  -0.005848   0.002495  -0.013679   0.210998   0.329281
    13  O    0.000000   0.002327  -0.101358   0.592534  -0.081365   0.003764
    14  C    0.004322  -0.046517   0.499141  -0.034992   0.005198  -0.000455
    15  H   -0.000048   0.005030  -0.039973  -0.009081   0.000407  -0.000068
    16  C    0.000030  -0.039057  -0.030727   0.006224  -0.000043  -0.000020
    17  H    0.000002   0.000835   0.003508  -0.000108   0.000000   0.000000
    18  C    0.003779  -0.009752  -0.036455  -0.000256  -0.000006  -0.000017
    19  H   -0.000054   0.003732   0.000818   0.000008   0.000000   0.000000
    20  C   -0.048711   0.516492  -0.044280   0.004756  -0.000029   0.000757
    21  H   -0.006204  -0.035215   0.005331  -0.000070   0.000004  -0.000006
              13         14         15         16         17         18
     1  C    0.000000   0.000005   0.000000   0.000000   0.000000   0.000001
     2  H    0.000000   0.000000   0.000000   0.000000   0.000000   0.000000
     3  H    0.000000   0.000000   0.000000   0.000000   0.000000  -0.000001
     4  H    0.000000   0.000000   0.000000   0.000000   0.000000   0.000000
     5  C    0.000002   0.000032  -0.000001   0.000020   0.000000   0.000144
     6  O    0.000000  -0.000011   0.000000   0.000009   0.000000  -0.000212
     7  O    0.000000   0.004322  -0.000048   0.000030   0.000002   0.003779
     8  C    0.002327  -0.046517   0.005030  -0.039057   0.000835  -0.009752
     9  C   -0.101358   0.499141  -0.039973  -0.030727   0.003508  -0.036455
    10  C    0.592534  -0.034992  -0.009081   0.006224  -0.000108  -0.000256
    11  O   -0.081365   0.005198   0.000407  -0.000043   0.000000  -0.000006
    12  H    0.003764  -0.000455  -0.000068  -0.000020   0.000000  -0.000017
    13  O    8.018852   0.002356   0.018672   0.001145   0.000000  -0.000012
    14  C    0.002356   5.005873   0.354135   0.488178  -0.038069  -0.022335
    15  H    0.018672   0.354135   0.530299  -0.039163  -0.004648   0.004198
    16  C    0.001145   0.488178  -0.039163   4.910108   0.363010   0.527735
    17  H    0.000000  -0.038069  -0.004648   0.363010   0.572174  -0.042003
    18  C   -0.000012  -0.022335   0.004198   0.527735  -0.042003   4.870550
    19  H    0.000000   0.004089  -0.000161  -0.039921  -0.004894   0.359212
    20  C   -0.000065  -0.044655   0.000481  -0.030841   0.004426   0.520746
    21  H    0.000000   0.000500   0.000014   0.004380  -0.000156  -0.038825
              19         20         21
     1  C    0.000000   0.000357  -0.000232
     2  H    0.000000  -0.000007   0.000004
     3  H    0.000000  -0.000010  -0.000008
     4  H    0.000000   0.000005   0.000013
     5  C   -0.000015  -0.003618   0.003720
     6  O   -0.000005   0.002798   0.002235
     7  O   -0.000054  -0.048711  -0.006204
     8  C    0.003732   0.516492  -0.035215
     9  C    0.000818  -0.044280   0.005331
    10  C    0.000008   0.004756  -0.000070
    11  O    0.000000  -0.000029   0.000004
    12  H    0.000000   0.000757  -0.000006
    13  O    0.000000  -0.000065   0.000000
    14  C    0.004089  -0.044655   0.000500
    15  H   -0.000161   0.000481   0.000014
    16  C   -0.039921  -0.030841   0.004380
    17  H   -0.004894   0.004426  -0.000156
    18  C    0.359212   0.520746  -0.038825
    19  H    0.571810  -0.037387  -0.005348
    20  C   -0.037387   4.934154   0.352803
    21  H   -0.005348   0.352803   0.562015
 Mulliken charges:
               1
     1  C   -0.538558
     2  H    0.200672
     3  H    0.193335
     4  H    0.200097
     5  C    0.602479
     6  O   -0.418689
     7  O   -0.572936
     8  C    0.306829
     9  C    0.014533
    10  C    0.568248
    11  O   -0.595692
    12  H    0.430061
    13  O   -0.456851
    14  C   -0.176794
    15  H    0.179907
    16  C   -0.121066
    17  H    0.145924
    18  C   -0.136490
    19  H    0.148117
    20  C   -0.128172
    21  H    0.155045
 Sum of Mulliken charges =   0.00000
 Mulliken charges with hydrogens summed into heavy atoms:
               1
     1  C    0.055547
     5  C    0.602479
     6  O   -0.418689
     7  O   -0.572936
     8  C    0.306829
     9  C    0.014533
    10  C    0.568248
    11  O   -0.165631
    13  O   -0.456851
    14  C    0.003113
    16  C    0.024857
    18  C    0.011627
    20  C    0.026874
 Electronic spatial extent (au):  <R**2>=           2378.3281
 Charge=              0.0000 electrons
 Dipole moment (field-independent basis, Debye):
    X=              2.8594    Y=             -3.3129    Z=             -2.1510  Tot=              4.8764
 Quadrupole moment (field-independent basis, Debye-Ang):
   XX=            -63.5193   YY=            -80.8515   ZZ=            -76.0782
   XY=             13.2780   XZ=             -3.0463   YZ=              1.1747
 Traceless Quadrupole moment (field-independent basis, Debye-Ang):
   XX=              9.9637   YY=             -7.3685   ZZ=             -2.5952
   XY=             13.2780   XZ=             -3.0463   YZ=              1.1747
 Octapole moment (field-independent basis, Debye-Ang**2):
  XXX=             37.9079  YYY=            -41.7597  ZZZ=             -0.1017  XYY=             14.4201
  XXY=             -4.8711  XXZ=             -8.9902  XZZ=              4.8470  YZZ=             11.2616
  YYZ=             -8.5062  XYZ=              9.8084
 Hexadecapole moment (field-independent basis, Debye-Ang**3):
 XXXX=          -1562.4166 YYYY=          -1173.3428 ZZZZ=           -147.7366 XXXY=             62.2874
 XXXZ=            -19.9943 YYYX=             60.4460 YYYZ=             -0.2811 ZZZX=             -6.6117
 ZZZY=             -4.2397 XXYY=           -498.8224 XXZZ=           -330.6821 YYZZ=           -221.5353
 XXYZ=             -1.8327 YYXZ=              2.5484 ZZXY=             -5.0222
 N-N= 7.742499827602D+02 E-N=-3.062771241940D+03  KE= 6.428679588971D+02
 No NMR shielding tensors so no spin-rotation constants.
 Leave Link  601 at Mon Jan 25 16:23:37 2021, MaxMem=   262144000 cpu:         0.4
 (Enter /prod/apps/gaussian/g09d1/l9999.exe)
 1\1\GINC-PIRINEUS35\SP\RB3LYP\6-31G(d)\C9H8O4\UBAFAR01\25-Jan-2021\0\\
 #p b3lyp/6-31G(d)\\SET_328_BBB272_conf1.geo_195_315_180.n.pdb.xyz\\0,1
 \C,0,-0.904,2.716,-1.94\H,0,0.055,3.234,-1.846\H,0,-1.594,3.164,-1.221
 \H,0,-1.283,2.838,-2.952\C,0,-0.725,1.255,-1.654\O,0,-0.795,0.345,-2.4
 35\O,0,-0.447,1.066,-0.302\C,0,-0.251,-0.231,0.189\C,0,0.913,-0.499,0.
 927\C,0,2.022,0.471,1.217\O,0,1.827,1.773,0.94\H,0,0.936,1.913,0.559\O
 ,0,3.073,0.112,1.708\C,0,1.068,-1.788,1.457\H,0,1.973,-1.985,2.019\C,0
 ,0.103,-2.769,1.271\H,0,0.245,-3.757,1.694\C,0,-1.051,-2.472,0.542\H,0
 ,-1.816,-3.227,0.394\C,0,-1.23,-1.201,0.\H,0,-2.118,-0.959,-0.569\\Ver
 sion=AM64L-G09RevD.01\State=1-A\HF=-648.6896879\RMSD=7.869e-09\Dipole=
 -1.857658,0.1865362,-0.4415603\Quadrupole=-5.9505093,9.8493359,-3.8988
 267,-3.0185409,-3.8571594,-7.0606562\PG=C01 [X(C9H8O4)]\\@


 THOUGH I SPEAK WITH THE TONGUES OF MEN AND OF ANGELS, 
 AND HAVE NOT LOVE,
 I AM BECOME AS SOUNDING BRASS, A TINKLING CYMBAL.
 AND THOUGH I HAVE THE GIFT OF PROPHECY,
 AND UNDERSTAND ALL MYSTERIES, AND ALL KNOWLEDGE.
 AND THOUGH I HAVE ALL FAITH, SO THAT I COULD REMOVE MOUNTAINS,
 AND HAVE NOT LOVE, I AM NOTHING.
 AND THOUGH I BESTOW ALL MY GOODS TO FEED THE POOR,
 AND THOUGH I GIVE MY BODY TO BE BURNED,
 AND HAVE NOT LOVE IT PROFITETH ME NOTHING.
 LOVE SUFFERETH LONG, AND IS KIND,
 LOVE ENVIETH NOT,
 LOVE VAUNTETH NOT ITSELF, IS NOT PUFFED UP,
 DOTH NOT BEHAVE ITSELF UNSEEMLY, SEEKETH NOT HER OWN,
 IS NOT EASILY PROVOKED, THINKETH NO EVIL,
 REJOICETH NOT IN INIQUITY, BUT REJOICETH IN THE TRUTH,
 BEARETH ALL THINGS, BELIEVETH ALL THINGS,
 HOPETH ALL THINGS, ENDURETH ALL THINGS.
 LOVE NEVER FAILETH, BUT WHETHER THERE BE PROPHECIES, THEY SHALL FAIL, 
 WHETHER THERE BE TONGUES, THEY SHALL CEASE,
 WHETHER THERE BE KNOWLEDGE, IT SHALL VANISH AWAY.
 FOR WE KNOW IN PART, AND WE PROPHESY IN PART.
 BUT WHEN THAT WHICH IS PERFECT IS COME, THEN THAT WHICH IS IN PART 
 SHALL BE DONE AWAY. 
 WHEN I WAS A CHILD, I SPAKE AS A CHILD, I UNDERSTOOD AS A CHILD, 
 I THOUGHT AS A CHILD.
 BUT WHEN I BECAME A MAN, I PUT AWAY CHILDISH THINGS.
 FOR NOW WE SEE THROUGH A GLASS, DARKLY, BUT THEN FACE TO FACE.
 NOW I KNOW IN PART. BUT THEN SHALL I KNOW EVEN AS ALSO I AM KNOWN.
 AND NOW ABIDETH FAITH, HOPE AND LOVE, THESE THREE.
 BUT THE GREATEST OF THESE IS LOVE.

                     I CORINTHIANS 13
 Job cpu time:       0 days  0 hours  1 minutes  9.4 seconds.
 File lengths (MBytes):  RWF=     19 Int=      0 D2E=      0 Chk=      3 Scr=      1
 Normal termination of Gaussian 09 at Mon Jan 25 16:23:38 2021.
 Initial command:
 /prod/apps/gaussian/g09d1/l1.exe "/tmp/ubafar01/1643584/Gau-212135.inp" -scrdir="/tmp/ubafar01/1643584/"
 Entering Link 1 = /prod/apps/gaussian/g09d1/l1.exe PID=    212278.
  
 Copyright (c) 1988,1990,1992,1993,1995,1998,2003,2009,2013,
            Gaussian, Inc.  All Rights Reserved.
  
 This is part of the Gaussian(R) 09 program.  It is based on
 the Gaussian(R) 03 system (copyright 2003, Gaussian, Inc.),
 the Gaussian(R) 98 system (copyright 1998, Gaussian, Inc.),
 the Gaussian(R) 94 system (copyright 1995, Gaussian, Inc.),
 the Gaussian 92(TM) system (copyright 1992, Gaussian, Inc.),
 the Gaussian 90(TM) system (copyright 1990, Gaussian, Inc.),
 the Gaussian 88(TM) system (copyright 1988, Gaussian, Inc.),
 the Gaussian 86(TM) system (copyright 1986, Carnegie Mellon
 University), and the Gaussian 82(TM) system (copyright 1983,
 Carnegie Mellon University). Gaussian is a federally registered
 trademark of Gaussian, Inc.
  
 This software contains proprietary and confidential information,
 including trade secrets, belonging to Gaussian, Inc.
  
 This software is provided under written license and may be
 used, copied, transmitted, or stored only in accord with that
 written license.
  
 The following legend is applicable only to US Government
 contracts under FAR:
  
                    RESTRICTED RIGHTS LEGEND
  
 Use, reproduction and disclosure by the US Government is
 subject to restrictions as set forth in subparagraphs (a)
 and (c) of the Commercial Computer Software - Restricted
 Rights clause in FAR 52.227-19.
  
 Gaussian, Inc.
 340 Quinnipiac St., Bldg. 40, Wallingford CT 06492
  
  
 ---------------------------------------------------------------
 Warning -- This program may not be used in any manner that
 competes with the business of Gaussian, Inc. or will provide
 assistance to any competitor of Gaussian, Inc.  The licensee
 of this program is prohibited from giving any competitor of
 Gaussian, Inc. access to this program.  By using this program,
 the user acknowledges that Gaussian, Inc. is engaged in the
 business of creating and licensing software in the field of
 computational chemistry and represents and warrants to the
 licensee that it is not a competitor of Gaussian, Inc. and that
 it will not use this program in any manner prohibited above.
 ---------------------------------------------------------------
  

 Cite this work as:
 Gaussian 09, Revision D.01,
 M. J. Frisch, G. W. Trucks, H. B. Schlegel, G. E. Scuseria, 
 M. A. Robb, J. R. Cheeseman, G. Scalmani, V. Barone, B. Mennucci, 
 G. A. Petersson, H. Nakatsuji, M. Caricato, X. Li, H. P. Hratchian, 
 A. F. Izmaylov, J. Bloino, G. Zheng, J. L. Sonnenberg, M. Hada, 
 M. Ehara, K. Toyota, R. Fukuda, J. Hasegawa, M. Ishida, T. Nakajima, 
 Y. Honda, O. Kitao, H. Nakai, T. Vreven, J. A. Montgomery, Jr., 
 J. E. Peralta, F. Ogliaro, M. Bearpark, J. J. Heyd, E. Brothers, 
 K. N. Kudin, V. N. Staroverov, T. Keith, R. Kobayashi, J. Normand, 
 K. Raghavachari, A. Rendell, J. C. Burant, S. S. Iyengar, J. Tomasi, 
 M. Cossi, N. Rega, J. M. Millam, M. Klene, J. E. Knox, J. B. Cross, 
 V. Bakken, C. Adamo, J. Jaramillo, R. Gomperts, R. E. Stratmann, 
 O. Yazyev, A. J. Austin, R. Cammi, C. Pomelli, J. W. Ochterski, 
 R. L. Martin, K. Morokuma, V. G. Zakrzewski, G. A. Voth, 
 P. Salvador, J. J. Dannenberg, S. Dapprich, A. D. Daniels, 
 O. Farkas, J. B. Foresman, J. V. Ortiz, J. Cioslowski, 
 and D. J. Fox, Gaussian, Inc., Wallingford CT, 2013.
 
 ******************************************
 Gaussian 09:  AM64L-G09RevD.01 24-Apr-2013
                25-Jan-2021 
 ******************************************
 %nproc=1
 Will use up to    1 processors via shared memory.
 %Chk=SET_328_BBB272_conf1.geo_195_315_180.n.pdb.xyz.mst.n.o.chk
 %mem=2000MB
 %subst l301 /dades/curu/work_g09D01_MST_AddSphPartition_ReadGammas/exe-dir/
 %subst l502 /dades/curu/work_g09D01_MST_AddSphPartition_ReadGammas/exe-dir/
 ----------------------------------------------------------------------
 #p b3lyp/6-31G(d) scrf=(iefpcm,read,solvent=n-Octanol) geom=allcheck g
 uess=read
 ----------------------------------------------------------------------
 1/29=7,38=1,40=2/1;
 2/12=2,40=1/2;
 3/5=1,6=6,7=1,11=2,14=-4,16=1,25=1,30=1,70=2203,72=25,74=-5,116=-2/1,2,3;
 4/5=1/1;
 5/5=2,38=6,53=25/2;
 6/7=2,8=2,9=2,10=2,28=1/1;
 99/5=1,9=1/99;
 Leave Link    1 at Mon Jan 25 16:23:38 2021, MaxMem=   262144000 cpu:         0.0
 (Enter /prod/apps/gaussian/g09d1/l101.exe)
 Structure from the checkpoint file:  "SET_328_BBB272_conf1.geo_195_315_180.n.pdb.xyz.mst.n.o.chk"
 ----------------------------------------------
 SET_328_BBB272_conf1.geo_195_315_180.n.pdb.xyz
 ----------------------------------------------
 Charge =  0 Multiplicity = 1
 Z-Matrix found in file.
 C,0,-0.904,2.716,-1.94
 H,0,0.055,3.234,-1.846
 H,0,-1.594,3.164,-1.221
 H,0,-1.283,2.838,-2.952
 C,0,-0.725,1.255,-1.654
 O,0,-0.795,0.345,-2.435
 O,0,-0.447,1.066,-0.302
 C,0,-0.251,-0.231,0.189
 C,0,0.913,-0.499,0.927
 C,0,2.022,0.471,1.217
 O,0,1.827,1.773,0.94
 H,0,0.936,1.913,0.559
 O,0,3.073,0.112,1.708
 C,0,1.068,-1.788,1.457
 H,0,1.973,-1.985,2.019
 C,0,0.103,-2.769,1.271
 H,0,0.245,-3.757,1.694
 C,0,-1.051,-2.472,0.542
 H,0,-1.816,-3.227,0.394
 C,0,-1.23,-1.201,0.
 H,0,-2.118,-0.959,-0.569
 Recover connectivity data from disk.
 NAtoms=     21 NQM=       21 NQMF=       0 NMMI=      0 NMMIF=      0
                NMic=       0 NMicF=      0.
                    Isotopes and Nuclear Properties:
 (Nuclear quadrupole moments (NQMom) in fm**2, nuclear magnetic moments (NMagM)
  in nuclear magnetons)

  Atom         1           2           3           4           5           6           7           8           9          10
 IAtWgt=          12           1           1           1          12          16          16          12          12          12
 AtmWgt=  12.0000000   1.0078250   1.0078250   1.0078250  12.0000000  15.9949146  15.9949146  12.0000000  12.0000000  12.0000000
 NucSpn=           0           1           1           1           0           0           0           0           0           0
 AtZEff=  -3.6000000  -1.0000000  -1.0000000  -1.0000000  -3.6000000  -5.6000000  -5.6000000  -3.6000000  -3.6000000  -3.6000000
 NQMom=    0.0000000   0.0000000   0.0000000   0.0000000   0.0000000   0.0000000   0.0000000   0.0000000   0.0000000   0.0000000
 NMagM=    0.0000000   2.7928460   2.7928460   2.7928460   0.0000000   0.0000000   0.0000000   0.0000000   0.0000000   0.0000000
 AtZNuc=   6.0000000   1.0000000   1.0000000   1.0000000   6.0000000   8.0000000   8.0000000   6.0000000   6.0000000   6.0000000

  Atom        11          12          13          14          15          16          17          18          19          20
 IAtWgt=          16           1          16          12           1          12           1          12           1          12
 AtmWgt=  15.9949146   1.0078250  15.9949146  12.0000000   1.0078250  12.0000000   1.0078250  12.0000000   1.0078250  12.0000000
 NucSpn=           0           1           0           0           1           0           1           0           1           0
 AtZEff=  -5.6000000  -1.0000000  -5.6000000  -3.6000000  -1.0000000  -3.6000000  -1.0000000  -3.6000000  -1.0000000  -3.6000000
 NQMom=    0.0000000   0.0000000   0.0000000   0.0000000   0.0000000   0.0000000   0.0000000   0.0000000   0.0000000   0.0000000
 NMagM=    0.0000000   2.7928460   0.0000000   0.0000000   2.7928460   0.0000000   2.7928460   0.0000000   2.7928460   0.0000000
 AtZNuc=   8.0000000   1.0000000   8.0000000   6.0000000   1.0000000   6.0000000   1.0000000   6.0000000   1.0000000   6.0000000

  Atom        21
 IAtWgt=           1
 AtmWgt=   1.0078250
 NucSpn=           1
 AtZEff=  -1.0000000
 NQMom=    0.0000000
 NMagM=    2.7928460
 AtZNuc=   1.0000000
 Leave Link  101 at Mon Jan 25 16:23:38 2021, MaxMem=   262144000 cpu:         0.1
 (Enter /prod/apps/gaussian/g09d1/l202.exe)
                          Input orientation:                          
 ---------------------------------------------------------------------
 Center     Atomic      Atomic             Coordinates (Angstroms)
 Number     Number       Type             X           Y           Z
 ---------------------------------------------------------------------
      1          6           0       -0.904000    2.716000   -1.940000
      2          1           0        0.055000    3.234000   -1.846000
      3          1           0       -1.594000    3.164000   -1.221000
      4          1           0       -1.283000    2.838000   -2.952000
      5          6           0       -0.725000    1.255000   -1.654000
      6          8           0       -0.795000    0.345000   -2.435000
      7          8           0       -0.447000    1.066000   -0.302000
      8          6           0       -0.251000   -0.231000    0.189000
      9          6           0        0.913000   -0.499000    0.927000
     10          6           0        2.022000    0.471000    1.217000
     11          8           0        1.827000    1.773000    0.940000
     12          1           0        0.936000    1.913000    0.559000
     13          8           0        3.073000    0.112000    1.708000
     14          6           0        1.068000   -1.788000    1.457000
     15          1           0        1.973000   -1.985000    2.019000
     16          6           0        0.103000   -2.769000    1.271000
     17          1           0        0.245000   -3.757000    1.694000
     18          6           0       -1.051000   -2.472000    0.542000
     19          1           0       -1.816000   -3.227000    0.394000
     20          6           0       -1.230000   -1.201000    0.000000
     21          1           0       -2.118000   -0.959000   -0.569000
 ---------------------------------------------------------------------
                    Distance matrix (angstroms):
                    1          2          3          4          5
     1  C    0.000000
     2  H    1.094002   0.000000
     3  H    1.092596   1.764859   0.000000
     4  H    1.087506   1.780533   1.788675   0.000000
     5  C    1.499453   2.135815   2.141712   2.121805   0.000000
     6  O    2.424572   3.068508   3.171586   2.592389   1.201233
     7  O    2.369471   2.708535   2.561596   3.295661   1.393165
     8  C    3.693759   4.030023   3.913793   4.511060   2.414440
     9  C    4.675190   4.728740   4.931179   5.568180   3.524361
    10  C    4.854704   4.570036   5.125578   5.822909   4.050100
    11  O    4.079462   3.610582   4.278790   5.094506   3.675577
    12  H    3.205528   2.881879   3.336810   4.255198   2.844161
    13  O    5.992099   5.611250   6.298780   6.936960   5.199452
    14  C    5.976153   6.095610   6.227378   6.809285   4.706699
    15  H    6.786031   6.771625   7.052183   7.653346   5.591756
    16  C    6.435044   6.764170   6.655100   7.154941   5.043192
    17  H    7.511717   7.838481   7.731713   8.210611   6.104928
    18  C    5.753023   6.283647   5.930220   6.360657   4.338113
    19  H    6.449694   7.089624   6.595634   6.947232   5.047069
    20  C    4.383237   4.972742   4.547149   5.003062   3.003777
    21  H    4.105979   4.892229   4.206995   4.559948   2.831867
                    6          7          8          9         10
     6  O    0.000000
     7  O    2.278296   0.000000
     8  C    2.741001   1.400609   0.000000
     9  C    3.864278   2.410242   1.404053   0.000000
    10  C    4.613943   2.959282   2.591547   1.501626   0.000000
    11  O    4.506073   2.685794   2.982968   2.448989   1.345347
    12  H    3.797239   1.836142   2.478428   2.440020   1.921386
    13  O    5.672756   4.164207   3.670693   2.376738   1.214316
    14  C    4.813328   3.678943   2.402464   1.402300   2.463899
    15  H    5.738366   4.533436   3.372179   2.127031   2.584094
    16  C    4.923194   4.181394   2.781633   2.434612   3.766043
    17  H    5.912414   5.265378   3.865710   3.413074   4.610991
    18  C    4.106526   3.687085   2.405554   2.810383   4.308155
    19  H    4.669568   4.559433   3.386335   3.895319   5.392845
    20  C    2.916945   2.417350   1.391065   2.438151   3.853852
    21  H    2.633002   2.638969   2.142484   3.411243   4.730148
                   11         12         13         14         15
    11  O    0.000000
    12  H    0.979103   0.000000
    13  O    2.213879   3.021683   0.000000
    14  C    3.677512   3.810673   2.773630   0.000000
    15  H    3.912559   4.289682   2.388332   1.083364   0.000000
    16  C    4.869446   4.808530   4.160773   1.388590   2.161264
    17  H    5.801046   5.823625   4.792384   2.147198   2.496316
    18  C    5.144056   4.814217   5.004397   2.407331   3.400481
    19  H    6.210440   5.832695   6.064473   3.393839   4.305776
    20  C    4.367325   3.834193   4.812176   2.783563   3.866552
    21  H    5.030301   4.341392   5.768730   3.865555   4.948404
                   16         17         18         19         20
    16  C    0.000000
    17  H    1.084083   0.000000
    18  C    1.396913   2.158227   0.000000
    19  H    2.159040   2.493716   1.084967   0.000000
    20  C    2.418875   3.402704   1.393286   2.145532   0.000000
    21  H    3.405076   4.305083   2.159162   2.482418   1.082067
                   21
    21  H    0.000000
 Stoichiometry    C9H8O4
 Framework group  C1[X(C9H8O4)]
 Deg. of freedom    57
 Full point group                 C1      NOp   1
 RotChk:  IX=0 Diff= 1.33D-15
 Largest Abelian subgroup         C1      NOp   1
 Largest concise Abelian subgroup C1      NOp   1
                         Standard orientation:                         
 ---------------------------------------------------------------------
 Center     Atomic      Atomic             Coordinates (Angstroms)
 Number     Number       Type             X           Y           Z
 ---------------------------------------------------------------------
      1          6           0        3.557062    0.444845   -0.194564
      2          1           0        3.468029    1.489367    0.118308
      3          1           0        3.655752    0.432543   -1.282624
      4          1           0        4.436152    0.002583    0.268334
      5          6           0        2.339442   -0.320490    0.229726
      6          8           0        2.269278   -1.166796    1.079317
      7          8           0        1.236006    0.091503   -0.514316
      8          6           0       -0.012070   -0.502058   -0.286942
      9          6           0       -1.114031    0.330896   -0.035483
     10          6           0       -1.089012    1.829139    0.062101
     11          8           0        0.024054    2.480497   -0.321010
     12          1           0        0.706043    1.846145   -0.622889
     13          8           0       -2.048204    2.459945    0.457824
     14          6           0       -2.366131   -0.276617    0.136618
     15          1           0       -3.207797    0.375535    0.336553
     16          6           0       -2.521041   -1.654004    0.053010
     17          1           0       -3.500517   -2.099016    0.186530
     18          6           0       -1.409603   -2.458480   -0.209458
     19          1           0       -1.517082   -3.535569   -0.283492
     20          6           0       -0.152380   -1.882855   -0.380612
     21          1           0        0.716930   -2.495037   -0.581614
 ---------------------------------------------------------------------
 Rotational constants (GHZ):      1.0594595      0.7260156      0.4582770
 Leave Link  202 at Mon Jan 25 16:23:38 2021, MaxMem=   262144000 cpu:         0.0
 (Enter /dades/curu/work_g09D01_MST_AddSphPartition_ReadGammas/exe-dir/l301.exe)
 Standard basis: 6-31G(d) (6D, 7F)
 Ernie: Thresh=  0.10000D-02 Tol=  0.10000D-05 Strict=F.
 There are   211 symmetry adapted cartesian basis functions of A   symmetry.
 There are   211 symmetry adapted basis functions of A   symmetry.
   211 basis functions,   396 primitive gaussians,   211 cartesian basis functions
    47 alpha electrons       47 beta electrons
       nuclear repulsion energy       774.2499827602 Hartrees.
 IExCor=  402 DFT=T Ex+Corr=B3LYP ExCW=0 ScaHFX=  0.200000
 ScaDFX=  0.800000  0.720000  1.000000  0.810000 ScalE2=  1.000000  1.000000
 IRadAn=      0 IRanWt=     -1 IRanGd=            0 ICorTp=0 IEmpDi=  4
 NAtoms=   21 NActive=   21 NUniq=   21 SFac= 1.00D+00 NAtFMM=   60 NAOKFM=F Big=F
 Integral buffers will be    131072 words long.
 Raffenetti 2 integral format.
 Two-electron integral symmetry is turned on.
 Using the following non-standard input for PCM:
 MSTModel=DFT cav g03defaults OFac=0.8 Rmin=0.3
 Warning! Using old PCM defaults because the g03defaults keyword was found.
 These settings can be overridden by following keywords.
 --- end of non-standard input.
 MST model for solvation energy: B3LYP parametrization.
 MST cavity parameters:
 ISph   IAn     Re0     Alpha   Atom Type   QCorr
 ------------------------------------------------
   1      6     1.50     1.50      CH3        F
   2      1     1.20     1.50      CH3        F
   3      1     1.20     1.50      CH3        F
   4      1     1.20     1.50      CH3        F
   5      6     1.50     1.50      C          F
   6      8     1.40     1.50      O          F
   7      8     1.40     1.50      O          F
   8      6     1.50     1.50      C          F
   9      6     1.50     1.50      C          F
  10      6     1.50     1.50      C          F
  11      8     1.40     1.50      OH         F
  12      1     0.90     1.50      OH         F
  13      8     1.40     1.50      O          F
  14      6     1.50     1.50      CH         F
  15      1     1.20     1.50      CH         F
  16      6     1.50     1.50      CH         F
  17      1     1.20     1.50      CH         F
  18      6     1.50     1.50      CH         F
  19      1     1.20     1.50      CH         F
  20      6     1.50     1.50      CH         F
  21      1     1.20     1.50      CH         F
 ------------------------------------------------------------------------------
 Polarizable Continuum Model (PCM)
 =================================
 Model                : PCM (using non-symmetric T matrix).
 Atomic radii         : MST.
 Polarization charges : Total charges.
 Charge compensation  : None.
 Solution method      : On-the-fly selection.
 Cavity type          : Scaled SES (Solvent Excluding Surface) (Alpha=1.500).
 Cavity algorithm     : GePol (RMin=0.300 OFac=0.800).
                        Default sphere list used, NSphG=   21.
                        Tesserae with average area of 0.200 Ang**2.
                        Smoothing algorithm: None.
                        Polarization charges: point-like.
                        Self-potential: constant (ISelfS= 1).
                        Self-field    : global E.n sum rule (ISelfD= 3).
 Solvent              : n-Octanol, Eps=   9.862900 Eps(inf)=   2.043470
                        RSolv=   3.420000 Ang.
 ------------------------------------------------------------------------------
 GePol: Number of generator spheres                  =      21
 GePol: Total number of spheres                      =      35
 GePol: Number of exposed spheres                    =      32 ( 91.43%)
 GePol: Number of tesserae                           =    1862
 GePol: Average area of tesserae                     =       0.14 Ang**2
 GePol: Minimum area of tessera                      =   0.10D-02 Ang**2
 GePol: Maximum area of tessera                      =    0.26651 Ang**2
 GePol: Number of small tesserae                     =      18
 GePol: Fraction of small tesserae (<1% of avg)      =       0.97%
 GePol: Total count of vertices                      =    6386
 GePol: Maximum number of vertices in a tessera      =       6
 GePol: Cavity surface area                          =    253.353 Ang**2
 GePol: Cavity volume                                =    287.224 Ang**3
 Surface areas from nonelectrostatic (unscaled) cavity:
 Sphere =    1 Type = CH3  Surf =        4.631
 Sphere =    2 Type = CH3  Surf =       10.352
 Sphere =    3 Type = CH3  Surf =       10.352
 Sphere =    4 Type = CH3  Surf =       10.295
 Sphere =    5 Type = C    Surf =        7.205
 Sphere =    6 Type = O    Surf =       16.352
 Sphere =    7 Type = O    Surf =        9.030
 Sphere =    8 Type = C    Surf =        6.263
 Sphere =    9 Type = C    Surf =        6.431
 Sphere =   10 Type = C    Surf =        7.070
 Sphere =   11 Type = OH   Surf =       14.437
 Sphere =   12 Type = OH   Surf =        2.870
 Sphere =   13 Type = O    Surf =       15.815
 Sphere =   14 Type = CH   Surf =        7.583
 Sphere =   15 Type = CH   Surf =        9.538
 Sphere =   16 Type = CH   Surf =        7.722
 Sphere =   17 Type = CH   Surf =       10.318
 Sphere =   18 Type = CH   Surf =        7.724
 Sphere =   19 Type = CH   Surf =       10.324
 Sphere =   20 Type = CH   Surf =        7.717
 Sphere =   21 Type = CH   Surf =       10.305
 PCM non-electrostatic energy =        -0.0105682820 Hartrees.
 Nuclear repulsion after PCM non-electrostatic terms =      774.2394144782 Hartrees.
 Leave Link  301 at Mon Jan 25 16:23:38 2021, MaxMem=   262144000 cpu:         0.1
 (Enter /prod/apps/gaussian/g09d1/l302.exe)
 NPDir=0 NMtPBC=     1 NCelOv=     1 NCel=       1 NClECP=     1 NCelD=      1
         NCelK=      1 NCelE2=     1 NClLst=     1 CellRange=     0.0.
 One-electron integrals computed using PRISM.
 NBasis=   211 RedAO= T EigKep=  3.94D-04  NBF=   211
 NBsUse=   211 1.00D-06 EigRej= -1.00D+00 NBFU=   211
 Precomputing XC quadrature grid using
 IXCGrd= 4 IRadAn=           0 IRanWt=          -1 IRanGd=           0 AccXCQ= 0.00D+00.
 Generated NRdTot=       0 NPtTot=           0 NUsed=           0 NTot=          32
 NSgBfM=   210   210   210   210   210 MxSgAt=    21 MxSgA2=    21.
 Leave Link  302 at Mon Jan 25 16:23:38 2021, MaxMem=   262144000 cpu:         0.5
 (Enter /prod/apps/gaussian/g09d1/l303.exe)
 DipDrv:  MaxL=1.
 Leave Link  303 at Mon Jan 25 16:23:38 2021, MaxMem=   262144000 cpu:         0.1
 (Enter /prod/apps/gaussian/g09d1/l401.exe)
 Initial guess from the checkpoint file:  "SET_328_BBB272_conf1.geo_195_315_180.n.pdb.xyz.mst.n.o.chk"
 B after Tr=     0.000000    0.000000    0.000000
         Rot=    1.000000    0.000000    0.000000    0.000000 Ang=   0.00 deg.
 Guess basis will be translated and rotated to current coordinates.
 JPrj=2 DoOrth=T DoCkMO=T.
 Leave Link  401 at Mon Jan 25 16:23:39 2021, MaxMem=   262144000 cpu:         0.3
 (Enter /dades/curu/work_g09D01_MST_AddSphPartition_ReadGammas/exe-dir/l502.exe)
 Closed shell SCF:
 Using DIIS extrapolation, IDIIS=  1040.
 Integral symmetry usage will be decided dynamically.
 Keep R1 ints in memory in canonical form, NReq=257208730.
 IVT=      154966 IEndB=      154966 NGot=   262144000 MDV=    11858874
 LenX=    11858874 LenY=    11813912
 Requested convergence on RMS density matrix=1.00D-08 within 128 cycles.
 Requested convergence on MAX density matrix=1.00D-06.
 Requested convergence on             energy=1.00D-06.
 No special actions if energy rises.
 FoFCou: FMM=F IPFlag=           0 FMFlag=           0 FMFlg1=           0
         NFxFlg=           0 DoJE=F BraDBF=F KetDBF=F FulRan=T
         wScrn=  0.000000 ICntrl=     600 IOpCl=  0 I1Cent=           0 NGrid=           0
         NMat0=    1 NMatS0=  22366 NMatT0=    0 NMatD0=    1 NMtDS0=    0 NMtDT0=    0
 Symmetry not used in FoFCou.

 Cycle   1  Pass 1  IDiag  1:
 Inv3:  Mode=2 IEnd=     6934088.
 Iteration    1 A*A^-1 deviation from unit magnitude is 8.22D-15 for   1464.
 Iteration    1 A*A^-1 deviation from orthogonality  is 5.81D-15 for    304    291.
 Iteration    1 A^-1*A deviation from unit magnitude is 7.33D-15 for   1856.
 Iteration    1 A^-1*A deviation from orthogonality  is 4.68D-15 for    438    304.
 E= -648.708169316743    
 DIIS: error= 1.22D-03 at cycle   1 NSaved=   1.
 NSaved= 1 IEnMin= 1 EnMin= -648.708169316743     IErMin= 1 ErrMin= 1.22D-03
 ErrMax= 1.22D-03  0.00D+00 EMaxC= 1.00D-01 BMatC= 3.61D-04 BMatP= 3.61D-04
 IDIUse=3 WtCom= 9.88D-01 WtEn= 1.22D-02
 Coeff-Com:  0.100D+01
 Coeff-En:   0.100D+01
 Coeff:      0.100D+01
 Gap=     0.206 Goal=   None    Shift=    0.000
 GapD=    0.206 DampG=1.000 DampE=1.000 DampFc=1.0000 IDamp=-1.
 RMSDP=4.00D-04 MaxDP=7.27D-03              OVMax= 1.89D-02

 Cycle   2  Pass 1  IDiag  1:
 E= -648.708482168053     Delta-E=       -0.000312851311 Rises=F Damp=F
 DIIS: error= 1.55D-03 at cycle   2 NSaved=   2.
 NSaved= 2 IEnMin= 2 EnMin= -648.708482168053     IErMin= 1 ErrMin= 1.22D-03
 ErrMax= 1.55D-03  0.00D+00 EMaxC= 1.00D-01 BMatC= 6.35D-04 BMatP= 3.61D-04
 IDIUse=3 WtCom= 2.03D-01 WtEn= 7.97D-01
 Coeff-Com:  0.597D+00 0.403D+00
 Coeff-En:   0.318D+00 0.682D+00
 Coeff:      0.374D+00 0.626D+00
 Gap=     0.208 Goal=   None    Shift=    0.000
 RMSDP=2.18D-04 MaxDP=8.61D-03 DE=-3.13D-04 OVMax= 1.16D-02

 Cycle   3  Pass 1  IDiag  1:
 E= -648.708562505814     Delta-E=       -0.000080337760 Rises=F Damp=F
 DIIS: error= 1.36D-03 at cycle   3 NSaved=   3.
 NSaved= 3 IEnMin= 3 EnMin= -648.708562505814     IErMin= 1 ErrMin= 1.22D-03
 ErrMax= 1.36D-03  0.00D+00 EMaxC= 1.00D-01 BMatC= 6.07D-04 BMatP= 3.61D-04
 IDIUse=3 WtCom= 2.13D-01 WtEn= 7.87D-01
 Coeff-Com:  0.123D+00 0.451D+00 0.426D+00
 Coeff-En:   0.000D+00 0.469D+00 0.531D+00
 Coeff:      0.261D-01 0.465D+00 0.508D+00
 Gap=     0.207 Goal=   None    Shift=    0.000
 RMSDP=1.01D-04 MaxDP=4.43D-03 DE=-8.03D-05 OVMax= 6.42D-03

 Cycle   4  Pass 1  IDiag  1:
 E= -648.709005003384     Delta-E=       -0.000442497570 Rises=F Damp=F
 DIIS: error= 1.68D-04 at cycle   4 NSaved=   4.
 NSaved= 4 IEnMin= 4 EnMin= -648.709005003384     IErMin= 4 ErrMin= 1.68D-04
 ErrMax= 1.68D-04  0.00D+00 EMaxC= 1.00D-01 BMatC= 2.01D-05 BMatP= 3.61D-04
 IDIUse=3 WtCom= 9.98D-01 WtEn= 1.68D-03
 Coeff-Com:  0.297D-01 0.225D+00 0.271D+00 0.474D+00
 Coeff-En:   0.000D+00 0.000D+00 0.000D+00 0.100D+01
 Coeff:      0.297D-01 0.225D+00 0.270D+00 0.475D+00
 Gap=     0.207 Goal=   None    Shift=    0.000
 RMSDP=2.18D-05 MaxDP=6.23D-04 DE=-4.42D-04 OVMax= 1.28D-03

 Cycle   5  Pass 1  IDiag  1:
 E= -648.709020189500     Delta-E=       -0.000015186116 Rises=F Damp=F
 DIIS: error= 6.56D-05 at cycle   5 NSaved=   5.
 NSaved= 5 IEnMin= 5 EnMin= -648.709020189500     IErMin= 5 ErrMin= 6.56D-05
 ErrMax= 6.56D-05  0.00D+00 EMaxC= 1.00D-01 BMatC= 1.22D-06 BMatP= 2.01D-05
 IDIUse=1 WtCom= 1.00D+00 WtEn= 0.00D+00
 Coeff-Com:  0.191D-03 0.700D-01 0.988D-01 0.271D+00 0.560D+00
 Coeff:      0.191D-03 0.700D-01 0.988D-01 0.271D+00 0.560D+00
 Gap=     0.207 Goal=   None    Shift=    0.000
 RMSDP=6.48D-06 MaxDP=1.92D-04 DE=-1.52D-05 OVMax= 5.07D-04

 Cycle   6  Pass 1  IDiag  1:
 E= -648.709021315130     Delta-E=       -0.000001125630 Rises=F Damp=F
 DIIS: error= 1.95D-05 at cycle   6 NSaved=   6.
 NSaved= 6 IEnMin= 6 EnMin= -648.709021315130     IErMin= 6 ErrMin= 1.95D-05
 ErrMax= 1.95D-05  0.00D+00 EMaxC= 1.00D-01 BMatC= 1.07D-07 BMatP= 1.22D-06
 IDIUse=1 WtCom= 1.00D+00 WtEn= 0.00D+00
 Coeff-Com: -0.233D-02 0.147D-01 0.239D-01 0.945D-01 0.298D+00 0.572D+00
 Coeff:     -0.233D-02 0.147D-01 0.239D-01 0.945D-01 0.298D+00 0.572D+00
 Gap=     0.207 Goal=   None    Shift=    0.000
 RMSDP=1.79D-06 MaxDP=5.78D-05 DE=-1.13D-06 OVMax= 1.19D-04

 Cycle   7  Pass 1  IDiag  1:
 E= -648.709021410761     Delta-E=       -0.000000095631 Rises=F Damp=F
 DIIS: error= 6.32D-06 at cycle   7 NSaved=   7.
 NSaved= 7 IEnMin= 7 EnMin= -648.709021410761     IErMin= 7 ErrMin= 6.32D-06
 ErrMax= 6.32D-06  0.00D+00 EMaxC= 1.00D-01 BMatC= 1.46D-08 BMatP= 1.07D-07
 IDIUse=1 WtCom= 1.00D+00 WtEn= 0.00D+00
 Coeff-Com: -0.112D-02 0.220D-02 0.408D-02 0.256D-01 0.111D+00 0.328D+00
 Coeff-Com:  0.531D+00
 Coeff:     -0.112D-02 0.220D-02 0.408D-02 0.256D-01 0.111D+00 0.328D+00
 Coeff:      0.531D+00
 Gap=     0.207 Goal=   None    Shift=    0.000
 RMSDP=5.57D-07 MaxDP=2.62D-05 DE=-9.56D-08 OVMax= 3.17D-05

 Cycle   8  Pass 1  IDiag  1:
 E= -648.709021420983     Delta-E=       -0.000000010222 Rises=F Damp=F
 DIIS: error= 2.16D-06 at cycle   8 NSaved=   8.
 NSaved= 8 IEnMin= 8 EnMin= -648.709021420983     IErMin= 8 ErrMin= 2.16D-06
 ErrMax= 2.16D-06  0.00D+00 EMaxC= 1.00D-01 BMatC= 1.41D-09 BMatP= 1.46D-08
 IDIUse=1 WtCom= 1.00D+00 WtEn= 0.00D+00
 Coeff-Com: -0.244D-03-0.365D-03-0.415D-03 0.285D-02 0.251D-01 0.116D+00
 Coeff-Com:  0.293D+00 0.564D+00
 Coeff:     -0.244D-03-0.365D-03-0.415D-03 0.285D-02 0.251D-01 0.116D+00
 Coeff:      0.293D+00 0.564D+00
 Gap=     0.207 Goal=   None    Shift=    0.000
 RMSDP=1.97D-07 MaxDP=7.83D-06 DE=-1.02D-08 OVMax= 1.28D-05

 Cycle   9  Pass 1  IDiag  1:
 E= -648.709021421981     Delta-E=       -0.000000000998 Rises=F Damp=F
 DIIS: error= 8.47D-07 at cycle   9 NSaved=   9.
 NSaved= 9 IEnMin= 9 EnMin= -648.709021421981     IErMin= 9 ErrMin= 8.47D-07
 ErrMax= 8.47D-07  0.00D+00 EMaxC= 1.00D-01 BMatC= 2.12D-10 BMatP= 1.41D-09
 IDIUse=1 WtCom= 1.00D+00 WtEn= 0.00D+00
 Coeff-Com: -0.708D-04-0.471D-03-0.587D-03-0.463D-03 0.538D-02 0.430D-01
 Coeff-Com:  0.132D+00 0.345D+00 0.476D+00
 Coeff:     -0.708D-04-0.471D-03-0.587D-03-0.463D-03 0.538D-02 0.430D-01
 Coeff:      0.132D+00 0.345D+00 0.476D+00
 Gap=     0.207 Goal=   None    Shift=    0.000
 RMSDP=7.11D-08 MaxDP=2.32D-06 DE=-9.98D-10 OVMax= 3.02D-06

 Cycle  10  Pass 1  IDiag  1:
 E= -648.709021422142     Delta-E=       -0.000000000161 Rises=F Damp=F
 DIIS: error= 2.49D-07 at cycle  10 NSaved=  10.
 NSaved=10 IEnMin=10 EnMin= -648.709021422142     IErMin=10 ErrMin= 2.49D-07
 ErrMax= 2.49D-07  0.00D+00 EMaxC= 1.00D-01 BMatC= 1.74D-11 BMatP= 2.12D-10
 IDIUse=1 WtCom= 1.00D+00 WtEn= 0.00D+00
 Coeff-Com:  0.130D-05-0.183D-03-0.183D-03-0.646D-03-0.140D-02 0.421D-02
 Coeff-Com:  0.206D-01 0.898D-01 0.241D+00 0.647D+00
 Coeff:      0.130D-05-0.183D-03-0.183D-03-0.646D-03-0.140D-02 0.421D-02
 Coeff:      0.206D-01 0.898D-01 0.241D+00 0.647D+00
 Gap=     0.207 Goal=   None    Shift=    0.000
 RMSDP=2.39D-08 MaxDP=7.23D-07 DE=-1.61D-10 OVMax= 1.12D-06

 Cycle  11  Pass 1  IDiag  1:
 E= -648.709021422165     Delta-E=       -0.000000000023 Rises=F Damp=F
 DIIS: error= 8.54D-08 at cycle  11 NSaved=  11.
 NSaved=11 IEnMin=11 EnMin= -648.709021422165     IErMin=11 ErrMin= 8.54D-08
 ErrMax= 8.54D-08  0.00D+00 EMaxC= 1.00D-01 BMatC= 1.75D-12 BMatP= 1.74D-11
 IDIUse=1 WtCom= 1.00D+00 WtEn= 0.00D+00
 Coeff-Com:  0.600D-05-0.577D-04-0.357D-04-0.268D-03-0.117D-02-0.156D-02
 Coeff-Com: -0.116D-02 0.137D-01 0.671D-01 0.315D+00 0.608D+00
 Coeff:      0.600D-05-0.577D-04-0.357D-04-0.268D-03-0.117D-02-0.156D-02
 Coeff:     -0.116D-02 0.137D-01 0.671D-01 0.315D+00 0.608D+00
 Gap=     0.207 Goal=   None    Shift=    0.000
 RMSDP=6.74D-09 MaxDP=2.19D-07 DE=-2.27D-11 OVMax= 4.44D-07

 Error on total polarization charges =  0.00218
 SCF Done:  E(RB3LYP) =  -648.709021422     A.U. after   11 cycles
            NFock= 11  Conv=0.67D-08     -V/T= 2.0091
 KE= 6.428672345867D+02 PE=-3.062866448346D+03 EE= 9.970507778595D+02
 --------------------------------------------------------------------
 Variational PCM results
 =======================
 <psi(f)|   H    |psi(f)>                     (a.u.) =    -648.688708
 <psi(f)|H+V(f)/2|psi(f)>                     (a.u.) =    -648.698453
 Total free energy in solution:
 - with all non electrostatic terms           (a.u.) =    -648.709021
 --------------------------------------------------------------------
 (Polarized solute)-Solvent               (kcal/mol) =      -6.12
 --------------------------------------------------------------------
 Cavitation energy                        (kcal/mol) =      31.05
 MST dispersion + repulsion energy        (kcal/mol) =     -37.68
 Total non electrostatic                  (kcal/mol) =      -6.63
 --------------------------------------------------------------------
 Partition over spheres:
 Sphere  on Atom  Surface  Charge   GEl     GCav    GDR
    1      C1       6.29  -0.015   -0.13    0.69   -0.85
    2      H2      13.09  -0.041   -0.32    1.80   -1.89
    3      H3      14.44  -0.039   -0.38    1.80   -1.89
    4      H4      13.76  -0.032   -0.22    1.79   -1.88
    5      C5       4.14  -0.017   -0.14    1.08   -1.48
    6      O6      20.80   0.090   -0.60    2.55   -3.03
    7      O7       4.25   0.002    0.01    1.41   -1.67
    8      C8       2.77  -0.001   -0.01    0.94   -1.28
    9      C9       4.16  -0.001   -0.01    0.96   -1.32
   10      C10      6.10  -0.007   -0.01    1.06   -1.45
   11      O11     21.23   0.062   -0.79    2.25   -3.44
   12      H12      0.00   0.000    0.00    0.63   -0.68
   13      O13     25.13   0.146   -2.28    2.47   -2.93
   14      C14      8.57   0.005   -0.02    1.13   -1.48
   15      H15     11.54  -0.018    0.00    1.66   -1.86
   16      C16     10.08   0.008   -0.02    1.15   -1.51
   17      H17     16.59  -0.037   -0.18    1.79   -2.01
   18      C18     10.04   0.004   -0.02    1.15   -1.51
   19      H19     16.56  -0.041   -0.28    1.79   -2.01
   20      C20      6.19   0.003   -0.01    1.15   -1.50
   21      H21     12.25  -0.030   -0.21    1.79   -2.01
 Added spheres:    25.37  -0.041   -0.50    0.00    0.00
 --------------------------------------------------------------------
 Partition over spheres of the perturbative electrostatic energy:
(Contribution of added spheres asigned to closest sphere)
 Sphere  on Atom  Surface  Charge   GElSph
    1      C1       6.29  -0.015   -0.11
    2      H2      13.09  -0.041   -0.38
    3      H3      14.44  -0.039   -0.37
    4      H4      13.76  -0.032   -0.21
    5      C5       4.14  -0.017   -0.14
    6      O6      20.80   0.090   -0.59
    7      O7       4.25   0.002    0.00
    8      C8       2.77  -0.001   -0.01
    9      C9       4.16  -0.001   -0.01
   10      C10      6.10  -0.007   -0.01
   11      O11     21.23   0.062   -0.72
   12      H12      0.00   0.000   -0.20
   13      O13     25.13   0.146   -2.00
   14      C14      8.57   0.005   -0.02
   15      H15     11.54  -0.018   -0.04
   16      C16     10.08   0.008   -0.03
   17      H17     16.59  -0.037   -0.17
   18      C18     10.04   0.004   -0.02
   19      H19     16.56  -0.041   -0.24
   20      C20      6.19   0.003   -0.03
   21      H21     12.25  -0.030   -0.21
 Added spheres:    25.37  -0.041    0.00
 --------------------------------------------------------------------
 After PCM corrections, the energy is  -648.709021422     a.u.
 --------------------------------------------------------------------
 Leave Link  502 at Mon Jan 25 16:24:41 2021, MaxMem=   262144000 cpu:        62.7
 (Enter /prod/apps/gaussian/g09d1/l601.exe)
 Copying SCF densities to generalized density rwf, IOpCl= 0 IROHF=0.

 **********************************************************************

            Population analysis using the SCF density.

 **********************************************************************

 Orbital symmetries:
       Occupied  (A) (A) (A) (A) (A) (A) (A) (A) (A) (A) (A) (A)
                 (A) (A) (A) (A) (A) (A) (A) (A) (A) (A) (A) (A)
                 (A) (A) (A) (A) (A) (A) (A) (A) (A) (A) (A) (A)
                 (A) (A) (A) (A) (A) (A) (A) (A) (A) (A) (A)
       Virtual   (A) (A) (A) (A) (A) (A) (A) (A) (A) (A) (A) (A)
                 (A) (A) (A) (A) (A) (A) (A) (A) (A) (A) (A) (A)
                 (A) (A) (A) (A) (A) (A) (A) (A) (A) (A) (A) (A)
                 (A) (A) (A) (A) (A) (A) (A) (A) (A) (A) (A) (A)
                 (A) (A) (A) (A) (A) (A) (A) (A) (A) (A) (A) (A)
                 (A) (A) (A) (A) (A) (A) (A) (A) (A) (A) (A) (A)
                 (A) (A) (A) (A) (A) (A) (A) (A) (A) (A) (A) (A)
                 (A) (A) (A) (A) (A) (A) (A) (A) (A) (A) (A) (A)
                 (A) (A) (A) (A) (A) (A) (A) (A) (A) (A) (A) (A)
                 (A) (A) (A) (A) (A) (A) (A) (A) (A) (A) (A) (A)
                 (A) (A) (A) (A) (A) (A) (A) (A) (A) (A) (A) (A)
                 (A) (A) (A) (A) (A) (A) (A) (A) (A) (A) (A) (A)
                 (A) (A) (A) (A) (A) (A) (A) (A) (A) (A) (A) (A)
                 (A) (A) (A) (A) (A) (A) (A) (A)
 The electronic state is 1-A.
 Alpha  occ. eigenvalues --  -19.23152 -19.19331 -19.16834 -19.13696 -10.34909
 Alpha  occ. eigenvalues --  -10.32898 -10.27966 -10.22350 -10.21358 -10.21134
 Alpha  occ. eigenvalues --  -10.21090 -10.20990 -10.20576  -1.13483  -1.10231
 Alpha  occ. eigenvalues --   -1.05313  -1.01827  -0.87849  -0.79432  -0.77931
 Alpha  occ. eigenvalues --   -0.75117  -0.66534  -0.65209  -0.61905  -0.59529
 Alpha  occ. eigenvalues --   -0.54748  -0.51429  -0.51215  -0.50352  -0.48602
 Alpha  occ. eigenvalues --   -0.46866  -0.45281  -0.45024  -0.44166  -0.42939
 Alpha  occ. eigenvalues --   -0.42193  -0.40859  -0.40595  -0.38304  -0.37598
 Alpha  occ. eigenvalues --   -0.36491  -0.34079  -0.31833  -0.30373  -0.28325
 Alpha  occ. eigenvalues --   -0.27054  -0.26352
 Alpha virt. eigenvalues --   -0.05623  -0.02711  -0.00715   0.04861   0.07707
 Alpha virt. eigenvalues --    0.08848   0.12754   0.13753   0.15024   0.15521
 Alpha virt. eigenvalues --    0.15672   0.16885   0.17588   0.18881   0.21353
 Alpha virt. eigenvalues --    0.23467   0.25940   0.26986   0.29532   0.31197
 Alpha virt. eigenvalues --    0.32063   0.32736   0.37602   0.38683   0.48111
 Alpha virt. eigenvalues --    0.48891   0.50471   0.51310   0.52784   0.53584
 Alpha virt. eigenvalues --    0.53861   0.54977   0.55786   0.56819   0.58060
 Alpha virt. eigenvalues --    0.58833   0.59507   0.60112   0.60747   0.62200
 Alpha virt. eigenvalues --    0.62835   0.65607   0.66502   0.67029   0.68600
 Alpha virt. eigenvalues --    0.71437   0.74038   0.75933   0.78863   0.80322
 Alpha virt. eigenvalues --    0.81765   0.82608   0.83503   0.84069   0.86240
 Alpha virt. eigenvalues --    0.87810   0.88244   0.89402   0.91373   0.93267
 Alpha virt. eigenvalues --    0.94185   0.94850   0.95906   1.00036   1.00612
 Alpha virt. eigenvalues --    1.02602   1.05405   1.05947   1.06858   1.08548
 Alpha virt. eigenvalues --    1.09478   1.12475   1.16106   1.17659   1.20575
 Alpha virt. eigenvalues --    1.23686   1.25146   1.27111   1.32643   1.35980
 Alpha virt. eigenvalues --    1.38051   1.40399   1.41392   1.42461   1.43465
 Alpha virt. eigenvalues --    1.45577   1.46714   1.48190   1.49868   1.50857
 Alpha virt. eigenvalues --    1.56090   1.62544   1.64292   1.67716   1.68096
 Alpha virt. eigenvalues --    1.71425   1.76079   1.77012   1.77680   1.78078
 Alpha virt. eigenvalues --    1.79085   1.82883   1.84456   1.85347   1.85755
 Alpha virt. eigenvalues --    1.87326   1.90785   1.92410   1.94124   1.94370
 Alpha virt. eigenvalues --    1.97755   1.98075   2.01794   2.04294   2.06024
 Alpha virt. eigenvalues --    2.09228   2.12663   2.13774   2.16798   2.20025
 Alpha virt. eigenvalues --    2.22021   2.25450   2.27039   2.27691   2.29454
 Alpha virt. eigenvalues --    2.33029   2.37826   2.40771   2.44600   2.47563
 Alpha virt. eigenvalues --    2.49948   2.54355   2.57773   2.59108   2.61585
 Alpha virt. eigenvalues --    2.65044   2.65617   2.68064   2.70960   2.72757
 Alpha virt. eigenvalues --    2.76320   2.80442   2.82696   2.87291   2.94678
 Alpha virt. eigenvalues --    2.97426   3.01657   3.08761   3.09673   3.24477
 Alpha virt. eigenvalues --    3.42301   3.88540   4.00789   4.06135   4.07766
 Alpha virt. eigenvalues --    4.10837   4.13217   4.21441   4.30742   4.38991
 Alpha virt. eigenvalues --    4.39779   4.44313   4.53622   4.76738
          Condensed to atoms (all electrons):
               1          2          3          4          5          6
     1  C    5.250836   0.356636   0.356585   0.364062   0.367147  -0.067874
     2  H    0.356636   0.494282  -0.022708  -0.019275  -0.018638   0.000620
     3  H    0.356585  -0.022708   0.498563  -0.020401  -0.021872   0.001465
     4  H    0.364062  -0.019275  -0.020401   0.492788  -0.024254   0.001852
     5  C    0.367147  -0.018638  -0.021872  -0.024254   4.307475   0.593260
     6  O   -0.067874   0.000620   0.001465   0.001852   0.593260   7.980988
     7  O   -0.092352   0.000762   0.003344   0.003252   0.192221  -0.077442
     8  C    0.003097  -0.000278   0.000088  -0.000061  -0.004087   0.002855
     9  C   -0.000316   0.000071  -0.000006   0.000002  -0.001045  -0.000714
    10  C   -0.000075  -0.000022   0.000003   0.000001   0.000169   0.000020
    11  O   -0.000277   0.000348  -0.000001   0.000000   0.000899  -0.000009
    12  H    0.000609   0.000736   0.000024   0.000007  -0.001505   0.000190
    13  O    0.000000   0.000000   0.000000   0.000000   0.000002   0.000000
    14  C    0.000005   0.000000   0.000000   0.000000   0.000025  -0.000011
    15  H    0.000000   0.000000   0.000000   0.000000  -0.000001   0.000000
    16  C    0.000000   0.000000   0.000000   0.000000   0.000022   0.000009
    17  H    0.000000   0.000000   0.000000   0.000000   0.000000   0.000000
    18  C    0.000001   0.000000  -0.000001   0.000000   0.000124  -0.000219
    19  H    0.000000   0.000000   0.000000   0.000000  -0.000014  -0.000005
    20  C    0.000352  -0.000008  -0.000011   0.000005  -0.003497   0.003010
    21  H   -0.000210   0.000004  -0.000010   0.000012   0.003640   0.002330
               7          8          9         10         11         12
     1  C   -0.092352   0.003097  -0.000316  -0.000075  -0.000277   0.000609
     2  H    0.000762  -0.000278   0.000071  -0.000022   0.000348   0.000736
     3  H    0.003344   0.000088  -0.000006   0.000003  -0.000001   0.000024
     4  H    0.003252  -0.000061   0.000002   0.000001   0.000000   0.000007
     5  C    0.192221  -0.004087  -0.001045   0.000169   0.000899  -0.001505
     6  O   -0.077442   0.002855  -0.000714   0.000020  -0.000009   0.000190
     7  O    8.456399   0.161864  -0.050569  -0.006274  -0.017836   0.044087
     8  C    0.161864   4.700862   0.478971  -0.038765  -0.005453  -0.005696
     9  C   -0.050569   0.478971   5.139420   0.255505  -0.084675   0.001564
    10  C   -0.006274  -0.038765   0.255505   4.386458   0.288517  -0.012996
    11  O   -0.017836  -0.005453  -0.084675   0.288517   8.285975   0.212990
    12  H    0.044087  -0.005696   0.001564  -0.012996   0.212990   0.313049
    13  O    0.000000   0.002245  -0.103708   0.595331  -0.082077   0.003537
    14  C    0.004237  -0.045226   0.495446  -0.036261   0.005056  -0.000401
    15  H   -0.000048   0.004936  -0.043561  -0.009254   0.000394  -0.000063
    16  C    0.000014  -0.039460  -0.029561   0.006213  -0.000044  -0.000016
    17  H    0.000002   0.000783   0.003532  -0.000107   0.000000   0.000000
    18  C    0.003796  -0.009875  -0.036614  -0.000316  -0.000005  -0.000020
    19  H   -0.000052   0.003591   0.000804   0.000008   0.000000   0.000000
    20  C   -0.048736   0.514642  -0.045069   0.004871  -0.000021   0.000752
    21  H   -0.006122  -0.034930   0.005140  -0.000069   0.000004  -0.000004
              13         14         15         16         17         18
     1  C    0.000000   0.000005   0.000000   0.000000   0.000000   0.000001
     2  H    0.000000   0.000000   0.000000   0.000000   0.000000   0.000000
     3  H    0.000000   0.000000   0.000000   0.000000   0.000000  -0.000001
     4  H    0.000000   0.000000   0.000000   0.000000   0.000000   0.000000
     5  C    0.000002   0.000025  -0.000001   0.000022   0.000000   0.000124
     6  O    0.000000  -0.000011   0.000000   0.000009   0.000000  -0.000219
     7  O    0.000000   0.004237  -0.000048   0.000014   0.000002   0.003796
     8  C    0.002245  -0.045226   0.004936  -0.039460   0.000783  -0.009875
     9  C   -0.103708   0.495446  -0.043561  -0.029561   0.003532  -0.036614
    10  C    0.595331  -0.036261  -0.009254   0.006213  -0.000107  -0.000316
    11  O   -0.082077   0.005056   0.000394  -0.000044   0.000000  -0.000005
    12  H    0.003537  -0.000401  -0.000063  -0.000016   0.000000  -0.000020
    13  O    8.050246   0.001691   0.018024   0.001124   0.000000  -0.000013
    14  C    0.001691   5.010401   0.355968   0.491590  -0.037716  -0.023177
    15  H    0.018024   0.355968   0.538183  -0.038277  -0.004719   0.004338
    16  C    0.001124   0.491590  -0.038277   4.910809   0.365068   0.525367
    17  H    0.000000  -0.037716  -0.004719   0.365068   0.554969  -0.040446
    18  C   -0.000013  -0.023177   0.004338   0.525367  -0.040446   4.877608
    19  H    0.000000   0.004022  -0.000158  -0.038543  -0.004663   0.361489
    20  C   -0.000064  -0.044503   0.000434  -0.031430   0.004343   0.516606
    21  H    0.000000   0.000491   0.000013   0.004256  -0.000148  -0.037434
              19         20         21
     1  C    0.000000   0.000352  -0.000210
     2  H    0.000000  -0.000008   0.000004
     3  H    0.000000  -0.000011  -0.000010
     4  H    0.000000   0.000005   0.000012
     5  C   -0.000014  -0.003497   0.003640
     6  O   -0.000005   0.003010   0.002330
     7  O   -0.000052  -0.048736  -0.006122
     8  C    0.003591   0.514642  -0.034930
     9  C    0.000804  -0.045069   0.005140
    10  C    0.000008   0.004871  -0.000069
    11  O    0.000000  -0.000021   0.000004
    12  H    0.000000   0.000752  -0.000004
    13  O    0.000000  -0.000064   0.000000
    14  C    0.004022  -0.044503   0.000491
    15  H   -0.000158   0.000434   0.000013
    16  C   -0.038543  -0.031430   0.004256
    17  H   -0.004663   0.004343  -0.000148
    18  C    0.361489   0.516606  -0.037434
    19  H    0.550487  -0.036279  -0.005071
    20  C   -0.036279   4.946021   0.355348
    21  H   -0.005071   0.355348   0.543890
 Mulliken charges:
               1
     1  C   -0.538225
     2  H    0.207471
     3  H    0.204937
     4  H    0.202008
     5  C    0.609929
     6  O   -0.440325
     7  O   -0.570546
     8  C    0.309896
     9  C    0.015382
    10  C    0.567044
    11  O   -0.603786
    12  H    0.443156
    13  O   -0.486337
    14  C   -0.181637
    15  H    0.173791
    16  C   -0.127139
    17  H    0.159102
    18  C   -0.141209
    19  H    0.164385
    20  C   -0.136765
    21  H    0.168868
 Sum of Mulliken charges =   0.00000
 Mulliken charges with hydrogens summed into heavy atoms:
               1
     1  C    0.076191
     5  C    0.609929
     6  O   -0.440325
     7  O   -0.570546
     8  C    0.309896
     9  C    0.015382
    10  C    0.567044
    11  O   -0.160630
    13  O   -0.486337
    14  C   -0.007845
    16  C    0.031963
    18  C    0.023176
    20  C    0.032103
 Electronic spatial extent (au):  <R**2>=           2377.9625
 Charge=              0.0000 electrons
 Dipole moment (field-independent basis, Debye):
    X=              3.3348    Y=             -3.8823    Z=             -2.5370  Tot=              5.7122
 Quadrupole moment (field-independent basis, Debye-Ang):
   XX=            -62.8632   YY=            -80.9788   ZZ=            -76.1151
   XY=             15.1118   XZ=             -3.3605   YZ=              1.2083
 Traceless Quadrupole moment (field-independent basis, Debye-Ang):
   XX=             10.4558   YY=             -7.6598   ZZ=             -2.7961
   XY=             15.1118   XZ=             -3.3605   YZ=              1.2083
 Octapole moment (field-independent basis, Debye-Ang**2):
  XXX=             42.8114  YYY=            -48.8027  ZZZ=             -0.9280  XYY=             15.5424
  XXY=             -7.0633  XXZ=            -10.9639  XZZ=              5.1372  YZZ=             11.0862
  YYZ=             -9.8691  XYZ=             10.3977
 Hexadecapole moment (field-independent basis, Debye-Ang**3):
 XXXX=          -1541.7373 YYYY=          -1171.9870 ZZZZ=           -147.8614 XXXY=             76.8713
 XXXZ=            -23.8407 YYYX=             74.1315 YYYZ=             -0.1786 ZZZX=             -7.7335
 ZZZY=             -4.0324 XXYY=           -498.6983 XXZZ=           -330.2710 YYZZ=           -221.6699
 XXYZ=             -2.3342 YYXZ=              3.1240 ZZXY=             -3.4592
 N-N= 7.742394144782D+02 E-N=-3.062866437304D+03  KE= 6.428672345867D+02
 No NMR shielding tensors so no spin-rotation constants.
 Leave Link  601 at Mon Jan 25 16:24:42 2021, MaxMem=   262144000 cpu:         0.4
 (Enter /prod/apps/gaussian/g09d1/l9999.exe)
 1\1\GINC-PIRINEUS35\SP\RB3LYP\6-31G(d)\C9H8O4\UBAFAR01\25-Jan-2021\0\\
 #p b3lyp/6-31G(d) scrf=(iefpcm,read,solvent=n-Octanol) geom=allcheck g
 uess=read\\SET_328_BBB272_conf1.geo_195_315_180.n.pdb.xyz\\0,1\C,0,-0.
 904,2.716,-1.94\H,0,0.055,3.234,-1.846\H,0,-1.594,3.164,-1.221\H,0,-1.
 283,2.838,-2.952\C,0,-0.725,1.255,-1.654\O,0,-0.795,0.345,-2.435\O,0,-
 0.447,1.066,-0.302\C,0,-0.251,-0.231,0.189\C,0,0.913,-0.499,0.927\C,0,
 2.022,0.471,1.217\O,0,1.827,1.773,0.94\H,0,0.936,1.913,0.559\O,0,3.073
 ,0.112,1.708\C,0,1.068,-1.788,1.457\H,0,1.973,-1.985,2.019\C,0,0.103,-
 2.769,1.271\H,0,0.245,-3.757,1.694\C,0,-1.051,-2.472,0.542\H,0,-1.816,
 -3.227,0.394\C,0,-1.23,-1.201,0.\H,0,-2.118,-0.959,-0.569\\Version=AM6
 4L-G09RevD.01\State=1-A\HF=-648.7090214\RMSD=6.742e-09\Dipole=-2.17824
 68,0.2167313,-0.5087544\Quadrupole=-6.6748162,11.1814441,-4.506628,-3.
 0115879,-4.4806511,-7.6014773\PG=C01 [X(C9H8O4)]\\@


            ARSENIC

 FOR SMELTER FUMES HAVE I BEEN NAMED,
    I AM AN EVIL POISONOUS SMOKE...
 BUT WHEN FROM POISON I AM FREED,
    THROUGH ART AND SLEIGHT OF HAND,
 THEN CAN I CURE BOTH MAN AND BEAST,
    FROM DIRE DISEASE OFTTIMES DIRECT THEM;
 BUT PREPARE ME CORRECTLY, AND TAKE GREAT CARE
    THAT YOU FAITHFULLY KEEP WATCHFUL GUARD OVER ME;
 FOR ELSE I AM POISON, AND POISON REMAIN,
    THAT PIERCES THE HEART OF MANY A ONE.

 ATTRIBUTED TO THE PROBABLY MYTHICAL 15TH
 CENTURY MONK, BASILIUS VALENTINUS
 Job cpu time:       0 days  0 hours  1 minutes  4.2 seconds.
 File lengths (MBytes):  RWF=    146 Int=      0 D2E=      0 Chk=      4 Scr=      1
 Normal termination of Gaussian 09 at Mon Jan 25 16:24:42 2021.
