 Entering Gaussian System, Link 0=g09
 Initial command:
 /prod/apps/gaussian/g09d1/l1.exe "/tmp/ubafar01/1643618/Gau-157348.inp" -scrdir="/tmp/ubafar01/1643618/"
 Entering Link 1 = /prod/apps/gaussian/g09d1/l1.exe PID=    157350.
  
 Copyright (c) 1988,1990,1992,1993,1995,1998,2003,2009,2013,
            Gaussian, Inc.  All Rights Reserved.
  
 This is part of the Gaussian(R) 09 program.  It is based on
 the Gaussian(R) 03 system (copyright 2003, Gaussian, Inc.),
 the Gaussian(R) 98 system (copyright 1998, Gaussian, Inc.),
 the Gaussian(R) 94 system (copyright 1995, Gaussian, Inc.),
 the Gaussian 92(TM) system (copyright 1992, Gaussian, Inc.),
 the Gaussian 90(TM) system (copyright 1990, Gaussian, Inc.),
 the Gaussian 88(TM) system (copyright 1988, Gaussian, Inc.),
 the Gaussian 86(TM) system (copyright 1986, Carnegie Mellon
 University), and the Gaussian 82(TM) system (copyright 1983,
 Carnegie Mellon University). Gaussian is a federally registered
 trademark of Gaussian, Inc.
  
 This software contains proprietary and confidential information,
 including trade secrets, belonging to Gaussian, Inc.
  
 This software is provided under written license and may be
 used, copied, transmitted, or stored only in accord with that
 written license.
  
 The following legend is applicable only to US Government
 contracts under FAR:
  
                    RESTRICTED RIGHTS LEGEND
  
 Use, reproduction and disclosure by the US Government is
 subject to restrictions as set forth in subparagraphs (a)
 and (c) of the Commercial Computer Software - Restricted
 Rights clause in FAR 52.227-19.
  
 Gaussian, Inc.
 340 Quinnipiac St., Bldg. 40, Wallingford CT 06492
  
  
 ---------------------------------------------------------------
 Warning -- This program may not be used in any manner that
 competes with the business of Gaussian, Inc. or will provide
 assistance to any competitor of Gaussian, Inc.  The licensee
 of this program is prohibited from giving any competitor of
 Gaussian, Inc. access to this program.  By using this program,
 the user acknowledges that Gaussian, Inc. is engaged in the
 business of creating and licensing software in the field of
 computational chemistry and represents and warrants to the
 licensee that it is not a competitor of Gaussian, Inc. and that
 it will not use this program in any manner prohibited above.
 ---------------------------------------------------------------
  

 Cite this work as:
 Gaussian 09, Revision D.01,
 M. J. Frisch, G. W. Trucks, H. B. Schlegel, G. E. Scuseria, 
 M. A. Robb, J. R. Cheeseman, G. Scalmani, V. Barone, B. Mennucci, 
 G. A. Petersson, H. Nakatsuji, M. Caricato, X. Li, H. P. Hratchian, 
 A. F. Izmaylov, J. Bloino, G. Zheng, J. L. Sonnenberg, M. Hada, 
 M. Ehara, K. Toyota, R. Fukuda, J. Hasegawa, M. Ishida, T. Nakajima, 
 Y. Honda, O. Kitao, H. Nakai, T. Vreven, J. A. Montgomery, Jr., 
 J. E. Peralta, F. Ogliaro, M. Bearpark, J. J. Heyd, E. Brothers, 
 K. N. Kudin, V. N. Staroverov, T. Keith, R. Kobayashi, J. Normand, 
 K. Raghavachari, A. Rendell, J. C. Burant, S. S. Iyengar, J. Tomasi, 
 M. Cossi, N. Rega, J. M. Millam, M. Klene, J. E. Knox, J. B. Cross, 
 V. Bakken, C. Adamo, J. Jaramillo, R. Gomperts, R. E. Stratmann, 
 O. Yazyev, A. J. Austin, R. Cammi, C. Pomelli, J. W. Ochterski, 
 R. L. Martin, K. Morokuma, V. G. Zakrzewski, G. A. Voth, 
 P. Salvador, J. J. Dannenberg, S. Dapprich, A. D. Daniels, 
 O. Farkas, J. B. Foresman, J. V. Ortiz, J. Cioslowski, 
 and D. J. Fox, Gaussian, Inc., Wallingford CT, 2013.
 
 ******************************************
 Gaussian 09:  AM64L-G09RevD.01 24-Apr-2013
                25-Jan-2021 
 ******************************************
 %nproc=1
 Will use up to    1 processors via shared memory.
 %Chk=SET_328_BBB301_conf1.geo_165_105_045.n.pdb.xyz.mst.n.o.chk
 %mem=2000MB
 -----------------
 #p b3lyp/6-31G(d)
 -----------------
 1/38=1/1;
 2/12=2,17=6,18=5,40=1/2;
 3/5=1,6=6,7=1,11=2,16=1,25=1,30=1,74=-5/1,2,3;
 4//1;
 5/5=2,38=5/2;
 6/7=2,8=2,9=2,10=2,28=1/1;
 99/5=1,9=1/99;
 Leave Link    1 at Mon Jan 25 16:23:32 2021, MaxMem=   262144000 cpu:         0.0
 (Enter /prod/apps/gaussian/g09d1/l101.exe)
 ----------------------------------------------
 SET_328_BBB301_conf1.geo_165_105_045.n.pdb.xyz
 ----------------------------------------------
 Symbolic Z-matrix:
 Charge =  0 Multiplicity = 1
 C                     2.487    -2.392    -1.55 
 H                     2.587    -3.012    -0.654 
 H                     2.745    -1.363    -1.283 
 H                     3.219    -2.731    -2.288 
 C                     1.067    -2.5      -2.123 
 C                     0.923    -1.595    -3.361 
 H                    -0.081    -1.677    -3.788 
 H                     1.64     -1.875    -4.138 
 H                     1.097    -0.545    -3.109 
 C                     0.789    -3.957    -2.513 
 H                     0.876    -4.613    -1.641 
 H                     1.496    -4.299    -3.275 
 H                    -0.221    -4.071    -2.923 
 N                     0.083    -2.158    -1.064 
 H                    -0.848    -2.401    -1.405 
 C                     0.055    -0.779    -0.572 
 H                    -0.401    -0.06     -1.267 
 H                     1.083    -0.456    -0.391 
 C                    -0.7      -0.763     0.777 
 O                    -0.176    -1.801     1.592 
 H                     0.083    -2.483     0.933 
 H                    -1.768    -0.944     0.568 
 C                    -0.573     0.571     1.479 
 C                    -1.5       1.591     1.248 
 H                    -2.35      1.405     0.596 
 C                    -1.381     2.847     1.845 
 C                    -2.455     3.886     1.664 
 O                    -1.839     5.177     1.487 
 H                    -2.522     5.857     1.61 
 H                    -3.11      3.914     2.546 
 H                    -3.076     3.635     0.797 
 C                    -0.282     3.097     2.689 
 O                    -0.107     4.307     3.291 
 H                    -0.682     4.941     2.806 
 C                     0.649     2.083     2.936 
 H                     1.484     2.294     3.597 
 C                     0.5       0.833     2.341 
 H                     1.21      0.039     2.541 
 
 NAtoms=     38 NQM=       38 NQMF=       0 NMMI=      0 NMMIF=      0
                NMic=       0 NMicF=      0.
                    Isotopes and Nuclear Properties:
 (Nuclear quadrupole moments (NQMom) in fm**2, nuclear magnetic moments (NMagM)
  in nuclear magnetons)

  Atom         1           2           3           4           5           6           7           8           9          10
 IAtWgt=          12           1           1           1          12          12           1           1           1          12
 AtmWgt=  12.0000000   1.0078250   1.0078250   1.0078250  12.0000000  12.0000000   1.0078250   1.0078250   1.0078250  12.0000000
 NucSpn=           0           1           1           1           0           0           1           1           1           0
 AtZEff=   0.0000000   0.0000000   0.0000000   0.0000000   0.0000000   0.0000000   0.0000000   0.0000000   0.0000000   0.0000000
 NQMom=    0.0000000   0.0000000   0.0000000   0.0000000   0.0000000   0.0000000   0.0000000   0.0000000   0.0000000   0.0000000
 NMagM=    0.0000000   2.7928460   2.7928460   2.7928460   0.0000000   0.0000000   2.7928460   2.7928460   2.7928460   0.0000000
 AtZNuc=   6.0000000   1.0000000   1.0000000   1.0000000   6.0000000   6.0000000   1.0000000   1.0000000   1.0000000   6.0000000

  Atom        11          12          13          14          15          16          17          18          19          20
 IAtWgt=           1           1           1          14           1          12           1           1          12          16
 AtmWgt=   1.0078250   1.0078250   1.0078250  14.0030740   1.0078250  12.0000000   1.0078250   1.0078250  12.0000000  15.9949146
 NucSpn=           1           1           1           2           1           0           1           1           0           0
 AtZEff=   0.0000000   0.0000000   0.0000000   0.0000000   0.0000000   0.0000000   0.0000000   0.0000000   0.0000000   0.0000000
 NQMom=    0.0000000   0.0000000   0.0000000   2.0440000   0.0000000   0.0000000   0.0000000   0.0000000   0.0000000   0.0000000
 NMagM=    2.7928460   2.7928460   2.7928460   0.4037610   2.7928460   0.0000000   2.7928460   2.7928460   0.0000000   0.0000000
 AtZNuc=   1.0000000   1.0000000   1.0000000   7.0000000   1.0000000   6.0000000   1.0000000   1.0000000   6.0000000   8.0000000

  Atom        21          22          23          24          25          26          27          28          29          30
 IAtWgt=           1           1          12          12           1          12          12          16           1           1
 AtmWgt=   1.0078250   1.0078250  12.0000000  12.0000000   1.0078250  12.0000000  12.0000000  15.9949146   1.0078250   1.0078250
 NucSpn=           1           1           0           0           1           0           0           0           1           1
 AtZEff=   0.0000000   0.0000000   0.0000000   0.0000000   0.0000000   0.0000000   0.0000000   0.0000000   0.0000000   0.0000000
 NQMom=    0.0000000   0.0000000   0.0000000   0.0000000   0.0000000   0.0000000   0.0000000   0.0000000   0.0000000   0.0000000
 NMagM=    2.7928460   2.7928460   0.0000000   0.0000000   2.7928460   0.0000000   0.0000000   0.0000000   2.7928460   2.7928460
 AtZNuc=   1.0000000   1.0000000   6.0000000   6.0000000   1.0000000   6.0000000   6.0000000   8.0000000   1.0000000   1.0000000

  Atom        31          32          33          34          35          36          37          38
 IAtWgt=           1          12          16           1          12           1          12           1
 AtmWgt=   1.0078250  12.0000000  15.9949146   1.0078250  12.0000000   1.0078250  12.0000000   1.0078250
 NucSpn=           1           0           0           1           0           1           0           1
 AtZEff=   0.0000000   0.0000000   0.0000000   0.0000000   0.0000000   0.0000000   0.0000000   0.0000000
 NQMom=    0.0000000   0.0000000   0.0000000   0.0000000   0.0000000   0.0000000   0.0000000   0.0000000
 NMagM=    2.7928460   0.0000000   0.0000000   2.7928460   0.0000000   2.7928460   0.0000000   2.7928460
 AtZNuc=   1.0000000   6.0000000   8.0000000   1.0000000   6.0000000   1.0000000   6.0000000   1.0000000
 Leave Link  101 at Mon Jan 25 16:23:32 2021, MaxMem=   262144000 cpu:         0.1
 (Enter /prod/apps/gaussian/g09d1/l202.exe)
                          Input orientation:                          
 ---------------------------------------------------------------------
 Center     Atomic      Atomic             Coordinates (Angstroms)
 Number     Number       Type             X           Y           Z
 ---------------------------------------------------------------------
      1          6           0        2.487000   -2.392000   -1.550000
      2          1           0        2.587000   -3.012000   -0.654000
      3          1           0        2.745000   -1.363000   -1.283000
      4          1           0        3.219000   -2.731000   -2.288000
      5          6           0        1.067000   -2.500000   -2.123000
      6          6           0        0.923000   -1.595000   -3.361000
      7          1           0       -0.081000   -1.677000   -3.788000
      8          1           0        1.640000   -1.875000   -4.138000
      9          1           0        1.097000   -0.545000   -3.109000
     10          6           0        0.789000   -3.957000   -2.513000
     11          1           0        0.876000   -4.613000   -1.641000
     12          1           0        1.496000   -4.299000   -3.275000
     13          1           0       -0.221000   -4.071000   -2.923000
     14          7           0        0.083000   -2.158000   -1.064000
     15          1           0       -0.848000   -2.401000   -1.405000
     16          6           0        0.055000   -0.779000   -0.572000
     17          1           0       -0.401000   -0.060000   -1.267000
     18          1           0        1.083000   -0.456000   -0.391000
     19          6           0       -0.700000   -0.763000    0.777000
     20          8           0       -0.176000   -1.801000    1.592000
     21          1           0        0.083000   -2.483000    0.933000
     22          1           0       -1.768000   -0.944000    0.568000
     23          6           0       -0.573000    0.571000    1.479000
     24          6           0       -1.500000    1.591000    1.248000
     25          1           0       -2.350000    1.405000    0.596000
     26          6           0       -1.381000    2.847000    1.845000
     27          6           0       -2.455000    3.886000    1.664000
     28          8           0       -1.839000    5.177000    1.487000
     29          1           0       -2.522000    5.857000    1.610000
     30          1           0       -3.110000    3.914000    2.546000
     31          1           0       -3.076000    3.635000    0.797000
     32          6           0       -0.282000    3.097000    2.689000
     33          8           0       -0.107000    4.307000    3.291000
     34          1           0       -0.682000    4.941000    2.806000
     35          6           0        0.649000    2.083000    2.936000
     36          1           0        1.484000    2.294000    3.597000
     37          6           0        0.500000    0.833000    2.341000
     38          1           0        1.210000    0.039000    2.541000
 ---------------------------------------------------------------------
                    Distance matrix (angstroms):
                    1          2          3          4          5
     1  C    0.000000
     2  H    1.094174   0.000000
     3  H    1.093935   1.771950   0.000000
     4  H    1.093338   1.774357   1.762420   0.000000
     5  C    1.535055   2.174972   2.194095   2.170643   0.000000
     6  C    2.522107   3.479171   2.773372   2.777308   1.540261
     7  H    3.480588   4.326939   3.789445   3.775039   2.183451
     8  H    2.771722   3.785213   3.103900   2.578464   2.186133
     9  H    2.788188   3.785923   2.592162   3.155237   2.189776
    10  C    2.501959   2.753491   3.473855   2.731044   1.533699
    11  H    2.745258   2.542615   3.766142   3.074115   2.175678
    12  H    2.755786   3.117097   3.761404   2.530123   2.178886
    13  H    3.469501   3.762274   4.338205   3.745988   2.183343
    14  N    2.463771   2.677206   2.786796   3.414821   1.485497
    15  H    3.338163   3.568830   3.741922   4.174815   2.047572
    16  C    3.077804   3.376986   2.843005   4.094613   2.528159
    17  H    3.722749   4.244787   3.405199   4.613142   2.973442
    18  H    2.657554   2.977301   2.092978   3.651949   2.679182
    19  C    4.269138   4.232036   4.058525   5.350309   3.814375
    20  O    4.160891   3.761011   4.121858   5.238829   3.979306
    21  H    3.457280   3.011383   3.640234   4.502315   3.210558
    22  H    4.968667   4.973523   4.895807   6.018328   4.207118
    23  C    5.226644   5.231938   4.730552   6.282735   5.009495
    24  C    6.292000   6.442731   5.757786   7.311083   5.889772
    25  H    6.512994   6.741391   6.095202   7.512504   5.858146
    26  C    7.344016   7.504526   6.673257   8.328011   7.094233
    27  C    8.611994   8.853095   7.954672   9.570646   8.217472
    28  O    9.231869   9.551601   8.453257  10.117828   8.967344
    29  H   10.154885  10.482688   9.393569  11.041161   9.831361
    30  H    9.373861   9.521832   8.762933  10.372069   8.965840
    31  H    8.531126   8.851982   7.949242   9.469435   7.957957
    32  C    7.467637   7.531712   6.695604   8.425741   7.503436
    33  O    8.662605   8.740047   7.823316   9.577106   8.776384
    34  H    9.098911   9.268666   8.258612  10.001311   9.095192
    35  C    6.597580   6.527095   5.836788   7.554447   6.839013
    36  H    7.032511   6.887761   6.227212   7.930578   7.474940
    37  C    5.430348   5.301851   4.795395   6.443811   5.599792
    38  H    4.927146   4.627392   4.352563   5.918464   5.312237
                    6          7          8          9         10
     6  C    0.000000
     7  H    1.094106   0.000000
     8  H    1.093718   1.767355   0.000000
     9  H    1.093746   1.769223   1.767085   0.000000
    10  C    2.513186   2.753348   2.774806   3.477330   0.000000
    11  H    3.474037   3.761058   3.783563   4.330414   1.094664
    12  H    2.765383   3.102416   2.577068   3.778793   1.094284
    13  H    2.762455   2.549326   3.124414   3.768872   1.095991
    14  N    2.509737   2.770999   3.457429   2.794994   2.415458
    15  H    2.758988   2.605984   3.733110   3.182982   2.515665
    16  C    3.032788   3.341789   4.053369   2.752615   3.795513
    17  H    2.914453   3.012064   3.962644   2.423261   4.260895
    18  H    3.184937   3.792802   4.045222   2.719493   4.104427
    19  C    4.522101   4.696571   5.556021   4.286925   4.821085
    20  O    5.077642   5.382267   6.011342   5.029659   4.736094
    21  H    4.464592   4.792116   5.339378   4.595846   3.813926
    22  H    4.806488   4.728424   5.884527   4.678435   5.010886
    23  C    5.509553   5.747770   6.513906   5.008403   6.188206
    24  C    6.104458   6.168848   7.133145   5.503667   7.082722
    25  H    5.947300   5.819497   7.006373   5.423222   6.947679
    26  C    7.220957   7.340795   8.198781   6.495249   8.366330
    27  C    8.167183   8.142920   9.144471   7.418355   9.459573
    28  O    8.774493   8.825730   9.668235   7.904720  10.311951
    29  H    9.597456   9.584260  10.495026   8.737947  11.147935
    30  H    9.028113   8.975170  10.037474   8.340297  10.136485
    31  H    7.786775   7.629521   8.772399   7.081184   9.139627
    32  C    7.750444   8.048789   8.661570   6.984455   8.829879
    33  O    8.952296   9.269367   9.821363   8.121054  10.138192
    34  H    9.128374   9.361622  10.003433   8.261251  10.470435
    35  C    7.297600   7.738390   8.166353   6.606748   8.135896
    36  H    7.990795   8.529730   8.788351   7.292471   8.768702
    37  C    6.211837   6.648481   7.114092   5.653122   6.825609
    38  H    6.130736   6.683381   6.961130   5.681226   6.456638
                   11         12         13         14         15
    11  H    0.000000
    12  H    1.775655   0.000000
    13  H    1.772201   1.767478   0.000000
    14  N    2.643634   3.386587   2.684747   0.000000
    15  H    2.814394   3.548752   2.342297   1.020829   0.000000
    16  C    4.064032   4.666164   4.054706   1.464407   2.034744
    17  H    4.743460   5.059624   4.343139   2.162653   2.387286
    18  H    4.345802   4.822517   4.602137   2.085601   2.922325
    19  C    4.811756   5.808994   4.986211   2.438933   2.732411
    20  O    4.412067   5.720426   5.053726   2.692372   3.129472
    21  H    3.433835   4.796008   4.181255   2.023273   2.517882
    22  H    5.033088   6.056267   4.935425   2.750167   2.619538
    23  C    6.221564   7.113240   6.407002   3.787430   4.150405
    24  C    7.244399   8.007849   7.147820   4.680410   4.837311
    25  H    7.185233   7.893793   6.848546   4.622776   4.554738
    26  C    8.538023   9.249694   8.481636   5.971231   6.195813
    27  C    9.708326  10.344001   9.452258   7.100237   7.178271
    28  O   10.630132  11.117259  10.372634   8.000244   8.171403
    29  H   11.477644  11.964610  11.153828   8.841749   8.949138
    30  H   10.301888  11.070350  10.100322   7.752195   7.785003
    31  H    9.465287  10.021613   9.020635   6.855760   6.800447
    32  C    8.918182   9.665992   9.103762   6.467864   6.878168
    33  O   10.239986  10.942815  10.431571   7.797330   8.221847
    34  H   10.652797  11.273857  10.688784   8.121449   8.465521
    35  C    8.113992   8.945605   8.541458   5.857170   6.418064
    36  H    8.689819   9.523244   9.269879   6.596061   7.245775
    37  C    6.756968   7.672607   7.230405   4.551263   5.129169
    38  H    6.264326   7.261260   6.985353   4.369550   5.075419
                   16         17         18         19         20
    16  C    0.000000
    17  H    1.099055   0.000000
    18  H    1.092645   1.768176   0.000000
    19  C    1.545989   2.182097   2.153500   0.000000
    20  O    2.404317   3.354935   2.706731   1.419945   0.000000
    21  H    2.273637   3.308351   2.619486   1.896266   0.983100
    22  H    2.156422   2.453033   3.047298   1.103207   2.077857
    23  C    2.534460   2.822811   2.700734   1.512775   2.407647
    24  C    3.368579   3.202940   3.680818   2.530446   3.657455
    25  H    3.452261   3.068484   4.027776   2.730473   3.999591
    26  C    4.588231   4.369850   4.688369   3.825766   4.808320
    27  C    5.749958   5.327344   5.966023   5.047771   6.127071
    28  O    6.580323   6.089214   6.617829   6.089747   7.174195
    29  H    7.445707   6.912790   7.540159   6.916500   8.009307
    30  H    6.462461   6.137616   6.730833   5.550837   6.494590
    31  H    5.582179   5.006870   5.953562   4.998818   6.212256
    32  C    5.076521   5.062682   4.896267   4.327825   5.020463
    33  O    6.388772   6.319216   6.136725   5.690057   6.340270
    34  H    6.683745   6.455873   6.516413   6.054154   6.869090
    35  C    4.566174   4.833235   4.207589   3.818481   4.191947
    36  H    5.372702   5.723027   4.860807   4.697606   4.852283
    37  C    3.358889   3.824515   3.076562   2.536397   2.820626
    38  H    3.419637   4.135938   2.976202   2.720845   2.491425
                   21         22         23         24         25
    21  H    0.000000
    22  H    2.434738   0.000000
    23  C    3.171020   2.133816   0.000000
    24  C    4.382076   2.638266   1.397530   0.000000
    25  H    4.598870   2.420188   2.152434   1.087290   0.000000
    26  C    5.602137   4.018977   2.442744   1.395746   2.139702
    27  C    6.894923   5.000208   3.816461   2.520338   2.703148
    28  O    7.916855   6.190012   4.776825   3.609908   3.909346
    29  H    8.763558   6.921552   5.635384   4.401623   4.569254
    30  H    7.329299   5.414205   4.330186   3.110182   3.267290
    31  H    6.886777   4.767656   4.014751   2.620136   2.353801
    32  C    5.861157   4.799637   2.815929   2.414134   3.394133
    33  O    7.190297   6.143830   4.178301   3.673003   4.551448
    34  H    7.694747   6.389152   4.568338   3.784044   4.491060
    35  C    5.018040   4.540049   2.429460   2.776618   3.863843
    36  H    5.646187   5.498635   3.418465   3.862158   4.949331
    37  C    3.626597   3.383058   1.401077   2.401919   3.390385
    38  H    3.196291   3.705064   2.142418   3.380037   4.280488
                   26         27         28         29         30
    26  C    0.000000
    27  C    1.505244   0.000000
    28  O    2.401422   1.441342   0.000000
    29  H    3.227570   1.972878   0.971606   0.000000
    30  H    2.149263   1.098969   2.081368   2.235417   0.000000
    31  H    2.142959   1.095596   2.093808   2.430055   1.771440
    32  C    1.408061   2.528849   2.862770   3.714760   2.947121
    33  O    2.417766   2.887468   2.647856   3.325731   3.118891
    34  H    2.407687   2.358117   1.770341   2.378040   2.649059
    35  C    2.427937   3.808360   4.226415   5.104566   4.199374
    36  H    3.403460   4.667620   4.879151   5.717620   4.983356
    37  C    2.800067   4.302460   5.007052   5.908250   4.750441
    38  H    3.883627   5.385236   6.066825   6.974504   5.803279
                   31         32         33         34         35
    31  H    0.000000
    32  C    3.416950   0.000000
    33  O    3.935299   1.362765   0.000000
    34  H    3.387175   1.890509   0.983771   0.000000
    35  C    4.567237   1.398559   2.375655   3.155412   0.000000
    36  H    5.516510   2.141968   2.584006   3.510534   1.085664
    37  C    4.798220   2.420397   3.652345   4.299885   1.392381
    38  H    5.860252   3.405779   4.529107   5.261130   2.156080
                   36         37         38
    36  H    0.000000
    37  C    2.163403   0.000000
    38  H    2.505042   1.083760   0.000000
 Stoichiometry    C13H21NO3
 Framework group  C1[X(C13H21NO3)]
 Deg. of freedom   108
 Full point group                 C1      NOp   1
 Largest Abelian subgroup         C1      NOp   1
 Largest concise Abelian subgroup C1      NOp   1
                         Standard orientation:                         
 ---------------------------------------------------------------------
 Center     Atomic      Atomic             Coordinates (Angstroms)
 Number     Number       Type             X           Y           Z
 ---------------------------------------------------------------------
      1          6           0        4.039845   -0.660070    1.463910
      2          1           0        4.084868   -1.658563    1.018715
      3          1           0        3.139651   -0.603120    2.082862
      4          1           0        4.900329   -0.538659    2.127399
      5          6           0        4.056747    0.417446    0.370719
      6          6           0        3.954195    1.818118    1.003179
      7          1           0        3.982361    2.595318    0.233610
      8          1           0        4.784208    2.000088    1.691789
      9          1           0        3.022919    1.934087    1.564922
     10          6           0        5.360878    0.305773   -0.428658
     11          1           0        5.444179   -0.681140   -0.894870
     12          1           0        6.229979    0.456866    0.218870
     13          1           0        5.404047    1.060020   -1.222663
     14          7           0        2.955497    0.157549   -0.591778
     15          1           0        3.086225    0.770924   -1.397243
     16          6           0        1.578382    0.300286   -0.114631
     17          1           0        1.252160    1.341061    0.020602
     18          1           0        1.494685   -0.199837    0.853225
     19          6           0        0.644364   -0.421756   -1.112803
     20          8           0        1.180444   -1.711185   -1.370168
     21          1           0        2.148674   -1.563234   -1.285735
     22          1           0        0.618480    0.173245   -2.041442
     23          6           0       -0.767854   -0.536137   -0.582666
     24          6           0       -1.708448    0.466653   -0.833235
     25          1           0       -1.435742    1.312779   -1.459255
     26          6           0       -3.004055    0.410385   -0.317149
     27          6           0       -4.025563    1.448727   -0.696787
     28          8           0       -4.803822    1.793836    0.466261
     29          1           0       -5.596191    2.271000    0.168800
     30          1           0       -4.693056    1.058317   -1.477662
     31          1           0       -3.525096    2.335713   -1.100667
     32          6           0       -3.364817   -0.680798    0.496366
     33          8           0       -4.611349   -0.784555    1.037220
     34          1           0       -5.013147    0.111302    0.975544
     35          6           0       -2.436533   -1.695970    0.748715
     36          1           0       -2.738086   -2.532835    1.371120
     37          6           0       -1.154757   -1.625078    0.209501
     38          1           0       -0.436433   -2.416430    0.389246
 ---------------------------------------------------------------------
 Rotational constants (GHZ):      1.0271739      0.1758626      0.1677263
 Leave Link  202 at Mon Jan 25 16:23:32 2021, MaxMem=   262144000 cpu:         0.0
 (Enter /prod/apps/gaussian/g09d1/l301.exe)
 Standard basis: 6-31G(d) (6D, 7F)
 Ernie: Thresh=  0.10000D-02 Tol=  0.10000D-05 Strict=F.
 There are   297 symmetry adapted cartesian basis functions of A   symmetry.
 There are   297 symmetry adapted basis functions of A   symmetry.
   297 basis functions,   560 primitive gaussians,   297 cartesian basis functions
    65 alpha electrons       65 beta electrons
       nuclear repulsion energy      1228.2391859050 Hartrees.
 IExCor=  402 DFT=T Ex+Corr=B3LYP ExCW=0 ScaHFX=  0.200000
 ScaDFX=  0.800000  0.720000  1.000000  0.810000 ScalE2=  1.000000  1.000000
 IRadAn=      0 IRanWt=     -1 IRanGd=            0 ICorTp=0 IEmpDi=  4
 NAtoms=   38 NActive=   38 NUniq=   38 SFac= 1.00D+00 NAtFMM=   60 NAOKFM=F Big=F
 Integral buffers will be    131072 words long.
 Raffenetti 2 integral format.
 Two-electron integral symmetry is turned on.
 Leave Link  301 at Mon Jan 25 16:23:32 2021, MaxMem=   262144000 cpu:         0.0
 (Enter /prod/apps/gaussian/g09d1/l302.exe)
 NPDir=0 NMtPBC=     1 NCelOv=     1 NCel=       1 NClECP=     1 NCelD=      1
         NCelK=      1 NCelE2=     1 NClLst=     1 CellRange=     0.0.
 One-electron integrals computed using PRISM.
 NBasis=   297 RedAO= T EigKep=  3.81D-04  NBF=   297
 NBsUse=   297 1.00D-06 EigRej= -1.00D+00 NBFU=   297
 Precomputing XC quadrature grid using
 IXCGrd= 4 IRadAn=           0 IRanWt=          -1 IRanGd=           0 AccXCQ= 0.00D+00.
 Generated NRdTot=       0 NPtTot=           0 NUsed=           0 NTot=          32
 NSgBfM=   294   294   294   294   294 MxSgAt=    38 MxSgA2=    38.
 Leave Link  302 at Mon Jan 25 16:23:34 2021, MaxMem=   262144000 cpu:         1.1
 (Enter /prod/apps/gaussian/g09d1/l303.exe)
 DipDrv:  MaxL=1.
 Leave Link  303 at Mon Jan 25 16:23:34 2021, MaxMem=   262144000 cpu:         0.0
 (Enter /prod/apps/gaussian/g09d1/l401.exe)
 ExpMin= 1.61D-01 ExpMax= 5.48D+03 ExpMxC= 8.25D+02 IAcc=1 IRadAn=         1 AccDes= 0.00D+00
 Harris functional with IExCor=  402 and IRadAn=       1 diagonalized for initial guess.
 HarFok:  IExCor=  402 AccDes= 0.00D+00 IRadAn=         1 IDoV= 1 UseB2=F ITyADJ=14
 ICtDFT=  3500011 ScaDFX=  1.000000  1.000000  1.000000  1.000000
 FoFCou: FMM=F IPFlag=           0 FMFlag=      100000 FMFlg1=           0
         NFxFlg=           0 DoJE=T BraDBF=F KetDBF=T FulRan=T
         wScrn=  0.000000 ICntrl=     500 IOpCl=  0 I1Cent=   200000004 NGrid=           0
         NMat0=    1 NMatS0=      1 NMatT0=    0 NMatD0=    1 NMtDS0=    0 NMtDT0=    0
 Petite list used in FoFCou.
 Harris En= -788.489433848640    
 JPrj=0 DoOrth=F DoCkMO=F.
 Leave Link  401 at Mon Jan 25 16:23:38 2021, MaxMem=   262144000 cpu:         3.8
 (Enter /prod/apps/gaussian/g09d1/l502.exe)
 Closed shell SCF:
 Using DIIS extrapolation, IDIIS=  1040.
 Integral symmetry usage will be decided dynamically.
 IVT=      287224 IEndB=      287224 NGot=   262144000 MDV=   261961923
 LenX=   261961923 LenY=   261873273
 Requested convergence on RMS density matrix=1.00D-08 within 128 cycles.
 Requested convergence on MAX density matrix=1.00D-06.
 Requested convergence on             energy=1.00D-06.
 No special actions if energy rises.
 Fock matrices will be formed incrementally for  20 cycles.
 Integral accuracy reduced to 1.0D-05 until final iterations.

 Cycle   1  Pass 0  IDiag  1:
 FoFJK:  IHMeth= 1 ICntrl=       0 DoSepK=F KAlg= 0 I1Cent=   0 FoldK=F
 IRaf= 740000000 NMat=   1 IRICut=       1 DoRegI=T DoRafI=F ISym2E= 0.
 FoFCou: FMM=F IPFlag=           0 FMFlag=      100000 FMFlg1=           0
         NFxFlg=           0 DoJE=F BraDBF=F KetDBF=F FulRan=T
         wScrn=  0.000000 ICntrl=       0 IOpCl=  0 I1Cent=           0 NGrid=           0
         NMat0=    1 NMatS0=      1 NMatT0=    0 NMatD0=    1 NMtDS0=    0 NMtDT0=    0
 Symmetry not used in FoFCou.
 E= -787.951566579800    
 DIIS: error= 3.11D-02 at cycle   1 NSaved=   1.
 NSaved= 1 IEnMin= 1 EnMin= -787.951566579800     IErMin= 1 ErrMin= 3.11D-02
 ErrMax= 3.11D-02  0.00D+00 EMaxC= 1.00D-01 BMatC= 4.90D-01 BMatP= 4.90D-01
 IDIUse=3 WtCom= 6.89D-01 WtEn= 3.11D-01
 Coeff-Com:  0.100D+01
 Coeff-En:   0.100D+01
 Coeff:      0.100D+01
 Gap=     0.216 Goal=   None    Shift=    0.000
 GapD=    0.216 DampG=1.000 DampE=0.500 DampFc=0.5000 IDamp=-1.
 Damping current iteration by 5.00D-01
 RMSDP=5.36D-03 MaxDP=1.44D-01              OVMax= 1.69D-01

 Cycle   2  Pass 0  IDiag  1:
 RMSU=  2.65D-03    CP:  9.81D-01
 E= -788.166065271051     Delta-E=       -0.214498691251 Rises=F Damp=T
 DIIS: error= 7.31D-03 at cycle   2 NSaved=   2.
 NSaved= 2 IEnMin= 2 EnMin= -788.166065271051     IErMin= 2 ErrMin= 7.31D-03
 ErrMax= 7.31D-03  0.00D+00 EMaxC= 1.00D-01 BMatC= 2.52D-02 BMatP= 4.90D-01
 IDIUse=3 WtCom= 9.27D-01 WtEn= 7.31D-02
 Coeff-Com:  0.683D-01 0.932D+00
 Coeff-En:   0.106D+00 0.894D+00
 Coeff:      0.711D-01 0.929D+00
 Gap=     0.234 Goal=   None    Shift=    0.000
 RMSDP=1.16D-03 MaxDP=2.92D-02 DE=-2.14D-01 OVMax= 1.11D-01

 Cycle   3  Pass 0  IDiag  1:
 RMSU=  1.09D-03    CP:  9.75D-01  8.57D-01
 E= -788.419604101246     Delta-E=       -0.253538830194 Rises=F Damp=F
 DIIS: error= 4.55D-03 at cycle   3 NSaved=   3.
 NSaved= 3 IEnMin= 3 EnMin= -788.419604101246     IErMin= 3 ErrMin= 4.55D-03
 ErrMax= 4.55D-03  0.00D+00 EMaxC= 1.00D-01 BMatC= 1.19D-02 BMatP= 2.52D-02
 IDIUse=3 WtCom= 9.54D-01 WtEn= 4.55D-02
 Coeff-Com: -0.512D-02 0.382D+00 0.623D+00
 Coeff-En:   0.000D+00 0.000D+00 0.100D+01
 Coeff:     -0.489D-02 0.365D+00 0.640D+00
 Gap=     0.205 Goal=   None    Shift=    0.000
 RMSDP=6.12D-04 MaxDP=1.75D-02 DE=-2.54D-01 OVMax= 5.06D-02

 Cycle   4  Pass 0  IDiag  1:
 RMSU=  4.95D-04    CP:  9.76D-01  8.91D-01  6.84D-01
 E= -788.425747594974     Delta-E=       -0.006143493728 Rises=F Damp=F
 DIIS: error= 3.98D-03 at cycle   4 NSaved=   4.
 NSaved= 4 IEnMin= 4 EnMin= -788.425747594974     IErMin= 4 ErrMin= 3.98D-03
 ErrMax= 3.98D-03  0.00D+00 EMaxC= 1.00D-01 BMatC= 4.81D-03 BMatP= 1.19D-02
 IDIUse=3 WtCom= 9.60D-01 WtEn= 3.98D-02
 Coeff-Com: -0.993D-02 0.798D-01 0.399D+00 0.531D+00
 Coeff-En:   0.000D+00 0.000D+00 0.330D+00 0.670D+00
 Coeff:     -0.953D-02 0.767D-01 0.396D+00 0.537D+00
 Gap=     0.203 Goal=   None    Shift=    0.000
 RMSDP=2.97D-04 MaxDP=9.37D-03 DE=-6.14D-03 OVMax= 2.90D-02

 Cycle   5  Pass 0  IDiag  1:
 RMSU=  1.28D-04    CP:  9.75D-01  8.89D-01  7.86D-01  5.09D-01
 E= -788.430262579896     Delta-E=       -0.004514984922 Rises=F Damp=F
 DIIS: error= 1.13D-03 at cycle   5 NSaved=   5.
 NSaved= 5 IEnMin= 5 EnMin= -788.430262579896     IErMin= 5 ErrMin= 1.13D-03
 ErrMax= 1.13D-03  0.00D+00 EMaxC= 1.00D-01 BMatC= 2.89D-04 BMatP= 4.81D-03
 IDIUse=3 WtCom= 9.89D-01 WtEn= 1.13D-02
 Coeff-Com: -0.445D-02 0.221D-01 0.187D+00 0.303D+00 0.492D+00
 Coeff-En:   0.000D+00 0.000D+00 0.000D+00 0.000D+00 0.100D+01
 Coeff:     -0.440D-02 0.219D-01 0.185D+00 0.299D+00 0.498D+00
 Gap=     0.203 Goal=   None    Shift=    0.000
 RMSDP=8.38D-05 MaxDP=2.66D-03 DE=-4.51D-03 OVMax= 8.62D-03

 Cycle   6  Pass 0  IDiag  1:
 RMSU=  4.45D-05    CP:  9.75D-01  8.91D-01  7.81D-01  5.69D-01  4.97D-01
 E= -788.430547625203     Delta-E=       -0.000285045306 Rises=F Damp=F
 DIIS: error= 2.84D-04 at cycle   6 NSaved=   6.
 NSaved= 6 IEnMin= 6 EnMin= -788.430547625203     IErMin= 6 ErrMin= 2.84D-04
 ErrMax= 2.84D-04  0.00D+00 EMaxC= 1.00D-01 BMatC= 3.10D-05 BMatP= 2.89D-04
 IDIUse=3 WtCom= 9.97D-01 WtEn= 2.84D-03
 Coeff-Com: -0.115D-02 0.174D-02 0.536D-01 0.100D+00 0.289D+00 0.557D+00
 Coeff-En:   0.000D+00 0.000D+00 0.000D+00 0.000D+00 0.678D-01 0.932D+00
 Coeff:     -0.115D-02 0.174D-02 0.534D-01 0.998D-01 0.288D+00 0.558D+00
 Gap=     0.203 Goal=   None    Shift=    0.000
 RMSDP=2.16D-05 MaxDP=6.69D-04 DE=-2.85D-04 OVMax= 2.08D-03

 Cycle   7  Pass 0  IDiag  1:
 RMSU=  7.84D-06    CP:  9.75D-01  8.89D-01  7.86D-01  5.62D-01  5.76D-01
                    CP:  6.40D-01
 E= -788.430577516069     Delta-E=       -0.000029890866 Rises=F Damp=F
 DIIS: error= 2.65D-05 at cycle   7 NSaved=   7.
 NSaved= 7 IEnMin= 7 EnMin= -788.430577516069     IErMin= 7 ErrMin= 2.65D-05
 ErrMax= 2.65D-05  0.00D+00 EMaxC= 1.00D-01 BMatC= 9.02D-07 BMatP= 3.10D-05
 IDIUse=1 WtCom= 1.00D+00 WtEn= 0.00D+00
 Coeff-Com: -0.385D-03 0.385D-04 0.199D-01 0.389D-01 0.126D+00 0.272D+00
 Coeff-Com:  0.544D+00
 Coeff:     -0.385D-03 0.385D-04 0.199D-01 0.389D-01 0.126D+00 0.272D+00
 Coeff:      0.544D+00
 Gap=     0.203 Goal=   None    Shift=    0.000
 RMSDP=4.30D-06 MaxDP=1.45D-04 DE=-2.99D-05 OVMax= 4.06D-04

 Initial convergence to 1.0D-05 achieved.  Increase integral accuracy.
 Cycle   8  Pass 1  IDiag  1:
 E= -788.430849671891     Delta-E=       -0.000272155823 Rises=F Damp=F
 DIIS: error= 6.39D-05 at cycle   1 NSaved=   1.
 NSaved= 1 IEnMin= 1 EnMin= -788.430849671891     IErMin= 1 ErrMin= 6.39D-05
 ErrMax= 6.39D-05  0.00D+00 EMaxC= 1.00D-01 BMatC= 5.87D-07 BMatP= 5.87D-07
 IDIUse=1 WtCom= 1.00D+00 WtEn= 0.00D+00
 Coeff-Com:  0.100D+01
 Coeff:      0.100D+01
 Gap=     0.203 Goal=   None    Shift=    0.000
 RMSDP=4.30D-06 MaxDP=1.45D-04 DE=-2.72D-04 OVMax= 4.26D-04

 Cycle   9  Pass 1  IDiag  1:
 RMSU=  2.41D-05    CP:  1.00D+00
 E= -788.430849944925     Delta-E=       -0.000000273033 Rises=F Damp=F
 DIIS: error= 2.45D-05 at cycle   2 NSaved=   2.
 NSaved= 2 IEnMin= 2 EnMin= -788.430849944925     IErMin= 2 ErrMin= 2.45D-05
 ErrMax= 2.45D-05  0.00D+00 EMaxC= 1.00D-01 BMatC= 3.27D-07 BMatP= 5.87D-07
 IDIUse=1 WtCom= 1.00D+00 WtEn= 0.00D+00
 Coeff-Com:  0.394D+00 0.606D+00
 Coeff:      0.394D+00 0.606D+00
 Gap=     0.203 Goal=   None    Shift=    0.000
 RMSDP=4.01D-06 MaxDP=1.30D-04 DE=-2.73D-07 OVMax= 4.72D-04

 Cycle  10  Pass 1  IDiag  1:
 RMSU=  3.99D-06    CP:  1.00D+00  9.82D-01
 E= -788.430850071791     Delta-E=       -0.000000126866 Rises=F Damp=F
 DIIS: error= 1.96D-05 at cycle   3 NSaved=   3.
 NSaved= 3 IEnMin= 3 EnMin= -788.430850071791     IErMin= 3 ErrMin= 1.96D-05
 ErrMax= 1.96D-05  0.00D+00 EMaxC= 1.00D-01 BMatC= 2.07D-07 BMatP= 3.27D-07
 IDIUse=1 WtCom= 1.00D+00 WtEn= 0.00D+00
 Coeff-Com: -0.272D-02 0.443D+00 0.559D+00
 Coeff:     -0.272D-02 0.443D+00 0.559D+00
 Gap=     0.203 Goal=   None    Shift=    0.000
 RMSDP=1.89D-06 MaxDP=6.16D-05 DE=-1.27D-07 OVMax= 2.22D-04

 Cycle  11  Pass 1  IDiag  1:
 RMSU=  5.37D-07    CP:  1.00D+00  1.00D+00  5.59D-01
 E= -788.430850297229     Delta-E=       -0.000000225438 Rises=F Damp=F
 DIIS: error= 2.25D-06 at cycle   4 NSaved=   4.
 NSaved= 4 IEnMin= 4 EnMin= -788.430850297229     IErMin= 4 ErrMin= 2.25D-06
 ErrMax= 2.25D-06  0.00D+00 EMaxC= 1.00D-01 BMatC= 4.28D-09 BMatP= 2.07D-07
 IDIUse=1 WtCom= 1.00D+00 WtEn= 0.00D+00
 Coeff-Com: -0.826D-02 0.244D+00 0.321D+00 0.444D+00
 Coeff:     -0.826D-02 0.244D+00 0.321D+00 0.444D+00
 Gap=     0.203 Goal=   None    Shift=    0.000
 RMSDP=2.75D-07 MaxDP=8.71D-06 DE=-2.25D-07 OVMax= 1.81D-05

 Cycle  12  Pass 1  IDiag  1:
 RMSU=  1.41D-07    CP:  1.00D+00  9.99D-01  5.70D-01  5.69D-01
 E= -788.430850301415     Delta-E=       -0.000000004186 Rises=F Damp=F
 DIIS: error= 4.39D-07 at cycle   5 NSaved=   5.
 NSaved= 5 IEnMin= 5 EnMin= -788.430850301415     IErMin= 5 ErrMin= 4.39D-07
 ErrMax= 4.39D-07  0.00D+00 EMaxC= 1.00D-01 BMatC= 9.37D-11 BMatP= 4.28D-09
 IDIUse=1 WtCom= 1.00D+00 WtEn= 0.00D+00
 Coeff-Com: -0.322D-02 0.733D-01 0.976D-01 0.182D+00 0.650D+00
 Coeff:     -0.322D-02 0.733D-01 0.976D-01 0.182D+00 0.650D+00
 Gap=     0.203 Goal=   None    Shift=    0.000
 RMSDP=5.05D-08 MaxDP=1.27D-06 DE=-4.19D-09 OVMax= 4.19D-06

 Cycle  13  Pass 1  IDiag  1:
 RMSU=  4.36D-08    CP:  1.00D+00  9.99D-01  5.69D-01  6.02D-01  8.81D-01
 E= -788.430850301491     Delta-E=       -0.000000000076 Rises=F Damp=F
 DIIS: error= 2.96D-07 at cycle   6 NSaved=   6.
 NSaved= 6 IEnMin= 6 EnMin= -788.430850301491     IErMin= 6 ErrMin= 2.96D-07
 ErrMax= 2.96D-07  0.00D+00 EMaxC= 1.00D-01 BMatC= 2.77D-11 BMatP= 9.37D-11
 IDIUse=1 WtCom= 1.00D+00 WtEn= 0.00D+00
 Coeff-Com: -0.912D-03 0.142D-01 0.194D-01 0.546D-01 0.387D+00 0.526D+00
 Coeff:     -0.912D-03 0.142D-01 0.194D-01 0.546D-01 0.387D+00 0.526D+00
 Gap=     0.203 Goal=   None    Shift=    0.000
 RMSDP=2.41D-08 MaxDP=5.90D-07 DE=-7.57D-11 OVMax= 2.89D-06

 Cycle  14  Pass 1  IDiag  1:
 RMSU=  1.45D-08    CP:  1.00D+00  9.99D-01  5.69D-01  6.00D-01  9.29D-01
                    CP:  5.87D-01
 E= -788.430850301524     Delta-E=       -0.000000000033 Rises=F Damp=F
 DIIS: error= 9.01D-08 at cycle   7 NSaved=   7.
 NSaved= 7 IEnMin= 7 EnMin= -788.430850301524     IErMin= 7 ErrMin= 9.01D-08
 ErrMax= 9.01D-08  0.00D+00 EMaxC= 1.00D-01 BMatC= 2.36D-12 BMatP= 2.77D-11
 IDIUse=1 WtCom= 1.00D+00 WtEn= 0.00D+00
 Coeff-Com: -0.105D-03-0.131D-02-0.129D-02 0.725D-02 0.130D+00 0.287D+00
 Coeff-Com:  0.579D+00
 Coeff:     -0.105D-03-0.131D-02-0.129D-02 0.725D-02 0.130D+00 0.287D+00
 Coeff:      0.579D+00
 Gap=     0.203 Goal=   None    Shift=    0.000
 RMSDP=7.42D-09 MaxDP=2.12D-07 DE=-3.25D-11 OVMax= 7.05D-07

 SCF Done:  E(RB3LYP) =  -788.430850302     A.U. after   14 cycles
            NFock= 14  Conv=0.74D-08     -V/T= 2.0093
 KE= 7.811841321409D+02 PE=-4.292345341336D+03 EE= 1.494491172989D+03
 Leave Link  502 at Mon Jan 25 16:27:30 2021, MaxMem=   262144000 cpu:       231.9
 (Enter /prod/apps/gaussian/g09d1/l601.exe)
 Copying SCF densities to generalized density rwf, IOpCl= 0 IROHF=0.

 **********************************************************************

            Population analysis using the SCF density.

 **********************************************************************

 Orbital symmetries:
       Occupied  (A) (A) (A) (A) (A) (A) (A) (A) (A) (A) (A) (A)
                 (A) (A) (A) (A) (A) (A) (A) (A) (A) (A) (A) (A)
                 (A) (A) (A) (A) (A) (A) (A) (A) (A) (A) (A) (A)
                 (A) (A) (A) (A) (A) (A) (A) (A) (A) (A) (A) (A)
                 (A) (A) (A) (A) (A) (A) (A) (A) (A) (A) (A) (A)
                 (A) (A) (A) (A) (A)
       Virtual   (A) (A) (A) (A) (A) (A) (A) (A) (A) (A) (A) (A)
                 (A) (A) (A) (A) (A) (A) (A) (A) (A) (A) (A) (A)
                 (A) (A) (A) (A) (A) (A) (A) (A) (A) (A) (A) (A)
                 (A) (A) (A) (A) (A) (A) (A) (A) (A) (A) (A) (A)
                 (A) (A) (A) (A) (A) (A) (A) (A) (A) (A) (A) (A)
                 (A) (A) (A) (A) (A) (A) (A) (A) (A) (A) (A) (A)
                 (A) (A) (A) (A) (A) (A) (A) (A) (A) (A) (A) (A)
                 (A) (A) (A) (A) (A) (A) (A) (A) (A) (A) (A) (A)
                 (A) (A) (A) (A) (A) (A) (A) (A) (A) (A) (A) (A)
                 (A) (A) (A) (A) (A) (A) (A) (A) (A) (A) (A) (A)
                 (A) (A) (A) (A) (A) (A) (A) (A) (A) (A) (A) (A)
                 (A) (A) (A) (A) (A) (A) (A) (A) (A) (A) (A) (A)
                 (A) (A) (A) (A) (A) (A) (A) (A) (A) (A) (A) (A)
                 (A) (A) (A) (A) (A) (A) (A) (A) (A) (A) (A) (A)
                 (A) (A) (A) (A) (A) (A) (A) (A) (A) (A) (A) (A)
                 (A) (A) (A) (A) (A) (A) (A) (A) (A) (A) (A) (A)
                 (A) (A) (A) (A) (A) (A) (A) (A) (A) (A) (A) (A)
                 (A) (A) (A) (A) (A) (A) (A) (A) (A) (A) (A) (A)
                 (A) (A) (A) (A) (A) (A) (A) (A) (A) (A) (A) (A)
                 (A) (A) (A) (A)
 The electronic state is 1-A.
 Alpha  occ. eigenvalues --  -19.17754 -19.14765 -19.11834 -14.32944 -10.25063
 Alpha  occ. eigenvalues --  -10.23423 -10.22854 -10.22694 -10.20570 -10.18538
 Alpha  occ. eigenvalues --  -10.18280 -10.17866 -10.17724 -10.17551 -10.17532
 Alpha  occ. eigenvalues --  -10.17440 -10.17059  -1.05081  -1.02629  -1.00008
 Alpha  occ. eigenvalues --   -0.91177  -0.84254  -0.79036  -0.76610  -0.74549
 Alpha  occ. eigenvalues --   -0.69923  -0.69146  -0.68568  -0.67499  -0.61827
 Alpha  occ. eigenvalues --   -0.60087  -0.56430  -0.55635  -0.54029  -0.51681
 Alpha  occ. eigenvalues --   -0.49318  -0.48441  -0.47725  -0.46587  -0.45943
 Alpha  occ. eigenvalues --   -0.44541  -0.43985  -0.43600  -0.42454  -0.41890
 Alpha  occ. eigenvalues --   -0.41074  -0.39772  -0.38965  -0.38370  -0.37817
 Alpha  occ. eigenvalues --   -0.37477  -0.36979  -0.36239  -0.35746  -0.34581
 Alpha  occ. eigenvalues --   -0.34033  -0.32979  -0.32306  -0.31768  -0.30714
 Alpha  occ. eigenvalues --   -0.29253  -0.25295  -0.23859  -0.23500  -0.20034
 Alpha virt. eigenvalues --    0.00234   0.01996   0.05657   0.06477   0.10178
 Alpha virt. eigenvalues --    0.10906   0.12009   0.12355   0.12713   0.13422
 Alpha virt. eigenvalues --    0.13678   0.14336   0.14846   0.15247   0.16180
 Alpha virt. eigenvalues --    0.17244   0.17367   0.18546   0.18825   0.19369
 Alpha virt. eigenvalues --    0.19652   0.20099   0.20879   0.21505   0.21833
 Alpha virt. eigenvalues --    0.22357   0.23129   0.23595   0.24988   0.25544
 Alpha virt. eigenvalues --    0.25940   0.27394   0.29149   0.29314   0.30827
 Alpha virt. eigenvalues --    0.34522   0.37295   0.37321   0.39875   0.48008
 Alpha virt. eigenvalues --    0.49110   0.49766   0.50359   0.50758   0.53047
 Alpha virt. eigenvalues --    0.53527   0.53846   0.55065   0.55369   0.56343
 Alpha virt. eigenvalues --    0.57643   0.59579   0.60545   0.61130   0.61649
 Alpha virt. eigenvalues --    0.61876   0.62346   0.62591   0.65066   0.66160
 Alpha virt. eigenvalues --    0.67023   0.67797   0.67891   0.70434   0.71922
 Alpha virt. eigenvalues --    0.72700   0.73564   0.73769   0.74123   0.75469
 Alpha virt. eigenvalues --    0.77641   0.78894   0.79481   0.81458   0.82001
 Alpha virt. eigenvalues --    0.83138   0.83964   0.84529   0.85034   0.86013
 Alpha virt. eigenvalues --    0.87119   0.88248   0.89169   0.89660   0.89894
 Alpha virt. eigenvalues --    0.90198   0.90687   0.91635   0.92546   0.93345
 Alpha virt. eigenvalues --    0.93647   0.94517   0.94710   0.95235   0.96077
 Alpha virt. eigenvalues --    0.97092   0.98167   0.99415   1.00270   1.00943
 Alpha virt. eigenvalues --    1.01377   1.01994   1.04837   1.04966   1.07004
 Alpha virt. eigenvalues --    1.08393   1.10051   1.11965   1.14745   1.15093
 Alpha virt. eigenvalues --    1.17949   1.20925   1.22868   1.23222   1.25016
 Alpha virt. eigenvalues --    1.26768   1.28065   1.30261   1.31363   1.35564
 Alpha virt. eigenvalues --    1.35752   1.40180   1.40776   1.41459   1.43055
 Alpha virt. eigenvalues --    1.44511   1.47721   1.47950   1.48762   1.51088
 Alpha virt. eigenvalues --    1.52996   1.56809   1.58860   1.65214   1.65802
 Alpha virt. eigenvalues --    1.67994   1.68313   1.72079   1.73317   1.73465
 Alpha virt. eigenvalues --    1.75178   1.76047   1.76748   1.79875   1.80372
 Alpha virt. eigenvalues --    1.81255   1.82083   1.83788   1.85359   1.86492
 Alpha virt. eigenvalues --    1.87033   1.88456   1.89059   1.91192   1.93535
 Alpha virt. eigenvalues --    1.94888   1.95418   1.98267   1.99442   1.99990
 Alpha virt. eigenvalues --    2.02003   2.04382   2.06753   2.07818   2.08440
 Alpha virt. eigenvalues --    2.09893   2.10248   2.10763   2.11262   2.13817
 Alpha virt. eigenvalues --    2.15622   2.18299   2.19756   2.22572   2.24207
 Alpha virt. eigenvalues --    2.24764   2.25418   2.26061   2.26661   2.27558
 Alpha virt. eigenvalues --    2.30336   2.30743   2.31703   2.32711   2.35375
 Alpha virt. eigenvalues --    2.35601   2.39265   2.41651   2.44091   2.45990
 Alpha virt. eigenvalues --    2.46445   2.47886   2.50687   2.54051   2.55808
 Alpha virt. eigenvalues --    2.58792   2.60498   2.62655   2.65913   2.67055
 Alpha virt. eigenvalues --    2.69627   2.71266   2.75949   2.76309   2.77767
 Alpha virt. eigenvalues --    2.81112   2.82068   2.87753   2.88619   2.94606
 Alpha virt. eigenvalues --    2.97016   2.98013   3.04165   3.18459   3.43666
 Alpha virt. eigenvalues --    3.79013   3.88746   3.96887   4.02527   4.13331
 Alpha virt. eigenvalues --    4.13766   4.21175   4.23008   4.29652   4.31108
 Alpha virt. eigenvalues --    4.31661   4.32313   4.43632   4.49430   4.56854
 Alpha virt. eigenvalues --    4.66846   4.79485
          Condensed to atoms (all electrons):
               1          2          3          4          5          6
     1  C    5.166673   0.362984   0.366677   0.363616   0.390493  -0.078023
     2  H    0.362984   0.559209  -0.029923  -0.026671  -0.026445   0.006176
     3  H    0.366677  -0.029923   0.566360  -0.029193  -0.027359  -0.005233
     4  H    0.363616  -0.026671  -0.029193   0.574676  -0.027902  -0.001486
     5  C    0.390493  -0.026445  -0.027359  -0.027902   4.630010   0.373255
     6  C   -0.078023   0.006176  -0.005233  -0.001486   0.373255   5.213006
     7  H    0.005899  -0.000203  -0.000048  -0.000054  -0.027392   0.360689
     8  H   -0.001872  -0.000089   0.000021   0.001942  -0.023487   0.356903
     9  H   -0.004733  -0.000042   0.003479  -0.000036  -0.026795   0.368412
    10  C   -0.055095  -0.006138   0.005551  -0.006011   0.393469  -0.069247
    11  H   -0.007018   0.004527  -0.000054   0.000186  -0.027123   0.006555
    12  H   -0.005504   0.000134  -0.000043   0.003695  -0.027443  -0.000928
    13  H    0.005981  -0.000078  -0.000200  -0.000011  -0.027003  -0.006946
    14  N   -0.070979   0.001234  -0.003543   0.004461   0.313987  -0.068898
    15  H    0.007763  -0.000089  -0.000167  -0.000203  -0.033423  -0.004054
    16  C   -0.007039   0.000041   0.000044   0.000178  -0.031202  -0.006395
    17  H   -0.000347   0.000088  -0.000036   0.000015  -0.005017   0.004831
    18  H    0.004439   0.000035   0.004958  -0.000210  -0.006218  -0.002397
    19  C    0.000169  -0.000168  -0.000098  -0.000003   0.004444  -0.000034
    20  O    0.000098   0.000083  -0.000016   0.000000  -0.000054  -0.000017
    21  H   -0.000813   0.001500  -0.000029   0.000017  -0.001704   0.000327
    22  H    0.000001   0.000007  -0.000004   0.000000  -0.000271  -0.000014
    23  C   -0.000005  -0.000003   0.000008   0.000000  -0.000060   0.000011
    24  C    0.000000   0.000000   0.000000   0.000000  -0.000001   0.000000
    25  H    0.000000   0.000000   0.000000   0.000000   0.000000   0.000000
    26  C    0.000000   0.000000   0.000000   0.000000   0.000000   0.000000
    27  C    0.000000   0.000000   0.000000   0.000000   0.000000   0.000000
    28  O    0.000000   0.000000   0.000000   0.000000   0.000000   0.000000
    29  H    0.000000   0.000000   0.000000   0.000000   0.000000   0.000000
    30  H    0.000000   0.000000   0.000000   0.000000   0.000000   0.000000
    31  H    0.000000   0.000000   0.000000   0.000000   0.000000   0.000000
    32  C    0.000000   0.000000   0.000000   0.000000   0.000000   0.000000
    33  O    0.000000   0.000000   0.000000   0.000000   0.000000   0.000000
    34  H    0.000000   0.000000   0.000000   0.000000   0.000000   0.000000
    35  C    0.000000   0.000000   0.000000   0.000000   0.000000   0.000000
    36  H    0.000000   0.000000   0.000000   0.000000   0.000000   0.000000
    37  C   -0.000006   0.000001  -0.000012   0.000000  -0.000008   0.000000
    38  H    0.000001   0.000007  -0.000001   0.000000  -0.000002   0.000000
               7          8          9         10         11         12
     1  C    0.005899  -0.001872  -0.004733  -0.055095  -0.007018  -0.005504
     2  H   -0.000203  -0.000089  -0.000042  -0.006138   0.004527   0.000134
     3  H   -0.000048   0.000021   0.003479   0.005551  -0.000054  -0.000043
     4  H   -0.000054   0.001942  -0.000036  -0.006011   0.000186   0.003695
     5  C   -0.027392  -0.023487  -0.026795   0.393469  -0.027123  -0.027443
     6  C    0.360689   0.356903   0.368412  -0.069247   0.006555  -0.000928
     7  H    0.585749  -0.028302  -0.031069  -0.005764  -0.000089  -0.000125
     8  H   -0.028302   0.576899  -0.029503  -0.003059  -0.000122   0.001941
     9  H   -0.031069  -0.029503   0.564436   0.005486  -0.000192  -0.000015
    10  C   -0.005764  -0.003059   0.005486   5.165028   0.363621   0.364857
    11  H   -0.000089  -0.000122  -0.000192   0.363621   0.560479  -0.026439
    12  H   -0.000125   0.001941  -0.000015   0.364857  -0.026439   0.569216
    13  H    0.004438   0.000131  -0.000059   0.362362  -0.031046  -0.029607
    14  N   -0.001522   0.004747  -0.004964  -0.062946   0.002146   0.004693
    15  H    0.004058  -0.000085  -0.000231  -0.007312  -0.000593  -0.000190
    16  C   -0.000204   0.000185   0.003255   0.004838  -0.000129  -0.000166
    17  H    0.000027  -0.000162   0.001131  -0.000060   0.000018   0.000009
    18  H    0.000146  -0.000009   0.000549   0.000202  -0.000018  -0.000002
    19  C   -0.000021   0.000002  -0.000003  -0.000176  -0.000020   0.000002
    20  O    0.000001   0.000000  -0.000001  -0.000011  -0.000034   0.000000
    21  H   -0.000009  -0.000005  -0.000003  -0.000214   0.000585   0.000006
    22  H    0.000004   0.000000   0.000006  -0.000001   0.000001   0.000000
    23  C   -0.000001   0.000000   0.000004   0.000002   0.000000   0.000000
    24  C    0.000000   0.000000  -0.000001   0.000000   0.000000   0.000000
    25  H    0.000000   0.000000   0.000000   0.000000   0.000000   0.000000
    26  C    0.000000   0.000000   0.000000   0.000000   0.000000   0.000000
    27  C    0.000000   0.000000   0.000000   0.000000   0.000000   0.000000
    28  O    0.000000   0.000000   0.000000   0.000000   0.000000   0.000000
    29  H    0.000000   0.000000   0.000000   0.000000   0.000000   0.000000
    30  H    0.000000   0.000000   0.000000   0.000000   0.000000   0.000000
    31  H    0.000000   0.000000   0.000000   0.000000   0.000000   0.000000
    32  C    0.000000   0.000000   0.000000   0.000000   0.000000   0.000000
    33  O    0.000000   0.000000   0.000000   0.000000   0.000000   0.000000
    34  H    0.000000   0.000000   0.000000   0.000000   0.000000   0.000000
    35  C    0.000000   0.000000   0.000000   0.000000   0.000000   0.000000
    36  H    0.000000   0.000000   0.000000   0.000000   0.000000   0.000000
    37  C    0.000000   0.000000   0.000001   0.000000   0.000000   0.000000
    38  H    0.000000   0.000000   0.000000   0.000000   0.000000   0.000000
              13         14         15         16         17         18
     1  C    0.005981  -0.070979   0.007763  -0.007039  -0.000347   0.004439
     2  H   -0.000078   0.001234  -0.000089   0.000041   0.000088   0.000035
     3  H   -0.000200  -0.003543  -0.000167   0.000044  -0.000036   0.004958
     4  H   -0.000011   0.004461  -0.000203   0.000178   0.000015  -0.000210
     5  C   -0.027003   0.313987  -0.033423  -0.031202  -0.005017  -0.006218
     6  C   -0.006946  -0.068898  -0.004054  -0.006395   0.004831  -0.002397
     7  H    0.004438  -0.001522   0.004058  -0.000204   0.000027   0.000146
     8  H    0.000131   0.004747  -0.000085   0.000185  -0.000162  -0.000009
     9  H   -0.000059  -0.004964  -0.000231   0.003255   0.001131   0.000549
    10  C    0.362362  -0.062946  -0.007312   0.004838  -0.000060   0.000202
    11  H   -0.031046   0.002146  -0.000593  -0.000129   0.000018  -0.000018
    12  H   -0.029607   0.004693  -0.000190  -0.000166   0.000009  -0.000002
    13  H    0.586699  -0.005464   0.006932   0.000021  -0.000028   0.000004
    14  N   -0.005464   7.029624   0.287279   0.255698  -0.039716  -0.044345
    15  H    0.006932   0.287279   0.479741  -0.037763  -0.006510   0.006947
    16  C    0.000021   0.255698  -0.037763   5.107316   0.340028   0.361004
    17  H   -0.000028  -0.039716  -0.006510   0.340028   0.644500  -0.038288
    18  H    0.000004  -0.044345   0.006947   0.361004  -0.038288   0.575402
    19  C   -0.000003  -0.046685  -0.000517   0.330390  -0.037770  -0.027570
    20  O    0.000002  -0.026163   0.000562  -0.038275   0.003297   0.001827
    21  H   -0.000035   0.065080  -0.002209  -0.021636   0.001935  -0.001315
    22  H    0.000001  -0.006390   0.005030  -0.059906   0.000175   0.007089
    23  C    0.000000   0.004820  -0.000123  -0.038031   0.000235  -0.006342
    24  C    0.000000   0.000026  -0.000007  -0.001073   0.003295   0.000036
    25  H    0.000000  -0.000029   0.000001  -0.000014   0.000868   0.000064
    26  C    0.000000   0.000001   0.000000  -0.000216  -0.000084  -0.000014
    27  C    0.000000   0.000000   0.000000   0.000001   0.000000   0.000000
    28  O    0.000000   0.000000   0.000000   0.000000   0.000000   0.000000
    29  H    0.000000   0.000000   0.000000   0.000000   0.000000   0.000000
    30  H    0.000000   0.000000   0.000000   0.000000   0.000000   0.000000
    31  H    0.000000   0.000000   0.000000  -0.000001   0.000000   0.000000
    32  C    0.000000   0.000000   0.000000   0.000030  -0.000004  -0.000017
    33  O    0.000000   0.000000   0.000000   0.000000   0.000000   0.000000
    34  H    0.000000   0.000000   0.000000   0.000000   0.000000   0.000000
    35  C    0.000000   0.000000   0.000000  -0.000043  -0.000001  -0.000085
    36  H    0.000000   0.000000   0.000000  -0.000002   0.000000   0.000004
    37  C    0.000000   0.000026   0.000006  -0.009121   0.000349   0.005953
    38  H    0.000000  -0.000037   0.000001   0.000488   0.000030   0.001324
              19         20         21         22         23         24
     1  C    0.000169   0.000098  -0.000813   0.000001  -0.000005   0.000000
     2  H   -0.000168   0.000083   0.001500   0.000007  -0.000003   0.000000
     3  H   -0.000098  -0.000016  -0.000029  -0.000004   0.000008   0.000000
     4  H   -0.000003   0.000000   0.000017   0.000000   0.000000   0.000000
     5  C    0.004444  -0.000054  -0.001704  -0.000271  -0.000060  -0.000001
     6  C   -0.000034  -0.000017   0.000327  -0.000014   0.000011   0.000000
     7  H   -0.000021   0.000001  -0.000009   0.000004  -0.000001   0.000000
     8  H    0.000002   0.000000  -0.000005   0.000000   0.000000   0.000000
     9  H   -0.000003  -0.000001  -0.000003   0.000006   0.000004  -0.000001
    10  C   -0.000176  -0.000011  -0.000214  -0.000001   0.000002   0.000000
    11  H   -0.000020  -0.000034   0.000585   0.000001   0.000000   0.000000
    12  H    0.000002   0.000000   0.000006   0.000000   0.000000   0.000000
    13  H   -0.000003   0.000002  -0.000035   0.000001   0.000000   0.000000
    14  N   -0.046685  -0.026163   0.065080  -0.006390   0.004820   0.000026
    15  H   -0.000517   0.000562  -0.002209   0.005030  -0.000123  -0.000007
    16  C    0.330390  -0.038275  -0.021636  -0.059906  -0.038031  -0.001073
    17  H   -0.037770   0.003297   0.001935   0.000175   0.000235   0.003295
    18  H   -0.027570   0.001827  -0.001315   0.007089  -0.006342   0.000036
    19  C    4.902662   0.243087  -0.040974   0.350580   0.346005  -0.044490
    20  O    0.243087   8.321172   0.220409  -0.044026  -0.047234   0.001871
    21  H   -0.040974   0.220409   0.371698   0.001151   0.005688  -0.000147
    22  H    0.350580  -0.044026   0.001151   0.694786  -0.062046  -0.004581
    23  C    0.346005  -0.047234   0.005688  -0.062046   4.777531   0.492925
    24  C   -0.044490   0.001871  -0.000147  -0.004581   0.492925   5.116340
    25  H   -0.008961   0.000057  -0.000008   0.008056  -0.047141   0.344318
    26  C    0.005542  -0.000066   0.000004   0.000030  -0.016531   0.487720
    27  C   -0.000191   0.000000   0.000000   0.000001   0.006222  -0.051433
    28  O    0.000000   0.000000   0.000000   0.000000  -0.000036   0.000565
    29  H    0.000000   0.000000   0.000000   0.000000   0.000003  -0.000121
    30  H    0.000004   0.000000   0.000000  -0.000002  -0.000240  -0.000027
    31  H   -0.000006   0.000000   0.000000   0.000005   0.000155  -0.001474
    32  C    0.000584  -0.000003   0.000001  -0.000007  -0.038165  -0.000432
    33  O    0.000001   0.000000   0.000000   0.000000   0.000154   0.004535
    34  H    0.000000   0.000000   0.000000   0.000000  -0.000004   0.000312
    35  C    0.005997   0.000633   0.000005  -0.000091  -0.020574  -0.053957
    36  H   -0.000155   0.000001   0.000000   0.000003   0.003313   0.000791
    37  C   -0.048629   0.000428   0.000136   0.007150   0.529054  -0.042440
    38  H   -0.012378   0.015766  -0.000499   0.000538  -0.041236   0.007230
              25         26         27         28         29         30
     1  C    0.000000   0.000000   0.000000   0.000000   0.000000   0.000000
     2  H    0.000000   0.000000   0.000000   0.000000   0.000000   0.000000
     3  H    0.000000   0.000000   0.000000   0.000000   0.000000   0.000000
     4  H    0.000000   0.000000   0.000000   0.000000   0.000000   0.000000
     5  C    0.000000   0.000000   0.000000   0.000000   0.000000   0.000000
     6  C    0.000000   0.000000   0.000000   0.000000   0.000000   0.000000
     7  H    0.000000   0.000000   0.000000   0.000000   0.000000   0.000000
     8  H    0.000000   0.000000   0.000000   0.000000   0.000000   0.000000
     9  H    0.000000   0.000000   0.000000   0.000000   0.000000   0.000000
    10  C    0.000000   0.000000   0.000000   0.000000   0.000000   0.000000
    11  H    0.000000   0.000000   0.000000   0.000000   0.000000   0.000000
    12  H    0.000000   0.000000   0.000000   0.000000   0.000000   0.000000
    13  H    0.000000   0.000000   0.000000   0.000000   0.000000   0.000000
    14  N   -0.000029   0.000001   0.000000   0.000000   0.000000   0.000000
    15  H    0.000001   0.000000   0.000000   0.000000   0.000000   0.000000
    16  C   -0.000014  -0.000216   0.000001   0.000000   0.000000   0.000000
    17  H    0.000868  -0.000084   0.000000   0.000000   0.000000   0.000000
    18  H    0.000064  -0.000014   0.000000   0.000000   0.000000   0.000000
    19  C   -0.008961   0.005542  -0.000191   0.000000   0.000000   0.000004
    20  O    0.000057  -0.000066   0.000000   0.000000   0.000000   0.000000
    21  H   -0.000008   0.000004   0.000000   0.000000   0.000000   0.000000
    22  H    0.008056   0.000030   0.000001   0.000000   0.000000  -0.000002
    23  C   -0.047141  -0.016531   0.006222  -0.000036   0.000003  -0.000240
    24  C    0.344318   0.487720  -0.051433   0.000565  -0.000121  -0.000027
    25  H    0.633258  -0.047540  -0.010889   0.000070  -0.000010   0.000135
    26  C   -0.047540   4.957515   0.324341  -0.039012   0.004983  -0.034501
    27  C   -0.010889   0.324341   5.035084   0.188591  -0.014360   0.359328
    28  O    0.000070  -0.039012   0.188591   8.283541   0.226431  -0.040323
    29  H   -0.000010   0.004983  -0.014360   0.226431   0.384463  -0.005005
    30  H    0.000135  -0.034501   0.359328  -0.040323  -0.005005   0.623658
    31  H    0.007638  -0.038205   0.360183  -0.031982  -0.001457  -0.049179
    32  C    0.004595   0.452759  -0.061402   0.002672   0.000320  -0.006415
    33  O   -0.000062  -0.069283  -0.000379  -0.029905   0.001037   0.001714
    34  H   -0.000001  -0.014650  -0.004454   0.065320  -0.002382  -0.001268
    35  C    0.000214  -0.056613   0.007896   0.000010   0.000013  -0.000036
    36  H    0.000021   0.006622  -0.000194   0.000003   0.000000   0.000002
    37  C    0.006925  -0.037857   0.000312  -0.000002   0.000000   0.000019
    38  H   -0.000182   0.000374   0.000008   0.000000   0.000000   0.000000
              31         32         33         34         35         36
     1  C    0.000000   0.000000   0.000000   0.000000   0.000000   0.000000
     2  H    0.000000   0.000000   0.000000   0.000000   0.000000   0.000000
     3  H    0.000000   0.000000   0.000000   0.000000   0.000000   0.000000
     4  H    0.000000   0.000000   0.000000   0.000000   0.000000   0.000000
     5  C    0.000000   0.000000   0.000000   0.000000   0.000000   0.000000
     6  C    0.000000   0.000000   0.000000   0.000000   0.000000   0.000000
     7  H    0.000000   0.000000   0.000000   0.000000   0.000000   0.000000
     8  H    0.000000   0.000000   0.000000   0.000000   0.000000   0.000000
     9  H    0.000000   0.000000   0.000000   0.000000   0.000000   0.000000
    10  C    0.000000   0.000000   0.000000   0.000000   0.000000   0.000000
    11  H    0.000000   0.000000   0.000000   0.000000   0.000000   0.000000
    12  H    0.000000   0.000000   0.000000   0.000000   0.000000   0.000000
    13  H    0.000000   0.000000   0.000000   0.000000   0.000000   0.000000
    14  N    0.000000   0.000000   0.000000   0.000000   0.000000   0.000000
    15  H    0.000000   0.000000   0.000000   0.000000   0.000000   0.000000
    16  C   -0.000001   0.000030   0.000000   0.000000  -0.000043  -0.000002
    17  H    0.000000  -0.000004   0.000000   0.000000  -0.000001   0.000000
    18  H    0.000000  -0.000017   0.000000   0.000000  -0.000085   0.000004
    19  C   -0.000006   0.000584   0.000001   0.000000   0.005997  -0.000155
    20  O    0.000000  -0.000003   0.000000   0.000000   0.000633   0.000001
    21  H    0.000000   0.000001   0.000000   0.000000   0.000005   0.000000
    22  H    0.000005  -0.000007   0.000000   0.000000  -0.000091   0.000003
    23  C    0.000155  -0.038165   0.000154  -0.000004  -0.020574   0.003313
    24  C   -0.001474  -0.000432   0.004535   0.000312  -0.053957   0.000791
    25  H    0.007638   0.004595  -0.000062  -0.000001   0.000214   0.000021
    26  C   -0.038205   0.452759  -0.069283  -0.014650  -0.056613   0.006622
    27  C    0.360183  -0.061402  -0.000379  -0.004454   0.007896  -0.000194
    28  O   -0.031982   0.002672  -0.029905   0.065320   0.000010   0.000003
    29  H   -0.001457   0.000320   0.001037  -0.002382   0.000013   0.000000
    30  H   -0.049179  -0.006415   0.001714  -0.001268  -0.000036   0.000002
    31  H    0.600358   0.004211  -0.000077   0.001330  -0.000199   0.000002
    32  C    0.004211   4.583236   0.311286  -0.025970   0.516611  -0.033138
    33  O   -0.000077   0.311286   8.286190   0.222952  -0.057543  -0.000372
    34  H    0.001330  -0.025970   0.222952   0.323771   0.004199  -0.000068
    35  C   -0.000199   0.516611  -0.057543   0.004199   5.033362   0.342892
    36  H    0.000002  -0.033138  -0.000372  -0.000068   0.342892   0.592385
    37  C    0.000024  -0.015659   0.003109  -0.000160   0.486475  -0.041678
    38  H    0.000000   0.004060  -0.000053   0.000004  -0.044503  -0.005296
              37         38
     1  C   -0.000006   0.000001
     2  H    0.000001   0.000007
     3  H   -0.000012  -0.000001
     4  H    0.000000   0.000000
     5  C   -0.000008  -0.000002
     6  C    0.000000   0.000000
     7  H    0.000000   0.000000
     8  H    0.000000   0.000000
     9  H    0.000001   0.000000
    10  C    0.000000   0.000000
    11  H    0.000000   0.000000
    12  H    0.000000   0.000000
    13  H    0.000000   0.000000
    14  N    0.000026  -0.000037
    15  H    0.000006   0.000001
    16  C   -0.009121   0.000488
    17  H    0.000349   0.000030
    18  H    0.005953   0.001324
    19  C   -0.048629  -0.012378
    20  O    0.000428   0.015766
    21  H    0.000136  -0.000499
    22  H    0.007150   0.000538
    23  C    0.529054  -0.041236
    24  C   -0.042440   0.007230
    25  H    0.006925  -0.000182
    26  C   -0.037857   0.000374
    27  C    0.000312   0.000008
    28  O   -0.000002   0.000000
    29  H    0.000000   0.000000
    30  H    0.000019   0.000000
    31  H    0.000024   0.000000
    32  C   -0.015659   0.004060
    33  O    0.003109  -0.000053
    34  H   -0.000160   0.000004
    35  C    0.486475  -0.044503
    36  H   -0.041678  -0.005296
    37  C    4.982779   0.351918
    38  H    0.351918   0.577012
 Mulliken charges:
               1
     1  C   -0.443360
     2  H    0.153823
     3  H    0.148863
     4  H    0.142993
     5  C    0.213251
     6  C   -0.446493
     7  H    0.133791
     8  H    0.143922
     9  H    0.150888
    10  C   -0.449381
    11  H    0.154759
    12  H    0.145908
    13  H    0.133908
    14  N   -0.592140
    15  H    0.295157
    16  C   -0.152301
    17  H    0.127193
    18  H    0.156848
    19  C    0.079384
    20  O   -0.653394
    21  H    0.401057
    22  H    0.102725
    23  C    0.151644
    24  C   -0.259780
    25  H    0.108617
    26  C    0.114681
    27  C   -0.138665
    28  O   -0.625944
    29  H    0.406086
    30  H    0.152136
    31  H    0.148673
    32  C    0.300848
    33  O   -0.673305
    34  H    0.431069
    35  C   -0.164662
    36  H    0.134864
    37  C   -0.179091
    38  H    0.145427
 Sum of Mulliken charges =   0.00000
 Mulliken charges with hydrogens summed into heavy atoms:
               1
     1  C    0.002318
     5  C    0.213251
     6  C   -0.017892
    10  C   -0.014807
    14  N   -0.296982
    16  C    0.131740
    19  C    0.182109
    20  O   -0.252337
    23  C    0.151644
    24  C   -0.151162
    26  C    0.114681
    27  C    0.162144
    28  O   -0.219857
    32  C    0.300848
    33  O   -0.242236
    35  C   -0.029798
    37  C   -0.033663
 Electronic spatial extent (au):  <R**2>=           6624.2596
 Charge=              0.0000 electrons
 Dipole moment (field-independent basis, Debye):
    X=              0.7464    Y=              4.5088    Z=             -0.8424  Tot=              4.6472
 Quadrupole moment (field-independent basis, Debye-Ang):
   XX=            -81.6346   YY=           -102.3563   ZZ=           -105.0558
   XY=            -11.1345   XZ=              8.1540   YZ=             -7.2787
 Traceless Quadrupole moment (field-independent basis, Debye-Ang):
   XX=             14.7143   YY=             -6.0074   ZZ=             -8.7069
   XY=            -11.1345   XZ=              8.1540   YZ=             -7.2787
 Octapole moment (field-independent basis, Debye-Ang**2):
  XXX=            -93.1030  YYY=             12.3541  ZZZ=             -0.8844  XYY=            -26.1214
  XXY=             87.6494  XXZ=            -32.4084  XZZ=              1.9608  YZZ=              9.1453
  YYZ=              1.3599  XYZ=              3.4603
 Hexadecapole moment (field-independent basis, Debye-Ang**3):
 XXXX=          -6175.7741 YYYY=           -913.6225 ZZZZ=           -599.3685 XXXY=           -517.9296
 XXXZ=            135.8475 YYYX=            -99.6941 YYYZ=            -29.5461 ZZZX=            -32.3533
 ZZZY=             -3.7005 XXYY=          -1219.0182 XXZZ=          -1281.2518 YYZZ=           -263.0843
 XXYZ=            -18.0803 YYXZ=             -2.4285 ZZXY=             -8.8421
 N-N= 1.228239185905D+03 E-N=-4.292345353358D+03  KE= 7.811841321409D+02
 No NMR shielding tensors so no spin-rotation constants.
 Leave Link  601 at Mon Jan 25 16:27:30 2021, MaxMem=   262144000 cpu:         0.3
 (Enter /prod/apps/gaussian/g09d1/l9999.exe)
 1\1\GINC-PIRINEUS49\SP\RB3LYP\6-31G(d)\C13H21N1O3\UBAFAR01\25-Jan-2021
 \0\\#p b3lyp/6-31G(d)\\SET_328_BBB301_conf1.geo_165_105_045.n.pdb.xyz\
 \0,1\C,0,2.487,-2.392,-1.55\H,0,2.587,-3.012,-0.654\H,0,2.745,-1.363,-
 1.283\H,0,3.219,-2.731,-2.288\C,0,1.067,-2.5,-2.123\C,0,0.923,-1.595,-
 3.361\H,0,-0.081,-1.677,-3.788\H,0,1.64,-1.875,-4.138\H,0,1.097,-0.545
 ,-3.109\C,0,0.789,-3.957,-2.513\H,0,0.876,-4.613,-1.641\H,0,1.496,-4.2
 99,-3.275\H,0,-0.221,-4.071,-2.923\N,0,0.083,-2.158,-1.064\H,0,-0.848,
 -2.401,-1.405\C,0,0.055,-0.779,-0.572\H,0,-0.401,-0.06,-1.267\H,0,1.08
 3,-0.456,-0.391\C,0,-0.7,-0.763,0.777\O,0,-0.176,-1.801,1.592\H,0,0.08
 3,-2.483,0.933\H,0,-1.768,-0.944,0.568\C,0,-0.573,0.571,1.479\C,0,-1.5
 ,1.591,1.248\H,0,-2.35,1.405,0.596\C,0,-1.381,2.847,1.845\C,0,-2.455,3
 .886,1.664\O,0,-1.839,5.177,1.487\H,0,-2.522,5.857,1.61\H,0,-3.11,3.91
 4,2.546\H,0,-3.076,3.635,0.797\C,0,-0.282,3.097,2.689\O,0,-0.107,4.307
 ,3.291\H,0,-0.682,4.941,2.806\C,0,0.649,2.083,2.936\H,0,1.484,2.294,3.
 597\C,0,0.5,0.833,2.341\H,0,1.21,0.039,2.541\\Version=AM64L-G09RevD.01
 \State=1-A\HF=-788.4308503\RMSD=7.419e-09\Dipole=-1.0268938,0.2848677,
 -1.4856455\Quadrupole=4.1843598,3.701244,-7.8856038,-11.9231826,-2.227
 2623,5.6135551\PG=C01 [X(C13H21N1O3)]\\@


 THE PROGRESS OF RIVERS TO THE SEA IS NOT AS RAPID
 AS THAT OF MAN TO ERROR.
                                              -- VOLTAIRE
 Job cpu time:       0 days  0 hours  3 minutes 57.5 seconds.
 File lengths (MBytes):  RWF=     50 Int=      0 D2E=      0 Chk=      4 Scr=      1
 Normal termination of Gaussian 09 at Mon Jan 25 16:27:30 2021.
 Initial command:
 /prod/apps/gaussian/g09d1/l1.exe "/tmp/ubafar01/1643618/Gau-157348.inp" -scrdir="/tmp/ubafar01/1643618/"
 Entering Link 1 = /prod/apps/gaussian/g09d1/l1.exe PID=    157469.
  
 Copyright (c) 1988,1990,1992,1993,1995,1998,2003,2009,2013,
            Gaussian, Inc.  All Rights Reserved.
  
 This is part of the Gaussian(R) 09 program.  It is based on
 the Gaussian(R) 03 system (copyright 2003, Gaussian, Inc.),
 the Gaussian(R) 98 system (copyright 1998, Gaussian, Inc.),
 the Gaussian(R) 94 system (copyright 1995, Gaussian, Inc.),
 the Gaussian 92(TM) system (copyright 1992, Gaussian, Inc.),
 the Gaussian 90(TM) system (copyright 1990, Gaussian, Inc.),
 the Gaussian 88(TM) system (copyright 1988, Gaussian, Inc.),
 the Gaussian 86(TM) system (copyright 1986, Carnegie Mellon
 University), and the Gaussian 82(TM) system (copyright 1983,
 Carnegie Mellon University). Gaussian is a federally registered
 trademark of Gaussian, Inc.
  
 This software contains proprietary and confidential information,
 including trade secrets, belonging to Gaussian, Inc.
  
 This software is provided under written license and may be
 used, copied, transmitted, or stored only in accord with that
 written license.
  
 The following legend is applicable only to US Government
 contracts under FAR:
  
                    RESTRICTED RIGHTS LEGEND
  
 Use, reproduction and disclosure by the US Government is
 subject to restrictions as set forth in subparagraphs (a)
 and (c) of the Commercial Computer Software - Restricted
 Rights clause in FAR 52.227-19.
  
 Gaussian, Inc.
 340 Quinnipiac St., Bldg. 40, Wallingford CT 06492
  
  
 ---------------------------------------------------------------
 Warning -- This program may not be used in any manner that
 competes with the business of Gaussian, Inc. or will provide
 assistance to any competitor of Gaussian, Inc.  The licensee
 of this program is prohibited from giving any competitor of
 Gaussian, Inc. access to this program.  By using this program,
 the user acknowledges that Gaussian, Inc. is engaged in the
 business of creating and licensing software in the field of
 computational chemistry and represents and warrants to the
 licensee that it is not a competitor of Gaussian, Inc. and that
 it will not use this program in any manner prohibited above.
 ---------------------------------------------------------------
  

 Cite this work as:
 Gaussian 09, Revision D.01,
 M. J. Frisch, G. W. Trucks, H. B. Schlegel, G. E. Scuseria, 
 M. A. Robb, J. R. Cheeseman, G. Scalmani, V. Barone, B. Mennucci, 
 G. A. Petersson, H. Nakatsuji, M. Caricato, X. Li, H. P. Hratchian, 
 A. F. Izmaylov, J. Bloino, G. Zheng, J. L. Sonnenberg, M. Hada, 
 M. Ehara, K. Toyota, R. Fukuda, J. Hasegawa, M. Ishida, T. Nakajima, 
 Y. Honda, O. Kitao, H. Nakai, T. Vreven, J. A. Montgomery, Jr., 
 J. E. Peralta, F. Ogliaro, M. Bearpark, J. J. Heyd, E. Brothers, 
 K. N. Kudin, V. N. Staroverov, T. Keith, R. Kobayashi, J. Normand, 
 K. Raghavachari, A. Rendell, J. C. Burant, S. S. Iyengar, J. Tomasi, 
 M. Cossi, N. Rega, J. M. Millam, M. Klene, J. E. Knox, J. B. Cross, 
 V. Bakken, C. Adamo, J. Jaramillo, R. Gomperts, R. E. Stratmann, 
 O. Yazyev, A. J. Austin, R. Cammi, C. Pomelli, J. W. Ochterski, 
 R. L. Martin, K. Morokuma, V. G. Zakrzewski, G. A. Voth, 
 P. Salvador, J. J. Dannenberg, S. Dapprich, A. D. Daniels, 
 O. Farkas, J. B. Foresman, J. V. Ortiz, J. Cioslowski, 
 and D. J. Fox, Gaussian, Inc., Wallingford CT, 2013.
 
 ******************************************
 Gaussian 09:  AM64L-G09RevD.01 24-Apr-2013
                25-Jan-2021 
 ******************************************
 %nproc=1
 Will use up to    1 processors via shared memory.
 %Chk=SET_328_BBB301_conf1.geo_165_105_045.n.pdb.xyz.mst.n.o.chk
 %mem=2000MB
 %subst l301 /dades/curu/work_g09D01_MST_AddSphPartition_ReadGammas/exe-dir/
 %subst l502 /dades/curu/work_g09D01_MST_AddSphPartition_ReadGammas/exe-dir/
 ----------------------------------------------------------------------
 #p b3lyp/6-31G(d) scrf=(iefpcm,read,solvent=n-Octanol) geom=allcheck g
 uess=read
 ----------------------------------------------------------------------
 1/29=7,38=1,40=2/1;
 2/12=2,40=1/2;
 3/5=1,6=6,7=1,11=2,14=-4,16=1,25=1,30=1,70=2203,72=25,74=-5,116=-2/1,2,3;
 4/5=1/1;
 5/5=2,38=6,53=25/2;
 6/7=2,8=2,9=2,10=2,28=1/1;
 99/5=1,9=1/99;
 Leave Link    1 at Mon Jan 25 16:27:30 2021, MaxMem=   262144000 cpu:         0.0
 (Enter /prod/apps/gaussian/g09d1/l101.exe)
 Structure from the checkpoint file:  "SET_328_BBB301_conf1.geo_165_105_045.n.pdb.xyz.mst.n.o.chk"
 ----------------------------------------------
 SET_328_BBB301_conf1.geo_165_105_045.n.pdb.xyz
 ----------------------------------------------
 Charge =  0 Multiplicity = 1
 Z-Matrix found in file.
 C,0,2.487,-2.392,-1.55
 H,0,2.587,-3.012,-0.654
 H,0,2.745,-1.363,-1.283
 H,0,3.219,-2.731,-2.288
 C,0,1.067,-2.5,-2.123
 C,0,0.923,-1.595,-3.361
 H,0,-0.081,-1.677,-3.788
 H,0,1.64,-1.875,-4.138
 H,0,1.097,-0.545,-3.109
 C,0,0.789,-3.957,-2.513
 H,0,0.876,-4.613,-1.641
 H,0,1.496,-4.299,-3.275
 H,0,-0.221,-4.071,-2.923
 N,0,0.083,-2.158,-1.064
 H,0,-0.848,-2.401,-1.405
 C,0,0.055,-0.779,-0.572
 H,0,-0.401,-0.06,-1.267
 H,0,1.083,-0.456,-0.391
 C,0,-0.7,-0.763,0.777
 O,0,-0.176,-1.801,1.592
 H,0,0.083,-2.483,0.933
 H,0,-1.768,-0.944,0.568
 C,0,-0.573,0.571,1.479
 C,0,-1.5,1.591,1.248
 H,0,-2.35,1.405,0.596
 C,0,-1.381,2.847,1.845
 C,0,-2.455,3.886,1.664
 O,0,-1.839,5.177,1.487
 H,0,-2.522,5.857,1.61
 H,0,-3.11,3.914,2.546
 H,0,-3.076,3.635,0.797
 C,0,-0.282,3.097,2.689
 O,0,-0.107,4.307,3.291
 H,0,-0.682,4.941,2.806
 C,0,0.649,2.083,2.936
 H,0,1.484,2.294,3.597
 C,0,0.5,0.833,2.341
 H,0,1.21,0.039,2.541
 Recover connectivity data from disk.
 NAtoms=     38 NQM=       38 NQMF=       0 NMMI=      0 NMMIF=      0
                NMic=       0 NMicF=      0.
                    Isotopes and Nuclear Properties:
 (Nuclear quadrupole moments (NQMom) in fm**2, nuclear magnetic moments (NMagM)
  in nuclear magnetons)

  Atom         1           2           3           4           5           6           7           8           9          10
 IAtWgt=          12           1           1           1          12          12           1           1           1          12
 AtmWgt=  12.0000000   1.0078250   1.0078250   1.0078250  12.0000000  12.0000000   1.0078250   1.0078250   1.0078250  12.0000000
 NucSpn=           0           1           1           1           0           0           1           1           1           0
 AtZEff=  -3.6000000  -1.0000000  -1.0000000  -1.0000000  -3.6000000  -3.6000000  -1.0000000  -1.0000000  -1.0000000  -3.6000000
 NQMom=    0.0000000   0.0000000   0.0000000   0.0000000   0.0000000   0.0000000   0.0000000   0.0000000   0.0000000   0.0000000
 NMagM=    0.0000000   2.7928460   2.7928460   2.7928460   0.0000000   0.0000000   2.7928460   2.7928460   2.7928460   0.0000000
 AtZNuc=   6.0000000   1.0000000   1.0000000   1.0000000   6.0000000   6.0000000   1.0000000   1.0000000   1.0000000   6.0000000

  Atom        11          12          13          14          15          16          17          18          19          20
 IAtWgt=           1           1           1          14           1          12           1           1          12          16
 AtmWgt=   1.0078250   1.0078250   1.0078250  14.0030740   1.0078250  12.0000000   1.0078250   1.0078250  12.0000000  15.9949146
 NucSpn=           1           1           1           2           1           0           1           1           0           0
 AtZEff=  -1.0000000  -1.0000000  -1.0000000  -4.5500000  -1.0000000  -3.6000000  -1.0000000  -1.0000000  -3.6000000  -5.6000000
 NQMom=    0.0000000   0.0000000   0.0000000   2.0440000   0.0000000   0.0000000   0.0000000   0.0000000   0.0000000   0.0000000
 NMagM=    2.7928460   2.7928460   2.7928460   0.4037610   2.7928460   0.0000000   2.7928460   2.7928460   0.0000000   0.0000000
 AtZNuc=   1.0000000   1.0000000   1.0000000   7.0000000   1.0000000   6.0000000   1.0000000   1.0000000   6.0000000   8.0000000

  Atom        21          22          23          24          25          26          27          28          29          30
 IAtWgt=           1           1          12          12           1          12          12          16           1           1
[...]
    14  N   -0.001429   0.004700  -0.004979  -0.063148   0.002068   0.004637
    15  H    0.003785  -0.000084  -0.000227  -0.006844  -0.000545  -0.000167
    16  C   -0.000210   0.000180   0.003255   0.004925  -0.000136  -0.000168
    17  H    0.000029  -0.000164   0.001053  -0.000058   0.000018   0.000009
    18  H    0.000144  -0.000008   0.000511   0.000201  -0.000018  -0.000002
    19  C   -0.000021   0.000001   0.000002  -0.000177  -0.000021   0.000002
    20  O    0.000001   0.000000  -0.000001  -0.000010  -0.000035   0.000000
    21  H   -0.000009  -0.000005  -0.000003  -0.000229   0.000614   0.000006
    22  H    0.000004   0.000000   0.000005  -0.000001   0.000001   0.000000
    23  C   -0.000001   0.000000   0.000003   0.000001   0.000000   0.000000
    24  C    0.000000   0.000000  -0.000001   0.000000   0.000000   0.000000
    25  H    0.000000   0.000000   0.000000   0.000000   0.000000   0.000000
    26  C    0.000000   0.000000   0.000000   0.000000   0.000000   0.000000
    27  C    0.000000   0.000000   0.000000   0.000000   0.000000   0.000000
    28  O    0.000000   0.000000   0.000000   0.000000   0.000000   0.000000
    29  H    0.000000   0.000000   0.000000   0.000000   0.000000   0.000000
    30  H    0.000000   0.000000   0.000000   0.000000   0.000000   0.000000
    31  H    0.000000   0.000000   0.000000   0.000000   0.000000   0.000000
    32  C    0.000000   0.000000   0.000000   0.000000   0.000000   0.000000
    33  O    0.000000   0.000000   0.000000   0.000000   0.000000   0.000000
    34  H    0.000000   0.000000   0.000000   0.000000   0.000000   0.000000
    35  C    0.000000   0.000000   0.000000   0.000000   0.000000   0.000000
    36  H    0.000000   0.000000   0.000000   0.000000   0.000000   0.000000
    37  C    0.000000   0.000000   0.000001   0.000000   0.000000   0.000000
    38  H    0.000000   0.000000   0.000000   0.000000   0.000000   0.000000
              13         14         15         16         17         18
     1  C    0.005912  -0.071384   0.007426  -0.007073  -0.000334   0.004712
     2  H   -0.000078   0.001346  -0.000086   0.000020   0.000087   0.000021
     3  H   -0.000198  -0.003463  -0.000166  -0.000118  -0.000019   0.004825
     4  H   -0.000011   0.004417  -0.000191   0.000164   0.000015  -0.000221
     5  C   -0.026645   0.313288  -0.032109  -0.031017  -0.004764  -0.006236
     6  C   -0.006756  -0.068975  -0.003678  -0.006418   0.004788  -0.002344
     7  H    0.004281  -0.001429   0.003785  -0.000210   0.000029   0.000144
     8  H    0.000124   0.004700  -0.000084   0.000180  -0.000164  -0.000008
     9  H   -0.000055  -0.004979  -0.000227   0.003255   0.001053   0.000511
    10  C    0.363931  -0.063148  -0.006844   0.004925  -0.000058   0.000201
    11  H   -0.030878   0.002068  -0.000545  -0.000136   0.000018  -0.000018
    12  H   -0.029071   0.004637  -0.000167  -0.000168   0.000009  -0.000002
    13  H    0.577223  -0.005173   0.006498   0.000025  -0.000027   0.000003
    14  N   -0.005173   7.027992   0.291841   0.258906  -0.038337  -0.044795
    15  H    0.006498   0.291841   0.455212  -0.036446  -0.006219   0.006655
    16  C    0.000025   0.258906  -0.036446   5.085141   0.343728   0.361800
    17  H   -0.000027  -0.038337  -0.006219   0.343728   0.633185  -0.038692
    18  H    0.000003  -0.044795   0.006655   0.361800  -0.038692   0.580258
    19  C   -0.000002  -0.047354  -0.000608   0.335598  -0.038131  -0.028630
    20  O    0.000002  -0.026875   0.000532  -0.038593   0.003240   0.001518
    21  H   -0.000036   0.069027  -0.002195  -0.021444   0.001988  -0.001335
    22  H    0.000001  -0.005888   0.004595  -0.056613  -0.000406   0.006955
    23  C    0.000000   0.004750  -0.000097  -0.037834   0.000260  -0.006567
    24  C    0.000000   0.000025  -0.000007  -0.001184   0.003311  -0.000034
    25  H    0.000000  -0.000026   0.000001   0.000043   0.000830   0.000055
    26  C    0.000000   0.000001   0.000000  -0.000216  -0.000084  -0.000009
    27  C    0.000000   0.000000   0.000000   0.000001   0.000000   0.000000
    28  O    0.000000   0.000000   0.000000   0.000000   0.000000   0.000000
    29  H    0.000000   0.000000   0.000000   0.000000   0.000000   0.000000
    30  H    0.000000   0.000000   0.000000   0.000000   0.000000   0.000000
    31  H    0.000000   0.000000   0.000000  -0.000001   0.000000   0.000000
    32  C    0.000000   0.000000   0.000000   0.000033  -0.000004  -0.000018
    33  O    0.000000   0.000000   0.000000   0.000000   0.000000   0.000000
    34  H    0.000000   0.000000   0.000000   0.000000   0.000000   0.000000
    35  C    0.000000   0.000000   0.000000  -0.000053   0.000001  -0.000084
    36  H    0.000000   0.000000   0.000000  -0.000002   0.000000   0.000004
    37  C    0.000000   0.000029   0.000005  -0.008775   0.000317   0.005962
    38  H    0.000000  -0.000038   0.000001   0.000545   0.000030   0.001303
              19         20         21         22         23         24
     1  C    0.000171   0.000101  -0.000853   0.000002  -0.000003   0.000000
     2  H   -0.000173   0.000067   0.001576   0.000006  -0.000003   0.000000
     3  H   -0.000096  -0.000016  -0.000033  -0.000004   0.000008   0.000000
     4  H   -0.000004   0.000000   0.000018   0.000000   0.000000   0.000000
     5  C    0.004433  -0.000034  -0.001778  -0.000255  -0.000066  -0.000001
     6  C   -0.000030  -0.000017   0.000345  -0.000014   0.000011   0.000000
     7  H   -0.000021   0.000001  -0.000009   0.000004  -0.000001   0.000000
     8  H    0.000001   0.000000  -0.000005   0.000000   0.000000   0.000000
     9  H    0.000002  -0.000001  -0.000003   0.000005   0.000003  -0.000001
    10  C   -0.000177  -0.000010  -0.000229  -0.000001   0.000001   0.000000
    11  H   -0.000021  -0.000035   0.000614   0.000001   0.000000   0.000000
    12  H    0.000002   0.000000   0.000006   0.000000   0.000000   0.000000
    13  H   -0.000002   0.000002  -0.000036   0.000001   0.000000   0.000000
    14  N   -0.047354  -0.026875   0.069027  -0.005888   0.004750   0.000025
    15  H   -0.000608   0.000532  -0.002195   0.004595  -0.000097  -0.000007
    16  C    0.335598  -0.038593  -0.021444  -0.056613  -0.037834  -0.001184
    17  H   -0.038131   0.003240   0.001988  -0.000406   0.000260   0.003311
    18  H   -0.028630   0.001518  -0.001335   0.006955  -0.006567  -0.000034
    19  C    4.902579   0.238800  -0.041754   0.356368   0.346215  -0.044638
    20  O    0.238800   8.347066   0.218877  -0.044249  -0.046505   0.001853
    21  H   -0.041754   0.218877   0.367027   0.001081   0.005753  -0.000140
    22  H    0.356368  -0.044249   0.001081   0.677197  -0.061998  -0.004524
    23  C    0.346215  -0.046505   0.005753  -0.061998   4.792185   0.491942
    24  C   -0.044638   0.001853  -0.000140  -0.004524   0.491942   5.122057
    25  H   -0.008334   0.000057  -0.000007   0.007444  -0.046130   0.348367
    26  C    0.005426  -0.000069   0.000004   0.000071  -0.017991   0.487773
    27  C   -0.000182   0.000000   0.000000   0.000002   0.005975  -0.050315
    28  O    0.000000   0.000000   0.000000   0.000000  -0.000038   0.000607
    29  H    0.000000   0.000000   0.000000   0.000000   0.000002  -0.000106
    30  H    0.000004   0.000000   0.000000  -0.000001  -0.000258  -0.000075
    31  H   -0.000005   0.000000   0.000000   0.000005   0.000228  -0.001644
    32  C    0.000584  -0.000003   0.000001  -0.000010  -0.037798  -0.002631
    33  O    0.000000   0.000000   0.000000   0.000000   0.000137   0.004652
    34  H    0.000000   0.000000   0.000000   0.000000   0.000002   0.000294
    35  C    0.005907   0.000639   0.000005  -0.000086  -0.022443  -0.053645
    36  H   -0.000152   0.000000   0.000000   0.000003   0.003436   0.000677
    37  C   -0.049536   0.000597   0.000126   0.007186   0.526921  -0.043067
    38  H   -0.012513   0.016236  -0.000486   0.000529  -0.043024   0.007245
              25         26         27         28         29         30
     1  C    0.000000   0.000000   0.000000   0.000000   0.000000   0.000000
     2  H    0.000000   0.000000   0.000000   0.000000   0.000000   0.000000
     3  H    0.000000   0.000000   0.000000   0.000000   0.000000   0.000000
     4  H    0.000000   0.000000   0.000000   0.000000   0.000000   0.000000
     5  C    0.000000   0.000000   0.000000   0.000000   0.000000   0.000000
     6  C    0.000000   0.000000   0.000000   0.000000   0.000000   0.000000
     7  H    0.000000   0.000000   0.000000   0.000000   0.000000   0.000000
     8  H    0.000000   0.000000   0.000000   0.000000   0.000000   0.000000
     9  H    0.000000   0.000000   0.000000   0.000000   0.000000   0.000000
    10  C    0.000000   0.000000   0.000000   0.000000   0.000000   0.000000
    11  H    0.000000   0.000000   0.000000   0.000000   0.000000   0.000000
    12  H    0.000000   0.000000   0.000000   0.000000   0.000000   0.000000
    13  H    0.000000   0.000000   0.000000   0.000000   0.000000   0.000000
    14  N   -0.000026   0.000001   0.000000   0.000000   0.000000   0.000000
    15  H    0.000001   0.000000   0.000000   0.000000   0.000000   0.000000
    16  C    0.000043  -0.000216   0.000001   0.000000   0.000000   0.000000
    17  H    0.000830  -0.000084   0.000000   0.000000   0.000000   0.000000
    18  H    0.000055  -0.000009   0.000000   0.000000   0.000000   0.000000
    19  C   -0.008334   0.005426  -0.000182   0.000000   0.000000   0.000004
    20  O    0.000057  -0.000069   0.000000   0.000000   0.000000   0.000000
    21  H   -0.000007   0.000004   0.000000   0.000000   0.000000   0.000000
    22  H    0.007444   0.000071   0.000002   0.000000   0.000000  -0.000001
    23  C   -0.046130  -0.017991   0.005975  -0.000038   0.000002  -0.000258
    24  C    0.348367   0.487773  -0.050315   0.000607  -0.000106  -0.000075
    25  H    0.606192  -0.044544  -0.009699   0.000063  -0.000009   0.000117
    26  C   -0.044544   4.961628   0.327637  -0.039566   0.004632  -0.034781
    27  C   -0.009699   0.327637   5.009671   0.191618  -0.013761   0.363715
    28  O    0.000063  -0.039566   0.191618   8.288145   0.234747  -0.038585
    29  H   -0.000009   0.004632  -0.013761   0.234747   0.345259  -0.004901
    30  H    0.000117  -0.034781   0.363715  -0.038585  -0.004901   0.604484
    31  H    0.007123  -0.039998   0.364581  -0.032026  -0.001113  -0.045995
    32  C    0.004432   0.454337  -0.060537   0.002942   0.000251  -0.006723
    33  O   -0.000060  -0.068710  -0.000126  -0.030672   0.000914   0.001605
    34  H    0.000001  -0.014765  -0.005028   0.069308  -0.002192  -0.001325
    35  C    0.000256  -0.055073   0.007464   0.000050   0.000011  -0.000040
    36  H    0.000020   0.006751  -0.000183   0.000004   0.000000   0.000003
    37  C    0.006594  -0.038072   0.000334  -0.000004   0.000000   0.000017
    38  H   -0.000176   0.000324   0.000007   0.000000   0.000000   0.000000
              31         32         33         34         35         36
     1  C    0.000000   0.000000   0.000000   0.000000   0.000000   0.000000
     2  H    0.000000   0.000000   0.000000   0.000000   0.000000   0.000000
     3  H    0.000000   0.000000   0.000000   0.000000   0.000000   0.000000
     4  H    0.000000   0.000000   0.000000   0.000000   0.000000   0.000000
     5  C    0.000000   0.000000   0.000000   0.000000   0.000000   0.000000
     6  C    0.000000   0.000000   0.000000   0.000000   0.000000   0.000000
     7  H    0.000000   0.000000   0.000000   0.000000   0.000000   0.000000
     8  H    0.000000   0.000000   0.000000   0.000000   0.000000   0.000000
     9  H    0.000000   0.000000   0.000000   0.000000   0.000000   0.000000
    10  C    0.000000   0.000000   0.000000   0.000000   0.000000   0.000000
    11  H    0.000000   0.000000   0.000000   0.000000   0.000000   0.000000
    12  H    0.000000   0.000000   0.000000   0.000000   0.000000   0.000000
    13  H    0.000000   0.000000   0.000000   0.000000   0.000000   0.000000
    14  N    0.000000   0.000000   0.000000   0.000000   0.000000   0.000000
    15  H    0.000000   0.000000   0.000000   0.000000   0.000000   0.000000
    16  C   -0.000001   0.000033   0.000000   0.000000  -0.000053  -0.000002
    17  H    0.000000  -0.000004   0.000000   0.000000   0.000001   0.000000
    18  H    0.000000  -0.000018   0.000000   0.000000  -0.000084   0.000004
    19  C   -0.000005   0.000584   0.000000   0.000000   0.005907  -0.000152
    20  O    0.000000  -0.000003   0.000000   0.000000   0.000639   0.000000
    21  H    0.000000   0.000001   0.000000   0.000000   0.000005   0.000000
    22  H    0.000005  -0.000010   0.000000   0.000000  -0.000086   0.000003
    23  C    0.000228  -0.037798   0.000137   0.000002  -0.022443   0.003436
    24  C   -0.001644  -0.002631   0.004652   0.000294  -0.053645   0.000677
    25  H    0.007123   0.004432  -0.000060   0.000001   0.000256   0.000020
    26  C   -0.039998   0.454337  -0.068710  -0.014765  -0.055073   0.006751
    27  C    0.364581  -0.060537  -0.000126  -0.005028   0.007464  -0.000183
    28  O   -0.032026   0.002942  -0.030672   0.069308   0.000050   0.000004
    29  H   -0.001113   0.000251   0.000914  -0.002192   0.000011   0.000000
    30  H   -0.045995  -0.006723   0.001605  -0.001325  -0.000040   0.000003
    31  H    0.585168   0.004448  -0.000085   0.001355  -0.000188   0.000002
    32  C    0.004448   4.596826   0.308585  -0.024552   0.516250  -0.035735
    33  O   -0.000085   0.308585   8.306503   0.219712  -0.058626  -0.000156
    34  H    0.001355  -0.024552   0.219712   0.315460   0.004126  -0.000058
    35  C   -0.000188   0.516250  -0.058626   0.004126   5.047392   0.343650
    36  H    0.000002  -0.035735  -0.000156  -0.000058   0.343650   0.593327
    37  C    0.000019  -0.017481   0.003168  -0.000155   0.487326  -0.040861
    38  H    0.000000   0.004144  -0.000054   0.000004  -0.044542  -0.005385
              37         38
     1  C   -0.000006   0.000001
     2  H    0.000001   0.000008
     3  H   -0.000012  -0.000001
     4  H    0.000000   0.000000
     5  C   -0.000008  -0.000002
     6  C    0.000000   0.000000
     7  H    0.000000   0.000000
     8  H    0.000000   0.000000
     9  H    0.000001   0.000000
    10  C    0.000000   0.000000
    11  H    0.000000   0.000000
    12  H    0.000000   0.000000
    13  H    0.000000   0.000000
    14  N    0.000029  -0.000038
    15  H    0.000005   0.000001
    16  C   -0.008775   0.000545
    17  H    0.000317   0.000030
    18  H    0.005962   0.001303
    19  C   -0.049536  -0.012513
    20  O    0.000597   0.016236
    21  H    0.000126  -0.000486
    22  H    0.007186   0.000529
    23  C    0.526921  -0.043024
    24  C   -0.043067   0.007245
    25  H    0.006594  -0.000176
    26  C   -0.038072   0.000324
    27  C    0.000334   0.000007
    28  O   -0.000004   0.000000
    29  H    0.000000   0.000000
    30  H    0.000017   0.000000
    31  H    0.000019   0.000000
    32  C   -0.017481   0.004144
    33  O    0.003168  -0.000054
    34  H   -0.000155   0.000004
    35  C    0.487326  -0.044542
    36  H   -0.040861  -0.005385
    37  C    4.996495   0.352267
    38  H    0.352267   0.581194
 Mulliken charges:
               1
     1  C   -0.446616
     2  H    0.149987
     3  H    0.148249
     4  H    0.147298
     5  C    0.214590
     6  C   -0.450764
     7  H    0.140357
     8  H    0.146526
     9  H    0.149847
    10  C   -0.453658
    11  H    0.151305
    12  H    0.148872
    13  H    0.140928
    14  N   -0.601162
    15  H    0.313119
    16  C   -0.148064
    17  H    0.134354
    18  H    0.154065
    19  C    0.076269
    20  O   -0.673178
    21  H    0.403858
    22  H    0.112597
    23  C    0.142926
    24  C   -0.266789
    25  H    0.127390
    26  C    0.105294
    27  C   -0.131174
    28  O   -0.646594
    29  H    0.436265
    30  H    0.162739
    31  H    0.158126
    32  C    0.292659
    33  O   -0.686786
    34  H    0.437812
    35  C   -0.178296
    36  H    0.134654
    37  C   -0.189389
    38  H    0.142384
 Sum of Mulliken charges =   0.00000
 Mulliken charges with hydrogens summed into heavy atoms:
               1
     1  C   -0.001082
     5  C    0.214590
     6  C   -0.014034
    10  C   -0.012552
    14  N   -0.288043
    16  C    0.140355
    19  C    0.188867
    20  O   -0.269320
    23  C    0.142926
    24  C   -0.139399
    26  C    0.105294
    27  C    0.189690
    28  O   -0.210330
    32  C    0.292659
    33  O   -0.248975
    35  C   -0.043642
    37  C   -0.047006
 Electronic spatial extent (au):  <R**2>=           6621.3204
 Charge=              0.0000 electrons
 Dipole moment (field-independent basis, Debye):
    X=              0.7302    Y=              5.5752    Z=             -1.1874  Tot=              5.7468
 Quadrupole moment (field-independent basis, Debye-Ang):
   XX=            -78.0013   YY=           -102.1435   ZZ=           -104.9485
   XY=            -12.7779   XZ=              9.0956   YZ=             -7.8842
 Traceless Quadrupole moment (field-independent basis, Debye-Ang):
   XX=             17.0298   YY=             -7.1124   ZZ=             -9.9174
   XY=            -12.7779   XZ=              9.0956   YZ=             -7.8842
 Octapole moment (field-independent basis, Debye-Ang**2):
  XXX=           -104.7737  YYY=             17.6852  ZZZ=             -2.0104  XYY=            -28.5469
  XXY=            102.9938  XXZ=            -37.7549  XZZ=              2.4745  YZZ=             10.8527
  YYZ=              0.7138  XYZ=              3.6446
 Hexadecapole moment (field-independent basis, Debye-Ang**3):
 XXXX=          -6031.5810 YYYY=           -910.7351 ZZZZ=           -598.2488 XXXY=           -568.2670
 XXXZ=            155.9600 YYYX=           -110.2115 YYYZ=            -32.1304 ZZZX=            -29.4894
 ZZZY=             -5.7049 XXYY=          -1197.2325 XXZZ=          -1276.4276 YYZZ=           -263.1914
 XXYZ=            -22.0290 YYXZ=              0.7611 ZZXY=             -9.9860
 N-N= 1.228223280306D+03 E-N=-4.292622791582D+03  KE= 7.811797286234D+02
 No NMR shielding tensors so no spin-rotation constants.
 Leave Link  601 at Mon Jan 25 16:30:43 2021, MaxMem=   262144000 cpu:         0.7
 (Enter /prod/apps/gaussian/g09d1/l9999.exe)
 1\1\GINC-PIRINEUS49\SP\RB3LYP\6-31G(d)\C13H21N1O3\UBAFAR01\25-Jan-2021
 \0\\#p b3lyp/6-31G(d) scrf=(iefpcm,read,solvent=n-Octanol) geom=allche
 ck guess=read\\SET_328_BBB301_conf1.geo_165_105_045.n.pdb.xyz\\0,1\C,0
 ,2.487,-2.392,-1.55\H,0,2.587,-3.012,-0.654\H,0,2.745,-1.363,-1.283\H,
 0,3.219,-2.731,-2.288\C,0,1.067,-2.5,-2.123\C,0,0.923,-1.595,-3.361\H,
 0,-0.081,-1.677,-3.788\H,0,1.64,-1.875,-4.138\H,0,1.097,-0.545,-3.109\
 C,0,0.789,-3.957,-2.513\H,0,0.876,-4.613,-1.641\H,0,1.496,-4.299,-3.27
 5\H,0,-0.221,-4.071,-2.923\N,0,0.083,-2.158,-1.064\H,0,-0.848,-2.401,-
 1.405\C,0,0.055,-0.779,-0.572\H,0,-0.401,-0.06,-1.267\H,0,1.083,-0.456
 ,-0.391\C,0,-0.7,-0.763,0.777\O,0,-0.176,-1.801,1.592\H,0,0.083,-2.483
 ,0.933\H,0,-1.768,-0.944,0.568\C,0,-0.573,0.571,1.479\C,0,-1.5,1.591,1
 .248\H,0,-2.35,1.405,0.596\C,0,-1.381,2.847,1.845\C,0,-2.455,3.886,1.6
 64\O,0,-1.839,5.177,1.487\H,0,-2.522,5.857,1.61\H,0,-3.11,3.914,2.546\
 H,0,-3.076,3.635,0.797\C,0,-0.282,3.097,2.689\O,0,-0.107,4.307,3.291\H
 ,0,-0.682,4.941,2.806\C,0,0.649,2.083,2.936\H,0,1.484,2.294,3.597\C,0,
 0.5,0.833,2.341\H,0,1.21,0.039,2.541\\Version=AM64L-G09RevD.01\State=1
 -A\HF=-788.457751\RMSD=6.974e-09\Dipole=-1.3382831,0.3867193,-1.780858
 4\Quadrupole=4.453067,4.5704035,-9.0234705,-13.5100768,-2.7336721,6.37
 11285\PG=C01 [X(C13H21N1O3)]\\@


 TO DRY ONE'S EYES AND LAUGH AT A FALL
 AND BAFFLED, GET UP AND BEGIN AGAIN.
           R. BROWNING
 Job cpu time:       0 days  0 hours  3 minutes 12.1 seconds.
 File lengths (MBytes):  RWF=    182 Int=      0 D2E=      0 Chk=      6 Scr=      1
 Normal termination of Gaussian 09 at Mon Jan 25 16:30:43 2021.
