 Entering Gaussian System, Link 0=g09
 Initial command:
 /prod/apps/gaussian/g09d1/l1.exe "/tmp/ubafar01/1646384/Gau-28101.inp" -scrdir="/tmp/ubafar01/1646384/"
 Entering Link 1 = /prod/apps/gaussian/g09d1/l1.exe PID=     28103.
  
 Copyright (c) 1988,1990,1992,1993,1995,1998,2003,2009,2013,
            Gaussian, Inc.  All Rights Reserved.
  
 This is part of the Gaussian(R) 09 program.  It is based on
 the Gaussian(R) 03 system (copyright 2003, Gaussian, Inc.),
 the Gaussian(R) 98 system (copyright 1998, Gaussian, Inc.),
 the Gaussian(R) 94 system (copyright 1995, Gaussian, Inc.),
 the Gaussian 92(TM) system (copyright 1992, Gaussian, Inc.),
 the Gaussian 90(TM) system (copyright 1990, Gaussian, Inc.),
 the Gaussian 88(TM) system (copyright 1988, Gaussian, Inc.),
 the Gaussian 86(TM) system (copyright 1986, Carnegie Mellon
 University), and the Gaussian 82(TM) system (copyright 1983,
 Carnegie Mellon University). Gaussian is a federally registered
 trademark of Gaussian, Inc.
  
 This software contains proprietary and confidential information,
 including trade secrets, belonging to Gaussian, Inc.
  
 This software is provided under written license and may be
 used, copied, transmitted, or stored only in accord with that
 written license.
  
 The following legend is applicable only to US Government
 contracts under FAR:
  
                    RESTRICTED RIGHTS LEGEND
  
 Use, reproduction and disclosure by the US Government is
 subject to restrictions as set forth in subparagraphs (a)
 and (c) of the Commercial Computer Software - Restricted
 Rights clause in FAR 52.227-19.
  
 Gaussian, Inc.
 340 Quinnipiac St., Bldg. 40, Wallingford CT 06492
  
  
 ---------------------------------------------------------------
 Warning -- This program may not be used in any manner that
 competes with the business of Gaussian, Inc. or will provide
 assistance to any competitor of Gaussian, Inc.  The licensee
 of this program is prohibited from giving any competitor of
 Gaussian, Inc. access to this program.  By using this program,
 the user acknowledges that Gaussian, Inc. is engaged in the
 business of creating and licensing software in the field of
 computational chemistry and represents and warrants to the
 licensee that it is not a competitor of Gaussian, Inc. and that
 it will not use this program in any manner prohibited above.
 ---------------------------------------------------------------
  

 Cite this work as:
 Gaussian 09, Revision D.01,
 M. J. Frisch, G. W. Trucks, H. B. Schlegel, G. E. Scuseria, 
 M. A. Robb, J. R. Cheeseman, G. Scalmani, V. Barone, B. Mennucci, 
 G. A. Petersson, H. Nakatsuji, M. Caricato, X. Li, H. P. Hratchian, 
 A. F. Izmaylov, J. Bloino, G. Zheng, J. L. Sonnenberg, M. Hada, 
 M. Ehara, K. Toyota, R. Fukuda, J. Hasegawa, M. Ishida, T. Nakajima, 
 Y. Honda, O. Kitao, H. Nakai, T. Vreven, J. A. Montgomery, Jr., 
 J. E. Peralta, F. Ogliaro, M. Bearpark, J. J. Heyd, E. Brothers, 
 K. N. Kudin, V. N. Staroverov, T. Keith, R. Kobayashi, J. Normand, 
 K. Raghavachari, A. Rendell, J. C. Burant, S. S. Iyengar, J. Tomasi, 
 M. Cossi, N. Rega, J. M. Millam, M. Klene, J. E. Knox, J. B. Cross, 
 V. Bakken, C. Adamo, J. Jaramillo, R. Gomperts, R. E. Stratmann, 
 O. Yazyev, A. J. Austin, R. Cammi, C. Pomelli, J. W. Ochterski, 
 R. L. Martin, K. Morokuma, V. G. Zakrzewski, G. A. Voth, 
 P. Salvador, J. J. Dannenberg, S. Dapprich, A. D. Daniels, 
 O. Farkas, J. B. Foresman, J. V. Ortiz, J. Cioslowski, 
 and D. J. Fox, Gaussian, Inc., Wallingford CT, 2013.
 
 ******************************************
 Gaussian 09:  AM64L-G09RevD.01 24-Apr-2013
                28-Jan-2021 
 ******************************************
 %nproc=1
 Will use up to    1 processors via shared memory.
 %Chk=SET_328_BBB321_conf1.geo_180_150_120.n.pdb.xyz.mst.n.o.chk
 %mem=2000MB
 -----------------
 #p b3lyp/6-31G(d)
 -----------------
 1/38=1/1;
 2/12=2,17=6,18=5,40=1/2;
 3/5=1,6=6,7=1,11=2,16=1,25=1,30=1,74=-5/1,2,3;
 4//1;
 5/5=2,38=5/2;
 6/7=2,8=2,9=2,10=2,28=1/1;
 99/5=1,9=1/99;
 Leave Link    1 at Thu Jan 28 04:47:29 2021, MaxMem=   262144000 cpu:         0.0
 (Enter /prod/apps/gaussian/g09d1/l101.exe)
 ----------------------------------------------
 SET_328_BBB321_conf1.geo_180_150_120.n.pdb.xyz
 ----------------------------------------------
 Symbolic Z-matrix:
 Charge =  0 Multiplicity = 1
 C                     2.917    -3.957     3.73 
 H                     1.971    -4.485     3.6 
 H                     3.07     -3.761     4.794 
 H                     3.732    -4.607     3.397 
 C                     2.998    -2.642     2.975 
 O                     3.98     -1.911     3.064 
 N                     1.899    -2.361     2.201 
 H                     1.156    -3.046     2.215 
 C                     1.66     -1.241     1.379 
 C                     2.573    -0.186     1.237 
 C                     2.243     0.884     0.407 
 C                     1.033     0.923    -0.282 
 H                     0.786     1.752    -0.932 
 H                     2.949     1.701     0.297 
 H                     3.508    -0.221     1.775 
 C                     0.444    -1.202     0.691 
 H                    -0.266    -2.013     0.823 
 C                     0.117    -0.131    -0.147 
 C                    -1.159    -0.106    -0.883 
 N                    -1.58      1.079    -1.463 
 C                    -1.991    -1.176    -1.075 
 H                    -1.852    -2.196    -0.75 
 S                    -3.375    -0.712    -2.014 
 C                    -2.73      0.946    -2.095 
 N                    -3.471     1.854    -2.77 
 C                    -3.109     3.125    -2.811 
 N                    -3.966     3.999    -3.42 
 H                    -4.687     3.561    -3.978 
 H                    -3.583     4.851    -3.809 
 N                    -1.973     3.639    -2.287 
 H                    -1.879     4.636    -2.157 
 H                    -1.42      3.001    -1.716 
 
 NAtoms=     32 NQM=       32 NQMF=       0 NMMI=      0 NMMIF=      0
                NMic=       0 NMicF=      0.
                    Isotopes and Nuclear Properties:
 (Nuclear quadrupole moments (NQMom) in fm**2, nuclear magnetic moments (NMagM)
  in nuclear magnetons)

  Atom         1           2           3           4           5           6           7           8           9          10
 IAtWgt=          12           1           1           1          12          16          14           1          12          12
 AtmWgt=  12.0000000   1.0078250   1.0078250   1.0078250  12.0000000  15.9949146  14.0030740   1.0078250  12.0000000  12.0000000
 NucSpn=           0           1           1           1           0           0           2           1           0           0
 AtZEff=   0.0000000   0.0000000   0.0000000   0.0000000   0.0000000   0.0000000   0.0000000   0.0000000   0.0000000   0.0000000
 NQMom=    0.0000000   0.0000000   0.0000000   0.0000000   0.0000000   0.0000000   2.0440000   0.0000000   0.0000000   0.0000000
 NMagM=    0.0000000   2.7928460   2.7928460   2.7928460   0.0000000   0.0000000   0.4037610   2.7928460   0.0000000   0.0000000
 AtZNuc=   6.0000000   1.0000000   1.0000000   1.0000000   6.0000000   8.0000000   7.0000000   1.0000000   6.0000000   6.0000000

  Atom        11          12          13          14          15          16          17          18          19          20
 IAtWgt=          12          12           1           1           1          12           1          12          12          14
 AtmWgt=  12.0000000  12.0000000   1.0078250   1.0078250   1.0078250  12.0000000   1.0078250  12.0000000  12.0000000  14.0030740
 NucSpn=           0           0           1           1           1           0           1           0           0           2
 AtZEff=   0.0000000   0.0000000   0.0000000   0.0000000   0.0000000   0.0000000   0.0000000   0.0000000   0.0000000   0.0000000
 NQMom=    0.0000000   0.0000000   0.0000000   0.0000000   0.0000000   0.0000000   0.0000000   0.0000000   0.0000000   2.0440000
 NMagM=    0.0000000   0.0000000   2.7928460   2.7928460   2.7928460   0.0000000   2.7928460   0.0000000   0.0000000   0.4037610
 AtZNuc=   6.0000000   6.0000000   1.0000000   1.0000000   1.0000000   6.0000000   1.0000000   6.0000000   6.0000000   7.0000000

  Atom        21          22          23          24          25          26          27          28          29          30
 IAtWgt=          12           1          32          12          14          12          14           1           1          14
 AtmWgt=  12.0000000   1.0078250  31.9720718  12.0000000  14.0030740  12.0000000  14.0030740   1.0078250   1.0078250  14.0030740
 NucSpn=           0           1           0           0           2           0           2           1           1           2
 AtZEff=   0.0000000   0.0000000   0.0000000   0.0000000   0.0000000   0.0000000   0.0000000   0.0000000   0.0000000   0.0000000
 NQMom=    0.0000000   0.0000000   0.0000000   0.0000000   2.0440000   0.0000000   2.0440000   0.0000000   0.0000000   2.0440000
 NMagM=    0.0000000   2.7928460   0.0000000   0.0000000   0.4037610   0.0000000   0.4037610   2.7928460   2.7928460   0.4037610
 AtZNuc=   6.0000000   1.0000000  16.0000000   6.0000000   7.0000000   6.0000000   7.0000000   1.0000000   1.0000000   7.0000000

  Atom        31          32
 IAtWgt=           1           1
 AtmWgt=   1.0078250   1.0078250
 NucSpn=           1           1
 AtZEff=   0.0000000   0.0000000
 NQMom=    0.0000000   0.0000000
 NMagM=    2.7928460   2.7928460
 AtZNuc=   1.0000000   1.0000000
 Leave Link  101 at Thu Jan 28 04:47:29 2021, MaxMem=   262144000 cpu:         0.1
 (Enter /prod/apps/gaussian/g09d1/l202.exe)
                          Input orientation:                          
 ---------------------------------------------------------------------
 Center     Atomic      Atomic             Coordinates (Angstroms)
 Number     Number       Type             X           Y           Z
 ---------------------------------------------------------------------
      1          6           0        2.917000   -3.957000    3.730000
      2          1           0        1.971000   -4.485000    3.600000
      3          1           0        3.070000   -3.761000    4.794000
      4          1           0        3.732000   -4.607000    3.397000
      5          6           0        2.998000   -2.642000    2.975000
      6          8           0        3.980000   -1.911000    3.064000
      7          7           0        1.899000   -2.361000    2.201000
      8          1           0        1.156000   -3.046000    2.215000
      9          6           0        1.660000   -1.241000    1.379000
     10          6           0        2.573000   -0.186000    1.237000
     11          6           0        2.243000    0.884000    0.407000
     12          6           0        1.033000    0.923000   -0.282000
     13          1           0        0.786000    1.752000   -0.932000
     14          1           0        2.949000    1.701000    0.297000
     15          1           0        3.508000   -0.221000    1.775000
     16          6           0        0.444000   -1.202000    0.691000
     17          1           0       -0.266000   -2.013000    0.823000
     18          6           0        0.117000   -0.131000   -0.147000
     19          6           0       -1.159000   -0.106000   -0.883000
     20          7           0       -1.580000    1.079000   -1.463000
     21          6           0       -1.991000   -1.176000   -1.075000
     22          1           0       -1.852000   -2.196000   -0.750000
     23         16           0       -3.375000   -0.712000   -2.014000
     24          6           0       -2.730000    0.946000   -2.095000
     25          7           0       -3.471000    1.854000   -2.770000
     26          6           0       -3.109000    3.125000   -2.811000
     27          7           0       -3.966000    3.999000   -3.420000
     28          1           0       -4.687000    3.561000   -3.978000
     29          1           0       -3.583000    4.851000   -3.809000
     30          7           0       -1.973000    3.639000   -2.287000
     31          1           0       -1.879000    4.636000   -2.157000
     32          1           0       -1.420000    3.001000   -1.716000
 ---------------------------------------------------------------------
                    Distance matrix (angstroms):
                    1          2          3          4          5
     1  C    0.000000
     2  H    1.091146   0.000000
     3  H    1.092667   1.776967   0.000000
     4  H    1.094356   1.776855   1.762262   0.000000
     5  C    1.518490   2.200455   2.136845   2.139641   0.000000
     6  O    2.399925   3.308905   2.691375   2.727785   1.227439
     7  N    2.433389   2.544359   3.170945   3.136052   1.373258
     8  H    2.495249   2.157121   3.290268   3.235679   2.033170
     9  C    3.805773   3.943742   4.472217   4.437957   2.510032
    10  C    4.533633   4.942426   5.067532   5.055109   3.038619
    11  C    5.910320   6.252631   6.442494   6.427153   4.426887
    12  C    6.592420   6.722814   7.201042   7.169417   5.213300
    13  H    7.672554   7.800219   8.270242   8.237478   6.282104
    14  H    6.618117   7.080458   7.076093   7.072054   5.102522
    15  H    4.257817   4.886173   4.673094   4.681672   2.749789
    16  C    4.789705   4.644577   5.502633   5.452284   3.716608
    17  H    4.728771   4.338972   5.472955   5.416486   3.959854
    18  C    6.124492   6.036111   6.805188   6.757421   4.934791
    19  C    7.261112   7.004986   7.966919   7.905649   6.212577
    20  N    8.517720   8.318754   9.175955   9.174287   7.382396
    21  C    7.410159   6.964377   8.169523   8.032638   6.591038
    22  H    6.776052   6.227146   7.577021   7.361493   6.131643
    23  S    9.116624   8.621615   9.858159   9.744711   8.320466
    24  C    9.479380   9.166689  10.161406  10.136830   8.449179
    25  N   10.808527  10.505959  11.468522  11.474303   9.750231
    26  C   11.368909  11.172261  11.976354  12.046675  10.199585
    27  N   12.719911  12.510261  13.311375  13.408726  11.554056
    28  H   13.181593  12.903223  13.810529  13.855916  12.078106
    29  H   13.291628  13.149186  13.872295  13.960280  12.061396
    30  N   10.854290  10.780134  11.416322  11.526118   9.583864
    31  H   11.467259  11.452432  11.971575  12.155792  10.153415
    32  H    9.842878   9.787693  10.405039  10.515110   8.565492
                    6          7          8          9         10
     6  O    0.000000
     7  N    2.297353   0.000000
     8  H    3.159747   1.010678   0.000000
     9  C    2.944576   1.409683   2.052057   0.000000
    10  C    2.879792   2.472690   3.338259   1.402411   0.000000
    11  C    4.229520   3.723815   4.460418   2.408381   1.393808
    12  C    5.283189   4.207125   4.690746   2.799097   2.430811
    13  H    6.291838   5.288783   5.749897   3.881062   3.413762
    14  H    4.665383   4.607338   5.424720   3.389338   2.141435
    15  H    2.177247   2.711080   3.702179   2.147631   1.079303
    16  C    4.317071   2.395914   2.495968   1.397684   2.421366
    17  H    4.802187   2.589829   2.242061   2.148161   3.401359
    18  C    5.329324   3.696150   3.893044   2.437545   2.819648
    19  C    6.726526   4.893613   4.858027   3.788355   4.292857
    20  N    7.768361   6.112441   6.166766   4.894585   5.112498
    21  C    7.302355   5.221925   4.921850   4.399562   5.211098
    22  H    6.974242   4.775524   4.308339   4.216493   5.250609
    23  S    9.017744   6.949856   6.622836   6.094548   6.798851
    24  C    8.933187   7.128780   7.043661   6.010303   6.364390
    25  N   10.184703   8.444760   8.382682   7.288373   7.533099
    26  C   10.494324   8.960826   9.029515   7.704636   7.722315
    27  N   11.836776  10.317144  10.374012   9.063105   9.053198
    28  H   12.435813  10.799330  10.777121   9.593803   9.692463
    29  H   12.254050  10.871309  11.004967   9.566444   9.419651
    30  N    9.740324   8.434129   8.645685   7.103003   6.907627
    31  H   10.220075   9.067715   9.345519   7.717963   7.388587
    32  H    8.725603   7.423590   7.658639   6.087692   5.900951
                   11         12         13         14         15
    11  C    0.000000
    12  C    1.392962   0.000000
    13  H    2.160832   1.082012   0.000000
    14  H    1.085369   2.147459   2.488295   0.000000
    15  H    2.166258   3.415496   4.316232   2.488182   0.000000
    16  C    2.769197   2.410244   3.387803   3.854565   3.394925
    17  H    3.854964   3.395368   4.285085   4.940313   4.284932
    18  C    2.420127   1.402924   2.146969   3.401997   3.898854
    19  C    3.770650   2.494976   2.690277   4.640400   5.372065
    20  N    4.260311   2.871736   2.516515   4.898604   6.169472
    21  C    4.936262   3.765531   4.037990   5.879040   6.266859
    22  H    5.253006   4.274390   4.751723   6.271556   6.245466
    23  S    6.322213   5.010341   4.955395   7.152361   7.872312
    24  C    5.567277   4.177040   3.790048   6.208279   7.433131
    25  N    6.609389   5.229046   4.637963   7.116621   8.583070
    26  C    6.634871   5.329241   4.537267   6.956062   8.718475
    27  N    7.931005   6.655736   5.815553   8.180105  10.032801
    28  H    8.626671   7.303277   6.519534   8.946716  10.703203
    29  H    8.213040   7.012586   6.080221   8.333592  10.353189
    30  N    5.711595   4.520256   3.606782   5.887188   7.838419
    31  H    6.135347   5.077572   4.113430   6.160026   8.250506
    32  H    4.733539   3.520177   2.653506   4.983004   6.844965
                   16         17         18         19         20
    16  C    0.000000
    17  H    1.085930   0.000000
    18  C    1.398647   2.151630   0.000000
    19  C    2.499660   2.710080   1.473261   0.000000
    20  N    3.733531   4.063601   2.464907   1.384870   0.000000
    21  C    3.008099   2.697888   2.529204   1.368937   2.324756
    22  H    2.887236   2.241253   2.916298   2.205910   3.362734
    23  S    4.705517   4.405343   4.002164   2.560674   2.594862
    24  C    4.738141   4.831325   3.613868   2.245816   1.318944
    25  N    6.053502   6.175384   4.867658   3.570394   2.425851
    26  C    6.603843   6.905624   5.301463   4.237811   2.888090
    27  N    7.962338   8.236334   6.666357   5.582709   4.248440
    28  H    8.415040   8.582792   7.168392   5.955896   4.705210
    29  H    8.550178   8.920337   7.205593   6.245727   4.872752
    30  N    6.176217   6.673159   4.812546   4.081524   2.717908
    31  H    6.898527   7.462665   5.545124   4.962665   3.636384
    32  H    5.189735   5.737459   3.825383   3.227299   1.945172
                   21         22         23         24         25
    21  C    0.000000
    22  H    1.079512   0.000000
    23  S    1.735648   2.473758   0.000000
    24  C    2.467672   3.528749   1.780885   0.000000
    25  N    3.774165   4.806668   2.676772   1.352468   0.000000
    26  C    4.770977   5.843014   3.927917   2.324723   1.322182
    27  N    6.015004   7.069365   4.951731   3.550230   2.295332
    28  H    6.175354   7.183332   4.882332   3.770114   2.419043
    29  H    6.806905   7.874900   5.849125   4.349072   3.173968
    30  N    4.965228   6.035249   4.579447   2.803955   2.379815
    31  H    5.912919   6.975428   5.555139   3.787366   3.263397
    32  H    4.264300   5.303639   4.206804   2.466326   2.575486
                   26         27         28         29         30
    26  C    0.000000
    27  N    1.367189   0.000000
    28  H    2.010490   1.011459   0.000000
    29  H    2.049331   1.011886   1.706305   0.000000
    30  N    1.352504   2.320633   3.198650   2.525377   0.000000
    31  H    2.055173   2.521211   3.515186   2.383054   1.009824
    32  H    2.016711   3.222070   4.012921   3.532947   1.019261
                   31         32
    31  H    0.000000
    32  H    1.754533   0.000000
 Stoichiometry    C12H13N5OS
 Framework group  C1[X(C12H13N5OS)]
 Deg. of freedom    90
 Full point group                 C1      NOp   1
 Largest Abelian subgroup         C1      NOp   1
 Largest concise Abelian subgroup C1      NOp   1
                         Standard orientation:                         
 ---------------------------------------------------------------------
 Center     Atomic      Atomic             Coordinates (Angstroms)
 Number     Number       Type             X           Y           Z
 ---------------------------------------------------------------------
      1          6           0       -6.400421    1.173244    0.437999
      2          1           0       -5.968258    2.157788    0.623759
      3          1           0       -7.016524    0.889442    1.294617
      4          1           0       -7.060548    1.236717   -0.432529
      5          6           0       -5.370889    0.083806    0.195098
      6          8           0       -5.702964   -1.085139    0.022182
      7          7           0       -4.069604    0.522382    0.182942
      8          1           0       -3.930154    1.511188    0.338784
      9          6           0       -2.888699   -0.219941   -0.021079
     10          6           0       -2.883158   -1.603937   -0.247534
     11          6           0       -1.662886   -2.252344   -0.429757
     12          6           0       -0.457295   -1.555446   -0.394773
     13          1           0        0.486470   -2.062635   -0.545822
     14          1           0       -1.657901   -3.323517   -0.604653
     15          1           0       -3.820366   -2.138688   -0.271527
     16          6           0       -1.679768    0.480423    0.017625
     17          1           0       -1.691859    1.548324    0.214312
     18          6           0       -0.456354   -0.170278   -0.172270
     19          6           0        0.812479    0.578038   -0.148136
     20          7           0        2.004782   -0.118991   -0.046001
     21          6           0        0.939054    1.938118   -0.238407
     22          1           0        0.158882    2.674160   -0.360550
     23         16           0        2.611458    2.399844   -0.189951
     24          6           0        3.053692    0.680632   -0.047512
     25          7           0        4.373114    0.398212    0.044879
     26          6           0        4.786404   -0.843183    0.235393
     27          7           0        6.126766   -1.032565    0.427149
     28          1           0        6.702923   -0.237998    0.182697
     29          1           0        6.520441   -1.934494    0.191653
     30          7           0        3.996450   -1.940298    0.275121
     31          1           0        4.351209   -2.808715    0.648944
     32          1           0        2.992563   -1.763943    0.273553
 ---------------------------------------------------------------------
 Rotational constants (GHZ):      0.9141888      0.1307242      0.1153480
 Leave Link  202 at Thu Jan 28 04:47:29 2021, MaxMem=   262144000 cpu:         0.0
 (Enter /prod/apps/gaussian/g09d1/l301.exe)
 Standard basis: 6-31G(d) (6D, 7F)
 Ernie: Thresh=  0.10000D-02 Tol=  0.10000D-05 Strict=F.
 There are   315 symmetry adapted cartesian basis functions of A   symmetry.
 There are   315 symmetry adapted basis functions of A   symmetry.
   315 basis functions,   608 primitive gaussians,   315 cartesian basis functions
    72 alpha electrons       72 beta electrons
       nuclear repulsion energy      1424.1717794140 Hartrees.
 IExCor=  402 DFT=T Ex+Corr=B3LYP ExCW=0 ScaHFX=  0.200000
 ScaDFX=  0.800000  0.720000  1.000000  0.810000 ScalE2=  1.000000  1.000000
 IRadAn=      0 IRanWt=     -1 IRanGd=            0 ICorTp=0 IEmpDi=  4
 NAtoms=   32 NActive=   32 NUniq=   32 SFac= 1.00D+00 NAtFMM=   60 NAOKFM=F Big=F
 Integral buffers will be    131072 words long.
 Raffenetti 2 integral format.
 Two-electron integral symmetry is turned on.
 Leave Link  301 at Thu Jan 28 04:47:29 2021, MaxMem=   262144000 cpu:         0.0
 (Enter /prod/apps/gaussian/g09d1/l302.exe)
 NPDir=0 NMtPBC=     1 NCelOv=     1 NCel=       1 NClECP=     1 NCelD=      1
         NCelK=      1 NCelE2=     1 NClLst=     1 CellRange=     0.0.
 One-electron integrals computed using PRISM.
 NBasis=   315 RedAO= T EigKep=  4.02D-04  NBF=   315
 NBsUse=   315 1.00D-06 EigRej= -1.00D+00 NBFU=   315
 Precomputing XC quadrature grid using
 IXCGrd= 4 IRadAn=           0 IRanWt=          -1 IRanGd=           0 AccXCQ= 0.00D+00.
 Generated NRdTot=       0 NPtTot=           0 NUsed=           0 NTot=          32
 NSgBfM=   307   307   307   308   308 MxSgAt=    32 MxSgA2=    32.
 Leave Link  302 at Thu Jan 28 04:47:30 2021, MaxMem=   262144000 cpu:         1.0
 (Enter /prod/apps/gaussian/g09d1/l303.exe)
 DipDrv:  MaxL=1.
 Leave Link  303 at Thu Jan 28 04:47:30 2021, MaxMem=   262144000 cpu:         0.0
 (Enter /prod/apps/gaussian/g09d1/l401.exe)
 ExpMin= 1.17D-01 ExpMax= 2.19D+04 ExpMxC= 3.30D+03 IAcc=1 IRadAn=         1 AccDes= 0.00D+00
 Harris functional with IExCor=  402 and IRadAn=       1 diagonalized for initial guess.
 HarFok:  IExCor=  402 AccDes= 0.00D+00 IRadAn=         1 IDoV= 1 UseB2=F ITyADJ=14
 ICtDFT=  3500011 ScaDFX=  1.000000  1.000000  1.000000  1.000000
 FoFCou: FMM=F IPFlag=           0 FMFlag=      100000 FMFlg1=           0
         NFxFlg=           0 DoJE=T BraDBF=F KetDBF=T FulRan=T
         wScrn=  0.000000 ICntrl=     500 IOpCl=  0 I1Cent=   200000004 NGrid=           0
         NMat0=    1 NMatS0=      1 NMatT0=    0 NMatD0=    1 NMtDS0=    0 NMtDT0=    0
 Petite list used in FoFCou.
 Harris En= -1212.26422955569    
 JPrj=0 DoOrth=F DoCkMO=F.
 Leave Link  401 at Thu Jan 28 04:47:33 2021, MaxMem=   262144000 cpu:         3.0
 (Enter /prod/apps/gaussian/g09d1/l502.exe)
 Closed shell SCF:
 Using DIIS extrapolation, IDIIS=  1040.
 Integral symmetry usage will be decided dynamically.
 IVT=      320487 IEndB=      320487 NGot=   262144000 MDV=   261939694
 LenX=   261939694 LenY=   261840028
 Requested convergence on RMS density matrix=1.00D-08 within 128 cycles.
 Requested convergence on MAX density matrix=1.00D-06.
 Requested convergence on             energy=1.00D-06.
 No special actions if energy rises.
 Fock matrices will be formed incrementally for  20 cycles.
 Integral accuracy reduced to 1.0D-05 until final iterations.

 Cycle   1  Pass 0  IDiag  1:
 FoFJK:  IHMeth= 1 ICntrl=       0 DoSepK=F KAlg= 0 I1Cent=   0 FoldK=F
 IRaf= 680000000 NMat=   1 IRICut=       1 DoRegI=T DoRafI=F ISym2E= 0.
 FoFCou: FMM=F IPFlag=           0 FMFlag=      100000 FMFlg1=           0
         NFxFlg=           0 DoJE=F BraDBF=F KetDBF=F FulRan=T
         wScrn=  0.000000 ICntrl=       0 IOpCl=  0 I1Cent=           0 NGrid=           0
         NMat0=    1 NMatS0=      1 NMatT0=    0 NMatD0=    1 NMtDS0=    0 NMtDT0=    0
 Symmetry not used in FoFCou.
 E= -1211.78903731531    
 DIIS: error= 2.75D-02 at cycle   1 NSaved=   1.
 NSaved= 1 IEnMin= 1 EnMin= -1211.78903731531     IErMin= 1 ErrMin= 2.75D-02
 ErrMax= 2.75D-02  0.00D+00 EMaxC= 1.00D-01 BMatC= 5.56D-01 BMatP= 5.56D-01
 IDIUse=3 WtCom= 7.25D-01 WtEn= 2.75D-01
 Coeff-Com:  0.100D+01
 Coeff-En:   0.100D+01
 Coeff:      0.100D+01
 Gap=     0.263 Goal=   None    Shift=    0.000
 GapD=    0.263 DampG=1.000 DampE=0.500 DampFc=0.5000 IDamp=-1.
 Damping current iteration by 5.00D-01
 RMSDP=6.51D-03 MaxDP=2.21D-01              OVMax= 2.79D-01

 Cycle   2  Pass 0  IDiag  1:
 RMSU=  3.24D-03    CP:  9.84D-01
 E= -1211.93335328971     Delta-E=       -0.144315974400 Rises=F Damp=T
 DIIS: error= 1.15D-02 at cycle   2 NSaved=   2.
 NSaved= 2 IEnMin= 2 EnMin= -1211.93335328971     IErMin= 2 ErrMin= 1.15D-02
 ErrMax= 1.15D-02  0.00D+00 EMaxC= 1.00D-01 BMatC= 8.05D-02 BMatP= 5.56D-01
 IDIUse=3 WtCom= 8.85D-01 WtEn= 1.15D-01
 Coeff-Com:  0.200D+00 0.800D+00
 Coeff-En:   0.343D+00 0.657D+00
 Coeff:      0.217D+00 0.783D+00
 Gap=     0.292 Goal=   None    Shift=    0.000
 RMSDP=2.39D-03 MaxDP=1.07D-01 DE=-1.44D-01 OVMax= 2.45D-01

 Cycle   3  Pass 0  IDiag  1:
 RMSU=  1.91D-03    CP:  9.71D-01  5.64D-01
 E= -1212.22408609760     Delta-E=       -0.290732807890 Rises=F Damp=F
 DIIS: error= 1.46D-02 at cycle   3 NSaved=   3.
 NSaved= 3 IEnMin= 3 EnMin= -1212.22408609760     IErMin= 2 ErrMin= 1.15D-02
 ErrMax= 1.46D-02  0.00D+00 EMaxC= 1.00D-01 BMatC= 9.54D-02 BMatP= 8.05D-02
 IDIUse=2 WtCom= 0.00D+00 WtEn= 1.00D+00
 Coeff-En:   0.000D+00 0.000D+00 0.100D+01
 Coeff:      0.000D+00 0.000D+00 0.100D+01
 Gap=     0.161 Goal=   None    Shift=    0.000
 RMSDP=3.50D-03 MaxDP=1.49D-01 DE=-2.91D-01 OVMax= 2.33D-01

 Cycle   4  Pass 0  IDiag  1:
 RMSU=  1.79D-03    CP:  9.82D-01  1.13D+00 -2.44D-01
 E= -1211.79988800465     Delta-E=        0.424198092956 Rises=F Damp=F
 DIIS: error= 3.86D-02 at cycle   4 NSaved=   4.
 NSaved= 4 IEnMin= 3 EnMin= -1212.22408609760     IErMin= 2 ErrMin= 1.15D-02
 ErrMax= 3.86D-02  0.00D+00 EMaxC= 1.00D-01 BMatC= 5.63D-01 BMatP= 8.05D-02
 IDIUse=2 WtCom= 0.00D+00 WtEn= 1.00D+00
 Coeff-En:   0.000D+00 0.000D+00 0.797D+00 0.203D+00
 Coeff:      0.000D+00 0.000D+00 0.797D+00 0.203D+00
 Gap=     0.209 Goal=   None    Shift=    0.000
 RMSDP=1.92D-03 MaxDP=7.93D-02 DE= 4.24D-01 OVMax= 1.12D-01

 Cycle   5  Pass 0  IDiag  1:
 RMSU=  2.81D-04    CP:  9.78D-01  7.64D-01  3.96D-01  5.27D-01
 E= -1212.27445607626     Delta-E=       -0.474568071613 Rises=F Damp=F
 DIIS: error= 1.04D-02 at cycle   5 NSaved=   5.
 NSaved= 5 IEnMin= 5 EnMin= -1212.27445607626     IErMin= 5 ErrMin= 1.04D-02
 ErrMax= 1.04D-02  0.00D+00 EMaxC= 1.00D-01 BMatC= 4.24D-02 BMatP= 8.05D-02
 IDIUse=3 WtCom= 8.96D-01 WtEn= 1.04D-01
 Coeff-Com: -0.778D-02 0.365D-01 0.304D+00-0.985D-01 0.766D+00
 Coeff-En:   0.000D+00 0.000D+00 0.349D+00 0.000D+00 0.651D+00
 Coeff:     -0.698D-02 0.327D-01 0.309D+00-0.883D-01 0.754D+00
 Gap=     0.163 Goal=   None    Shift=    0.000
 RMSDP=6.77D-04 MaxDP=2.65D-02 DE=-4.75D-01 OVMax= 4.25D-02

 Cycle   6  Pass 0  IDiag  1:
 RMSU=  8.31D-05    CP:  9.75D-01  6.73D-01  6.41D-01  3.18D-01  8.41D-01
 E= -1212.31310888919     Delta-E=       -0.038652812933 Rises=F Damp=F
 DIIS: error= 4.47D-04 at cycle   6 NSaved=   6.
 NSaved= 6 IEnMin= 6 EnMin= -1212.31310888919     IErMin= 6 ErrMin= 4.47D-04
 ErrMax= 4.47D-04  0.00D+00 EMaxC= 1.00D-01 BMatC= 1.85D-04 BMatP= 4.24D-02
 IDIUse=3 WtCom= 9.96D-01 WtEn= 4.47D-03
 Coeff-Com: -0.612D-02 0.171D-01 0.147D+00-0.638D-01 0.437D+00 0.469D+00
 Coeff-En:   0.000D+00 0.000D+00 0.000D+00 0.000D+00 0.000D+00 0.100D+01
 Coeff:     -0.609D-02 0.171D-01 0.146D+00-0.635D-01 0.435D+00 0.471D+00
 Gap=     0.163 Goal=   None    Shift=    0.000
 RMSDP=5.53D-05 MaxDP=2.13D-03 DE=-3.87D-02 OVMax= 4.45D-03

 Cycle   7  Pass 0  IDiag  1:
 RMSU=  3.12D-05    CP:  9.75D-01  6.80D-01  6.35D-01  3.25D-01  8.71D-01
                    CP:  5.82D-01
 E= -1212.31325995745     Delta-E=       -0.000151068261 Rises=F Damp=F
 DIIS: error= 1.84D-04 at cycle   7 NSaved=   7.
 NSaved= 7 IEnMin= 7 EnMin= -1212.31325995745     IErMin= 7 ErrMin= 1.84D-04
 ErrMax= 1.84D-04  0.00D+00 EMaxC= 1.00D-01 BMatC= 1.92D-05 BMatP= 1.85D-04
 IDIUse=3 WtCom= 9.98D-01 WtEn= 1.84D-03
 Coeff-Com: -0.231D-02 0.559D-02 0.520D-01-0.254D-01 0.163D+00 0.273D+00
 Coeff-Com:  0.535D+00
 Coeff-En:   0.000D+00 0.000D+00 0.000D+00 0.000D+00 0.000D+00 0.886D-01
 Coeff-En:   0.911D+00
 Coeff:     -0.231D-02 0.558D-02 0.519D-01-0.254D-01 0.162D+00 0.273D+00
 Coeff:      0.535D+00
 Gap=     0.164 Goal=   None    Shift=    0.000
 RMSDP=2.08D-05 MaxDP=7.45D-04 DE=-1.51D-04 OVMax= 1.59D-03

 Cycle   8  Pass 0  IDiag  1:
 RMSU=  1.18D-05    CP:  9.75D-01  6.78D-01  6.39D-01  3.24D-01  8.67D-01
                    CP:  6.54D-01  6.17D-01
 E= -1212.31327755864     Delta-E=       -0.000017601189 Rises=F Damp=F
 DIIS: error= 1.06D-04 at cycle   8 NSaved=   8.
 NSaved= 8 IEnMin= 8 EnMin= -1212.31327755864     IErMin= 8 ErrMin= 1.06D-04
 ErrMax= 1.06D-04  0.00D+00 EMaxC= 1.00D-01 BMatC= 3.16D-06 BMatP= 1.92D-05
 IDIUse=3 WtCom= 9.99D-01 WtEn= 1.06D-03
 Coeff-Com: -0.446D-03 0.104D-03 0.133D-01-0.614D-02 0.396D-01 0.113D+00
 Coeff-Com:  0.347D+00 0.494D+00
 Coeff-En:   0.000D+00 0.000D+00 0.000D+00 0.000D+00 0.000D+00 0.000D+00
 Coeff-En:   0.696D-01 0.930D+00
 Coeff:     -0.445D-03 0.104D-03 0.133D-01-0.613D-02 0.396D-01 0.113D+00
 Coeff:      0.347D+00 0.494D+00
 Gap=     0.164 Goal=   None    Shift=    0.000
 RMSDP=6.64D-06 MaxDP=2.92D-04 DE=-1.76D-05 OVMax= 6.54D-04

 Initial convergence to 1.0D-05 achieved.  Increase integral accuracy.
 Cycle   9  Pass 1  IDiag  1:
 E= -1212.31326996147     Delta-E=        0.000007597176 Rises=F Damp=F
 DIIS: error= 5.26D-05 at cycle   1 NSaved=   1.
 NSaved= 1 IEnMin= 1 EnMin= -1212.31326996147     IErMin= 1 ErrMin= 5.26D-05
 ErrMax= 5.26D-05  0.00D+00 EMaxC= 1.00D-01 BMatC= 7.01D-07 BMatP= 7.01D-07
 IDIUse=1 WtCom= 1.00D+00 WtEn= 0.00D+00
 Coeff-Com:  0.100D+01
 Coeff:      0.100D+01
 Gap=     0.164 Goal=   None    Shift=    0.000
 RMSDP=6.64D-06 MaxDP=2.92D-04 DE= 7.60D-06 OVMax= 4.07D-04

 Cycle  10  Pass 1  IDiag  1:
 RMSU=  4.09D-05    CP:  1.00D+00
 E= -1212.31327005360     Delta-E=       -0.000000092135 Rises=F Damp=F
 DIIS: error= 3.55D-05 at cycle   2 NSaved=   2.
 NSaved= 2 IEnMin= 2 EnMin= -1212.31327005360     IErMin= 2 ErrMin= 3.55D-05
 ErrMax= 3.55D-05  0.00D+00 EMaxC= 1.00D-01 BMatC= 6.27D-07 BMatP= 7.01D-07
 IDIUse=1 WtCom= 1.00D+00 WtEn= 0.00D+00
 Coeff-Com:  0.480D+00 0.520D+00
 Coeff:      0.480D+00 0.520D+00
 Gap=     0.164 Goal=   None    Shift=    0.000
 RMSDP=4.89D-06 MaxDP=2.61D-04 DE=-9.21D-08 OVMax= 5.10D-04

 Cycle  11  Pass 1  IDiag  1:
 RMSU=  4.88D-06    CP:  1.00D+00  9.93D-01
 E= -1212.31327041537     Delta-E=       -0.000000361772 Rises=F Damp=F
 DIIS: error= 2.45D-05 at cycle   3 NSaved=   3.
 NSaved= 3 IEnMin= 3 EnMin= -1212.31327041537     IErMin= 3 ErrMin= 2.45D-05
 ErrMax= 2.45D-05  0.00D+00 EMaxC= 1.00D-01 BMatC= 2.91D-07 BMatP= 6.27D-07
 IDIUse=1 WtCom= 1.00D+00 WtEn= 0.00D+00
 Coeff-Com:  0.354D-01 0.398D+00 0.566D+00
 Coeff:      0.354D-01 0.398D+00 0.566D+00
 Gap=     0.164 Goal=   None    Shift=    0.000
 RMSDP=2.25D-06 MaxDP=1.06D-04 DE=-3.62D-07 OVMax= 1.98D-04

 Cycle  12  Pass 1  IDiag  1:
 RMSU=  8.69D-07    CP:  1.00D+00  1.01D+00  5.87D-01
 E= -1212.31327069744     Delta-E=       -0.000000282066 Rises=F Damp=F
 DIIS: error= 6.65D-06 at cycle   4 NSaved=   4.
 NSaved= 4 IEnMin= 4 EnMin= -1212.31327069744     IErMin= 4 ErrMin= 6.65D-06
 ErrMax= 6.65D-06  0.00D+00 EMaxC= 1.00D-01 BMatC= 2.04D-08 BMatP= 2.91D-07
 IDIUse=1 WtCom= 1.00D+00 WtEn= 0.00D+00
 Coeff-Com: -0.540D-02 0.221D+00 0.353D+00 0.432D+00
 Coeff:     -0.540D-02 0.221D+00 0.353D+00 0.432D+00
 Gap=     0.164 Goal=   None    Shift=    0.000
 RMSDP=5.26D-07 MaxDP=1.85D-05 DE=-2.82D-07 OVMax= 3.89D-05

 Cycle  13  Pass 1  IDiag  1:
 RMSU=  2.08D-07    CP:  1.00D+00  1.01D+00  6.05D-01  4.54D-01
 E= -1212.31327071706     Delta-E=       -0.000000019624 Rises=F Damp=F
 DIIS: error= 1.14D-06 at cycle   5 NSaved=   5.
 NSaved= 5 IEnMin= 5 EnMin= -1212.31327071706     IErMin= 5 ErrMin= 1.14D-06
 ErrMax= 1.14D-06  0.00D+00 EMaxC= 1.00D-01 BMatC= 4.99D-10 BMatP= 2.04D-08
 IDIUse=1 WtCom= 1.00D+00 WtEn= 0.00D+00
 Coeff-Com: -0.399D-02 0.111D+00 0.180D+00 0.241D+00 0.472D+00
 Coeff:     -0.399D-02 0.111D+00 0.180D+00 0.241D+00 0.472D+00
 Gap=     0.164 Goal=   None    Shift=    0.000
 RMSDP=9.51D-08 MaxDP=4.47D-06 DE=-1.96D-08 OVMax= 8.12D-06

 Cycle  14  Pass 1  IDiag  1:
 RMSU=  7.20D-08    CP:  1.00D+00  1.01D+00  6.05D-01  4.82D-01  7.26D-01
 E= -1212.31327071748     Delta-E=       -0.000000000417 Rises=F Damp=F
 DIIS: error= 3.79D-07 at cycle   6 NSaved=   6.
 NSaved= 6 IEnMin= 6 EnMin= -1212.31327071748     IErMin= 6 ErrMin= 3.79D-07
 ErrMax= 3.79D-07  0.00D+00 EMaxC= 1.00D-01 BMatC= 5.35D-11 BMatP= 4.99D-10
 IDIUse=1 WtCom= 1.00D+00 WtEn= 0.00D+00
 Coeff-Com: -0.171D-02 0.404D-01 0.658D-01 0.927D-01 0.280D+00 0.523D+00
 Coeff:     -0.171D-02 0.404D-01 0.658D-01 0.927D-01 0.280D+00 0.523D+00
 Gap=     0.164 Goal=   None    Shift=    0.000
 RMSDP=3.23D-08 MaxDP=1.39D-06 DE=-4.17D-10 OVMax= 2.60D-06

 Cycle  15  Pass 1  IDiag  1:
 RMSU=  2.43D-08    CP:  1.00D+00  1.01D+00  6.06D-01  4.76D-01  7.67D-01
                    CP:  7.48D-01
 E= -1212.31327071753     Delta-E=       -0.000000000050 Rises=F Damp=F
 DIIS: error= 1.48D-07 at cycle   7 NSaved=   7.
 NSaved= 7 IEnMin= 7 EnMin= -1212.31327071753     IErMin= 7 ErrMin= 1.48D-07
 ErrMax= 1.48D-07  0.00D+00 EMaxC= 1.00D-01 BMatC= 8.00D-12 BMatP= 5.35D-11
 IDIUse=1 WtCom= 1.00D+00 WtEn= 0.00D+00
 Coeff-Com: -0.442D-03 0.754D-02 0.122D-01 0.191D-01 0.997D-01 0.317D+00
 Coeff-Com:  0.545D+00
 Coeff:     -0.442D-03 0.754D-02 0.122D-01 0.191D-01 0.997D-01 0.317D+00
 Coeff:      0.545D+00
 Gap=     0.164 Goal=   None    Shift=    0.000
 RMSDP=1.03D-08 MaxDP=7.17D-07 DE=-5.00D-11 OVMax= 7.50D-07

 Cycle  16  Pass 1  IDiag  1:
 RMSU=  7.51D-09    CP:  1.00D+00  1.01D+00  6.06D-01  4.78D-01  7.72D-01
                    CP:  8.01D-01  7.69D-01
 E= -1212.31327071755     Delta-E=       -0.000000000024 Rises=F Damp=F
 DIIS: error= 4.78D-08 at cycle   8 NSaved=   8.
 NSaved= 8 IEnMin= 8 EnMin= -1212.31327071755     IErMin= 8 ErrMin= 4.78D-08
 ErrMax= 4.78D-08  0.00D+00 EMaxC= 1.00D-01 BMatC= 9.96D-13 BMatP= 8.00D-12
 IDIUse=1 WtCom= 1.00D+00 WtEn= 0.00D+00
 Coeff-Com: -0.672D-05-0.149D-02-0.256D-02-0.253D-02 0.172D-01 0.106D+00
 Coeff-Com:  0.312D+00 0.571D+00
 Coeff:     -0.672D-05-0.149D-02-0.256D-02-0.253D-02 0.172D-01 0.106D+00
 Coeff:      0.312D+00 0.571D+00
 Gap=     0.164 Goal=   None    Shift=    0.000
 RMSDP=4.03D-09 MaxDP=2.28D-07 DE=-2.41D-11 OVMax= 3.07D-07

 SCF Done:  E(RB3LYP) =  -1212.31327072     A.U. after   16 cycles
            NFock= 16  Conv=0.40D-08     -V/T= 2.0074
 KE= 1.203414329675D+03 PE=-5.688514338220D+03 EE= 1.848614958414D+03
 Leave Link  502 at Thu Jan 28 04:51:36 2021, MaxMem=   262144000 cpu:       243.0
 (Enter /prod/apps/gaussian/g09d1/l601.exe)
 Copying SCF densities to generalized density rwf, IOpCl= 0 IROHF=0.

 **********************************************************************

            Population analysis using the SCF density.

 **********************************************************************

 Orbital symmetries:
       Occupied  (A) (A) (A) (A) (A) (A) (A) (A) (A) (A) (A) (A)
                 (A) (A) (A) (A) (A) (A) (A) (A) (A) (A) (A) (A)
                 (A) (A) (A) (A) (A) (A) (A) (A) (A) (A) (A) (A)
                 (A) (A) (A) (A) (A) (A) (A) (A) (A) (A) (A) (A)
                 (A) (A) (A) (A) (A) (A) (A) (A) (A) (A) (A) (A)
                 (A) (A) (A) (A) (A) (A) (A) (A) (A) (A) (A) (A)
       Virtual   (A) (A) (A) (A) (A) (A) (A) (A) (A) (A) (A) (A)
                 (A) (A) (A) (A) (A) (A) (A) (A) (A) (A) (A) (A)
                 (A) (A) (A) (A) (A) (A) (A) (A) (A) (A) (A) (A)
                 (A) (A) (A) (A) (A) (A) (A) (A) (A) (A) (A) (A)
                 (A) (A) (A) (A) (A) (A) (A) (A) (A) (A) (A) (A)
                 (A) (A) (A) (A) (A) (A) (A) (A) (A) (A) (A) (A)
                 (A) (A) (A) (A) (A) (A) (A) (A) (A) (A) (A) (A)
                 (A) (A) (A) (A) (A) (A) (A) (A) (A) (A) (A) (A)
                 (A) (A) (A) (A) (A) (A) (A) (A) (A) (A) (A) (A)
                 (A) (A) (A) (A) (A) (A) (A) (A) (A) (A) (A) (A)
                 (A) (A) (A) (A) (A) (A) (A) (A) (A) (A) (A) (A)
                 (A) (A) (A) (A) (A) (A) (A) (A) (A) (A) (A) (A)
                 (A) (A) (A) (A) (A) (A) (A) (A) (A) (A) (A) (A)
                 (A) (A) (A) (A) (A) (A) (A) (A) (A) (A) (A) (A)
                 (A) (A) (A) (A) (A) (A) (A) (A) (A) (A) (A) (A)
                 (A) (A) (A) (A) (A) (A) (A) (A) (A) (A) (A) (A)
                 (A) (A) (A) (A) (A) (A) (A) (A) (A) (A) (A) (A)
                 (A) (A) (A) (A) (A) (A) (A) (A) (A) (A) (A) (A)
                 (A) (A) (A) (A) (A) (A) (A) (A) (A) (A) (A) (A)
                 (A) (A) (A) (A) (A) (A) (A) (A) (A) (A) (A) (A)
                 (A) (A) (A)
 The electronic state is 1-A.
 Alpha  occ. eigenvalues --  -88.89398 -19.11299 -14.37663 -14.36668 -14.36063
 Alpha  occ. eigenvalues --  -14.31916 -14.30890 -10.31071 -10.29320 -10.26938
 Alpha  occ. eigenvalues --  -10.23148 -10.21652 -10.20142 -10.19565 -10.19525
 Alpha  occ. eigenvalues --  -10.18742 -10.18280 -10.17680 -10.17512  -7.95564
 Alpha  occ. eigenvalues --   -5.91956  -5.91617  -5.91245  -1.03255  -1.00326
 Alpha  occ. eigenvalues --   -0.95231  -0.94005  -0.89257  -0.87676  -0.84385
 Alpha  occ. eigenvalues --   -0.78165  -0.76867  -0.75560  -0.72264  -0.70402
 Alpha  occ. eigenvalues --   -0.64453  -0.62302  -0.61929  -0.59133  -0.58058
 Alpha  occ. eigenvalues --   -0.56150  -0.54404  -0.53451  -0.51351  -0.49666
 Alpha  occ. eigenvalues --   -0.48195  -0.48036  -0.47250  -0.45224  -0.43994
 Alpha  occ. eigenvalues --   -0.43572  -0.43151  -0.42020  -0.40571  -0.40198
 Alpha  occ. eigenvalues --   -0.40018  -0.39804  -0.38982  -0.36563  -0.35649
 Alpha  occ. eigenvalues --   -0.35213  -0.33409  -0.30819  -0.29004  -0.28320
 Alpha  occ. eigenvalues --   -0.27560  -0.27037  -0.26759  -0.24791  -0.24092
 Alpha  occ. eigenvalues --   -0.21566  -0.18897
 Alpha virt. eigenvalues --   -0.02539  -0.01020  -0.00121   0.03371   0.04330
 Alpha virt. eigenvalues --    0.05580   0.06416   0.07607   0.09655   0.10144
 Alpha virt. eigenvalues --    0.11456   0.11614   0.12343   0.12996   0.13666
 Alpha virt. eigenvalues --    0.15566   0.15994   0.17502   0.18896   0.19316
 Alpha virt. eigenvalues --    0.20677   0.21664   0.22676   0.23953   0.25230
 Alpha virt. eigenvalues --    0.26102   0.27355   0.29401   0.30403   0.31986
 Alpha virt. eigenvalues --    0.32851   0.33784   0.34912   0.35047   0.37141
 Alpha virt. eigenvalues --    0.37884   0.38449   0.40171   0.42375   0.43562
 Alpha virt. eigenvalues --    0.46320   0.47769   0.48698   0.51520   0.52238
 Alpha virt. eigenvalues --    0.52865   0.53443   0.54596   0.55156   0.55953
 Alpha virt. eigenvalues --    0.56427   0.56795   0.57563   0.57909   0.59196
 Alpha virt. eigenvalues --    0.59388   0.60155   0.60962   0.61417   0.62305
 Alpha virt. eigenvalues --    0.62439   0.63018   0.63185   0.63843   0.65144
 Alpha virt. eigenvalues --    0.67733   0.68311   0.68463   0.69290   0.69792
 Alpha virt. eigenvalues --    0.70836   0.74228   0.74443   0.76192   0.78475
 Alpha virt. eigenvalues --    0.78682   0.79426   0.79852   0.81553   0.81799
 Alpha virt. eigenvalues --    0.82243   0.82558   0.84630   0.84715   0.85457
 Alpha virt. eigenvalues --    0.86570   0.86803   0.87183   0.88173   0.88265
 Alpha virt. eigenvalues --    0.89438   0.89763   0.90742   0.91625   0.92071
 Alpha virt. eigenvalues --    0.92607   0.94583   0.94893   0.96184   0.96829
 Alpha virt. eigenvalues --    0.98357   0.99465   1.01173   1.02289   1.03944
 Alpha virt. eigenvalues --    1.04300   1.05495   1.07164   1.08539   1.10153
 Alpha virt. eigenvalues --    1.12313   1.12903   1.14490   1.17357   1.17817
 Alpha virt. eigenvalues --    1.20052   1.22393   1.23959   1.25343   1.25605
 Alpha virt. eigenvalues --    1.28048   1.29084   1.30362   1.31300   1.33411
 Alpha virt. eigenvalues --    1.34448   1.36839   1.37204   1.39909   1.40681
 Alpha virt. eigenvalues --    1.43191   1.44688   1.46131   1.47393   1.48372
 Alpha virt. eigenvalues --    1.49100   1.49312   1.50538   1.51304   1.53376
 Alpha virt. eigenvalues --    1.56801   1.61411   1.62338   1.64207   1.67110
 Alpha virt. eigenvalues --    1.69234   1.72601   1.74879   1.76013   1.76593
 Alpha virt. eigenvalues --    1.77423   1.80663   1.81117   1.81519   1.81970
 Alpha virt. eigenvalues --    1.84817   1.85143   1.86848   1.88240   1.88910
 Alpha virt. eigenvalues --    1.90149   1.92397   1.95893   1.96765   1.97089
 Alpha virt. eigenvalues --    1.98409   1.99305   2.01383   2.05127   2.06661
 Alpha virt. eigenvalues --    2.09855   2.12089   2.12879   2.15330   2.15806
 Alpha virt. eigenvalues --    2.16488   2.19859   2.20115   2.21250   2.22017
 Alpha virt. eigenvalues --    2.24115   2.25921   2.26854   2.27368   2.28349
 Alpha virt. eigenvalues --    2.29787   2.32480   2.32924   2.34487   2.35335
 Alpha virt. eigenvalues --    2.39019   2.40960   2.42106   2.44053   2.47289
 Alpha virt. eigenvalues --    2.48708   2.50219   2.51333   2.51975   2.56191
 Alpha virt. eigenvalues --    2.58897   2.62332   2.63272   2.64727   2.66186
 Alpha virt. eigenvalues --    2.68835   2.70225   2.70877   2.71986   2.74257
 Alpha virt. eigenvalues --    2.76956   2.81792   2.83888   2.84217   2.88942
 Alpha virt. eigenvalues --    2.92540   2.97044   3.01709   3.07054   3.10631
 Alpha virt. eigenvalues --    3.21041   3.29226   3.32767   3.45925   3.80915
 Alpha virt. eigenvalues --    3.89079   3.96078   4.04447   4.06943   4.10795
 Alpha virt. eigenvalues --    4.11936   4.12749   4.15985   4.19065   4.21507
 Alpha virt. eigenvalues --    4.24626   4.26359   4.29848   4.36050   4.43251
 Alpha virt. eigenvalues --    4.47687   4.55927   4.77727
          Condensed to atoms (all electrons):
               1          2          3          4          5          6
     1  C    5.315964   0.338852   0.362412   0.362417   0.343361  -0.078407
     2  H    0.338852   0.583872  -0.025591  -0.025765  -0.028032   0.003175
     3  H    0.362412  -0.025591   0.513232  -0.023248  -0.019716   0.000802
     4  H    0.362417  -0.025765  -0.023248   0.514876  -0.019615   0.000418
     5  C    0.343361  -0.028032  -0.019716  -0.019615   4.320562   0.577120
     6  O   -0.078407   0.003175   0.000802   0.000418   0.577120   8.062188
     7  N   -0.113124   0.006669   0.001531   0.000989   0.266254  -0.085269
     8  H    0.002614   0.003232  -0.000115  -0.000096  -0.018349   0.003344
     9  C    0.006522   0.000313  -0.000111  -0.000128  -0.030170  -0.004557
    10  C    0.000473  -0.000033   0.000003   0.000003  -0.003226  -0.010037
    11  C    0.000006   0.000000   0.000000   0.000000   0.000411   0.000880
    12  C    0.000000   0.000000   0.000000   0.000000   0.000003  -0.000002
    13  H    0.000000   0.000000   0.000000   0.000000   0.000000   0.000000
    14  H    0.000000   0.000000   0.000000   0.000000  -0.000002  -0.000003
    15  H    0.000533  -0.000019  -0.000002  -0.000003   0.002107   0.027119
    16  C   -0.000545  -0.000016   0.000007   0.000009   0.005410   0.000329
    17  H    0.000004  -0.000028   0.000000   0.000000   0.000079   0.000003
    18  C   -0.000002   0.000000   0.000000   0.000000  -0.000067  -0.000008
    19  C    0.000000   0.000000   0.000000   0.000000   0.000000   0.000000
    20  N    0.000000   0.000000   0.000000   0.000000   0.000000   0.000000
    21  C    0.000000   0.000000   0.000000   0.000000   0.000000   0.000000
    22  H    0.000000   0.000000   0.000000   0.000000   0.000000   0.000000
    23  S    0.000000   0.000000   0.000000   0.000000   0.000000   0.000000
    24  C    0.000000   0.000000   0.000000   0.000000   0.000000   0.000000
    25  N    0.000000   0.000000   0.000000   0.000000   0.000000   0.000000
    26  C    0.000000   0.000000   0.000000   0.000000   0.000000   0.000000
    27  N    0.000000   0.000000   0.000000   0.000000   0.000000   0.000000
    28  H    0.000000   0.000000   0.000000   0.000000   0.000000   0.000000
    29  H    0.000000   0.000000   0.000000   0.000000   0.000000   0.000000
    30  N    0.000000   0.000000   0.000000   0.000000   0.000000   0.000000
    31  H    0.000000   0.000000   0.000000   0.000000   0.000000   0.000000
    32  H    0.000000   0.000000   0.000000   0.000000   0.000000   0.000000
               7          8          9         10         11         12
     1  C   -0.113124   0.002614   0.006522   0.000473   0.000006   0.000000
     2  H    0.006669   0.003232   0.000313  -0.000033   0.000000   0.000000
     3  H    0.001531  -0.000115  -0.000111   0.000003   0.000000   0.000000
     4  H    0.000989  -0.000096  -0.000128   0.000003   0.000000   0.000000
     5  C    0.266254  -0.018349  -0.030170  -0.003226   0.000411   0.000003
     6  O   -0.085269   0.003344  -0.004557  -0.010037   0.000880  -0.000002
     7  N    7.253693   0.290568   0.214218  -0.067360   0.004911   0.000851
     8  H    0.290568   0.408997  -0.026615   0.005553  -0.000032  -0.000025
     9  C    0.214218  -0.026615   4.563175   0.562866  -0.005020  -0.038311
    10  C   -0.067360   0.005553   0.562866   5.020928   0.492382  -0.040679
    11  C    0.004911  -0.000032  -0.005020   0.492382   4.945430   0.488162
    12  C    0.000851  -0.000025  -0.038311  -0.040679   0.488162   5.077201
    13  H    0.000004   0.000000   0.000215   0.004517  -0.050720   0.350907
    14  H   -0.000118   0.000004   0.003207  -0.038940   0.356920  -0.039379
    15  H   -0.012504  -0.000192  -0.027068   0.339128  -0.040304   0.004079
    16  C   -0.044817  -0.006628   0.463157  -0.070640  -0.051405  -0.100528
    17  H   -0.009596   0.009399  -0.051049   0.006200  -0.000060   0.007151
    18  C    0.004650  -0.000102   0.003772  -0.038486  -0.001127   0.493547
    19  C   -0.000188   0.000005   0.005758   0.000806   0.007230  -0.039035
    20  N    0.000000   0.000000  -0.000097  -0.000004   0.000713  -0.008358
    21  C    0.000005  -0.000008   0.000270  -0.000020  -0.000183   0.012926
    22  H   -0.000005  -0.000003   0.000111   0.000002  -0.000002  -0.000239
    23  S    0.000000   0.000000   0.000000  -0.000001   0.000017   0.000098
    24  C    0.000000   0.000000   0.000000   0.000001  -0.000019  -0.000206
    25  N    0.000000   0.000000   0.000000   0.000000   0.000000  -0.000010
    26  C    0.000000   0.000000   0.000000   0.000000   0.000000   0.000003
    27  N    0.000000   0.000000   0.000000   0.000000   0.000000   0.000000
    28  H    0.000000   0.000000   0.000000   0.000000   0.000000   0.000000
    29  H    0.000000   0.000000   0.000000   0.000000   0.000000   0.000000
    30  N    0.000000   0.000000   0.000000   0.000000  -0.000004  -0.000407
    31  H    0.000000   0.000000   0.000000   0.000000   0.000000   0.000007
    32  H    0.000000   0.000000   0.000000   0.000000   0.000045   0.000673
              13         14         15         16         17         18
     1  C    0.000000   0.000000   0.000533  -0.000545   0.000004  -0.000002
     2  H    0.000000   0.000000  -0.000019  -0.000016  -0.000028   0.000000
     3  H    0.000000   0.000000  -0.000002   0.000007   0.000000   0.000000
     4  H    0.000000   0.000000  -0.000003   0.000009   0.000000   0.000000
     5  C    0.000000  -0.000002   0.002107   0.005410   0.000079  -0.000067
     6  O    0.000000  -0.000003   0.027119   0.000329   0.000003  -0.000008
     7  N    0.000004  -0.000118  -0.012504  -0.044817  -0.009596   0.004650
     8  H    0.000000   0.000004  -0.000192  -0.006628   0.009399  -0.000102
     9  C    0.000215   0.003207  -0.027068   0.463157  -0.051049   0.003772
    10  C    0.004517  -0.038940   0.339128  -0.070640   0.006200  -0.038486
    11  C   -0.050720   0.356920  -0.040304  -0.051405  -0.000060  -0.001127
    12  C    0.350907  -0.039379   0.004079  -0.100528   0.007151   0.493547
    13  H    0.593095  -0.004920  -0.000114   0.007486  -0.000166  -0.034135
    14  H   -0.004920   0.594242  -0.004943   0.001267   0.000018   0.003017
    15  H   -0.000114  -0.004943   0.519518   0.006085  -0.000152   0.000147
    16  C    0.007486   0.001267   0.006085   5.272150   0.326919   0.510482
    17  H   -0.000166   0.000018  -0.000152   0.326919   0.628214  -0.027715
    18  C   -0.034135   0.003017   0.000147   0.510482  -0.027715   4.763722
    19  C   -0.015115  -0.000190   0.000003  -0.035490  -0.015011   0.329492
    20  N    0.010368  -0.000001   0.000000   0.005857  -0.000038  -0.056437
    21  C    0.000171   0.000002   0.000000  -0.028490   0.008098  -0.073640
    22  H   -0.000005   0.000000   0.000000   0.003443   0.003629  -0.007934
    23  S    0.000044   0.000000   0.000000   0.000352  -0.000101   0.002864
    24  C   -0.000065   0.000000   0.000000  -0.000036  -0.000008   0.009190
    25  N   -0.000004   0.000000   0.000000   0.000001   0.000000  -0.000171
    26  C    0.000015   0.000000   0.000000   0.000000   0.000000  -0.000064
    27  N    0.000000   0.000000   0.000000   0.000000   0.000000   0.000000
    28  H    0.000000   0.000000   0.000000   0.000000   0.000000   0.000000
    29  H    0.000000   0.000000   0.000000   0.000000   0.000000   0.000000
    30  N    0.000485   0.000000   0.000000   0.000001   0.000000   0.000295
    31  H   -0.000005   0.000000   0.000000   0.000000   0.000000  -0.000008
    32  H    0.002690  -0.000001   0.000000  -0.000011   0.000000  -0.001379
              19         20         21         22         23         24
     1  C    0.000000   0.000000   0.000000   0.000000   0.000000   0.000000
     2  H    0.000000   0.000000   0.000000   0.000000   0.000000   0.000000
     3  H    0.000000   0.000000   0.000000   0.000000   0.000000   0.000000
     4  H    0.000000   0.000000   0.000000   0.000000   0.000000   0.000000
     5  C    0.000000   0.000000   0.000000   0.000000   0.000000   0.000000
     6  O    0.000000   0.000000   0.000000   0.000000   0.000000   0.000000
     7  N   -0.000188   0.000000   0.000005  -0.000005   0.000000   0.000000
     8  H    0.000005   0.000000  -0.000008  -0.000003   0.000000   0.000000
     9  C    0.005758  -0.000097   0.000270   0.000111   0.000000   0.000000
    10  C    0.000806  -0.000004  -0.000020   0.000002  -0.000001   0.000001
    11  C    0.007230   0.000713  -0.000183  -0.000002   0.000017  -0.000019
    12  C   -0.039035  -0.008358   0.012926  -0.000239   0.000098  -0.000206
    13  H   -0.015115   0.010368   0.000171  -0.000005   0.000044  -0.000065
    14  H   -0.000190  -0.000001   0.000002   0.000000   0.000000   0.000000
    15  H    0.000003   0.000000   0.000000   0.000000   0.000000   0.000000
    16  C   -0.035490   0.005857  -0.028490   0.003443   0.000352  -0.000036
    17  H   -0.015011  -0.000038   0.008098   0.003629  -0.000101  -0.000008
    18  C    0.329492  -0.056437  -0.073640  -0.007934   0.002864   0.009190
    19  C    4.674091   0.404934   0.508635  -0.010137  -0.068432  -0.041267
    20  N    0.404934   7.053224  -0.112289   0.004656  -0.087640   0.388785
    21  C    0.508635  -0.112289   5.526989   0.338173   0.287539  -0.055702
    22  H   -0.010137   0.004656   0.338173   0.532998  -0.030645   0.002352
    23  S   -0.068432  -0.087640   0.287539  -0.030645  15.426151   0.304610
    24  C   -0.041267   0.388785  -0.055702   0.002352   0.304610   4.773626
    25  N    0.003320  -0.060333   0.002917  -0.000029  -0.064426   0.375972
    26  C    0.000782  -0.011766   0.000044   0.000001   0.005621  -0.053842
    27  N    0.000000  -0.000023   0.000001   0.000000  -0.000328   0.003820
    28  H   -0.000001   0.000039   0.000000   0.000000   0.000027   0.000122
    29  H    0.000000   0.000016   0.000000   0.000000   0.000009  -0.000161
    30  N   -0.000436  -0.037087  -0.000109   0.000000  -0.000516  -0.005393
    31  H    0.000020   0.001164   0.000002   0.000000   0.000041   0.000112
    32  H   -0.000319   0.074621   0.000602  -0.000005   0.001478  -0.008003
              25         26         27         28         29         30
     1  C    0.000000   0.000000   0.000000   0.000000   0.000000   0.000000
     2  H    0.000000   0.000000   0.000000   0.000000   0.000000   0.000000
     3  H    0.000000   0.000000   0.000000   0.000000   0.000000   0.000000
     4  H    0.000000   0.000000   0.000000   0.000000   0.000000   0.000000
     5  C    0.000000   0.000000   0.000000   0.000000   0.000000   0.000000
     6  O    0.000000   0.000000   0.000000   0.000000   0.000000   0.000000
     7  N    0.000000   0.000000   0.000000   0.000000   0.000000   0.000000
     8  H    0.000000   0.000000   0.000000   0.000000   0.000000   0.000000
     9  C    0.000000   0.000000   0.000000   0.000000   0.000000   0.000000
    10  C    0.000000   0.000000   0.000000   0.000000   0.000000   0.000000
    11  C    0.000000   0.000000   0.000000   0.000000   0.000000  -0.000004
    12  C   -0.000010   0.000003   0.000000   0.000000   0.000000  -0.000407
    13  H   -0.000004   0.000015   0.000000   0.000000   0.000000   0.000485
    14  H    0.000000   0.000000   0.000000   0.000000   0.000000   0.000000
    15  H    0.000000   0.000000   0.000000   0.000000   0.000000   0.000000
    16  C    0.000001   0.000000   0.000000   0.000000   0.000000   0.000001
    17  H    0.000000   0.000000   0.000000   0.000000   0.000000   0.000000
    18  C   -0.000171  -0.000064   0.000000   0.000000   0.000000   0.000295
    19  C    0.003320   0.000782   0.000000  -0.000001   0.000000  -0.000436
    20  N   -0.060333  -0.011766  -0.000023   0.000039   0.000016  -0.037087
    21  C    0.002917   0.000044   0.000001   0.000000   0.000000  -0.000109
    22  H   -0.000029   0.000001   0.000000   0.000000   0.000000   0.000000
    23  S   -0.064426   0.005621  -0.000328   0.000027   0.000009  -0.000516
    24  C    0.375972  -0.053842   0.003820   0.000122  -0.000161  -0.005393
    25  N    6.911725   0.552992  -0.089554   0.006553   0.004003  -0.079591
    26  C    0.552992   4.199517   0.348784  -0.010676  -0.021174   0.363519
    27  N   -0.089554   0.348784   6.989722   0.300641   0.306250  -0.109748
    28  H    0.006553  -0.010676   0.300641   0.366624  -0.022509   0.006505
    29  H    0.004003  -0.021174   0.306250  -0.022509   0.403238  -0.000061
    30  N   -0.079591   0.363519  -0.109748   0.006505  -0.000061   7.079961
    31  H    0.003992  -0.018648  -0.001713  -0.000233   0.001307   0.296963
    32  H   -0.012052  -0.018758   0.003171  -0.000095   0.000045   0.257453
              31         32
     1  C    0.000000   0.000000
     2  H    0.000000   0.000000
     3  H    0.000000   0.000000
     4  H    0.000000   0.000000
     5  C    0.000000   0.000000
     6  O    0.000000   0.000000
     7  N    0.000000   0.000000
     8  H    0.000000   0.000000
     9  C    0.000000   0.000000
    10  C    0.000000   0.000000
    11  C    0.000000   0.000045
    12  C    0.000007   0.000673
    13  H   -0.000005   0.002690
    14  H    0.000000  -0.000001
    15  H    0.000000   0.000000
    16  C    0.000000  -0.000011
    17  H    0.000000   0.000000
    18  C   -0.000008  -0.001379
    19  C    0.000020  -0.000319
    20  N    0.001164   0.074621
    21  C    0.000002   0.000602
    22  H    0.000000  -0.000005
    23  S    0.000041   0.001478
    24  C    0.000112  -0.008003
    25  N    0.003992  -0.012052
    26  C   -0.018648  -0.018758
    27  N   -0.001713   0.003171
    28  H   -0.000233  -0.000095
    29  H    0.001307   0.000045
    30  N    0.296963   0.257453
    31  H    0.401294  -0.013477
    32  H   -0.013477   0.315468
 Mulliken charges:
               1
     1  C   -0.541080
     2  H    0.143370
     3  H    0.190797
     4  H    0.190145
     5  C    0.603869
     6  O   -0.497095
     7  N   -0.711364
     8  H    0.328451
     9  C    0.359539
    10  C   -0.163436
    11  C   -0.148231
    12  C   -0.168428
    13  H    0.135251
    14  H    0.129821
    15  H    0.186583
    16  C   -0.264348
    17  H    0.114208
    18  C    0.120097
    19  C    0.290543
    20  N   -0.570305
    21  C   -0.415932
    22  H    0.163637
    23  S    0.223235
    24  C    0.306111
    25  N   -0.555307
    26  C    0.663650
    27  N   -0.751023
    28  H    0.353001
    29  H    0.329036
    30  N   -0.771831
    31  H    0.329182
    32  H    0.397855
 Sum of Mulliken charges =   0.00000
 Mulliken charges with hydrogens summed into heavy atoms:
               1
     1  C   -0.016768
     5  C    0.603869
     6  O   -0.497095
     7  N   -0.382913
     9  C    0.359539
    10  C    0.023148
    11  C   -0.018409
    12  C   -0.033177
    16  C   -0.150140
    18  C    0.120097
    19  C    0.290543
    20  N   -0.570305
    21  C   -0.252296
    23  S    0.223235
    24  C    0.306111
    25  N   -0.555307
    26  C    0.663650
    27  N   -0.068986
    30  N   -0.044794
 Electronic spatial extent (au):  <R**2>=           8700.9751
 Charge=              0.0000 electrons
 Dipole moment (field-independent basis, Debye):
    X=              3.2914    Y=             -0.1798    Z=              0.6864  Tot=              3.3671
 Quadrupole moment (field-independent basis, Debye-Ang):
   XX=            -92.2894   YY=           -103.2523   ZZ=           -120.8176
   XY=            -37.7003   XZ=             -2.8300   YZ=             -0.5347
 Traceless Quadrupole moment (field-independent basis, Debye-Ang):
   XX=             13.1637   YY=              2.2008   ZZ=            -15.3645
   XY=            -37.7003   XZ=             -2.8300   YZ=             -0.5347
 Octapole moment (field-independent basis, Debye-Ang**2):
  XXX=            265.0274  YYY=            -34.3972  ZZZ=              3.9903  XYY=             31.0640
  XXY=             -4.5852  XXZ=              7.8091  XZZ=            -11.2902  YZZ=             -1.9365
  YYZ=              4.6694  XYZ=             -9.9829
 Hexadecapole moment (field-independent basis, Debye-Ang**3):
 XXXX=          -8060.5081 YYYY=          -1366.9565 ZZZZ=           -177.1999 XXXY=          -1143.9096
 XXXZ=           -166.4015 YYYX=           -188.7671 YYYZ=            -15.9041 ZZZX=            -11.4753
 ZZZY=             -2.9508 XXYY=          -1676.2776 XXZZ=          -1687.7993 YYZZ=           -291.7742
 XXYZ=             -5.2394 YYXZ=             30.6808 ZZXY=            -11.2351
 N-N= 1.424171779414D+03 E-N=-5.688514342495D+03  KE= 1.203414329675D+03
 No NMR shielding tensors so no spin-rotation constants.
 Leave Link  601 at Thu Jan 28 04:51:37 2021, MaxMem=   262144000 cpu:         0.2
 (Enter /prod/apps/gaussian/g09d1/l9999.exe)
 1\1\GINC-PIRINEUS12\SP\RB3LYP\6-31G(d)\C12H13N5O1S1\UBAFAR01\28-Jan-20
 21\0\\#p b3lyp/6-31G(d)\\SET_328_BBB321_conf1.geo_180_150_120.n.pdb.xy
 z\\0,1\C,0,2.917,-3.957,3.73\H,0,1.971,-4.485,3.6\H,0,3.07,-3.761,4.79
 4\H,0,3.732,-4.607,3.397\C,0,2.998,-2.642,2.975\O,0,3.98,-1.911,3.064\
 N,0,1.899,-2.361,2.201\H,0,1.156,-3.046,2.215\C,0,1.66,-1.241,1.379\C,
 0,2.573,-0.186,1.237\C,0,2.243,0.884,0.407\C,0,1.033,0.923,-0.282\H,0,
 0.786,1.752,-0.932\H,0,2.949,1.701,0.297\H,0,3.508,-0.221,1.775\C,0,0.
 444,-1.202,0.691\H,0,-0.266,-2.013,0.823\C,0,0.117,-0.131,-0.147\C,0,-
 1.159,-0.106,-0.883\N,0,-1.58,1.079,-1.463\C,0,-1.991,-1.176,-1.075\H,
 0,-1.852,-2.196,-0.75\S,0,-3.375,-0.712,-2.014\C,0,-2.73,0.946,-2.095\
 N,0,-3.471,1.854,-2.77\C,0,-3.109,3.125,-2.811\N,0,-3.966,3.999,-3.42\
 H,0,-4.687,3.561,-3.978\H,0,-3.583,4.851,-3.809\N,0,-1.973,3.639,-2.28
 7\H,0,-1.879,4.636,-2.157\H,0,-1.42,3.001,-1.716\\Version=AM64L-G09Rev
 D.01\State=1-A\HF=-1212.3132707\RMSD=4.027e-09\Dipole=-0.9344327,0.779
 9291,-0.5228537\Quadrupole=-20.8350105,24.2841694,-3.449159,-6.5826877
 ,-1.080143,-18.5024862\PG=C01 [X(C12H13N5O1S1)]\\@


 NEVER LISTEN TO CRITICISM
 OR YOU'LL BE DOIN' EVERYBODY ELSE'S THING BUT BUT YOUR OWN.

                                               -- ANDY CAPP
 Job cpu time:       0 days  0 hours  4 minutes  7.6 seconds.
 File lengths (MBytes):  RWF=     56 Int=      0 D2E=      0 Chk=      5 Scr=      1
 Normal termination of Gaussian 09 at Thu Jan 28 04:51:37 2021.
 Initial command:
 /prod/apps/gaussian/g09d1/l1.exe "/tmp/ubafar01/1646384/Gau-28101.inp" -scrdir="/tmp/ubafar01/1646384/"
 Entering Link 1 = /prod/apps/gaussian/g09d1/l1.exe PID=     28368.
  
 Copyright (c) 1988,1990,1992,1993,1995,1998,2003,2009,2013,
            Gaussian, Inc.  All Rights Reserved.
  
 This is part of the Gaussian(R) 09 program.  It is based on
 the Gaussian(R) 03 system (copyright 2003, Gaussian, Inc.),
 the Gaussian(R) 98 system (copyright 1998, Gaussian, Inc.),
 the Gaussian(R) 94 system (copyright 1995, Gaussian, Inc.),
 the Gaussian 92(TM) system (copyright 1992, Gaussian, Inc.),
 the Gaussian 90(TM) system (copyright 1990, Gaussian, Inc.),
 the Gaussian 88(TM) system (copyright 1988, Gaussian, Inc.),
 the Gaussian 86(TM) system (copyright 1986, Carnegie Mellon
 University), and the Gaussian 82(TM) system (copyright 1983,
 Carnegie Mellon University). Gaussian is a federally registered
 trademark of Gaussian, Inc.
  
 This software contains proprietary and confidential information,
 including trade secrets, belonging to Gaussian, Inc.
  
 This software is provided under written license and may be
 used, copied, transmitted, or stored only in accord with that
 written license.
  
 The following legend is applicable only to US Government
 contracts under FAR:
  
                    RESTRICTED RIGHTS LEGEND
  
 Use, reproduction and disclosure by the US Government is
 subject to restrictions as set forth in subparagraphs (a)
 and (c) of the Commercial Computer Software - Restricted
 Rights clause in FAR 52.227-19.
  
 Gaussian, Inc.
 340 Quinnipiac St., Bldg. 40, Wallingford CT 06492
  
  
 ---------------------------------------------------------------
 Warning -- This program may not be used in any manner that
 competes with the business of Gaussian, Inc. or will provide
 assistance to any competitor of Gaussian, Inc.  The licensee
 of this program is prohibited from giving any competitor of
 Gaussian, Inc. access to this program.  By using this program,
 the user acknowledges that Gaussian, Inc. is engaged in the
 business of creating and licensing software in the field of
 computational chemistry and represents and warrants to the
 licensee that it is not a competitor of Gaussian, Inc. and that
 it will not use this program in any manner prohibited above.
 ---------------------------------------------------------------
  

 Cite this work as:
 Gaussian 09, Revision D.01,
 M. J. Frisch, G. W. Trucks, H. B. Schlegel, G. E. Scuseria, 
 M. A. Robb, J. R. Cheeseman, G. Scalmani, V. Barone, B. Mennucci, 
 G. A. Petersson, H. Nakatsuji, M. Caricato, X. Li, H. P. Hratchian, 
 A. F. Izmaylov, J. Bloino, G. Zheng, J. L. Sonnenberg, M. Hada, 
 M. Ehara, K. Toyota, R. Fukuda, J. Hasegawa, M. Ishida, T. Nakajima, 
 Y. Honda, O. Kitao, H. Nakai, T. Vreven, J. A. Montgomery, Jr., 
 J. E. Peralta, F. Ogliaro, M. Bearpark, J. J. Heyd, E. Brothers, 
 K. N. Kudin, V. N. Staroverov, T. Keith, R. Kobayashi, J. Normand, 
 K. Raghavachari, A. Rendell, J. C. Burant, S. S. Iyengar, J. Tomasi, 
 M. Cossi, N. Rega, J. M. Millam, M. Klene, J. E. Knox, J. B. Cross, 
 V. Bakken, C. Adamo, J. Jaramillo, R. Gomperts, R. E. Stratmann, 
 O. Yazyev, A. J. Austin, R. Cammi, C. Pomelli, J. W. Ochterski, 
 R. L. Martin, K. Morokuma, V. G. Zakrzewski, G. A. Voth, 
 P. Salvador, J. J. Dannenberg, S. Dapprich, A. D. Daniels, 
 O. Farkas, J. B. Foresman, J. V. Ortiz, J. Cioslowski, 
 and D. J. Fox, Gaussian, Inc., Wallingford CT, 2013.
 
 ******************************************
 Gaussian 09:  AM64L-G09RevD.01 24-Apr-2013
                28-Jan-2021 
 ******************************************
 %nproc=1
 Will use up to    1 processors via shared memory.
 %Chk=SET_328_BBB321_conf1.geo_180_150_120.n.pdb.xyz.mst.n.o.chk
 %mem=2000MB
 %subst l301 /dades/curu/work_g09D01_MST_AddSphPartition_ReadGammas/exe-dir/
 %subst l502 /dades/curu/work_g09D01_MST_AddSphPartition_ReadGammas/exe-dir/
 ----------------------------------------------------------------------
 #p b3lyp/6-31G(d) scrf=(iefpcm,read,solvent=n-Octanol) geom=allcheck g
 uess=read
 ----------------------------------------------------------------------
 1/29=7,38=1,40=2/1;
 2/12=2,40=1/2;
 3/5=1,6=6,7=1,11=2,14=-4,16=1,25=1,30=1,70=2203,72=25,74=-5,116=-2/1,2,3;
 4/5=1/1;
 5/5=2,38=6,53=25/2;
 6/7=2,8=2,9=2,10=2,28=1/1;
 99/5=1,9=1/99;
 Leave Link    1 at Thu Jan 28 04:51:37 2021, MaxMem=   262144000 cpu:         0.0
 (Enter /prod/apps/gaussian/g09d1/l101.exe)
 Structure from the checkpoint file:  "SET_328_BBB321_conf1.geo_180_150_120.n.pdb.xyz.mst.n.o.chk"
 ----------------------------------------------
 SET_328_BBB321_conf1.geo_180_150_120.n.pdb.xyz
 ----------------------------------------------
 Charge =  0 Multiplicity = 1
 Z-Matrix found in file.
 C,0,2.917,-3.957,3.73
 H,0,1.971,-4.485,3.6
 H,0,3.07,-3.761,4.794
 H,0,3.732,-4.607,3.397
 C,0,2.998,-2.642,2.975
 O,0,3.98,-1.911,3.064
 N,0,1.899,-2.361,2.201
 H,0,1.156,-3.046,2.215
 C,0,1.66,-1.241,1.379
 C,0,2.573,-0.186,1.237
 C,0,2.243,0.884,0.407
 C,0,1.033,0.923,-0.282
 H,0,0.786,1.752,-0.932
 H,0,2.949,1.701,0.297
 H,0,3.508,-0.221,1.775
 C,0,0.444,-1.202,0.691
 H,0,-0.266,-2.013,0.823
 C,0,0.117,-0.131,-0.147
 C,0,-1.159,-0.106,-0.883
 N,0,-1.58,1.079,-1.463
 C,0,-1.991,-1.176,-1.075
 H,0,-1.852,-2.196,-0.75
 S,0,-3.375,-0.712,-2.014
 C,0,-2.73,0.946,-2.095
 N,0,-3.471,1.854,-2.77
 C,0,-3.109,3.125,-2.811
 N,0,-3.966,3.999,-3.42
 H,0,-4.687,3.561,-3.978
 H,0,-3.583,4.851,-3.809
 N,0,-1.973,3.639,-2.287
 H,0,-1.879,4.636,-2.157
 H,0,-1.42,3.001,-1.716
 Recover connectivity data from disk.
 NAtoms=     32 NQM=       32 NQMF=       0 NMMI=      0 NMMIF=      0
                NMic=       0 NMicF=      0.
                    Isotopes and Nuclear Properties:
 (Nuclear quadrupole moments (NQMom) in fm**2, nuclear magnetic moments (NMagM)
  in nuclear magnetons)

  Atom         1           2           3           4           5           6           7           8           9          10
 IAtWgt=          12           1           1           1          12          16          14           1          12          12
 AtmWgt=  12.0000000   1.0078250   1.0078250   1.0078250  12.0000000  15.9949146  14.0030740   1.0078250  12.0000000  12.0000000
 NucSpn=           0           1           1           1           0           0           2           1           0           0
 AtZEff=  -3.6000000  -1.0000000  -1.0000000  -1.0000000  -3.6000000  -5.6000000  -4.5500000  -1.0000000  -3.6000000  -3.6000000
 NQMom=    0.0000000   0.0000000   0.0000000   0.0000000   0.0000000   0.0000000   2.0440000   0.0000000   0.0000000   0.0000000
 NMagM=    0.0000000   2.7928460   2.7928460   2.7928460   0.0000000   0.0000000   0.4037610   2.7928460   0.0000000   0.0000000
 AtZNuc=   6.0000000   1.0000000   1.0000000   1.0000000   6.0000000   8.0000000   7.0000000   1.0000000   6.0000000   6.0000000

  Atom        11          12          13          14          15          16          17          18          19          20
 IAtWgt=          12          12           1           1           1          12           1          12          12          14
 AtmWgt=  12.0000000  12.0000000   1.0078250   1.0078250   1.0078250  12.0000000   1.0078250  12.0000000  12.0000000  14.0030740
 NucSpn=           0           0           1           1           1           0           1           0           0           2
 AtZEff=  -3.6000000  -3.6000000  -1.0000000  -1.0000000  -1.0000000  -3.6000000  -1.0000000  -3.6000000  -3.6000000  -4.5500000
 NQMom=    0.0000000   0.0000000   0.0000000   0.0000000   0.0000000   0.0000000   0.0000000   0.0000000   0.0000000   2.0440000
 NMagM=    0.0000000   0.0000000   2.7928460   2.7928460   2.7928460   0.0000000   2.7928460   0.0000000   0.0000000   0.4037610
 AtZNuc=   6.0000000   6.0000000   1.0000000   1.0000000   1.0000000   6.0000000   1.0000000   6.0000000   6.0000000   7.0000000

  Atom        21          22          23          24          25          26          27          28          29          30
 IAtWgt=          12           1          32          12          14          12          14           1           1          14
 AtmWgt=  12.0000000   1.0078250  31.9720718  12.0000000  14.0030740  12.0000000  14.0030740   1.0078250   1.0078250  14.0030740
 NucSpn=           0           1           0           0           2           0           2           1           1           2
 AtZEff=  -3.6000000  -1.0000000 -13.6000000  -3.6000000  -4.5500000  -3.6000000  -4.5500000  -1.0000000  -1.0000000  -4.5500000
 NQMom=    0.0000000   0.0000000   0.0000000   0.0000000   2.0440000   0.0000000   2.0440000   0.0000000   0.0000000   2.0440000
 NMagM=    0.0000000   2.7928460   0.0000000   0.0000000   0.4037610   0.0000000   0.4037610   2.7928460   2.7928460   0.4037610
 AtZNuc=   6.0000000   1.0000000  16.0000000   6.0000000   7.0000000   6.0000000   7.0000000   1.0000000   1.0000000   7.0000000

  Atom        31          32
 IAtWgt=           1           1
 AtmWgt=   1.0078250   1.0078250
 NucSpn=           1           1
 AtZEff=  -1.0000000  -1.0000000
 NQMom=    0.0000000   0.0000000
 NMagM=    2.7928460   2.7928460
 AtZNuc=   1.0000000   1.0000000
 Leave Link  101 at Thu Jan 28 04:51:37 2021, MaxMem=   262144000 cpu:         0.0
 (Enter /prod/apps/gaussian/g09d1/l202.exe)
                          Input orientation:                          
 ---------------------------------------------------------------------
 Center     Atomic      Atomic             Coordinates (Angstroms)
 Number     Number       Type             X           Y           Z
 ---------------------------------------------------------------------
      1          6           0        2.917000   -3.957000    3.730000
      2          1           0        1.971000   -4.485000    3.600000
      3          1           0        3.070000   -3.761000    4.794000
      4          1           0        3.732000   -4.607000    3.397000
      5          6           0        2.998000   -2.642000    2.975000
      6          8           0        3.980000   -1.911000    3.064000
      7          7           0        1.899000   -2.361000    2.201000
      8          1           0        1.156000   -3.046000    2.215000
      9          6           0        1.660000   -1.241000    1.379000
     10          6           0        2.573000   -0.186000    1.237000
     11          6           0        2.243000    0.884000    0.407000
     12          6           0        1.033000    0.923000   -0.282000
     13          1           0        0.786000    1.752000   -0.932000
     14          1           0        2.949000    1.701000    0.297000
     15          1           0        3.508000   -0.221000    1.775000
     16          6           0        0.444000   -1.202000    0.691000
     17          1           0       -0.266000   -2.013000    0.823000
     18          6           0        0.117000   -0.131000   -0.147000
     19          6           0       -1.159000   -0.106000   -0.883000
     20          7           0       -1.580000    1.079000   -1.463000
     21          6           0       -1.991000   -1.176000   -1.075000
     22          1           0       -1.852000   -2.196000   -0.750000
     23         16           0       -3.375000   -0.712000   -2.014000
     24          6           0       -2.730000    0.946000   -2.095000
     25          7           0       -3.471000    1.854000   -2.770000
     26          6           0       -3.109000    3.125000   -2.811000
     27          7           0       -3.966000    3.999000   -3.420000
     28          1           0       -4.687000    3.561000   -3.978000
     29          1           0       -3.583000    4.851000   -3.809000
     30          7           0       -1.973000    3.639000   -2.287000
     31          1           0       -1.879000    4.636000   -2.157000
     32          1           0       -1.420000    3.001000   -1.716000
 ---------------------------------------------------------------------
                    Distance matrix (angstroms):
                    1          2          3          4          5
     1  C    0.000000
     2  H    1.091146   0.000000
     3  H    1.092667   1.776967   0.000000
     4  H    1.094356   1.776855   1.762262   0.000000
     5  C    1.518490   2.200455   2.136845   2.139641   0.000000
     6  O    2.399925   3.308905   2.691375   2.727785   1.227439
     7  N    2.433389   2.544359   3.170945   3.136052   1.373258
     8  H    2.495249   2.157121   3.290268   3.235679   2.033170
     9  C    3.805773   3.943742   4.472217   4.437957   2.510032
    10  C    4.533633   4.942426   5.067532   5.055109   3.038619
    11  C    5.910320   6.252631   6.442494   6.427153   4.426887
    12  C    6.592420   6.722814   7.201042   7.169417   5.213300
    13  H    7.672554   7.800219   8.270242   8.237478   6.282104
    14  H    6.618117   7.080458   7.076093   7.072054   5.102522
    15  H    4.257817   4.886173   4.673094   4.681672   2.749789
    16  C    4.789705   4.644577   5.502633   5.452284   3.716608
    17  H    4.728771   4.338972   5.472955   5.416486   3.959854
    18  C    6.124492   6.036111   6.805188   6.757421   4.934791
    19  C    7.261112   7.004986   7.966919   7.905649   6.212577
    20  N    8.517720   8.318754   9.175955   9.174287   7.382396
    21  C    7.410159   6.964377   8.169523   8.032638   6.591038
    22  H    6.776052   6.227146   7.577021   7.361493   6.131643
    23  S    9.116624   8.621615   9.858159   9.744711   8.320466
    24  C    9.479380   9.166689  10.161406  10.136830   8.449179
    25  N   10.808527  10.505959  11.468522  11.474303   9.750231
    26  C   11.368909  11.172261  11.976354  12.046675  10.199585
    27  N   12.719911  12.510261  13.311375  13.408726  11.554056
    28  H   13.181593  12.903223  13.810529  13.855916  12.078106
    29  H   13.291628  13.149186  13.872295  13.960280  12.061396
    30  N   10.854290  10.780134  11.416322  11.526118   9.583864
    31  H   11.467259  11.452432  11.971575  12.155792  10.153415
    32  H    9.842878   9.787693  10.405039  10.515110   8.565492
                    6          7          8          9         10
     6  O    0.000000
     7  N    2.297353   0.000000
     8  H    3.159747   1.010678   0.000000
     9  C    2.944576   1.409683   2.052057   0.000000
    10  C    2.879792   2.472690   3.338259   1.402411   0.000000
    11  C    4.229520   3.723815   4.460418   2.408381   1.393808
    12  C    5.283189   4.207125   4.690746   2.799097   2.430811
    13  H    6.291838   5.288783   5.749897   3.881062   3.413762
    14  H    4.665383   4.607338   5.424720   3.389338   2.141435
    15  H    2.177247   2.711080   3.702179   2.147631   1.079303
    16  C    4.317071   2.395914   2.495968   1.397684   2.421366
    17  H    4.802187   2.589829   2.242061   2.148161   3.401359
    18  C    5.329324   3.696150   3.893044   2.437545   2.819648
    19  C    6.726526   4.893613   4.858027   3.788355   4.292857
    20  N    7.768361   6.112441   6.166766   4.894585   5.112498
    21  C    7.302355   5.221925   4.921850   4.399562   5.211098
    22  H    6.974242   4.775524   4.308339   4.216493   5.250609
    23  S    9.017744   6.949856   6.622836   6.094548   6.798851
    24  C    8.933187   7.128780   7.043661   6.010303   6.364390
    25  N   10.184703   8.444760   8.382682   7.288373   7.533099
    26  C   10.494324   8.960826   9.029515   7.704636   7.722315
    27  N   11.836776  10.317144  10.374012   9.063105   9.053198
    28  H   12.435813  10.799330  10.777121   9.593803   9.692463
    29  H   12.254050  10.871309  11.004967   9.566444   9.419651
    30  N    9.740324   8.434129   8.645685   7.103003   6.907627
    31  H   10.220075   9.067715   9.345519   7.717963   7.388587
    32  H    8.725603   7.423590   7.658639   6.087692   5.900951
                   11         12         13         14         15
    11  C    0.000000
    12  C    1.392962   0.000000
    13  H    2.160832   1.082012   0.000000
    14  H    1.085369   2.147459   2.488295   0.000000
    15  H    2.166258   3.415496   4.316232   2.488182   0.000000
    16  C    2.769197   2.410244   3.387803   3.854565   3.394925
    17  H    3.854964   3.395368   4.285085   4.940313   4.284932
    18  C    2.420127   1.402924   2.146969   3.401997   3.898854
    19  C    3.770650   2.494976   2.690277   4.640400   5.372065
    20  N    4.260311   2.871736   2.516515   4.898604   6.169472
    21  C    4.936262   3.765531   4.037990   5.879040   6.266859
    22  H    5.253006   4.274390   4.751723   6.271556   6.245466
    23  S    6.322213   5.010341   4.955395   7.152361   7.872312
[...]
 Alpha virt. eigenvalues --    1.56543   1.60887   1.61842   1.63670   1.66552
 Alpha virt. eigenvalues --    1.68741   1.72648   1.75196   1.75385   1.76274
 Alpha virt. eigenvalues --    1.76880   1.80111   1.80217   1.81396   1.81690
 Alpha virt. eigenvalues --    1.84217   1.84618   1.86486   1.87880   1.88562
 Alpha virt. eigenvalues --    1.89416   1.91849   1.95459   1.96293   1.96622
 Alpha virt. eigenvalues --    1.97769   1.99622   2.00891   2.04469   2.05959
 Alpha virt. eigenvalues --    2.09468   2.12039   2.13232   2.14726   2.15474
 Alpha virt. eigenvalues --    2.15971   2.19238   2.19667   2.21035   2.21999
 Alpha virt. eigenvalues --    2.24069   2.25523   2.26740   2.27034   2.28283
 Alpha virt. eigenvalues --    2.29233   2.32018   2.32976   2.33892   2.35149
 Alpha virt. eigenvalues --    2.38900   2.40464   2.41589   2.43693   2.47107
 Alpha virt. eigenvalues --    2.49015   2.49768   2.50905   2.51966   2.55576
 Alpha virt. eigenvalues --    2.59130   2.61811   2.62948   2.64276   2.65501
 Alpha virt. eigenvalues --    2.68561   2.69644   2.70275   2.71544   2.74173
 Alpha virt. eigenvalues --    2.76616   2.81267   2.83450   2.83723   2.88327
 Alpha virt. eigenvalues --    2.91973   2.96074   3.01103   3.06690   3.10424
 Alpha virt. eigenvalues --    3.20604   3.28970   3.32207   3.45242   3.81963
 Alpha virt. eigenvalues --    3.89788   3.95354   4.04067   4.06354   4.10044
 Alpha virt. eigenvalues --    4.11108   4.12012   4.15547   4.18718   4.21220
 Alpha virt. eigenvalues --    4.24234   4.26072   4.29169   4.35460   4.42888
 Alpha virt. eigenvalues --    4.47179   4.55344   4.77026
          Condensed to atoms (all electrons):
               1          2          3          4          5          6
     1  C    5.299652   0.345906   0.362121   0.362303   0.350823  -0.078103
     2  H    0.345906   0.552727  -0.024170  -0.024118  -0.027236   0.003081
     3  H    0.362121  -0.024170   0.512975  -0.023537  -0.020804   0.000791
     4  H    0.362303  -0.024118  -0.023537   0.512651  -0.020541   0.000450
     5  C    0.350823  -0.027236  -0.020804  -0.020541   4.308965   0.573895
     6  O   -0.078103   0.003081   0.000791   0.000450   0.573895   8.094411
     7  N   -0.107584   0.006110   0.001565   0.000989   0.275426  -0.086463
     8  H    0.001867   0.003100  -0.000089  -0.000073  -0.016923   0.003099
     9  C    0.006616   0.000267  -0.000119  -0.000135  -0.029821  -0.004400
    10  C    0.000452  -0.000033   0.000003   0.000003  -0.003223  -0.010908
    11  C    0.000006   0.000000   0.000000   0.000000   0.000375   0.000885
    12  C    0.000000   0.000000   0.000000   0.000000   0.000005  -0.000002
    13  H    0.000000   0.000000   0.000000   0.000000   0.000000   0.000000
    14  H    0.000000   0.000000   0.000000   0.000000  -0.000002  -0.000004
    15  H    0.000540  -0.000020  -0.000002  -0.000004   0.002299   0.028538
    16  C   -0.000522  -0.000010   0.000007   0.000008   0.005249   0.000340
    17  H    0.000006  -0.000024   0.000000   0.000000   0.000092   0.000003
    18  C   -0.000002   0.000000   0.000000   0.000000  -0.000078  -0.000008
    19  C    0.000000   0.000000   0.000000   0.000000   0.000000   0.000000
    20  N    0.000000   0.000000   0.000000   0.000000   0.000000   0.000000
    21  C    0.000000   0.000000   0.000000   0.000000   0.000000   0.000000
    22  H    0.000000   0.000000   0.000000   0.000000   0.000000   0.000000
    23  S    0.000000   0.000000   0.000000   0.000000   0.000000   0.000000
    24  C    0.000000   0.000000   0.000000   0.000000   0.000000   0.000000
    25  N    0.000000   0.000000   0.000000   0.000000   0.000000   0.000000
    26  C    0.000000   0.000000   0.000000   0.000000   0.000000   0.000000
    27  N    0.000000   0.000000   0.000000   0.000000   0.000000   0.000000
    28  H    0.000000   0.000000   0.000000   0.000000   0.000000   0.000000
    29  H    0.000000   0.000000   0.000000   0.000000   0.000000   0.000000
    30  N    0.000000   0.000000   0.000000   0.000000   0.000000   0.000000
    31  H    0.000000   0.000000   0.000000   0.000000   0.000000   0.000000
    32  H    0.000000   0.000000   0.000000   0.000000   0.000000   0.000000
               7          8          9         10         11         12
     1  C   -0.107584   0.001867   0.006616   0.000452   0.000006   0.000000
     2  H    0.006110   0.003100   0.000267  -0.000033   0.000000   0.000000
     3  H    0.001565  -0.000089  -0.000119   0.000003   0.000000   0.000000
     4  H    0.000989  -0.000073  -0.000135   0.000003   0.000000   0.000000
     5  C    0.275426  -0.016923  -0.029821  -0.003223   0.000375   0.000005
     6  O   -0.086463   0.003099  -0.004400  -0.010908   0.000885  -0.000002
     7  N    7.234833   0.294927   0.217442  -0.068327   0.004930   0.000813
     8  H    0.294927   0.374687  -0.025120   0.005125  -0.000030  -0.000025
     9  C    0.217442  -0.025120   4.567228   0.559038  -0.005624  -0.038079
    10  C   -0.068327   0.005125   0.559038   5.039828   0.491056  -0.042301
    11  C    0.004930  -0.000030  -0.005624   0.491056   4.956090   0.488198
    12  C    0.000813  -0.000025  -0.038079  -0.042301   0.488198   5.087928
    13  H    0.000004   0.000000   0.000188   0.004475  -0.048824   0.353644
    14  H   -0.000114   0.000003   0.003270  -0.039163   0.359057  -0.038128
    15  H   -0.012899  -0.000178  -0.029243   0.338520  -0.041440   0.004281
    16  C   -0.045109  -0.005664   0.464255  -0.070825  -0.051679  -0.098421
    17  H   -0.008610   0.008070  -0.046286   0.005940  -0.000047   0.006638
    18  C    0.004589  -0.000042   0.002702  -0.037877  -0.003001   0.491075
    19  C   -0.000185   0.000006   0.005622   0.000808   0.007240  -0.039402
    20  N    0.000000   0.000000  -0.000097  -0.000004   0.000728  -0.007536
    21  C    0.000005  -0.000007   0.000287  -0.000020  -0.000179   0.012736
    22  H   -0.000004  -0.000002   0.000112   0.000002  -0.000001  -0.000229
    23  S    0.000000   0.000000   0.000000  -0.000001   0.000017   0.000109
    24  C    0.000000   0.000000   0.000000   0.000001  -0.000019  -0.000210
    25  N    0.000000   0.000000   0.000000   0.000000   0.000000  -0.000010
    26  C    0.000000   0.000000   0.000000   0.000000   0.000000   0.000005
    27  N    0.000000   0.000000   0.000000   0.000000   0.000000   0.000000
    28  H    0.000000   0.000000   0.000000   0.000000   0.000000   0.000000
    29  H    0.000000   0.000000   0.000000   0.000000   0.000000   0.000000
    30  N    0.000000   0.000000   0.000000   0.000000  -0.000004  -0.000410
    31  H    0.000000   0.000000   0.000000   0.000000   0.000000   0.000006
    32  H    0.000000   0.000000   0.000000   0.000000   0.000044   0.000652
              13         14         15         16         17         18
     1  C    0.000000   0.000000   0.000540  -0.000522   0.000006  -0.000002
     2  H    0.000000   0.000000  -0.000020  -0.000010  -0.000024   0.000000
     3  H    0.000000   0.000000  -0.000002   0.000007   0.000000   0.000000
     4  H    0.000000   0.000000  -0.000004   0.000008   0.000000   0.000000
     5  C    0.000000  -0.000002   0.002299   0.005249   0.000092  -0.000078
     6  O    0.000000  -0.000004   0.028538   0.000340   0.000003  -0.000008
     7  N    0.000004  -0.000114  -0.012899  -0.045109  -0.008610   0.004589
     8  H    0.000000   0.000003  -0.000178  -0.005664   0.008070  -0.000042
     9  C    0.000188   0.003270  -0.029243   0.464255  -0.046286   0.002702
    10  C    0.004475  -0.039163   0.338520  -0.070825   0.005940  -0.037877
    11  C   -0.048824   0.359057  -0.041440  -0.051679  -0.000047  -0.003001
    12  C    0.353644  -0.038128   0.004281  -0.098421   0.006638   0.491075
    13  H    0.580044  -0.004782  -0.000113   0.007233  -0.000154  -0.035647
    14  H   -0.004782   0.580329  -0.005025   0.001173   0.000017   0.003022
    15  H   -0.000113  -0.005025   0.532629   0.006355  -0.000146   0.000074
    16  C    0.007233   0.001173   0.006355   5.272414   0.333745   0.508958
    17  H   -0.000154   0.000017  -0.000146   0.333745   0.593528  -0.028966
    18  C   -0.035647   0.003022   0.000074   0.508958  -0.028966   4.784213
    19  C   -0.014545  -0.000183   0.000003  -0.037414  -0.013833   0.328895
    20  N    0.010311  -0.000001   0.000000   0.005712  -0.000031  -0.058249
    21  C    0.000174   0.000002   0.000000  -0.027146   0.007813  -0.075275
    22  H   -0.000005   0.000000   0.000000   0.003509   0.003473  -0.007616
    23  S    0.000045   0.000000   0.000000   0.000348  -0.000093   0.002869
    24  C   -0.000068   0.000000   0.000000  -0.000034  -0.000005   0.009338
    25  N   -0.000005   0.000000   0.000000   0.000001   0.000000  -0.000172
    26  C    0.000011   0.000000   0.000000   0.000000   0.000000  -0.000064
    27  N    0.000000   0.000000   0.000000   0.000000   0.000000   0.000000
    28  H    0.000000   0.000000   0.000000   0.000000   0.000000   0.000000
    29  H    0.000000   0.000000   0.000000   0.000000   0.000000   0.000000
    30  N    0.000514   0.000000   0.000000   0.000001   0.000000   0.000295
    31  H   -0.000005   0.000000   0.000000   0.000000   0.000000  -0.000007
    32  H    0.002555  -0.000001   0.000000  -0.000011   0.000000  -0.001327
              19         20         21         22         23         24
     1  C    0.000000   0.000000   0.000000   0.000000   0.000000   0.000000
     2  H    0.000000   0.000000   0.000000   0.000000   0.000000   0.000000
     3  H    0.000000   0.000000   0.000000   0.000000   0.000000   0.000000
     4  H    0.000000   0.000000   0.000000   0.000000   0.000000   0.000000
     5  C    0.000000   0.000000   0.000000   0.000000   0.000000   0.000000
     6  O    0.000000   0.000000   0.000000   0.000000   0.000000   0.000000
     7  N   -0.000185   0.000000   0.000005  -0.000004   0.000000   0.000000
     8  H    0.000006   0.000000  -0.000007  -0.000002   0.000000   0.000000
     9  C    0.005622  -0.000097   0.000287   0.000112   0.000000   0.000000
    10  C    0.000808  -0.000004  -0.000020   0.000002  -0.000001   0.000001
    11  C    0.007240   0.000728  -0.000179  -0.000001   0.000017  -0.000019
    12  C   -0.039402  -0.007536   0.012736  -0.000229   0.000109  -0.000210
    13  H   -0.014545   0.010311   0.000174  -0.000005   0.000045  -0.000068
    14  H   -0.000183  -0.000001   0.000002   0.000000   0.000000   0.000000
    15  H    0.000003   0.000000   0.000000   0.000000   0.000000   0.000000
    16  C   -0.037414   0.005712  -0.027146   0.003509   0.000348  -0.000034
    17  H   -0.013833  -0.000031   0.007813   0.003473  -0.000093  -0.000005
    18  C    0.328895  -0.058249  -0.075275  -0.007616   0.002869   0.009338
    19  C    4.685840   0.403483   0.511205  -0.009858  -0.071711  -0.039797
    20  N    0.403483   7.058365  -0.112625   0.004441  -0.087196   0.390154
    21  C    0.511205  -0.112625   5.534044   0.341027   0.286311  -0.057982
    22  H   -0.009858   0.004441   0.341027   0.511286  -0.029712   0.002303
    23  S   -0.071711  -0.087196   0.286311  -0.029712  15.460975   0.297928
    24  C   -0.039797   0.390154  -0.057982   0.002303   0.297928   4.783980
    25  N    0.003483  -0.061832   0.002983  -0.000028  -0.065015   0.377112
    26  C    0.000743  -0.010131   0.000041   0.000001   0.005639  -0.054502
    27  N    0.000000  -0.000016   0.000001   0.000000  -0.000340   0.003850
    28  H   -0.000001   0.000034   0.000000   0.000000   0.000031   0.000150
    29  H    0.000000   0.000013   0.000000   0.000000   0.000009  -0.000148
    30  N   -0.000372  -0.036812  -0.000112   0.000000  -0.000532  -0.005549
    31  H    0.000016   0.000977   0.000001   0.000000   0.000035   0.000101
    32  H   -0.000294   0.070847   0.000577  -0.000005   0.001426  -0.007597
              25         26         27         28         29         30
     1  C    0.000000   0.000000   0.000000   0.000000   0.000000   0.000000
     2  H    0.000000   0.000000   0.000000   0.000000   0.000000   0.000000
     3  H    0.000000   0.000000   0.000000   0.000000   0.000000   0.000000
     4  H    0.000000   0.000000   0.000000   0.000000   0.000000   0.000000
     5  C    0.000000   0.000000   0.000000   0.000000   0.000000   0.000000
     6  O    0.000000   0.000000   0.000000   0.000000   0.000000   0.000000
     7  N    0.000000   0.000000   0.000000   0.000000   0.000000   0.000000
     8  H    0.000000   0.000000   0.000000   0.000000   0.000000   0.000000
     9  C    0.000000   0.000000   0.000000   0.000000   0.000000   0.000000
    10  C    0.000000   0.000000   0.000000   0.000000   0.000000   0.000000
    11  C    0.000000   0.000000   0.000000   0.000000   0.000000  -0.000004
    12  C   -0.000010   0.000005   0.000000   0.000000   0.000000  -0.000410
    13  H   -0.000005   0.000011   0.000000   0.000000   0.000000   0.000514
    14  H    0.000000   0.000000   0.000000   0.000000   0.000000   0.000000
    15  H    0.000000   0.000000   0.000000   0.000000   0.000000   0.000000
    16  C    0.000001   0.000000   0.000000   0.000000   0.000000   0.000001
    17  H    0.000000   0.000000   0.000000   0.000000   0.000000   0.000000
    18  C   -0.000172  -0.000064   0.000000   0.000000   0.000000   0.000295
    19  C    0.003483   0.000743   0.000000  -0.000001   0.000000  -0.000372
    20  N   -0.061832  -0.010131  -0.000016   0.000034   0.000013  -0.036812
    21  C    0.002983   0.000041   0.000001   0.000000   0.000000  -0.000112
    22  H   -0.000028   0.000001   0.000000   0.000000   0.000000   0.000000
    23  S   -0.065015   0.005639  -0.000340   0.000031   0.000009  -0.000532
    24  C    0.377112  -0.054502   0.003850   0.000150  -0.000148  -0.005549
    25  N    6.944296   0.543541  -0.090382   0.005833   0.003647  -0.082239
    26  C    0.543541   4.192504   0.361956  -0.012621  -0.018677   0.374239
    27  N   -0.090382   0.361956   6.979690   0.301620   0.309383  -0.107484
    28  H    0.005833  -0.012621   0.301620   0.354444  -0.020104   0.006170
    29  H    0.003647  -0.018677   0.309383  -0.020104   0.363222  -0.000676
    30  N   -0.082239   0.374239  -0.107484   0.006170  -0.000676   7.066220
    31  H    0.003756  -0.016033  -0.001906  -0.000186   0.001341   0.300850
    32  H   -0.011853  -0.019891   0.003242  -0.000097   0.000034   0.261571
              31         32
     1  C    0.000000   0.000000
     2  H    0.000000   0.000000
     3  H    0.000000   0.000000
     4  H    0.000000   0.000000
     5  C    0.000000   0.000000
     6  O    0.000000   0.000000
     7  N    0.000000   0.000000
     8  H    0.000000   0.000000
     9  C    0.000000   0.000000
    10  C    0.000000   0.000000
    11  C    0.000000   0.000044
    12  C    0.000006   0.000652
    13  H   -0.000005   0.002555
    14  H    0.000000  -0.000001
    15  H    0.000000   0.000000
    16  C    0.000000  -0.000011
    17  H    0.000000   0.000000
    18  C   -0.000007  -0.001327
    19  C    0.000016  -0.000294
    20  N    0.000977   0.070847
    21  C    0.000001   0.000577
    22  H    0.000000  -0.000005
    23  S    0.000035   0.001426
    24  C    0.000101  -0.007597
    25  N    0.003756  -0.011853
    26  C   -0.016033  -0.019891
    27  N   -0.001906   0.003242
    28  H   -0.000186  -0.000097
    29  H    0.001341   0.000034
    30  N    0.300850   0.261571
    31  H    0.361261  -0.012996
    32  H   -0.012996   0.319077
 Mulliken charges:
               1
     1  C   -0.544080
     2  H    0.164418
     3  H    0.191258
     4  H    0.192001
     5  C    0.601498
     6  O   -0.525605
     7  N   -0.712339
     8  H    0.357269
     9  C    0.351895
    10  C   -0.172570
    11  C   -0.157777
    12  C   -0.181337
    13  H    0.144950
    14  H    0.140528
    15  H    0.175829
    16  C   -0.272475
    17  H    0.138869
    18  C    0.112300
    19  C    0.280247
    20  N   -0.570536
    21  C   -0.423863
    22  H    0.181306
    23  S    0.198859
    24  C    0.300996
    25  N   -0.573116
    26  C    0.653238
    27  N   -0.759614
    28  H    0.364727
    29  H    0.361957
    30  N   -0.775671
    31  H    0.362789
    32  H    0.394047
 Sum of Mulliken charges =   0.00000
 Mulliken charges with hydrogens summed into heavy atoms:
               1
     1  C    0.003597
     5  C    0.601498
     6  O   -0.525605
     7  N   -0.355070
     9  C    0.351895
    10  C    0.003259
    11  C   -0.017249
    12  C   -0.036387
    16  C   -0.133606
    18  C    0.112300
    19  C    0.280247
    20  N   -0.570536
    21  C   -0.242558
    23  S    0.198859
    24  C    0.300996
    25  N   -0.573116
    26  C    0.653238
    27  N   -0.032930
    30  N   -0.018834
 Electronic spatial extent (au):  <R**2>=           8696.3115
 Charge=              0.0000 electrons
 Dipole moment (field-independent basis, Debye):
    X=              3.9428    Y=             -0.2367    Z=              0.9017  Tot=              4.0515
 Quadrupole moment (field-independent basis, Debye-Ang):
   XX=            -87.5452   YY=           -101.6526   ZZ=           -120.8887
   XY=            -45.0040   XZ=             -2.9013   YZ=             -0.5871
 Traceless Quadrupole moment (field-independent basis, Debye-Ang):
   XX=             15.8170   YY=              1.7095   ZZ=            -17.5265
   XY=            -45.0040   XZ=             -2.9013   YZ=             -0.5871
 Octapole moment (field-independent basis, Debye-Ang**2):
  XXX=            310.8568  YYY=            -37.4541  ZZZ=              4.4371  XYY=             34.6361
  XXY=             -8.0912  XXZ=             12.3977  XZZ=            -11.3961  YZZ=             -2.1294
  YYZ=              5.7259  XYZ=            -11.8137
 Hexadecapole moment (field-independent basis, Debye-Ang**3):
 XXXX=          -7802.1420 YYYY=          -1349.9761 ZZZZ=           -177.4320 XXXY=          -1350.5558
 XXXZ=           -168.5245 YYYX=           -230.3674 YYYZ=            -16.6648 ZZZX=            -11.6164
 ZZZY=             -2.9970 XXYY=          -1632.6818 XXZZ=          -1684.1300 YYZZ=           -291.0742
 XXYZ=             -6.2566 YYXZ=             32.3121 ZZXY=            -16.1238
 N-N= 1.424156475847D+03 E-N=-5.689035695489D+03  KE= 1.203427408017D+03
 No NMR shielding tensors so no spin-rotation constants.
 Leave Link  601 at Thu Jan 28 04:54:45 2021, MaxMem=   262144000 cpu:         0.2
 (Enter /prod/apps/gaussian/g09d1/l9999.exe)
 1\1\GINC-PIRINEUS12\SP\RB3LYP\6-31G(d)\C12H13N5O1S1\UBAFAR01\28-Jan-20
 21\0\\#p b3lyp/6-31G(d) scrf=(iefpcm,read,solvent=n-Octanol) geom=allc
 heck guess=read\\SET_328_BBB321_conf1.geo_180_150_120.n.pdb.xyz\\0,1\C
 ,0,2.917,-3.957,3.73\H,0,1.971,-4.485,3.6\H,0,3.07,-3.761,4.794\H,0,3.
 732,-4.607,3.397\C,0,2.998,-2.642,2.975\O,0,3.98,-1.911,3.064\N,0,1.89
 9,-2.361,2.201\H,0,1.156,-3.046,2.215\C,0,1.66,-1.241,1.379\C,0,2.573,
 -0.186,1.237\C,0,2.243,0.884,0.407\C,0,1.033,0.923,-0.282\H,0,0.786,1.
 752,-0.932\H,0,2.949,1.701,0.297\H,0,3.508,-0.221,1.775\C,0,0.444,-1.2
 02,0.691\H,0,-0.266,-2.013,0.823\C,0,0.117,-0.131,-0.147\C,0,-1.159,-0
 .106,-0.883\N,0,-1.58,1.079,-1.463\C,0,-1.991,-1.176,-1.075\H,0,-1.852
 ,-2.196,-0.75\S,0,-3.375,-0.712,-2.014\C,0,-2.73,0.946,-2.095\N,0,-3.4
 71,1.854,-2.77\C,0,-3.109,3.125,-2.811\N,0,-3.966,3.999,-3.42\H,0,-4.6
 87,3.561,-3.978\H,0,-3.583,4.851,-3.809\N,0,-1.973,3.639,-2.287\H,0,-1
 .879,4.636,-2.157\H,0,-1.42,3.001,-1.716\\Version=AM64L-G09RevD.01\Sta
 te=1-A\HF=-1212.3449174\RMSD=3.644e-09\Dipole=-1.1295951,0.950903,-0.6
 005089\Quadrupole=-24.6835511,28.7078442,-4.0242931,-8.4466974,-1.6209
 486,-21.9190134\PG=C01 [X(C12H13N5O1S1)]\\@


 LIVE PURE, SPEAK TRUE, RIGHT WRONG, FOLLOW THE KING...
 ELSE, WHEREFORE BORN......
           IDYLLS OF THE KING, TENNYSON
 Job cpu time:       0 days  0 hours  3 minutes  7.7 seconds.
 File lengths (MBytes):  RWF=    173 Int=      0 D2E=      0 Chk=      6 Scr=      1
 Normal termination of Gaussian 09 at Thu Jan 28 04:54:45 2021.
