 Entering Gaussian System, Link 0=g09
 Initial command:
 /prod/apps/gaussian/g09d1/l1.exe "/tmp/ubafar01/1646369/Gau-148954.inp" -scrdir="/tmp/ubafar01/1646369/"
 Entering Link 1 = /prod/apps/gaussian/g09d1/l1.exe PID=    148955.
  
 Copyright (c) 1988,1990,1992,1993,1995,1998,2003,2009,2013,
            Gaussian, Inc.  All Rights Reserved.
  
 This is part of the Gaussian(R) 09 program.  It is based on
 the Gaussian(R) 03 system (copyright 2003, Gaussian, Inc.),
 the Gaussian(R) 98 system (copyright 1998, Gaussian, Inc.),
 the Gaussian(R) 94 system (copyright 1995, Gaussian, Inc.),
 the Gaussian 92(TM) system (copyright 1992, Gaussian, Inc.),
 the Gaussian 90(TM) system (copyright 1990, Gaussian, Inc.),
 the Gaussian 88(TM) system (copyright 1988, Gaussian, Inc.),
 the Gaussian 86(TM) system (copyright 1986, Carnegie Mellon
 University), and the Gaussian 82(TM) system (copyright 1983,
 Carnegie Mellon University). Gaussian is a federally registered
 trademark of Gaussian, Inc.
  
 This software contains proprietary and confidential information,
 including trade secrets, belonging to Gaussian, Inc.
  
 This software is provided under written license and may be
 used, copied, transmitted, or stored only in accord with that
 written license.
  
 The following legend is applicable only to US Government
 contracts under FAR:
  
                    RESTRICTED RIGHTS LEGEND
  
 Use, reproduction and disclosure by the US Government is
 subject to restrictions as set forth in subparagraphs (a)
 and (c) of the Commercial Computer Software - Restricted
 Rights clause in FAR 52.227-19.
  
 Gaussian, Inc.
 340 Quinnipiac St., Bldg. 40, Wallingford CT 06492
  
  
 ---------------------------------------------------------------
 Warning -- This program may not be used in any manner that
 competes with the business of Gaussian, Inc. or will provide
 assistance to any competitor of Gaussian, Inc.  The licensee
 of this program is prohibited from giving any competitor of
 Gaussian, Inc. access to this program.  By using this program,
 the user acknowledges that Gaussian, Inc. is engaged in the
 business of creating and licensing software in the field of
 computational chemistry and represents and warrants to the
 licensee that it is not a competitor of Gaussian, Inc. and that
 it will not use this program in any manner prohibited above.
 ---------------------------------------------------------------
  

 Cite this work as:
 Gaussian 09, Revision D.01,
 M. J. Frisch, G. W. Trucks, H. B. Schlegel, G. E. Scuseria, 
 M. A. Robb, J. R. Cheeseman, G. Scalmani, V. Barone, B. Mennucci, 
 G. A. Petersson, H. Nakatsuji, M. Caricato, X. Li, H. P. Hratchian, 
 A. F. Izmaylov, J. Bloino, G. Zheng, J. L. Sonnenberg, M. Hada, 
 M. Ehara, K. Toyota, R. Fukuda, J. Hasegawa, M. Ishida, T. Nakajima, 
 Y. Honda, O. Kitao, H. Nakai, T. Vreven, J. A. Montgomery, Jr., 
 J. E. Peralta, F. Ogliaro, M. Bearpark, J. J. Heyd, E. Brothers, 
 K. N. Kudin, V. N. Staroverov, T. Keith, R. Kobayashi, J. Normand, 
 K. Raghavachari, A. Rendell, J. C. Burant, S. S. Iyengar, J. Tomasi, 
 M. Cossi, N. Rega, J. M. Millam, M. Klene, J. E. Knox, J. B. Cross, 
 V. Bakken, C. Adamo, J. Jaramillo, R. Gomperts, R. E. Stratmann, 
 O. Yazyev, A. J. Austin, R. Cammi, C. Pomelli, J. W. Ochterski, 
 R. L. Martin, K. Morokuma, V. G. Zakrzewski, G. A. Voth, 
 P. Salvador, J. J. Dannenberg, S. Dapprich, A. D. Daniels, 
 O. Farkas, J. B. Foresman, J. V. Ortiz, J. Cioslowski, 
 and D. J. Fox, Gaussian, Inc., Wallingford CT, 2013.
 
 ******************************************
 Gaussian 09:  AM64L-G09RevD.01 24-Apr-2013
                28-Jan-2021 
 ******************************************
 %nproc=1
 Will use up to    1 processors via shared memory.
 %Chk=SET_328_BBB321_conf1.geo_165_150_225.n.pdb.xyz.mst.n.w.chk
 %mem=2000MB
 -----------------
 #p b3lyp/6-31G(d)
 -----------------
 1/38=1/1;
 2/12=2,17=6,18=5,40=1/2;
 3/5=1,6=6,7=1,11=2,16=1,25=1,30=1,74=-5/1,2,3;
 4//1;
 5/5=2,38=5/2;
 6/7=2,8=2,9=2,10=2,28=1/1;
 99/5=1,9=1/99;
 Leave Link    1 at Thu Jan 28 04:39:43 2021, MaxMem=   262144000 cpu:         0.0
 (Enter /prod/apps/gaussian/g09d1/l101.exe)
 ----------------------------------------------
 SET_328_BBB321_conf1.geo_165_150_225.n.pdb.xyz
 ----------------------------------------------
 Symbolic Z-matrix:
 Charge =  0 Multiplicity = 1
 C                    -3.706     2.75      4.112 
 H                    -4.513     3.479     4.181 
 H                    -2.953     2.985     4.871 
 H                    -4.096     1.751     4.325 
 C                    -3.09      2.834     2.728 
 O                    -3.31      3.78      1.971 
 N                    -2.268     1.783     2.421 
 H                    -2.174     1.073     3.139 
 C                    -1.511     1.559     1.255 
 C                    -1.502     2.44      0.16 
 C                    -0.724     2.126    -0.954 
 C                     0.04      0.962    -1.003 
 H                     0.643     0.731    -1.872 
 H                    -0.718     2.807    -1.8 
 H                    -2.097     3.339     0.199 
 C                    -0.744     0.389     1.206 
 H                    -0.762    -0.293     2.049 
 C                     0.039     0.078     0.086 
 C                     0.847    -1.156     0.05 
 N                     1.487    -1.513    -1.128 
 C                     1.04     -2.01      1.102 
 H                     0.658    -1.93      2.108 
 S                     2.061    -3.334     0.632 
 C                     2.171    -2.635    -1.007 
 N                     2.915    -3.317    -1.904 
 C                     3.051    -2.879    -3.154 
 N                     3.747    -3.673    -4.014 
 H                     4.123    -3.256    -4.859 
 H                     4.32     -4.391    -3.588 
 N                     2.541    -1.732    -3.641 
 H                     2.581    -1.531    -4.633 
 H                     1.905    -1.213    -3.041 
 
 NAtoms=     32 NQM=       32 NQMF=       0 NMMI=      0 NMMIF=      0
                NMic=       0 NMicF=      0.
                    Isotopes and Nuclear Properties:
 (Nuclear quadrupole moments (NQMom) in fm**2, nuclear magnetic moments (NMagM)
  in nuclear magnetons)

  Atom         1           2           3           4           5           6           7           8           9          10
 IAtWgt=          12           1           1           1          12          16          14           1          12          12
 AtmWgt=  12.0000000   1.0078250   1.0078250   1.0078250  12.0000000  15.9949146  14.0030740   1.0078250  12.0000000  12.0000000
 NucSpn=           0           1           1           1           0           0           2           1           0           0
 AtZEff=   0.0000000   0.0000000   0.0000000   0.0000000   0.0000000   0.0000000   0.0000000   0.0000000   0.0000000   0.0000000
 NQMom=    0.0000000   0.0000000   0.0000000   0.0000000   0.0000000   0.0000000   2.0440000   0.0000000   0.0000000   0.0000000
 NMagM=    0.0000000   2.7928460   2.7928460   2.7928460   0.0000000   0.0000000   0.4037610   2.7928460   0.0000000   0.0000000
 AtZNuc=   6.0000000   1.0000000   1.0000000   1.0000000   6.0000000   8.0000000   7.0000000   1.0000000   6.0000000   6.0000000

  Atom        11          12          13          14          15          16          17          18          19          20
 IAtWgt=          12          12           1           1           1          12           1          12          12          14
 AtmWgt=  12.0000000  12.0000000   1.0078250   1.0078250   1.0078250  12.0000000   1.0078250  12.0000000  12.0000000  14.0030740
 NucSpn=           0           0           1           1           1           0           1           0           0           2
 AtZEff=   0.0000000   0.0000000   0.0000000   0.0000000   0.0000000   0.0000000   0.0000000   0.0000000   0.0000000   0.0000000
 NQMom=    0.0000000   0.0000000   0.0000000   0.0000000   0.0000000   0.0000000   0.0000000   0.0000000   0.0000000   2.0440000
 NMagM=    0.0000000   0.0000000   2.7928460   2.7928460   2.7928460   0.0000000   2.7928460   0.0000000   0.0000000   0.4037610
 AtZNuc=   6.0000000   6.0000000   1.0000000   1.0000000   1.0000000   6.0000000   1.0000000   6.0000000   6.0000000   7.0000000

  Atom        21          22          23          24          25          26          27          28          29          30
 IAtWgt=          12           1          32          12          14          12          14           1           1          14
 AtmWgt=  12.0000000   1.0078250  31.9720718  12.0000000  14.0030740  12.0000000  14.0030740   1.0078250   1.0078250  14.0030740
 NucSpn=           0           1           0           0           2           0           2           1           1           2
 AtZEff=   0.0000000   0.0000000   0.0000000   0.0000000   0.0000000   0.0000000   0.0000000   0.0000000   0.0000000   0.0000000
 NQMom=    0.0000000   0.0000000   0.0000000   0.0000000   2.0440000   0.0000000   2.0440000   0.0000000   0.0000000   2.0440000
 NMagM=    0.0000000   2.7928460   0.0000000   0.0000000   0.4037610   0.0000000   0.4037610   2.7928460   2.7928460   0.4037610
 AtZNuc=   6.0000000   1.0000000  16.0000000   6.0000000   7.0000000   6.0000000   7.0000000   1.0000000   1.0000000   7.0000000

  Atom        31          32
 IAtWgt=           1           1
 AtmWgt=   1.0078250   1.0078250
 NucSpn=           1           1
 AtZEff=   0.0000000   0.0000000
 NQMom=    0.0000000   0.0000000
 NMagM=    2.7928460   2.7928460
 AtZNuc=   1.0000000   1.0000000
 Leave Link  101 at Thu Jan 28 04:39:43 2021, MaxMem=   262144000 cpu:         0.1
 (Enter /prod/apps/gaussian/g09d1/l202.exe)
                          Input orientation:                          
 ---------------------------------------------------------------------
 Center     Atomic      Atomic             Coordinates (Angstroms)
 Number     Number       Type             X           Y           Z
 ---------------------------------------------------------------------
      1          6           0       -3.706000    2.750000    4.112000
      2          1           0       -4.513000    3.479000    4.181000
      3          1           0       -2.953000    2.985000    4.871000
      4          1           0       -4.096000    1.751000    4.325000
      5          6           0       -3.090000    2.834000    2.728000
      6          8           0       -3.310000    3.780000    1.971000
      7          7           0       -2.268000    1.783000    2.421000
      8          1           0       -2.174000    1.073000    3.139000
      9          6           0       -1.511000    1.559000    1.255000
     10          6           0       -1.502000    2.440000    0.160000
     11          6           0       -0.724000    2.126000   -0.954000
     12          6           0        0.040000    0.962000   -1.003000
     13          1           0        0.643000    0.731000   -1.872000
     14          1           0       -0.718000    2.807000   -1.800000
     15          1           0       -2.097000    3.339000    0.199000
     16          6           0       -0.744000    0.389000    1.206000
     17          1           0       -0.762000   -0.293000    2.049000
     18          6           0        0.039000    0.078000    0.086000
     19          6           0        0.847000   -1.156000    0.050000
     20          7           0        1.487000   -1.513000   -1.128000
     21          6           0        1.040000   -2.010000    1.102000
     22          1           0        0.658000   -1.930000    2.108000
     23         16           0        2.061000   -3.334000    0.632000
     24          6           0        2.171000   -2.635000   -1.007000
     25          7           0        2.915000   -3.317000   -1.904000
     26          6           0        3.051000   -2.879000   -3.154000
     27          7           0        3.747000   -3.673000   -4.014000
     28          1           0        4.123000   -3.256000   -4.859000
     29          1           0        4.320000   -4.391000   -3.588000
     30          7           0        2.541000   -1.732000   -3.641000
     31          1           0        2.581000   -1.531000   -4.633000
     32          1           0        1.905000   -1.213000   -3.041000
 ---------------------------------------------------------------------
                    Distance matrix (angstroms):
                    1          2          3          4          5
     1  C    0.000000
     2  H    1.089702   0.000000
     3  H    1.094676   1.775876   0.000000
     4  H    1.093376   1.783426   1.768423   0.000000
     5  C    1.517224   2.133580   2.152677   2.176082   0.000000
     6  O    2.408650   2.534149   3.028114   3.205613   1.231408
     7  N    2.421242   3.318741   2.813633   2.639664   1.369136
     8  H    2.471049   3.513619   2.694886   2.358042   2.027091
     9  C    3.794595   4.610844   4.145877   4.017958   2.507707
    10  C    4.535639   5.129725   4.959430   4.954875   3.044931
    11  C    5.911519   6.523447   6.295788   6.275257   4.433548
    12  C    6.587312   7.344314   6.895974   6.790920   5.217437
    13  H    7.668013   8.412767   7.967420   7.867740   6.286326
    14  H    6.624435   7.115193   7.037695   7.074012   5.111741
    15  H    4.271694   4.659719   4.762944   4.851971   2.763497
    16  C    4.774160   5.709999   5.005110   4.776935   3.714596
    17  H    4.709878   5.730917   4.848654   4.524784   3.957114
    18  C    6.113369   7.004037   6.348144   6.153558   4.936227
    19  C    7.244756   8.202316   7.404723   7.152589   6.212226
    20  N    8.520447   9.439573   8.713989   8.459243   7.396896
    21  C    7.364932   8.393162   7.422899   7.135219   6.570016
    22  H    6.705439   7.764912   6.695574   6.408226   6.093242
    23  S    9.076549  10.110878   9.112578   8.797961   8.304832
    24  C    9.473200  10.438975   9.612006   9.324297   8.458032
    25  N   10.809181  11.763844  10.956699  10.660168   9.764745
    26  C   11.407780  12.306116  11.611853  11.333664  10.244422
    27  N   12.760643  13.657845  12.967736  12.667729  11.599146
    28  H   13.335821  14.200786  13.553330  13.302927  12.111071
    29  H   13.217434  14.153309  13.373727  13.083149  12.124380
    30  N   10.918898  11.751473  11.175342  10.937925   9.649906
    31  H   11.590011  12.373824  11.888878  11.644725  10.266342
    32  H    9.917364  10.740711  10.189363   9.952651   8.637685
                    6          7          8          9         10
     6  O    0.000000
     7  N    2.297014   0.000000
     8  H    3.159520   1.014130   0.000000
     9  C    2.946506   1.408113   2.055534   0.000000
    10  C    2.888630   2.475990   3.345850   1.405442   0.000000
    11  C    4.240134   3.727226   4.468105   2.412579   1.394588
    12  C    5.292287   4.210069   4.697902   2.803672   2.432040
    13  H    6.300100   5.292492   5.758696   3.886313   3.413317
    14  H    4.678208   4.611715   5.433269   3.394021   2.142649
    15  H    2.192221   2.718025   3.712719   2.151030   1.078771
    16  C    4.320702   2.396255   2.499849   1.399854   2.423898
    17  H    4.804968   2.591562   2.246731   2.149730   3.403705
    18  C    5.336088   3.698851   3.899770   2.441807   2.821206
    19  C    6.733126   4.895160   4.861770   3.792547   4.296640
    20  N    7.786582   6.128543   6.188506   4.909570   5.120476
    21  C    7.293954   5.202833   4.897352   4.389621   5.210722
    22  H    6.954703   4.737701   4.254550   4.195866   5.249496
    23  S    9.013854   6.937179   6.606203   6.090054   6.801237
    24  C    8.947741   7.139652   7.058159   6.021910   6.372475
    25  N   10.204590   8.460444   8.402492   7.303707   7.544073
    26  C   10.538986   9.005922   9.084095   7.742543   7.746236
    27  N   11.881443  10.361341  10.428239   9.098503   9.074307
    28  H   12.304620  10.919469  11.061666   9.607662   9.448566
    29  H   12.485376  10.845649  10.829583   9.636271   9.726549
    30  N    9.803616   8.498797   8.721677   7.156829   6.942552
    31  H   10.321018   9.179015   9.476013   7.807759   7.443963
    32  H    8.788994   7.498226   7.749609   6.148874   5.932829
                   11         12         13         14         15
    11  C    0.000000
    12  C    1.393195   0.000000
    13  H    2.158110   1.082650   0.000000
    14  H    1.086054   2.147975   2.483401   0.000000
    15  H    2.164696   3.414923   4.312575   2.486095   0.000000
    16  C    2.771853   2.413020   3.393349   3.857906   3.398111
    17  H    3.856295   3.396017   4.289154   4.942341   4.289073
    18  C    2.420346   1.402633   2.150579   3.402570   3.899921
    19  C    3.774597   2.499196   2.701198   4.645115   5.375348
    20  N    4.261586   2.869679   2.510261   4.896530   6.176398
    21  C    4.944222   3.776746   4.063910   5.891999   6.266417
    22  H    5.266584   4.292308   4.787645   6.293251   6.244731
    23  S    6.331131   5.021283   4.980458   7.165846   7.874350
    24  C    5.572338   4.180859   3.796441   6.212128   7.440359
    25  N    6.615971   5.233285   4.642124   7.121298   8.593317
    26  C    6.643843   5.333498   4.524830   6.954802   8.741169
    27  N    7.936110   6.655163   5.798120   8.174865  10.053350
    28  H    8.228509   7.023614   6.076902   8.339828  10.381030
    29  H    8.651658   7.324973   6.534514   8.966024  10.736487
    30  N    5.724016   4.524564   3.577448   5.883271   7.872210
    31  H    6.150749   5.084155   4.061479   6.142274   8.303542
    32  H    4.734568   3.516005   2.595831   4.957884   6.872722
                   16         17         18         19         20
    16  C    0.000000
    17  H    1.084480   0.000000
    18  C    1.401503   2.152350   0.000000
    19  C    2.500928   2.707333   1.475438   0.000000
    20  N    3.747335   4.079183   2.470178   1.387347   0.000000
    21  C    2.991433   2.663100   2.528636   1.368674   2.328029
    22  H    2.856041   2.167868   2.916112   2.206844   3.366426
    23  S    4.696619   4.384621   4.003541   2.560509   2.596751
    24  C    4.747544   4.840102   3.619453   2.248926   1.319614
    25  N    6.065873   6.187981   4.874167   3.572767   2.428122
    26  C    6.640139   6.949646   5.321052   4.253465   2.901160
    27  N    7.994831   8.277406   6.680514   5.591188   4.254668
    28  H    8.588244   8.964544   7.228253   6.264220   4.889469
    29  H    8.454285   8.625317   7.197027   5.980134   4.728676
    30  N    6.227622   6.734733   4.840107   4.101816   2.733870
    31  H    6.988272   7.573468   5.596392   5.007781   3.671809
    32  H    5.255532   5.819569   3.863517   3.267552   1.980983
                   21         22         23         24         25
    21  C    0.000000
    22  H    1.079055   0.000000
    23  S    1.736755   2.473500   0.000000
    24  C    2.473392   3.534037   1.785223   0.000000
    25  N    3.776230   4.807698   2.675986   1.350285   0.000000
    26  C    4.786734   5.857960   3.939660   2.333141   1.331480
    27  N    6.022198   7.075228   4.954072   3.550108   2.295879
    28  H    6.825755   7.893262   5.865919   4.362780   3.192963
    29  H    6.198682   7.204941   4.901911   3.789894   2.441999
    30  N    4.982603   6.052759   4.588609   2.808962   2.381023
    31  H    5.957713   7.021268   5.589404   3.812452   3.278535
    32  H    4.306725   5.346148   4.244279   2.495996   2.596090
                   26         27         28         29         30
    26  C    0.000000
    27  N    1.361783   0.000000
    28  H    2.048985   1.014539   0.000000
    29  H    2.021104   1.012585   1.715364   0.000000
    30  N    1.346432   2.315393   2.511737   3.199677   0.000000
    31  H    2.055589   2.516124   2.324751   3.506529   1.012949
    32  H    2.025251   3.223553   3.521150   4.028786   1.016788
                   31         32
    31  H    0.000000
    32  H    1.758569   0.000000
 Stoichiometry    C12H13N5OS
 Framework group  C1[X(C12H13N5OS)]
 Deg. of freedom    90
 Full point group                 C1      NOp   1
 Largest Abelian subgroup         C1      NOp   1
 Largest concise Abelian subgroup C1      NOp   1
                         Standard orientation:                         
 ---------------------------------------------------------------------
 Center     Atomic      Atomic             Coordinates (Angstroms)
 Number     Number       Type             X           Y           Z
 ---------------------------------------------------------------------
      1          6           0       -6.406525    1.205918    0.186937
      2          1           0       -7.378938    0.775990    0.425737
      3          1           0       -6.475565    1.719678   -0.777220
      4          1           0       -6.138717    1.948236    0.943715
      5          6           0       -5.385306    0.086795    0.105416
      6          8           0       -5.717140   -1.096999    0.035547
      7          7           0       -4.086325    0.519392    0.098779
      8          1           0       -3.956108    1.523332    0.158833
      9          6           0       -2.900525   -0.232774   -0.005652
     10          6           0       -2.882765   -1.633973   -0.113326
     11          6           0       -1.655254   -2.289527   -0.204664
     12          6           0       -0.452415   -1.586693   -0.190679
     13          1           0        0.494215   -2.106634   -0.266066
     14          1           0       -1.642319   -3.372358   -0.287273
     15          1           0       -3.815345   -2.176180   -0.120597
     16          6           0       -1.692184    0.473827    0.009065
     17          1           0       -1.710290    1.554108    0.102663
     18          6           0       -0.460446   -0.188008   -0.085835
     19          6           0        0.805502    0.569731   -0.074649
     20          7           0        2.007741   -0.119937   -0.013716
     21          6           0        0.915712    1.932961   -0.126862
     22          1           0        0.126925    2.666338   -0.192691
     23         16           0        2.585276    2.410416   -0.096694
     24          6           0        3.050433    0.688873   -0.013377
     25          7           0        4.373397    0.424411    0.042270
     26          6           0        4.818136   -0.828557    0.113816
     27          7           0        6.161906   -0.999565    0.253430
     28          1           0        6.561162   -1.901082    0.014364
     29          1           0        6.735591   -0.194714    0.033362
     30          7           0        4.050547   -1.934293    0.081693
     31          1           0        4.452052   -2.845388    0.268143
     32          1           0        3.042994   -1.803469    0.121435
 ---------------------------------------------------------------------
 Rotational constants (GHZ):      0.9241511      0.1304638      0.1146171
 Leave Link  202 at Thu Jan 28 04:39:43 2021, MaxMem=   262144000 cpu:         0.0
 (Enter /prod/apps/gaussian/g09d1/l301.exe)
 Standard basis: 6-31G(d) (6D, 7F)
 Ernie: Thresh=  0.10000D-02 Tol=  0.10000D-05 Strict=F.
 There are   315 symmetry adapted cartesian basis functions of A   symmetry.
 There are   315 symmetry adapted basis functions of A   symmetry.
   315 basis functions,   608 primitive gaussians,   315 cartesian basis functions
    72 alpha electrons       72 beta electrons
       nuclear repulsion energy      1422.8617585702 Hartrees.
 IExCor=  402 DFT=T Ex+Corr=B3LYP ExCW=0 ScaHFX=  0.200000
 ScaDFX=  0.800000  0.720000  1.000000  0.810000 ScalE2=  1.000000  1.000000
 IRadAn=      0 IRanWt=     -1 IRanGd=            0 ICorTp=0 IEmpDi=  4
 NAtoms=   32 NActive=   32 NUniq=   32 SFac= 1.00D+00 NAtFMM=   60 NAOKFM=F Big=F
 Integral buffers will be    131072 words long.
 Raffenetti 2 integral format.
 Two-electron integral symmetry is turned on.
 Leave Link  301 at Thu Jan 28 04:39:43 2021, MaxMem=   262144000 cpu:         0.0
 (Enter /prod/apps/gaussian/g09d1/l302.exe)
 NPDir=0 NMtPBC=     1 NCelOv=     1 NCel=       1 NClECP=     1 NCelD=      1
         NCelK=      1 NCelE2=     1 NClLst=     1 CellRange=     0.0.
 One-electron integrals computed using PRISM.
 NBasis=   315 RedAO= T EigKep=  3.97D-04  NBF=   315
 NBsUse=   315 1.00D-06 EigRej= -1.00D+00 NBFU=   315
 Precomputing XC quadrature grid using
 IXCGrd= 4 IRadAn=           0 IRanWt=          -1 IRanGd=           0 AccXCQ= 0.00D+00.
 Generated NRdTot=       0 NPtTot=           0 NUsed=           0 NTot=          32
 NSgBfM=   306   307   307   307   308 MxSgAt=    32 MxSgA2=    32.
 Leave Link  302 at Thu Jan 28 04:39:44 2021, MaxMem=   262144000 cpu:         1.1
 (Enter /prod/apps/gaussian/g09d1/l303.exe)
 DipDrv:  MaxL=1.
 Leave Link  303 at Thu Jan 28 04:39:44 2021, MaxMem=   262144000 cpu:         0.0
 (Enter /prod/apps/gaussian/g09d1/l401.exe)
 ExpMin= 1.17D-01 ExpMax= 2.19D+04 ExpMxC= 3.30D+03 IAcc=1 IRadAn=         1 AccDes= 0.00D+00
 Harris functional with IExCor=  402 and IRadAn=       1 diagonalized for initial guess.
 HarFok:  IExCor=  402 AccDes= 0.00D+00 IRadAn=         1 IDoV= 1 UseB2=F ITyADJ=14
 ICtDFT=  3500011 ScaDFX=  1.000000  1.000000  1.000000  1.000000
 FoFCou: FMM=F IPFlag=           0 FMFlag=      100000 FMFlg1=           0
         NFxFlg=           0 DoJE=T BraDBF=F KetDBF=T FulRan=T
         wScrn=  0.000000 ICntrl=     500 IOpCl=  0 I1Cent=   200000004 NGrid=           0
         NMat0=    1 NMatS0=      1 NMatT0=    0 NMatD0=    1 NMtDS0=    0 NMtDT0=    0
 Petite list used in FoFCou.
 Harris En= -1212.26366843213    
 JPrj=0 DoOrth=F DoCkMO=F.
 Leave Link  401 at Thu Jan 28 04:39:48 2021, MaxMem=   262144000 cpu:         3.2
 (Enter /prod/apps/gaussian/g09d1/l502.exe)
 Closed shell SCF:
 Using DIIS extrapolation, IDIIS=  1040.
 Integral symmetry usage will be decided dynamically.
 IVT=      320487 IEndB=      320487 NGot=   262144000 MDV=   261939694
 LenX=   261939694 LenY=   261840028
 Requested convergence on RMS density matrix=1.00D-08 within 128 cycles.
 Requested convergence on MAX density matrix=1.00D-06.
 Requested convergence on             energy=1.00D-06.
 No special actions if energy rises.
 Fock matrices will be formed incrementally for  20 cycles.
 Integral accuracy reduced to 1.0D-05 until final iterations.

 Cycle   1  Pass 0  IDiag  1:
 FoFJK:  IHMeth= 1 ICntrl=       0 DoSepK=F KAlg= 0 I1Cent=   0 FoldK=F
 IRaf= 680000000 NMat=   1 IRICut=       1 DoRegI=T DoRafI=F ISym2E= 0.
 FoFCou: FMM=F IPFlag=           0 FMFlag=      100000 FMFlg1=           0
         NFxFlg=           0 DoJE=F BraDBF=F KetDBF=F FulRan=T
         wScrn=  0.000000 ICntrl=       0 IOpCl=  0 I1Cent=           0 NGrid=           0
         NMat0=    1 NMatS0=      1 NMatT0=    0 NMatD0=    1 NMtDS0=    0 NMtDT0=    0
 Symmetry not used in FoFCou.
 E= -1211.78712797490    
 DIIS: error= 2.76D-02 at cycle   1 NSaved=   1.
 NSaved= 1 IEnMin= 1 EnMin= -1211.78712797490     IErMin= 1 ErrMin= 2.76D-02
 ErrMax= 2.76D-02  0.00D+00 EMaxC= 1.00D-01 BMatC= 5.55D-01 BMatP= 5.55D-01
 IDIUse=3 WtCom= 7.24D-01 WtEn= 2.76D-01
 Coeff-Com:  0.100D+01
 Coeff-En:   0.100D+01
 Coeff:      0.100D+01
 Gap=     0.258 Goal=   None    Shift=    0.000
 GapD=    0.258 DampG=1.000 DampE=0.500 DampFc=0.5000 IDamp=-1.
 Damping current iteration by 5.00D-01
 RMSDP=6.62D-03 MaxDP=2.25D-01              OVMax= 2.77D-01

 Cycle   2  Pass 0  IDiag  1:
 RMSU=  3.29D-03    CP:  9.85D-01
 E= -1211.93061060636     Delta-E=       -0.143482631464 Rises=F Damp=T
 DIIS: error= 1.41D-02 at cycle   2 NSaved=   2.
 NSaved= 2 IEnMin= 2 EnMin= -1211.93061060636     IErMin= 2 ErrMin= 1.41D-02
 ErrMax= 1.41D-02  0.00D+00 EMaxC= 1.00D-01 BMatC= 8.12D-02 BMatP= 5.55D-01
 IDIUse=3 WtCom= 8.59D-01 WtEn= 1.41D-01
 Coeff-Com:  0.201D+00 0.799D+00
 Coeff-En:   0.344D+00 0.656D+00
 Coeff:      0.221D+00 0.779D+00
 Gap=     0.291 Goal=   None    Shift=    0.000
 RMSDP=2.43D-03 MaxDP=1.18D-01 DE=-1.43D-01 OVMax= 2.45D-01

 Cycle   3  Pass 0  IDiag  1:
 RMSU=  1.93D-03    CP:  9.71D-01  5.58D-01
 E= -1212.22296157124     Delta-E=       -0.292350964880 Rises=F Damp=F
 DIIS: error= 1.82D-02 at cycle   3 NSaved=   3.
 NSaved= 3 IEnMin= 3 EnMin= -1212.22296157124     IErMin= 2 ErrMin= 1.41D-02
 ErrMax= 1.82D-02  0.00D+00 EMaxC= 1.00D-01 BMatC= 9.48D-02 BMatP= 8.12D-02
 IDIUse=2 WtCom= 0.00D+00 WtEn= 1.00D+00
 Coeff-En:   0.000D+00 0.000D+00 0.100D+01
 Coeff:      0.000D+00 0.000D+00 0.100D+01
 Gap=     0.159 Goal=   None    Shift=    0.000
 RMSDP=3.51D-03 MaxDP=1.52D-01 DE=-2.92D-01 OVMax= 2.35D-01

 Cycle   4  Pass 0  IDiag  1:
 RMSU=  1.80D-03    CP:  9.82D-01  1.12D+00 -2.25D-01
 E= -1211.80396262719     Delta-E=        0.418998944055 Rises=F Damp=F
 DIIS: error= 4.32D-02 at cycle   4 NSaved=   4.
 NSaved= 4 IEnMin= 3 EnMin= -1212.22296157124     IErMin= 2 ErrMin= 1.41D-02
 ErrMax= 4.32D-02  0.00D+00 EMaxC= 1.00D-01 BMatC= 5.57D-01 BMatP= 8.12D-02
 IDIUse=2 WtCom= 0.00D+00 WtEn= 1.00D+00
 Coeff-En:   0.000D+00 0.000D+00 0.796D+00 0.204D+00
 Coeff:      0.000D+00 0.000D+00 0.796D+00 0.204D+00
 Gap=     0.205 Goal=   None    Shift=    0.000
 RMSDP=1.94D-03 MaxDP=8.55D-02 DE= 4.19D-01 OVMax= 1.12D-01

 Cycle   5  Pass 0  IDiag  1:
 RMSU=  2.77D-04    CP:  9.78D-01  7.55D-01  4.07D-01  5.26D-01
 E= -1212.27347616742     Delta-E=       -0.469513540232 Rises=F Damp=F
 DIIS: error= 1.15D-02 at cycle   5 NSaved=   5.
 NSaved= 5 IEnMin= 5 EnMin= -1212.27347616742     IErMin= 5 ErrMin= 1.15D-02
 ErrMax= 1.15D-02  0.00D+00 EMaxC= 1.00D-01 BMatC= 4.17D-02 BMatP= 8.12D-02
 IDIUse=3 WtCom= 8.85D-01 WtEn= 1.15D-01
 Coeff-Com: -0.799D-02 0.367D-01 0.305D+00-0.959D-01 0.762D+00
 Coeff-En:   0.000D+00 0.000D+00 0.346D+00 0.000D+00 0.654D+00
 Coeff:     -0.707D-02 0.325D-01 0.310D+00-0.849D-01 0.750D+00
 Gap=     0.162 Goal=   None    Shift=    0.000
 RMSDP=6.76D-04 MaxDP=2.69D-02 DE=-4.70D-01 OVMax= 4.28D-02

 Cycle   6  Pass 0  IDiag  1:
 RMSU=  8.55D-05    CP:  9.75D-01  6.65D-01  6.48D-01  3.17D-01  8.35D-01
 E= -1212.31139052744     Delta-E=       -0.037914360025 Rises=F Damp=F
 DIIS: error= 5.50D-04 at cycle   6 NSaved=   6.
 NSaved= 6 IEnMin= 6 EnMin= -1212.31139052744     IErMin= 6 ErrMin= 5.50D-04
 ErrMax= 5.50D-04  0.00D+00 EMaxC= 1.00D-01 BMatC= 2.01D-04 BMatP= 4.17D-02
 IDIUse=3 WtCom= 9.95D-01 WtEn= 5.50D-03
 Coeff-Com: -0.651D-02 0.176D-01 0.147D+00-0.634D-01 0.439D+00 0.466D+00
 Coeff-En:   0.000D+00 0.000D+00 0.000D+00 0.000D+00 0.000D+00 0.100D+01
 Coeff:     -0.647D-02 0.175D-01 0.146D+00-0.630D-01 0.437D+00 0.469D+00
 Gap=     0.162 Goal=   None    Shift=    0.000
 RMSDP=5.84D-05 MaxDP=2.17D-03 DE=-3.79D-02 OVMax= 4.74D-03

 Cycle   7  Pass 0  IDiag  1:
 RMSU=  3.20D-05    CP:  9.75D-01  6.72D-01  6.41D-01  3.26D-01  8.69D-01
                    CP:  5.71D-01
 E= -1212.31155664843     Delta-E=       -0.000166120989 Rises=F Damp=F
 DIIS: error= 2.72D-04 at cycle   7 NSaved=   7.
 NSaved= 7 IEnMin= 7 EnMin= -1212.31155664843     IErMin= 7 ErrMin= 2.72D-04
 ErrMax= 2.72D-04  0.00D+00 EMaxC= 1.00D-01 BMatC= 2.03D-05 BMatP= 2.01D-04
 IDIUse=3 WtCom= 9.97D-01 WtEn= 2.72D-03
 Coeff-Com: -0.260D-02 0.625D-02 0.539D-01-0.265D-01 0.170D+00 0.275D+00
 Coeff-Com:  0.523D+00
 Coeff-En:   0.000D+00 0.000D+00 0.000D+00 0.000D+00 0.000D+00 0.862D-01
 Coeff-En:   0.914D+00
 Coeff:     -0.260D-02 0.623D-02 0.537D-01-0.264D-01 0.170D+00 0.275D+00
 Coeff:      0.524D+00
 Gap=     0.162 Goal=   None    Shift=    0.000
 RMSDP=2.14D-05 MaxDP=7.90D-04 DE=-1.66D-04 OVMax= 1.63D-03

 Cycle   8  Pass 0  IDiag  1:
 RMSU=  1.23D-05    CP:  9.75D-01  6.70D-01  6.45D-01  3.24D-01  8.63D-01
                    CP:  6.46D-01  6.08D-01
 E= -1212.31157534459     Delta-E=       -0.000018696160 Rises=F Damp=F
 DIIS: error= 1.23D-04 at cycle   8 NSaved=   8.
 NSaved= 8 IEnMin= 8 EnMin= -1212.31157534459     IErMin= 8 ErrMin= 1.23D-04
 ErrMax= 1.23D-04  0.00D+00 EMaxC= 1.00D-01 BMatC= 3.27D-06 BMatP= 2.03D-05
 IDIUse=3 WtCom= 9.99D-01 WtEn= 1.23D-03
 Coeff-Com: -0.515D-03 0.276D-03 0.135D-01-0.633D-02 0.408D-01 0.111D+00
 Coeff-Com:  0.340D+00 0.501D+00
 Coeff-En:   0.000D+00 0.000D+00 0.000D+00 0.000D+00 0.000D+00 0.000D+00
 Coeff-En:   0.703D-01 0.930D+00
 Coeff:     -0.514D-03 0.276D-03 0.135D-01-0.632D-02 0.408D-01 0.111D+00
 Coeff:      0.340D+00 0.502D+00
 Gap=     0.162 Goal=   None    Shift=    0.000
 RMSDP=6.91D-06 MaxDP=3.26D-04 DE=-1.87D-05 OVMax= 6.76D-04

 Initial convergence to 1.0D-05 achieved.  Increase integral accuracy.
 Cycle   9  Pass 1  IDiag  1:
 E= -1212.31155474668     Delta-E=        0.000020597909 Rises=F Damp=F
 DIIS: error= 4.36D-05 at cycle   1 NSaved=   1.
 NSaved= 1 IEnMin= 1 EnMin= -1212.31155474668     IErMin= 1 ErrMin= 4.36D-05
 ErrMax= 4.36D-05  0.00D+00 EMaxC= 1.00D-01 BMatC= 6.87D-07 BMatP= 6.87D-07
 IDIUse=1 WtCom= 1.00D+00 WtEn= 0.00D+00
 Coeff-Com:  0.100D+01
 Coeff:      0.100D+01
 Gap=     0.162 Goal=   None    Shift=    0.000
 RMSDP=6.91D-06 MaxDP=3.26D-04 DE= 2.06D-05 OVMax= 4.22D-04

 Cycle  10  Pass 1  IDiag  1:
 RMSU=  3.86D-05    CP:  1.00D+00
 E= -1212.31155479305     Delta-E=       -0.000000046366 Rises=F Damp=F
 DIIS: error= 4.80D-05 at cycle   2 NSaved=   2.
 NSaved= 2 IEnMin= 2 EnMin= -1212.31155479305     IErMin= 1 ErrMin= 4.36D-05
 ErrMax= 4.80D-05  0.00D+00 EMaxC= 1.00D-01 BMatC= 6.55D-07 BMatP= 6.87D-07
 IDIUse=1 WtCom= 1.00D+00 WtEn= 0.00D+00
 Coeff-Com:  0.492D+00 0.508D+00
 Coeff:      0.492D+00 0.508D+00
 Gap=     0.162 Goal=   None    Shift=    0.000
 RMSDP=4.86D-06 MaxDP=2.69D-04 DE=-4.64D-08 OVMax= 5.06D-04

 Cycle  11  Pass 1  IDiag  1:
 RMSU=  4.85D-06    CP:  1.00D+00  9.90D-01
 E= -1212.31155520732     Delta-E=       -0.000000414273 Rises=F Damp=F
 DIIS: error= 3.20D-05 at cycle   3 NSaved=   3.
 NSaved= 3 IEnMin= 3 EnMin= -1212.31155520732     IErMin= 3 ErrMin= 3.20D-05
 ErrMax= 3.20D-05  0.00D+00 EMaxC= 1.00D-01 BMatC= 2.69D-07 BMatP= 6.55D-07
 IDIUse=1 WtCom= 1.00D+00 WtEn= 0.00D+00
 Coeff-Com:  0.416D-01 0.383D+00 0.576D+00
 Coeff:      0.416D-01 0.383D+00 0.576D+00
 Gap=     0.162 Goal=   None    Shift=    0.000
 RMSDP=2.21D-06 MaxDP=1.07D-04 DE=-4.14D-07 OVMax= 1.89D-04

 Cycle  12  Pass 1  IDiag  1:
 RMSU=  9.39D-07    CP:  1.00D+00  1.00D+00  6.01D-01
 E= -1212.31155546182     Delta-E=       -0.000000254492 Rises=F Damp=F
 DIIS: error= 6.61D-06 at cycle   4 NSaved=   4.
 NSaved= 4 IEnMin= 4 EnMin= -1212.31155546182     IErMin= 4 ErrMin= 6.61D-06
 ErrMax= 6.61D-06  0.00D+00 EMaxC= 1.00D-01 BMatC= 2.27D-08 BMatP= 2.69D-07
 IDIUse=1 WtCom= 1.00D+00 WtEn= 0.00D+00
 Coeff-Com: -0.522D-02 0.210D+00 0.362D+00 0.433D+00
 Coeff:     -0.522D-02 0.210D+00 0.362D+00 0.433D+00
 Gap=     0.162 Goal=   None    Shift=    0.000
 RMSDP=5.60D-07 MaxDP=1.98D-05 DE=-2.54D-07 OVMax= 4.38D-05

 Cycle  13  Pass 1  IDiag  1:
 RMSU=  2.05D-07    CP:  1.00D+00  1.00D+00  6.21D-01  4.55D-01
 E= -1212.31155548377     Delta-E=       -0.000000021955 Rises=F Damp=F
 DIIS: error= 1.26D-06 at cycle   5 NSaved=   5.
 NSaved= 5 IEnMin= 5 EnMin= -1212.31155548377     IErMin= 5 ErrMin= 1.26D-06
 ErrMax= 1.26D-06  0.00D+00 EMaxC= 1.00D-01 BMatC= 5.42D-10 BMatP= 2.27D-08
 IDIUse=1 WtCom= 1.00D+00 WtEn= 0.00D+00
 Coeff-Com: -0.420D-02 0.107D+00 0.187D+00 0.244D+00 0.466D+00
 Coeff:     -0.420D-02 0.107D+00 0.187D+00 0.244D+00 0.466D+00
 Gap=     0.162 Goal=   None    Shift=    0.000
 RMSDP=9.68D-08 MaxDP=4.26D-06 DE=-2.20D-08 OVMax= 8.52D-06

 Cycle  14  Pass 1  IDiag  1:
 RMSU=  7.22D-08    CP:  1.00D+00  1.00D+00  6.20D-01  4.81D-01  7.11D-01
 E= -1212.31155548430     Delta-E=       -0.000000000526 Rises=F Damp=F
 DIIS: error= 3.83D-07 at cycle   6 NSaved=   6.
 NSaved= 6 IEnMin= 6 EnMin= -1212.31155548430     IErMin= 6 ErrMin= 3.83D-07
 ErrMax= 3.83D-07  0.00D+00 EMaxC= 1.00D-01 BMatC= 4.93D-11 BMatP= 5.42D-10
 IDIUse=1 WtCom= 1.00D+00 WtEn= 0.00D+00
 Coeff-Com: -0.182D-02 0.390D-01 0.688D-01 0.927D-01 0.268D+00 0.534D+00
 Coeff:     -0.182D-02 0.390D-01 0.688D-01 0.927D-01 0.268D+00 0.534D+00
 Gap=     0.162 Goal=   None    Shift=    0.000
 RMSDP=3.26D-08 MaxDP=1.34D-06 DE=-5.26D-10 OVMax= 2.82D-06

 Cycle  15  Pass 1  IDiag  1:
 RMSU=  2.44D-08    CP:  1.00D+00  1.00D+00  6.21D-01  4.75D-01  7.49D-01
                    CP:  7.45D-01
 E= -1212.31155548433     Delta-E=       -0.000000000035 Rises=F Damp=F
 DIIS: error= 2.23D-07 at cycle   7 NSaved=   7.
 NSaved= 7 IEnMin= 7 EnMin= -1212.31155548433     IErMin= 7 ErrMin= 2.23D-07
 ErrMax= 2.23D-07  0.00D+00 EMaxC= 1.00D-01 BMatC= 8.40D-12 BMatP= 4.93D-11
 IDIUse=1 WtCom= 1.00D+00 WtEn= 0.00D+00
 Coeff-Com: -0.462D-03 0.735D-02 0.131D-01 0.189D-01 0.917D-01 0.328D+00
 Coeff-Com:  0.541D+00
 Coeff:     -0.462D-03 0.735D-02 0.131D-01 0.189D-01 0.917D-01 0.328D+00
 Coeff:      0.541D+00
 Gap=     0.162 Goal=   None    Shift=    0.000
 RMSDP=1.10D-08 MaxDP=7.55D-07 DE=-3.46D-11 OVMax= 8.15D-07

 Cycle  16  Pass 1  IDiag  1:
 RMSU=  7.82D-09    CP:  1.00D+00  1.00D+00  6.21D-01  4.76D-01  7.54D-01
                    CP:  8.04D-01  7.49D-01
 E= -1212.31155548432     Delta-E=        0.000000000008 Rises=F Damp=F
 DIIS: error= 7.45D-08 at cycle   8 NSaved=   8.
 NSaved= 8 IEnMin= 7 EnMin= -1212.31155548433     IErMin= 8 ErrMin= 7.45D-08
 ErrMax= 7.45D-08  0.00D+00 EMaxC= 1.00D-01 BMatC= 1.12D-12 BMatP= 8.40D-12
 IDIUse=1 WtCom= 1.00D+00 WtEn= 0.00D+00
 Coeff-Com: -0.270D-04-0.104D-02-0.189D-02-0.182D-02 0.164D-01 0.121D+00
 Coeff-Com:  0.321D+00 0.547D+00
 Coeff:     -0.270D-04-0.104D-02-0.189D-02-0.182D-02 0.164D-01 0.121D+00
 Coeff:      0.321D+00 0.547D+00
 Gap=     0.162 Goal=   None    Shift=    0.000
 RMSDP=4.23D-09 MaxDP=2.55D-07 DE= 8.19D-12 OVMax= 2.98D-07

 SCF Done:  E(RB3LYP) =  -1212.31155548     A.U. after   16 cycles
            NFock= 16  Conv=0.42D-08     -V/T= 2.0074
 KE= 1.203353228533D+03 PE=-5.685920392992D+03 EE= 1.847393850405D+03
 Leave Link  502 at Thu Jan 28 04:44:09 2021, MaxMem=   262144000 cpu:       261.7
 (Enter /prod/apps/gaussian/g09d1/l601.exe)
 Copying SCF densities to generalized density rwf, IOpCl= 0 IROHF=0.

 **********************************************************************

            Population analysis using the SCF density.

 **********************************************************************

 Orbital symmetries:
       Occupied  (A) (A) (A) (A) (A) (A) (A) (A) (A) (A) (A) (A)
                 (A) (A) (A) (A) (A) (A) (A) (A) (A) (A) (A) (A)
                 (A) (A) (A) (A) (A) (A) (A) (A) (A) (A) (A) (A)
                 (A) (A) (A) (A) (A) (A) (A) (A) (A) (A) (A) (A)
                 (A) (A) (A) (A) (A) (A) (A) (A) (A) (A) (A) (A)
                 (A) (A) (A) (A) (A) (A) (A) (A) (A) (A) (A) (A)
       Virtual   (A) (A) (A) (A) (A) (A) (A) (A) (A) (A) (A) (A)
                 (A) (A) (A) (A) (A) (A) (A) (A) (A) (A) (A) (A)
                 (A) (A) (A) (A) (A) (A) (A) (A) (A) (A) (A) (A)
                 (A) (A) (A) (A) (A) (A) (A) (A) (A) (A) (A) (A)
                 (A) (A) (A) (A) (A) (A) (A) (A) (A) (A) (A) (A)
                 (A) (A) (A) (A) (A) (A) (A) (A) (A) (A) (A) (A)
                 (A) (A) (A) (A) (A) (A) (A) (A) (A) (A) (A) (A)
                 (A) (A) (A) (A) (A) (A) (A) (A) (A) (A) (A) (A)
                 (A) (A) (A) (A) (A) (A) (A) (A) (A) (A) (A) (A)
                 (A) (A) (A) (A) (A) (A) (A) (A) (A) (A) (A) (A)
                 (A) (A) (A) (A) (A) (A) (A) (A) (A) (A) (A) (A)
                 (A) (A) (A) (A) (A) (A) (A) (A) (A) (A) (A) (A)
                 (A) (A) (A) (A) (A) (A) (A) (A) (A) (A) (A) (A)
                 (A) (A) (A) (A) (A) (A) (A) (A) (A) (A) (A) (A)
                 (A) (A) (A) (A) (A) (A) (A) (A) (A) (A) (A) (A)
                 (A) (A) (A) (A) (A) (A) (A) (A) (A) (A) (A) (A)
                 (A) (A) (A) (A) (A) (A) (A) (A) (A) (A) (A) (A)
                 (A) (A) (A) (A) (A) (A) (A) (A) (A) (A) (A) (A)
                 (A) (A) (A) (A) (A) (A) (A) (A) (A) (A) (A) (A)
                 (A) (A) (A) (A) (A) (A) (A) (A) (A) (A) (A) (A)
                 (A) (A) (A)
 The electronic state is 1-A.
 Alpha  occ. eigenvalues --  -88.89166 -19.11401 -14.37579 -14.36980 -14.36439
 Alpha  occ. eigenvalues --  -14.31709 -14.30751 -10.31273 -10.29251 -10.26794
 Alpha  occ. eigenvalues --  -10.23161 -10.21524 -10.19976 -10.19511 -10.19435
 Alpha  occ. eigenvalues --  -10.18663 -10.18216 -10.17594 -10.17465  -7.95327
 Alpha  occ. eigenvalues --   -5.91721  -5.91382  -5.91006  -1.03108  -1.00433
 Alpha  occ. eigenvalues --   -0.95043  -0.93982  -0.89493  -0.87514  -0.84243
 Alpha  occ. eigenvalues --   -0.77925  -0.76804  -0.75506  -0.72163  -0.70251
 Alpha  occ. eigenvalues --   -0.64561  -0.62311  -0.61851  -0.59331  -0.57973
 Alpha  occ. eigenvalues --   -0.56276  -0.54326  -0.53405  -0.51369  -0.49617
 Alpha  occ. eigenvalues --   -0.48723  -0.47944  -0.47103  -0.45408  -0.43884
 Alpha  occ. eigenvalues --   -0.43506  -0.43051  -0.41877  -0.40513  -0.40059
 Alpha  occ. eigenvalues --   -0.39947  -0.39664  -0.38972  -0.36371  -0.35563
 Alpha  occ. eigenvalues --   -0.35239  -0.33274  -0.30866  -0.28959  -0.28414
 Alpha  occ. eigenvalues --   -0.27387  -0.26862  -0.26567  -0.24718  -0.23912
 Alpha  occ. eigenvalues --   -0.21419  -0.18641
 Alpha virt. eigenvalues --   -0.02437  -0.00866   0.00046   0.03506   0.04180
 Alpha virt. eigenvalues --    0.04977   0.06676   0.07770   0.09476   0.10026
 Alpha virt. eigenvalues --    0.11075   0.11340   0.12504   0.12658   0.14041
 Alpha virt. eigenvalues --    0.14762   0.15877   0.17211   0.19315   0.19840
 Alpha virt. eigenvalues --    0.20632   0.21521   0.22667   0.24099   0.25730
 Alpha virt. eigenvalues --    0.26507   0.27565   0.29438   0.30397   0.32229
 Alpha virt. eigenvalues --    0.32587   0.33972   0.34982   0.35195   0.37189
 Alpha virt. eigenvalues --    0.38084   0.38460   0.40059   0.42113   0.43122
 Alpha virt. eigenvalues --    0.46609   0.47880   0.48756   0.51656   0.52101
 Alpha virt. eigenvalues --    0.52957   0.53500   0.54560   0.55502   0.56040
 Alpha virt. eigenvalues --    0.56497   0.56949   0.57431   0.58141   0.58869
 Alpha virt. eigenvalues --    0.59207   0.59713   0.60808   0.61072   0.62058
 Alpha virt. eigenvalues --    0.62532   0.63116   0.63451   0.63904   0.64796
 Alpha virt. eigenvalues --    0.67156   0.67583   0.68384   0.69268   0.69860
 Alpha virt. eigenvalues --    0.71397   0.73852   0.74019   0.76338   0.78760
 Alpha virt. eigenvalues --    0.79179   0.79492   0.79923   0.81737   0.82314
 Alpha virt. eigenvalues --    0.82719   0.83689   0.84186   0.84689   0.84857
 Alpha virt. eigenvalues --    0.86289   0.86589   0.87111   0.87695   0.88115
 Alpha virt. eigenvalues --    0.89155   0.89741   0.90223   0.91519   0.92087
 Alpha virt. eigenvalues --    0.92870   0.94413   0.94961   0.95899   0.96954
 Alpha virt. eigenvalues --    0.98462   1.00065   1.02062   1.02598   1.04064
 Alpha virt. eigenvalues --    1.04110   1.06929   1.07990   1.08715   1.10985
 Alpha virt. eigenvalues --    1.12545   1.14247   1.15310   1.18011   1.19015
 Alpha virt. eigenvalues --    1.22443   1.23841   1.25236   1.26704   1.28040
 Alpha virt. eigenvalues --    1.29376   1.30004   1.31249   1.31870   1.33183
 Alpha virt. eigenvalues --    1.35016   1.36760   1.38463   1.39789   1.41617
 Alpha virt. eigenvalues --    1.44322   1.45717   1.45742   1.47065   1.48593
 Alpha virt. eigenvalues --    1.49171   1.49446   1.50359   1.50901   1.53352
 Alpha virt. eigenvalues --    1.57508   1.61964   1.62364   1.64451   1.66503
 Alpha virt. eigenvalues --    1.67496   1.70765   1.73801   1.75695   1.76210
 Alpha virt. eigenvalues --    1.77011   1.80784   1.81185   1.81888   1.82552
 Alpha virt. eigenvalues --    1.85019   1.85192   1.86319   1.88859   1.89152
 Alpha virt. eigenvalues --    1.90832   1.92756   1.96341   1.96676   1.97643
 Alpha virt. eigenvalues --    1.98731   1.99662   2.01697   2.05435   2.07249
 Alpha virt. eigenvalues --    2.09909   2.10708   2.11966   2.14914   2.15171
 Alpha virt. eigenvalues --    2.15472   2.16459   2.19632   2.20325   2.21011
 Alpha virt. eigenvalues --    2.24774   2.26097   2.27015   2.27733   2.29273
 Alpha virt. eigenvalues --    2.30361   2.32806   2.34257   2.35032   2.35835
 Alpha virt. eigenvalues --    2.39345   2.41676   2.42448   2.43922   2.46770
 Alpha virt. eigenvalues --    2.49027   2.50174   2.51466   2.51573   2.55808
 Alpha virt. eigenvalues --    2.59234   2.62049   2.63052   2.64580   2.65714
 Alpha virt. eigenvalues --    2.68971   2.70144   2.70612   2.72039   2.73917
 Alpha virt. eigenvalues --    2.77048   2.81911   2.84202   2.84731   2.89511
 Alpha virt. eigenvalues --    2.92972   2.96294   3.02038   3.07099   3.11208
 Alpha virt. eigenvalues --    3.21329   3.29289   3.33104   3.45747   3.80740
 Alpha virt. eigenvalues --    3.89429   3.96303   4.04521   4.07114   4.10536
 Alpha virt. eigenvalues --    4.10994   4.12814   4.16085   4.20237   4.21656
 Alpha virt. eigenvalues --    4.25263   4.27098   4.29685   4.36253   4.43243
 Alpha virt. eigenvalues --    4.46656   4.55232   4.77721
          Condensed to atoms (all electrons):
               1          2          3          4          5          6
     1  C    5.341380   0.359161   0.356216   0.347525   0.341604  -0.075617
     2  H    0.359161   0.499494  -0.019803  -0.021436  -0.019939   0.004895
     3  H    0.356216  -0.019803   0.533821  -0.028792  -0.021976   0.000463
     4  H    0.347525  -0.021436  -0.028792   0.559477  -0.025511   0.001907
     5  C    0.341604  -0.019939  -0.021976  -0.025511   4.341697   0.591559
     6  O   -0.075617   0.004895   0.000463   0.001907   0.591559   8.044605
     7  N   -0.128092   0.004617   0.001145   0.004887   0.241443  -0.090867
     8  H    0.002165  -0.000169   0.000402   0.001579  -0.022786   0.003414
     9  C    0.005885  -0.000086  -0.000170   0.000056  -0.026981  -0.003795
    10  C    0.000463  -0.000004  -0.000006  -0.000022  -0.003376  -0.010069
    11  C    0.000006   0.000000   0.000000   0.000000   0.000445   0.000868
    12  C    0.000000   0.000000   0.000000   0.000000   0.000006  -0.000001
    13  H    0.000000   0.000000   0.000000   0.000000   0.000000   0.000000
    14  H    0.000000   0.000000   0.000000   0.000000  -0.000003  -0.000003
    15  H    0.000554   0.000001  -0.000014  -0.000017   0.002296   0.027465
    16  C   -0.000499   0.000004   0.000012  -0.000003   0.005331   0.000344
    17  H   -0.000001   0.000000  -0.000002  -0.000012   0.000127   0.000005
    18  C   -0.000002   0.000000   0.000000   0.000000  -0.000091  -0.000009
    19  C    0.000000   0.000000   0.000000   0.000000   0.000000   0.000000
    20  N    0.000000   0.000000   0.000000   0.000000   0.000000   0.000000
    21  C    0.000000   0.000000   0.000000   0.000000   0.000000   0.000000
    22  H    0.000000   0.000000   0.000000   0.000000   0.000000   0.000000
    23  S    0.000000   0.000000   0.000000   0.000000   0.000000   0.000000
    24  C    0.000000   0.000000   0.000000   0.000000   0.000000   0.000000
    25  N    0.000000   0.000000   0.000000   0.000000   0.000000   0.000000
    26  C    0.000000   0.000000   0.000000   0.000000   0.000000   0.000000
    27  N    0.000000   0.000000   0.000000   0.000000   0.000000   0.000000
    28  H    0.000000   0.000000   0.000000   0.000000   0.000000   0.000000
    29  H    0.000000   0.000000   0.000000   0.000000   0.000000   0.000000
    30  N    0.000000   0.000000   0.000000   0.000000   0.000000   0.000000
    31  H    0.000000   0.000000   0.000000   0.000000   0.000000   0.000000
    32  H    0.000000   0.000000   0.000000   0.000000   0.000000   0.000000
               7          8          9         10         11         12
     1  C   -0.128092   0.002165   0.005885   0.000463   0.000006   0.000000
     2  H    0.004617  -0.000169  -0.000086  -0.000004   0.000000   0.000000
     3  H    0.001145   0.000402  -0.000170  -0.000006   0.000000   0.000000
     4  H    0.004887   0.001579   0.000056  -0.000022   0.000000   0.000000
     5  C    0.241443  -0.022786  -0.026981  -0.003376   0.000445   0.000006
     6  O   -0.090867   0.003414  -0.003795  -0.010069   0.000868  -0.000001
     7  N    7.283360   0.293192   0.219070  -0.067313   0.004748   0.000877
     8  H    0.293192   0.412485  -0.026143   0.005461  -0.000035  -0.000025
     9  C    0.219070  -0.026143   4.555515   0.559905  -0.005031  -0.037527
    10  C   -0.067313   0.005461   0.559905   5.022581   0.493028  -0.041512
    11  C    0.004748  -0.000035  -0.005031   0.493028   4.946822   0.486107
    12  C    0.000877  -0.000025  -0.037527  -0.041512   0.486107   5.086401
    13  H    0.000005   0.000000   0.000218   0.004536  -0.052023   0.349700
    14  H   -0.000117   0.000004   0.003174  -0.038806   0.356789  -0.039368
    15  H   -0.012655  -0.000202  -0.027301   0.338587  -0.040071   0.004091
    16  C   -0.046092  -0.006784   0.464182  -0.068871  -0.050701  -0.107994
    17  H   -0.009513   0.009383  -0.052353   0.006189  -0.000043   0.007074
    18  C    0.004613  -0.000117   0.005387  -0.038382  -0.001169   0.491205
    19  C   -0.000186   0.000006   0.005868   0.000752   0.007419  -0.037680
    20  N    0.000000   0.000000  -0.000093  -0.000005   0.000781  -0.008429
    21  C    0.000007  -0.000008   0.000291  -0.000026  -0.000182   0.014239
    22  H   -0.000005  -0.000006   0.000169   0.000003  -0.000002  -0.000246
    23  S    0.000000   0.000000   0.000000  -0.000001   0.000018   0.000118
    24  C    0.000000   0.000000   0.000000   0.000001  -0.000020  -0.000279
    25  N    0.000000   0.000000   0.000000   0.000000   0.000000  -0.000011
    26  C    0.000000   0.000000   0.000000   0.000000   0.000000   0.000005
    27  N    0.000000   0.000000   0.000000   0.000000   0.000000   0.000000
    28  H    0.000000   0.000000   0.000000   0.000000   0.000000   0.000000
    29  H    0.000000   0.000000   0.000000   0.000000   0.000000   0.000000
    30  N    0.000000   0.000000   0.000000   0.000000  -0.000004  -0.000426
    31  H    0.000000   0.000000   0.000000   0.000000   0.000000   0.000005
    32  H    0.000000   0.000000   0.000000   0.000000   0.000050   0.000446
              13         14         15         16         17         18
     1  C    0.000000   0.000000   0.000554  -0.000499  -0.000001  -0.000002
     2  H    0.000000   0.000000   0.000001   0.000004   0.000000   0.000000
     3  H    0.000000   0.000000  -0.000014   0.000012  -0.000002   0.000000
     4  H    0.000000   0.000000  -0.000017  -0.000003  -0.000012   0.000000
     5  C    0.000000  -0.000003   0.002296   0.005331   0.000127  -0.000091
     6  O    0.000000  -0.000003   0.027465   0.000344   0.000005  -0.000009
     7  N    0.000005  -0.000117  -0.012655  -0.046092  -0.009513   0.004613
     8  H    0.000000   0.000004  -0.000202  -0.006784   0.009383  -0.000117
     9  C    0.000218   0.003174  -0.027301   0.464182  -0.052353   0.005387
    10  C    0.004536  -0.038806   0.338587  -0.068871   0.006189  -0.038382
    11  C   -0.052023   0.356789  -0.040071  -0.050701  -0.000043  -0.001169
    12  C    0.349700  -0.039368   0.004091  -0.107994   0.007074   0.491205
    13  H    0.598194  -0.004933  -0.000117   0.007427  -0.000168  -0.032373
    14  H   -0.004933   0.595280  -0.004970   0.001249   0.000018   0.002948
    15  H   -0.000117  -0.004970   0.521843   0.006128  -0.000150   0.000141
    16  C    0.007427   0.001249   0.006128   5.280991   0.326624   0.507461
    17  H   -0.000168   0.000018  -0.000150   0.326624   0.631308  -0.026245
    18  C   -0.032373   0.002948   0.000141   0.507461  -0.026245   4.765462
    19  C   -0.015697  -0.000187   0.000003  -0.033595  -0.016546   0.327181
    20  N    0.009632   0.000001   0.000000   0.006337  -0.000029  -0.055201
    21  C    0.000176   0.000002   0.000000  -0.031547   0.007904  -0.073084
    22  H   -0.000003   0.000000   0.000000   0.003205   0.004158  -0.008805
    23  S    0.000040   0.000000   0.000000   0.000380  -0.000069   0.002655
    24  C   -0.000029   0.000000   0.000000  -0.000029  -0.000003   0.009410
    25  N    0.000000   0.000000   0.000000   0.000001   0.000000  -0.000164
    26  C    0.000012   0.000000   0.000000   0.000000   0.000000  -0.000063
    27  N    0.000000   0.000000   0.000000   0.000000   0.000000   0.000000
    28  H    0.000000   0.000000   0.000000   0.000000   0.000000   0.000000
    29  H    0.000000   0.000000   0.000000   0.000000   0.000000   0.000000
    30  N    0.000508   0.000000   0.000000   0.000001   0.000000   0.000302
    31  H   -0.000002   0.000000   0.000000   0.000000   0.000000  -0.000008
    32  H    0.003371  -0.000002   0.000000  -0.000009   0.000000  -0.001416
              19         20         21         22         23         24
     1  C    0.000000   0.000000   0.000000   0.000000   0.000000   0.000000
     2  H    0.000000   0.000000   0.000000   0.000000   0.000000   0.000000
     3  H    0.000000   0.000000   0.000000   0.000000   0.000000   0.000000
     4  H    0.000000   0.000000   0.000000   0.000000   0.000000   0.000000
     5  C    0.000000   0.000000   0.000000   0.000000   0.000000   0.000000
     6  O    0.000000   0.000000   0.000000   0.000000   0.000000   0.000000
     7  N   -0.000186   0.000000   0.000007  -0.000005   0.000000   0.000000
     8  H    0.000006   0.000000  -0.000008  -0.000006   0.000000   0.000000
     9  C    0.005868  -0.000093   0.000291   0.000169   0.000000   0.000000
    10  C    0.000752  -0.000005  -0.000026   0.000003  -0.000001   0.000001
    11  C    0.007419   0.000781  -0.000182  -0.000002   0.000018  -0.000020
    12  C   -0.037680  -0.008429   0.014239  -0.000246   0.000118  -0.000279
    13  H   -0.015697   0.009632   0.000176  -0.000003   0.000040  -0.000029
    14  H   -0.000187   0.000001   0.000002   0.000000   0.000000   0.000000
    15  H    0.000003   0.000000   0.000000   0.000000   0.000000   0.000000
    16  C   -0.033595   0.006337  -0.031547   0.003205   0.000380  -0.000029
    17  H   -0.016546  -0.000029   0.007904   0.004158  -0.000069  -0.000003
    18  C    0.327181  -0.055201  -0.073084  -0.008805   0.002655   0.009410
    19  C    4.675585   0.404399   0.503146  -0.009050  -0.067818  -0.041335
    20  N    0.404399   7.059727  -0.117145   0.004621  -0.087831   0.390874
    21  C    0.503146  -0.117145   5.542059   0.337183   0.286384  -0.055174
    22  H   -0.009050   0.004621   0.337183   0.534191  -0.030843   0.002346
    23  S   -0.067818  -0.087831   0.286384  -0.030843  15.432752   0.303735
    24  C   -0.041335   0.390874  -0.055174   0.002346   0.303735   4.767055
    25  N    0.003250  -0.060174   0.002901  -0.000029  -0.064834   0.378980
    26  C    0.000785  -0.012280   0.000040   0.000001   0.005723  -0.053509
    27  N    0.000000  -0.000001   0.000001   0.000000  -0.000304   0.003569
    28  H    0.000000   0.000015   0.000000   0.000000   0.000010  -0.000158
    29  H   -0.000001   0.000034   0.000000   0.000000   0.000025   0.000093
    30  N   -0.000432  -0.033252  -0.000104   0.000000  -0.000474  -0.005332
    31  H    0.000021   0.001065   0.000002   0.000000   0.000036   0.000087
    32  H    0.000016   0.072028   0.000535  -0.000005   0.001374  -0.008000
              25         26         27         28         29         30
     1  C    0.000000   0.000000   0.000000   0.000000   0.000000   0.000000
     2  H    0.000000   0.000000   0.000000   0.000000   0.000000   0.000000
     3  H    0.000000   0.000000   0.000000   0.000000   0.000000   0.000000
     4  H    0.000000   0.000000   0.000000   0.000000   0.000000   0.000000
     5  C    0.000000   0.000000   0.000000   0.000000   0.000000   0.000000
     6  O    0.000000   0.000000   0.000000   0.000000   0.000000   0.000000
     7  N    0.000000   0.000000   0.000000   0.000000   0.000000   0.000000
     8  H    0.000000   0.000000   0.000000   0.000000   0.000000   0.000000
     9  C    0.000000   0.000000   0.000000   0.000000   0.000000   0.000000
    10  C    0.000000   0.000000   0.000000   0.000000   0.000000   0.000000
    11  C    0.000000   0.000000   0.000000   0.000000   0.000000  -0.000004
    12  C   -0.000011   0.000005   0.000000   0.000000   0.000000  -0.000426
    13  H    0.000000   0.000012   0.000000   0.000000   0.000000   0.000508
    14  H    0.000000   0.000000   0.000000   0.000000   0.000000   0.000000
    15  H    0.000000   0.000000   0.000000   0.000000   0.000000   0.000000
    16  C    0.000001   0.000000   0.000000   0.000000   0.000000   0.000001
    17  H    0.000000   0.000000   0.000000   0.000000   0.000000   0.000000
    18  C   -0.000164  -0.000063   0.000000   0.000000   0.000000   0.000302
    19  C    0.003250   0.000785   0.000000   0.000000  -0.000001  -0.000432
    20  N   -0.060174  -0.012280  -0.000001   0.000015   0.000034  -0.033252
    21  C    0.002901   0.000040   0.000001   0.000000   0.000000  -0.000104
    22  H   -0.000029   0.000001   0.000000   0.000000   0.000000   0.000000
    23  S   -0.064834   0.005723  -0.000304   0.000010   0.000025  -0.000474
    24  C    0.378980  -0.053509   0.003569  -0.000158   0.000093  -0.005332
    25  N    6.921433   0.545800  -0.089481   0.004126   0.005845  -0.079459
    26  C    0.545800   4.192508   0.349924  -0.020837  -0.009480   0.359846
    27  N   -0.089481   0.349924   6.988179   0.306523   0.301188  -0.108898
    28  H    0.004126  -0.020837   0.306523   0.402586  -0.022271  -0.000617
    29  H    0.005845  -0.009480   0.301188  -0.022271   0.362931   0.006364
    30  N   -0.079459   0.359846  -0.108898  -0.000617   0.006364   7.081842
    31  H    0.004074  -0.017608  -0.002358   0.002414  -0.000245   0.296321
    32  H   -0.011505  -0.017660   0.003109   0.000079  -0.000085   0.258638
              31         32
     1  C    0.000000   0.000000
     2  H    0.000000   0.000000
     3  H    0.000000   0.000000
     4  H    0.000000   0.000000
     5  C    0.000000   0.000000
     6  O    0.000000   0.000000
     7  N    0.000000   0.000000
     8  H    0.000000   0.000000
     9  C    0.000000   0.000000
    10  C    0.000000   0.000000
    11  C    0.000000   0.000050
    12  C    0.000005   0.000446
    13  H   -0.000002   0.003371
    14  H    0.000000  -0.000002
    15  H    0.000000   0.000000
    16  C    0.000000  -0.000009
    17  H    0.000000   0.000000
    18  C   -0.000008  -0.001416
    19  C    0.000021   0.000016
    20  N    0.001065   0.072028
    21  C    0.000002   0.000535
    22  H    0.000000  -0.000005
    23  S    0.000036   0.001374
    24  C    0.000087  -0.008000
    25  N    0.004074  -0.011505
    26  C   -0.017608  -0.017660
    27  N   -0.002358   0.003109
    28  H    0.002414   0.000079
    29  H   -0.000245  -0.000085
    30  N    0.296321   0.258638
    31  H    0.401322  -0.013710
    32  H   -0.013710   0.309715
 Mulliken charges:
               1
     1  C   -0.550747
     2  H    0.193265
     3  H    0.178704
     4  H    0.160362
     5  C    0.596157
     6  O   -0.495162
     7  N   -0.703123
     8  H    0.328186
     9  C    0.359760
    10  C   -0.163114
    11  C   -0.147799
    12  C   -0.166776
    13  H    0.131529
    14  H    0.128924
    15  H    0.184390
    16  C   -0.263551
    17  H    0.112344
    18  C    0.120362
    19  C    0.294098
    20  N   -0.575074
    21  C   -0.417601
    22  H    0.163117
    23  S    0.218922
    24  C    0.307718
    25  N   -0.560752
    26  C    0.676792
    27  N   -0.751451
    28  H    0.328129
    29  H    0.355602
    30  N   -0.774824
    31  H    0.328584
    32  H    0.403028
 Sum of Mulliken charges =   0.00000
 Mulliken charges with hydrogens summed into heavy atoms:
               1
     1  C   -0.018416
     5  C    0.596157
     6  O   -0.495162
     7  N   -0.374937
     9  C    0.359760
    10  C    0.021276
    11  C   -0.018875
    12  C   -0.035247
    16  C   -0.151207
    18  C    0.120362
    19  C    0.294098
    20  N   -0.575074
    21  C   -0.254483
    23  S    0.218922
    24  C    0.307718
    25  N   -0.560752
    26  C    0.676792
    27  N   -0.067720
    30  N   -0.043212
 Electronic spatial extent (au):  <R**2>=           8727.8936
 Charge=              0.0000 electrons
 Dipole moment (field-independent basis, Debye):
    X=              3.6806    Y=             -0.3305    Z=             -0.1069  Tot=              3.6969
 Quadrupole moment (field-independent basis, Debye-Ang):
   XX=            -90.1795   YY=           -102.4871   ZZ=           -121.6266
   XY=            -39.7120   XZ=             -3.1606   YZ=             -0.0190
 Traceless Quadrupole moment (field-independent basis, Debye-Ang):
   XX=             14.5849   YY=              2.2773   ZZ=            -16.8622
   XY=            -39.7120   XZ=             -3.1606   YZ=             -0.0190
 Octapole moment (field-independent basis, Debye-Ang**2):
  XXX=            292.9522  YYY=            -37.7280  ZZZ=              1.3018  XYY=             32.4388
  XXY=             -7.8215  XXZ=            -15.8806  XZZ=             -9.6882  YZZ=              0.1392
  YYZ=              1.6413  XYZ=             -2.4062
 Hexadecapole moment (field-independent basis, Debye-Ang**3):
 XXXX=          -8023.0212 YYYY=          -1379.0841 ZZZZ=           -140.2975 XXXY=          -1181.8140
 XXXZ=           -179.3280 YYYX=           -206.6486 YYYZ=             -6.5909 ZZZX=             -4.4952
 ZZZY=             -1.2283 XXYY=          -1661.8431 XXZZ=          -1708.0896 YYZZ=           -294.4835
 XXYZ=             11.7417 YYXZ=             11.8274 ZZXY=            -10.3745
 N-N= 1.422861758570D+03 E-N=-5.685920398187D+03  KE= 1.203353228533D+03
 No NMR shielding tensors so no spin-rotation constants.
 Leave Link  601 at Thu Jan 28 04:44:10 2021, MaxMem=   262144000 cpu:         0.3
 (Enter /prod/apps/gaussian/g09d1/l9999.exe)
 1\1\GINC-PIRINEUS43\SP\RB3LYP\6-31G(d)\C12H13N5O1S1\UBAFAR01\28-Jan-20
 21\0\\#p b3lyp/6-31G(d)\\SET_328_BBB321_conf1.geo_165_150_225.n.pdb.xy
 z\\0,1\C,0,-3.706,2.75,4.112\H,0,-4.513,3.479,4.181\H,0,-2.953,2.985,4
 .871\H,0,-4.096,1.751,4.325\C,0,-3.09,2.834,2.728\O,0,-3.31,3.78,1.971
 \N,0,-2.268,1.783,2.421\H,0,-2.174,1.073,3.139\C,0,-1.511,1.559,1.255\
 C,0,-1.502,2.44,0.16\C,0,-0.724,2.126,-0.954\C,0,0.04,0.962,-1.003\H,0
 ,0.643,0.731,-1.872\H,0,-0.718,2.807,-1.8\H,0,-2.097,3.339,0.199\C,0,-
 0.744,0.389,1.206\H,0,-0.762,-0.293,2.049\C,0,0.039,0.078,0.086\C,0,0.
 847,-1.156,0.05\N,0,1.487,-1.513,-1.128\C,0,1.04,-2.01,1.102\H,0,0.658
 ,-1.93,2.108\S,0,2.061,-3.334,0.632\C,0,2.171,-2.635,-1.007\N,0,2.915,
 -3.317,-1.904\C,0,3.051,-2.879,-3.154\N,0,3.747,-3.673,-4.014\H,0,4.12
 3,-3.256,-4.859\H,0,4.32,-4.391,-3.588\N,0,2.541,-1.732,-3.641\H,0,2.5
 81,-1.531,-4.633\H,0,1.905,-1.213,-3.041\\Version=AM64L-G09RevD.01\Sta
 te=1-A\HF=-1212.3115555\RMSD=4.227e-09\Dipole=0.9057336,-0.7883143,-0.
 8208029\Quadrupole=-3.8034914,-21.7847875,25.5882789,2.1883982,-20.367
 8344,4.9506924\PG=C01 [X(C12H13N5O1S1)]\\@


      TO SUSPECT YOUR OWN MORTALITY IS TO KNOW THE BEGINNING OF TERROR.
      TO LEARN IRREFUTABLY THAT YOU ARE MORTAL IS TO KNOW THE END
      OF TERROR.

                                                  -- JESSICA
                                                     CHILDREN OF DUNE
                                                     BY FRANK HERBERT
 Job cpu time:       0 days  0 hours  4 minutes 26.6 seconds.
 File lengths (MBytes):  RWF=     56 Int=      0 D2E=      0 Chk=      5 Scr=      1
 Normal termination of Gaussian 09 at Thu Jan 28 04:44:10 2021.
 Initial command:
 /prod/apps/gaussian/g09d1/l1.exe "/tmp/ubafar01/1646369/Gau-148954.inp" -scrdir="/tmp/ubafar01/1646369/"
 Entering Link 1 = /prod/apps/gaussian/g09d1/l1.exe PID=    149046.
  
 Copyright (c) 1988,1990,1992,1993,1995,1998,2003,2009,2013,
            Gaussian, Inc.  All Rights Reserved.
  
 This is part of the Gaussian(R) 09 program.  It is based on
 the Gaussian(R) 03 system (copyright 2003, Gaussian, Inc.),
 the Gaussian(R) 98 system (copyright 1998, Gaussian, Inc.),
 the Gaussian(R) 94 system (copyright 1995, Gaussian, Inc.),
 the Gaussian 92(TM) system (copyright 1992, Gaussian, Inc.),
 the Gaussian 90(TM) system (copyright 1990, Gaussian, Inc.),
 the Gaussian 88(TM) system (copyright 1988, Gaussian, Inc.),
 the Gaussian 86(TM) system (copyright 1986, Carnegie Mellon
 University), and the Gaussian 82(TM) system (copyright 1983,
 Carnegie Mellon University). Gaussian is a federally registered
 trademark of Gaussian, Inc.
  
 This software contains proprietary and confidential information,
 including trade secrets, belonging to Gaussian, Inc.
  
 This software is provided under written license and may be
 used, copied, transmitted, or stored only in accord with that
 written license.
  
 The following legend is applicable only to US Government
 contracts under FAR:
  
                    RESTRICTED RIGHTS LEGEND
  
 Use, reproduction and disclosure by the US Government is
 subject to restrictions as set forth in subparagraphs (a)
 and (c) of the Commercial Computer Software - Restricted
 Rights clause in FAR 52.227-19.
  
 Gaussian, Inc.
 340 Quinnipiac St., Bldg. 40, Wallingford CT 06492
  
  
 ---------------------------------------------------------------
 Warning -- This program may not be used in any manner that
 competes with the business of Gaussian, Inc. or will provide
 assistance to any competitor of Gaussian, Inc.  The licensee
 of this program is prohibited from giving any competitor of
 Gaussian, Inc. access to this program.  By using this program,
 the user acknowledges that Gaussian, Inc. is engaged in the
 business of creating and licensing software in the field of
 computational chemistry and represents and warrants to the
 licensee that it is not a competitor of Gaussian, Inc. and that
 it will not use this program in any manner prohibited above.
 ---------------------------------------------------------------
  

 Cite this work as:
 Gaussian 09, Revision D.01,
 M. J. Frisch, G. W. Trucks, H. B. Schlegel, G. E. Scuseria, 
 M. A. Robb, J. R. Cheeseman, G. Scalmani, V. Barone, B. Mennucci, 
 G. A. Petersson, H. Nakatsuji, M. Caricato, X. Li, H. P. Hratchian, 
 A. F. Izmaylov, J. Bloino, G. Zheng, J. L. Sonnenberg, M. Hada, 
 M. Ehara, K. Toyota, R. Fukuda, J. Hasegawa, M. Ishida, T. Nakajima, 
 Y. Honda, O. Kitao, H. Nakai, T. Vreven, J. A. Montgomery, Jr., 
 J. E. Peralta, F. Ogliaro, M. Bearpark, J. J. Heyd, E. Brothers, 
 K. N. Kudin, V. N. Staroverov, T. Keith, R. Kobayashi, J. Normand, 
 K. Raghavachari, A. Rendell, J. C. Burant, S. S. Iyengar, J. Tomasi, 
 M. Cossi, N. Rega, J. M. Millam, M. Klene, J. E. Knox, J. B. Cross, 
 V. Bakken, C. Adamo, J. Jaramillo, R. Gomperts, R. E. Stratmann, 
 O. Yazyev, A. J. Austin, R. Cammi, C. Pomelli, J. W. Ochterski, 
 R. L. Martin, K. Morokuma, V. G. Zakrzewski, G. A. Voth, 
 P. Salvador, J. J. Dannenberg, S. Dapprich, A. D. Daniels, 
 O. Farkas, J. B. Foresman, J. V. Ortiz, J. Cioslowski, 
 and D. J. Fox, Gaussian, Inc., Wallingford CT, 2013.
 
 ******************************************
 Gaussian 09:  AM64L-G09RevD.01 24-Apr-2013
                28-Jan-2021 
 ******************************************
 %nproc=1
 Will use up to    1 processors via shared memory.
 %Chk=SET_328_BBB321_conf1.geo_165_150_225.n.pdb.xyz.mst.n.w.chk
 %mem=2000MB
 %subst l502 /dades/curu/work_g09D01_MST_AddSphPartition_ReadGammas/exe-dir/
 ----------------------------------------------------------------------
 #p b3lyp/6-31G(d) scrf=(iefpcm,read,solvent=Water) geom=allcheck guess
 =read
 ----------------------------------------------------------------------
 1/29=7,38=1,40=2/1;
 2/12=2,40=1/2;
 3/5=1,6=6,7=1,11=2,14=-4,16=1,25=1,30=1,70=2203,72=1,74=-5,116=-2/1,2,3;
 4/5=1/1;
 5/5=2,38=6,53=1/2;
 6/7=2,8=2,9=2,10=2,28=1/1;
 99/5=1,9=1/99;
 Leave Link    1 at Thu Jan 28 04:44:10 2021, MaxMem=   262144000 cpu:         0.0
 (Enter /prod/apps/gaussian/g09d1/l101.exe)
 Structure from the checkpoint file:  "SET_328_BBB321_conf1.geo_165_150_225.n.pdb.xyz.mst.n.w.chk"
 ----------------------------------------------
 SET_328_BBB321_conf1.geo_165_150_225.n.pdb.xyz
 ----------------------------------------------
 Charge =  0 Multiplicity = 1
 Z-Matrix found in file.
 C,0,-3.706,2.75,4.112
 H,0,-4.513,3.479,4.181
 H,0,-2.953,2.985,4.871
 H,0,-4.096,1.751,4.325
 C,0,-3.09,2.834,2.728
 O,0,-3.31,3.78,1.971
 N,0,-2.268,1.783,2.421
 H,0,-2.174,1.073,3.139
 C,0,-1.511,1.559,1.255
 C,0,-1.502,2.44,0.16
 C,0,-0.724,2.126,-0.954
 C,0,0.04,0.962,-1.003
 H,0,0.643,0.731,-1.872
 H,0,-0.718,2.807,-1.8
 H,0,-2.097,3.339,0.199
 C,0,-0.744,0.389,1.206
 H,0,-0.762,-0.293,2.049
 C,0,0.039,0.078,0.086
 C,0,0.847,-1.156,0.05
 N,0,1.487,-1.513,-1.128
 C,0,1.04,-2.01,1.102
 H,0,0.658,-1.93,2.108
 S,0,2.061,-3.334,0.632
 C,0,2.171,-2.635,-1.007
 N,0,2.915,-3.317,-1.904
 C,0,3.051,-2.879,-3.154
 N,0,3.747,-3.673,-4.014
 H,0,4.123,-3.256,-4.859
 H,0,4.32,-4.391,-3.588
 N,0,2.541,-1.732,-3.641
 H,0,2.581,-1.531,-4.633
 H,0,1.905,-1.213,-3.041
 Recover connectivity data from disk.
 NAtoms=     32 NQM=       32 NQMF=       0 NMMI=      0 NMMIF=      0
                NMic=       0 NMicF=      0.
                    Isotopes and Nuclear Properties:
 (Nuclear quadrupole moments (NQMom) in fm**2, nuclear magnetic moments (NMagM)
  in nuclear magnetons)

  Atom         1           2           3           4           5           6           7           8           9          10
 IAtWgt=          12           1           1           1          12          16          14           1          12          12
 AtmWgt=  12.0000000   1.0078250   1.0078250   1.0078250  12.0000000  15.9949146  14.0030740   1.0078250  12.0000000  12.0000000
 NucSpn=           0           1           1           1           0           0           2           1           0           0
 AtZEff=  -3.6000000  -1.0000000  -1.0000000  -1.0000000  -3.6000000  -5.6000000  -4.5500000  -1.0000000  -3.6000000  -3.6000000
 NQMom=    0.0000000   0.0000000   0.0000000   0.0000000   0.0000000   0.0000000   2.0440000   0.0000000   0.0000000   0.0000000
 NMagM=    0.0000000   2.7928460   2.7928460   2.7928460   0.0000000   0.0000000   0.4037610   2.7928460   0.0000000   0.0000000
 AtZNuc=   6.0000000   1.0000000   1.0000000   1.0000000   6.0000000   8.0000000   7.0000000   1.0000000   6.0000000   6.0000000

  Atom        11          12          13          14          15          16          17          18          19          20
 IAtWgt=          12          12           1           1           1          12           1          12          12          14
 AtmWgt=  12.0000000  12.0000000   1.0078250   1.0078250   1.0078250  12.0000000   1.0078250  12.0000000  12.0000000  14.0030740
 NucSpn=           0           0           1           1           1           0           1           0           0           2
 AtZEff=  -3.6000000  -3.6000000  -1.0000000  -1.0000000  -1.0000000  -3.6000000  -1.0000000  -3.6000000  -3.6000000  -4.5500000
 NQMom=    0.0000000   0.0000000   0.0000000   0.0000000   0.0000000   0.0000000   0.0000000   0.0000000   0.0000000   2.0440000
 NMagM=    0.0000000   0.0000000   2.7928460   2.7928460   2.7928460   0.0000000   2.7928460   0.0000000   0.0000000   0.4037610
 AtZNuc=   6.0000000   6.0000000   1.0000000   1.0000000   1.0000000   6.0000000   1.0000000   6.0000000   6.0000000   7.0000000

  Atom        21          22          23          24          25          26          27          28          29          30
 IAtWgt=          12           1          32          12          14          12          14           1           1          14
 AtmWgt=  12.0000000   1.0078250  31.9720718  12.0000000  14.0030740  12.0000000  14.0030740   1.0078250   1.0078250  14.0030740
 NucSpn=           0           1           0           0           2           0           2           1           1           2
 AtZEff=  -3.6000000  -1.0000000 -13.6000000  -3.6000000  -4.5500000  -3.6000000  -4.5500000  -1.0000000  -1.0000000  -4.5500000
 NQMom=    0.0000000   0.0000000   0.0000000   0.0000000   2.0440000   0.0000000   2.0440000   0.0000000   0.0000000   2.0440000
 NMagM=    0.0000000   2.7928460   0.0000000   0.0000000   0.4037610   0.0000000   0.4037610   2.7928460   2.7928460   0.4037610
 AtZNuc=   6.0000000   1.0000000  16.0000000   6.0000000   7.0000000   6.0000000   7.0000000   1.0000000   1.0000000   7.0000000

  Atom        31          32
 IAtWgt=           1           1
 AtmWgt=   1.0078250   1.0078250
 NucSpn=           1           1
 AtZEff=  -1.0000000  -1.0000000
 NQMom=    0.0000000   0.0000000
 NMagM=    2.7928460   2.7928460
 AtZNuc=   1.0000000   1.0000000
 Leave Link  101 at Thu Jan 28 04:44:10 2021, MaxMem=   262144000 cpu:         0.1
 (Enter /prod/apps/gaussian/g09d1/l202.exe)
                          Input orientation:                          
 ---------------------------------------------------------------------
 Center     Atomic      Atomic             Coordinates (Angstroms)
 Number     Number       Type             X           Y           Z
 ---------------------------------------------------------------------
      1          6           0       -3.706000    2.750000    4.112000
      2          1           0       -4.513000    3.479000    4.181000
      3          1           0       -2.953000    2.985000    4.871000
      4          1           0       -4.096000    1.751000    4.325000
      5          6           0       -3.090000    2.834000    2.728000
      6          8           0       -3.310000    3.780000    1.971000
      7          7           0       -2.268000    1.783000    2.421000
      8          1           0       -2.174000    1.073000    3.139000
      9          6           0       -1.511000    1.559000    1.255000
     10          6           0       -1.502000    2.440000    0.160000
     11          6           0       -0.724000    2.126000   -0.954000
     12          6           0        0.040000    0.962000   -1.003000
     13          1           0        0.643000    0.731000   -1.872000
     14          1           0       -0.718000    2.807000   -1.800000
     15          1           0       -2.097000    3.339000    0.199000
     16          6           0       -0.744000    0.389000    1.206000
     17          1           0       -0.762000   -0.293000    2.049000
     18          6           0        0.039000    0.078000    0.086000
     19          6           0        0.847000   -1.156000    0.050000
     20          7           0        1.487000   -1.513000   -1.128000
     21          6           0        1.040000   -2.010000    1.102000
     22          1           0        0.658000   -1.930000    2.108000
     23         16           0        2.061000   -3.334000    0.632000
     24          6           0        2.171000   -2.635000   -1.007000
     25          7           0        2.915000   -3.317000   -1.904000
     26          6           0        3.051000   -2.879000   -3.154000
     27          7           0        3.747000   -3.673000   -4.014000
     28          1           0        4.123000   -3.256000   -4.859000
     29          1           0        4.320000   -4.391000   -3.588000
     30          7           0        2.541000   -1.732000   -3.641000
     31          1           0        2.581000   -1.531000   -4.633000
     32          1           0        1.905000   -1.213000   -3.041000
 ---------------------------------------------------------------------
                    Distance matrix (angstroms):
                    1          2          3          4          5
     1  C    0.000000
     2  H    1.089702   0.000000
     3  H    1.094676   1.775876   0.000000
     4  H    1.093376   1.783426   1.768423   0.000000
     5  C    1.517224   2.133580   2.152677   2.176082   0.000000
     6  O    2.408650   2.534149   3.028114   3.205613   1.231408
     7  N    2.421242   3.318741   2.813633   2.639664   1.369136
     8  H    2.471049   3.513619   2.694886   2.358042   2.027091
     9  C    3.794595   4.610844   4.145877   4.017958   2.507707
    10  C    4.535639   5.129725   4.959430   4.954875   3.044931
    11  C    5.911519   6.523447   6.295788   6.275257   4.433548
    12  C    6.587312   7.344314   6.895974   6.790920   5.217437
    13  H    7.668013   8.412767   7.967420   7.867740   6.286326
    14  H    6.624435   7.115193   7.037695   7.074012   5.111741
    15  H    4.271694   4.659719   4.762944   4.851971   2.763497
    16  C    4.774160   5.709999   5.005110   4.776935   3.714596
    17  H    4.709878   5.730917   4.848654   4.524784   3.957114
    18  C    6.113369   7.004037   6.348144   6.153558   4.936227
    19  C    7.244756   8.202316   7.404723   7.152589   6.212226
    20  N    8.520447   9.439573   8.713989   8.459243   7.396896
    21  C    7.364932   8.393162   7.422899   7.135219   6.570016
    22  H    6.705439   7.764912   6.695574   6.408226   6.093242
    23  S    9.076549  10.110878   9.112578   8.797961   8.304832
    24  C    9.473200  10.438975   9.612006   9.324297   8.458032
    25  N   10.809181  11.763844  10.956699  10.660168   9.764745
    26  C   11.407780  12.306116  11.611853  11.333664  10.244422
    27  N   12.760643  13.657845  12.967736  12.667729  11.599146
    28  H   13.335821  14.200786  13.553330  13.302927  12.111071
    29  H   13.217434  14.153309  13.373727  13.083149  12.124380
    30  N   10.918898  11.751473  11.175342  10.937925   9.649906
    31  H   11.590011  12.373824  11.888878  11.644725  10.266342
    32  H    9.917364  10.740711  10.189363   9.952651   8.637685
                    6          7          8          9         10
     6  O    0.000000
     7  N    2.297014   0.000000
     8  H    3.159520   1.014130   0.000000
     9  C    2.946506   1.408113   2.055534   0.000000
    10  C    2.888630   2.475990   3.345850   1.405442   0.000000
    11  C    4.240134   3.727226   4.468105   2.412579   1.394588
    12  C    5.292287   4.210069   4.697902   2.803672   2.432040
    13  H    6.300100   5.292492   5.758696   3.886313   3.413317
    14  H    4.678208   4.611715   5.433269   3.394021   2.142649
    15  H    2.192221   2.718025   3.712719   2.151030   1.078771
    16  C    4.320702   2.396255   2.499849   1.399854   2.423898
    17  H    4.804968   2.591562   2.246731   2.149730   3.403705
    18  C    5.336088   3.698851   3.899770   2.441807   2.821206
    19  C    6.733126   4.895160   4.861770   3.792547   4.296640
    20  N    7.786582   6.128543   6.188506   4.909570   5.120476
    21  C    7.293954   5.202833   4.897352   4.389621   5.210722
    22  H    6.954703   4.737701   4.254550   4.195866   5.249496
    23  S    9.013854   6.937179   6.606203   6.090054   6.801237
    24  C    8.947741   7.139652   7.058159   6.021910   6.372475
    25  N   10.204590   8.460444   8.402492   7.303707   7.544073
    26  C   10.538986   9.005922   9.084095   7.742543   7.746236
    27  N   11.881443  10.361341  10.428239   9.098503   9.074307
    28  H   12.304620  10.919469  11.061666   9.607662   9.448566
    29  H   12.485376  10.845649  10.829583   9.636271   9.726549
    30  N    9.803616   8.498797   8.721677   7.156829   6.942552
    31  H   10.321018   9.179015   9.476013   7.807759   7.443963
    32  H    8.788994   7.498226   7.749609   6.148874   5.932829
                   11         12         13         14         15
    11  C    0.000000
    12  C    1.393195   0.000000
    13  H    2.158110   1.082650   0.000000
    14  H    1.086054   2.147975   2.483401   0.000000
    15  H    2.164696   3.414923   4.312575   2.486095   0.000000
    16  C    2.771853   2.413020   3.393349   3.857906   3.398111
    17  H    3.856295   3.396017   4.289154   4.942341   4.289073
    18  C    2.420346   1.402633   2.150579   3.402570   3.899921
    19  C    3.774597   2.499196   2.701198   4.645115   5.375348
    20  N    4.261586   2.869679   2.510261   4.896530   6.176398
    21  C    4.944222   3.776746   4.063910   5.891999   6.266417
[...]
 Alpha virt. eigenvalues --    1.66657   1.71131   1.74494   1.74969   1.75359
 Alpha virt. eigenvalues --    1.76252   1.79813   1.80102   1.81748   1.81926
 Alpha virt. eigenvalues --    1.84049   1.84726   1.85880   1.88570   1.88765
 Alpha virt. eigenvalues --    1.89785   1.92089   1.95635   1.96088   1.97052
 Alpha virt. eigenvalues --    1.98000   2.00216   2.00921   2.04643   2.06353
 Alpha virt. eigenvalues --    2.09289   2.11470   2.12157   2.14308   2.14738
 Alpha virt. eigenvalues --    2.15115   2.15654   2.19160   2.19779   2.20590
 Alpha virt. eigenvalues --    2.24865   2.25544   2.26925   2.27273   2.29260
 Alpha virt. eigenvalues --    2.29777   2.32883   2.33959   2.35111   2.35276
 Alpha virt. eigenvalues --    2.39323   2.40905   2.41934   2.43495   2.46733
 Alpha virt. eigenvalues --    2.49081   2.49642   2.50841   2.51610   2.55017
 Alpha virt. eigenvalues --    2.59670   2.61398   2.62666   2.64104   2.64766
 Alpha virt. eigenvalues --    2.68435   2.69310   2.69862   2.71437   2.73728
 Alpha virt. eigenvalues --    2.76611   2.81215   2.83771   2.83966   2.88672
 Alpha virt. eigenvalues --    2.92186   2.94755   3.01390   3.06522   3.10963
 Alpha virt. eigenvalues --    3.20715   3.28822   3.32425   3.44872   3.82540
 Alpha virt. eigenvalues --    3.90653   3.95160   4.03969   4.06129   4.09681
 Alpha virt. eigenvalues --    4.09964   4.11815   4.15489   4.19905   4.21112
 Alpha virt. eigenvalues --    4.24703   4.26355   4.28763   4.35576   4.42639
 Alpha virt. eigenvalues --    4.46073   4.54421   4.76799
          Condensed to atoms (all electrons):
               1          2          3          4          5          6
     1  C    5.300799   0.357676   0.358502   0.353686   0.359859  -0.076146
     2  H    0.357676   0.516959  -0.020695  -0.021760  -0.022723   0.004268
     3  H    0.358502  -0.020695   0.510095  -0.024548  -0.020415   0.000667
     4  H    0.353686  -0.021760  -0.024548   0.523469  -0.022824   0.001962
     5  C    0.359859  -0.022723  -0.020415  -0.022824   4.306716   0.583797
     6  O   -0.076146   0.004268   0.000667   0.001962   0.583797   8.114150
     7  N   -0.117457   0.004912   0.000148   0.003339   0.263660  -0.092831
     8  H    0.000608  -0.000094   0.000377   0.001332  -0.019349   0.002922
     9  C    0.005936  -0.000100  -0.000185   0.000001  -0.025634  -0.003488
    10  C    0.000423  -0.000002  -0.000006  -0.000022  -0.003523  -0.011581
    11  C    0.000005   0.000000   0.000000   0.000000   0.000371   0.000865
    12  C    0.000000   0.000000   0.000000   0.000000   0.000008  -0.000001
    13  H    0.000000   0.000000   0.000000   0.000000   0.000000   0.000000
    14  H    0.000000   0.000000   0.000000   0.000000  -0.000002  -0.000005
    15  H    0.000565   0.000001  -0.000015  -0.000017   0.002496   0.030051
    16  C   -0.000453   0.000004   0.000013   0.000004   0.004883   0.000358
    17  H    0.000006   0.000000  -0.000002  -0.000009   0.000125   0.000004
    18  C   -0.000002   0.000000   0.000000   0.000000  -0.000114  -0.000010
    19  C    0.000000   0.000000   0.000000   0.000000   0.000000   0.000000
    20  N    0.000000   0.000000   0.000000   0.000000   0.000000   0.000000
    21  C    0.000000   0.000000   0.000000   0.000000   0.000000   0.000000
    22  H    0.000000   0.000000   0.000000   0.000000   0.000000   0.000000
    23  S    0.000000   0.000000   0.000000   0.000000   0.000000   0.000000
    24  C    0.000000   0.000000   0.000000   0.000000   0.000000   0.000000
    25  N    0.000000   0.000000   0.000000   0.000000   0.000000   0.000000
    26  C    0.000000   0.000000   0.000000   0.000000   0.000000   0.000000
    27  N    0.000000   0.000000   0.000000   0.000000   0.000000   0.000000
    28  H    0.000000   0.000000   0.000000   0.000000   0.000000   0.000000
    29  H    0.000000   0.000000   0.000000   0.000000   0.000000   0.000000
    30  N    0.000000   0.000000   0.000000   0.000000   0.000000   0.000000
    31  H    0.000000   0.000000   0.000000   0.000000   0.000000   0.000000
    32  H    0.000000   0.000000   0.000000   0.000000   0.000000   0.000000
               7          8          9         10         11         12
     1  C   -0.117457   0.000608   0.005936   0.000423   0.000005   0.000000
     2  H    0.004912  -0.000094  -0.000100  -0.000002   0.000000   0.000000
     3  H    0.000148   0.000377  -0.000185  -0.000006   0.000000   0.000000
     4  H    0.003339   0.001332   0.000001  -0.000022   0.000000   0.000000
     5  C    0.263660  -0.019349  -0.025634  -0.003523   0.000371   0.000008
     6  O   -0.092831   0.002922  -0.003488  -0.011581   0.000865  -0.000001
     7  N    7.244569   0.298640   0.226909  -0.069160   0.004771   0.000789
     8  H    0.298640   0.342365  -0.023057   0.004648  -0.000033  -0.000022
     9  C    0.226909  -0.023057   4.565633   0.549092  -0.006155  -0.037520
    10  C   -0.069160   0.004648   0.549092   5.058917   0.492580  -0.044711
    11  C    0.004771  -0.000033  -0.006155   0.492580   4.962907   0.486777
    12  C    0.000789  -0.000022  -0.037520  -0.044711   0.486777   5.112856
    13  H    0.000005   0.000000   0.000187   0.004400  -0.047446   0.355444
    14  H   -0.000109   0.000003   0.003290  -0.038642   0.360898  -0.037352
    15  H   -0.013238  -0.000172  -0.032149   0.338033  -0.040933   0.004468
    16  C   -0.047014  -0.005053   0.466427  -0.069155  -0.050741  -0.103254
    17  H   -0.007742   0.007074  -0.043643   0.005797  -0.000054   0.006201
    18  C    0.004514  -0.000012   0.003313  -0.037273  -0.005257   0.485969
    19  C   -0.000178   0.000006   0.005628   0.000741   0.007390  -0.039138
    20  N    0.000000   0.000000  -0.000093  -0.000006   0.000800  -0.006741
    21  C    0.000006  -0.000006   0.000327  -0.000025  -0.000172   0.013730
    22  H   -0.000005  -0.000004   0.000161   0.000002  -0.000001  -0.000219
    23  S    0.000000   0.000000   0.000000  -0.000001   0.000019   0.000129
    24  C    0.000000   0.000000   0.000000   0.000001  -0.000022  -0.000264
    25  N    0.000000   0.000000   0.000000   0.000000   0.000000  -0.000010
    26  C    0.000000   0.000000   0.000000   0.000000   0.000000   0.000010
    27  N    0.000000   0.000000   0.000000   0.000000   0.000000   0.000000
    28  H    0.000000   0.000000   0.000000   0.000000   0.000000   0.000000
    29  H    0.000000   0.000000   0.000000   0.000000   0.000000   0.000000
    30  N    0.000000   0.000000   0.000000   0.000000  -0.000004  -0.000426
    31  H    0.000000   0.000000   0.000000   0.000000   0.000000   0.000004
    32  H    0.000000   0.000000   0.000000   0.000000   0.000048   0.000443
              13         14         15         16         17         18
     1  C    0.000000   0.000000   0.000565  -0.000453   0.000006  -0.000002
     2  H    0.000000   0.000000   0.000001   0.000004   0.000000   0.000000
     3  H    0.000000   0.000000  -0.000015   0.000013  -0.000002   0.000000
     4  H    0.000000   0.000000  -0.000017   0.000004  -0.000009   0.000000
     5  C    0.000000  -0.000002   0.002496   0.004883   0.000125  -0.000114
     6  O    0.000000  -0.000005   0.030051   0.000358   0.000004  -0.000010
     7  N    0.000005  -0.000109  -0.013238  -0.047014  -0.007742   0.004514
     8  H    0.000000   0.000003  -0.000172  -0.005053   0.007074  -0.000012
     9  C    0.000187   0.003290  -0.032149   0.466427  -0.043643   0.003313
    10  C    0.004400  -0.038642   0.338033  -0.069155   0.005797  -0.037273
    11  C   -0.047446   0.360898  -0.040933  -0.050741  -0.000054  -0.005257
    12  C    0.355444  -0.037352   0.004468  -0.103254   0.006201   0.485969
    13  H    0.568367  -0.004609  -0.000114   0.006791  -0.000146  -0.035392
    14  H   -0.004609   0.567196  -0.005110   0.001080   0.000016   0.002962
    15  H   -0.000114  -0.005110   0.541323   0.006515  -0.000136   0.000011
    16  C    0.006791   0.001080   0.006515   5.278958   0.338956   0.505794
    17  H   -0.000146   0.000016  -0.000136   0.338956   0.568158  -0.029174
    18  C   -0.035392   0.002962   0.000011   0.505794  -0.029174   4.801683
    19  C   -0.014430  -0.000175   0.000002  -0.037386  -0.014400   0.326738
    20  N    0.009200   0.000001   0.000000   0.006010  -0.000013  -0.058639
    21  C    0.000172   0.000002   0.000000  -0.028658   0.007345  -0.075746
    22  H   -0.000003   0.000000   0.000000   0.003383   0.003842  -0.008126
    23  S    0.000035   0.000000   0.000000   0.000372  -0.000052   0.002704
    24  C   -0.000004   0.000000   0.000000  -0.000020   0.000000   0.009713
    25  N    0.000000   0.000000   0.000000   0.000001   0.000000  -0.000172
    26  C    0.000003   0.000000   0.000000   0.000000   0.000000  -0.000063
    27  N    0.000000   0.000000   0.000000   0.000000   0.000000   0.000000
    28  H    0.000000   0.000000   0.000000   0.000000   0.000000   0.000000
    29  H    0.000000   0.000000   0.000000   0.000000   0.000000   0.000000
    30  N    0.000545   0.000000   0.000000   0.000001   0.000000   0.000300
    31  H   -0.000004   0.000000   0.000000   0.000000   0.000000  -0.000006
    32  H    0.003059  -0.000002   0.000000  -0.000008   0.000000  -0.001305
              19         20         21         22         23         24
     1  C    0.000000   0.000000   0.000000   0.000000   0.000000   0.000000
     2  H    0.000000   0.000000   0.000000   0.000000   0.000000   0.000000
     3  H    0.000000   0.000000   0.000000   0.000000   0.000000   0.000000
     4  H    0.000000   0.000000   0.000000   0.000000   0.000000   0.000000
     5  C    0.000000   0.000000   0.000000   0.000000   0.000000   0.000000
     6  O    0.000000   0.000000   0.000000   0.000000   0.000000   0.000000
     7  N   -0.000178   0.000000   0.000006  -0.000005   0.000000   0.000000
     8  H    0.000006   0.000000  -0.000006  -0.000004   0.000000   0.000000
     9  C    0.005628  -0.000093   0.000327   0.000161   0.000000   0.000000
    10  C    0.000741  -0.000006  -0.000025   0.000002  -0.000001   0.000001
    11  C    0.007390   0.000800  -0.000172  -0.000001   0.000019  -0.000022
    12  C   -0.039138  -0.006741   0.013730  -0.000219   0.000129  -0.000264
    13  H   -0.014430   0.009200   0.000172  -0.000003   0.000035  -0.000004
    14  H   -0.000175   0.000001   0.000002   0.000000   0.000000   0.000000
    15  H    0.000002   0.000000   0.000000   0.000000   0.000000   0.000000
    16  C   -0.037386   0.006010  -0.028658   0.003383   0.000372  -0.000020
    17  H   -0.014400  -0.000013   0.007345   0.003842  -0.000052   0.000000
    18  C    0.326738  -0.058639  -0.075746  -0.008126   0.002704   0.009713
    19  C    4.697113   0.400645   0.510039  -0.008882  -0.073113  -0.040444
    20  N    0.400645   7.073925  -0.117519   0.004247  -0.085806   0.397480
    21  C    0.510039  -0.117519   5.549562   0.342963   0.284264  -0.058345
    22  H   -0.008882   0.004247   0.342963   0.490259  -0.028844   0.002197
    23  S   -0.073113  -0.085806   0.284264  -0.028844  15.483026   0.293308
    24  C   -0.040444   0.397480  -0.058345   0.002197   0.293308   4.778711
    25  N    0.003539  -0.062959   0.003042  -0.000026  -0.064884   0.375512
    26  C    0.000678  -0.008171   0.000034   0.000001   0.005649  -0.055693
    27  N    0.000000   0.000028   0.000001   0.000000  -0.000330   0.003518
    28  H    0.000000   0.000010   0.000000   0.000000   0.000008  -0.000135
    29  H   -0.000001   0.000026   0.000000   0.000000   0.000033   0.000148
    30  N   -0.000301  -0.033319  -0.000108   0.000000  -0.000467  -0.004504
    31  H    0.000015   0.000786   0.000001   0.000000   0.000026   0.000049
    32  H    0.000081   0.065281   0.000486  -0.000004   0.001263  -0.007162
              25         26         27         28         29         30
     1  C    0.000000   0.000000   0.000000   0.000000   0.000000   0.000000
     2  H    0.000000   0.000000   0.000000   0.000000   0.000000   0.000000
     3  H    0.000000   0.000000   0.000000   0.000000   0.000000   0.000000
     4  H    0.000000   0.000000   0.000000   0.000000   0.000000   0.000000
     5  C    0.000000   0.000000   0.000000   0.000000   0.000000   0.000000
     6  O    0.000000   0.000000   0.000000   0.000000   0.000000   0.000000
     7  N    0.000000   0.000000   0.000000   0.000000   0.000000   0.000000
     8  H    0.000000   0.000000   0.000000   0.000000   0.000000   0.000000
     9  C    0.000000   0.000000   0.000000   0.000000   0.000000   0.000000
    10  C    0.000000   0.000000   0.000000   0.000000   0.000000   0.000000
    11  C    0.000000   0.000000   0.000000   0.000000   0.000000  -0.000004
    12  C   -0.000010   0.000010   0.000000   0.000000   0.000000  -0.000426
    13  H    0.000000   0.000003   0.000000   0.000000   0.000000   0.000545
    14  H    0.000000   0.000000   0.000000   0.000000   0.000000   0.000000
    15  H    0.000000   0.000000   0.000000   0.000000   0.000000   0.000000
    16  C    0.000001   0.000000   0.000000   0.000000   0.000000   0.000001
    17  H    0.000000   0.000000   0.000000   0.000000   0.000000   0.000000
    18  C   -0.000172  -0.000063   0.000000   0.000000   0.000000   0.000300
    19  C    0.003539   0.000678   0.000000   0.000000  -0.000001  -0.000301
    20  N   -0.062959  -0.008171   0.000028   0.000010   0.000026  -0.033319
    21  C    0.003042   0.000034   0.000001   0.000000   0.000000  -0.000108
    22  H   -0.000026   0.000001   0.000000   0.000000   0.000000   0.000000
    23  S   -0.064884   0.005649  -0.000330   0.000008   0.000033  -0.000467
    24  C    0.375512  -0.055693   0.003518  -0.000135   0.000148  -0.004504
    25  N    7.012259   0.524344  -0.090611   0.003492   0.004926  -0.084278
    26  C    0.524344   4.171708   0.375701  -0.016946  -0.013046   0.386165
    27  N   -0.090611   0.375701   6.976992   0.308851   0.301662  -0.104063
    28  H    0.003492  -0.016946   0.308851   0.334775  -0.017846  -0.001399
    29  H    0.004926  -0.013046   0.301662  -0.017846   0.336034   0.005676
    30  N   -0.084278   0.386165  -0.104063  -0.001399   0.005676   7.053975
    31  H    0.003664  -0.013669  -0.002528   0.002113  -0.000168   0.300741
    32  H   -0.011122  -0.019558   0.003228   0.000045  -0.000087   0.265067
              31         32
     1  C    0.000000   0.000000
     2  H    0.000000   0.000000
     3  H    0.000000   0.000000
     4  H    0.000000   0.000000
     5  C    0.000000   0.000000
     6  O    0.000000   0.000000
     7  N    0.000000   0.000000
     8  H    0.000000   0.000000
     9  C    0.000000   0.000000
    10  C    0.000000   0.000000
    11  C    0.000000   0.000048
    12  C    0.000004   0.000443
    13  H   -0.000004   0.003059
    14  H    0.000000  -0.000002
    15  H    0.000000   0.000000
    16  C    0.000000  -0.000008
    17  H    0.000000   0.000000
    18  C   -0.000006  -0.001305
    19  C    0.000015   0.000081
    20  N    0.000786   0.065281
    21  C    0.000001   0.000486
    22  H    0.000000  -0.000004
    23  S    0.000026   0.001263
    24  C    0.000049  -0.007162
    25  N    0.003664  -0.011122
    26  C   -0.013669  -0.019558
    27  N   -0.002528   0.003228
    28  H    0.002113   0.000045
    29  H   -0.000168  -0.000087
    30  N    0.300741   0.265067
    31  H    0.330664  -0.012481
    32  H   -0.012481   0.313572
 Mulliken charges:
               1
     1  C   -0.544006
     2  H    0.181555
     3  H    0.196063
     4  H    0.185387
     5  C    0.592669
     6  O   -0.554983
     7  N   -0.704530
     8  H    0.389828
     9  C    0.345121
    10  C   -0.180526
    11  C   -0.166613
    12  C   -0.197169
    13  H    0.153943
    14  H    0.150558
    15  H    0.168420
    16  C   -0.277805
    17  H    0.157849
    18  C    0.107588
    19  C    0.275832
    20  N   -0.585172
    21  C   -0.431395
    22  H    0.199061
    23  S    0.182663
    24  C    0.305956
    25  N   -0.616718
    26  C    0.662852
    27  N   -0.772450
    28  H    0.387032
    29  H    0.382642
    30  N   -0.783600
    31  H    0.390792
    32  H    0.399156
 Sum of Mulliken charges =   0.00000
 Mulliken charges with hydrogens summed into heavy atoms:
               1
     1  C    0.018999
     5  C    0.592669
     6  O   -0.554983
     7  N   -0.314702
     9  C    0.345121
    10  C   -0.012106
    11  C   -0.016055
    12  C   -0.043226
    16  C   -0.119956
    18  C    0.107588
    19  C    0.275832
    20  N   -0.585172
    21  C   -0.232334
    23  S    0.182663
    24  C    0.305956
    25  N   -0.616718
    26  C    0.662852
    27  N   -0.002776
    30  N    0.006348
 Electronic spatial extent (au):  <R**2>=           8720.1482
 Charge=              0.0000 electrons
 Dipole moment (field-independent basis, Debye):
    X=              4.6565    Y=             -0.2797    Z=             -0.0405  Tot=              4.6651
 Quadrupole moment (field-independent basis, Debye-Ang):
   XX=            -83.0311   YY=            -99.0374   ZZ=           -121.8069
   XY=            -53.2761   XZ=             -3.4725   YZ=             -0.0056
 Traceless Quadrupole moment (field-independent basis, Debye-Ang):
   XX=             18.2607   YY=              2.2544   ZZ=            -20.5151
   XY=            -53.2761   XZ=             -3.4725   YZ=             -0.0056
 Octapole moment (field-independent basis, Debye-Ang**2):
  XXX=            379.0742  YYY=            -42.7144  ZZZ=              1.5140  XYY=             39.4219
  XXY=            -12.5350  XXZ=            -15.6823  XZZ=            -10.5152  YZZ=              0.2542
  YYZ=              2.1958  XYZ=             -3.6445
 Hexadecapole moment (field-independent basis, Debye-Ang**3):
 XXXX=          -7632.5805 YYYY=          -1341.5146 ZZZZ=           -140.6947 XXXY=          -1568.0506
 XXXZ=           -186.8892 YYYX=           -279.4907 YYYZ=             -6.9415 ZZZX=             -5.0778
 ZZZY=             -1.1036 XXYY=          -1582.7235 XXZZ=          -1703.1732 YYZZ=           -293.6294
 XXYZ=             12.8964 YYXZ=             12.4640 ZZXY=            -18.3633
 N-N= 1.422863769269D+03 E-N=-5.686900471063D+03  KE= 1.203379344576D+03
 No NMR shielding tensors so no spin-rotation constants.
 Leave Link  601 at Thu Jan 28 04:47:18 2021, MaxMem=   262144000 cpu:         0.3
 (Enter /prod/apps/gaussian/g09d1/l9999.exe)
 1\1\GINC-PIRINEUS43\SP\RB3LYP\6-31G(d)\C12H13N5O1S1\UBAFAR01\28-Jan-20
 21\0\\#p b3lyp/6-31G(d) scrf=(iefpcm,read,solvent=Water) geom=allcheck
  guess=read\\SET_328_BBB321_conf1.geo_165_150_225.n.pdb.xyz\\0,1\C,0,-
 3.706,2.75,4.112\H,0,-4.513,3.479,4.181\H,0,-2.953,2.985,4.871\H,0,-4.
 096,1.751,4.325\C,0,-3.09,2.834,2.728\O,0,-3.31,3.78,1.971\N,0,-2.268,
 1.783,2.421\H,0,-2.174,1.073,3.139\C,0,-1.511,1.559,1.255\C,0,-1.502,2
 .44,0.16\C,0,-0.724,2.126,-0.954\C,0,0.04,0.962,-1.003\H,0,0.643,0.731
 ,-1.872\H,0,-0.718,2.807,-1.8\H,0,-2.097,3.339,0.199\C,0,-0.744,0.389,
 1.206\H,0,-0.762,-0.293,2.049\C,0,0.039,0.078,0.086\C,0,0.847,-1.156,0
 .05\N,0,1.487,-1.513,-1.128\C,0,1.04,-2.01,1.102\H,0,0.658,-1.93,2.108
 \S,0,2.061,-3.334,0.632\C,0,2.171,-2.635,-1.007\N,0,2.915,-3.317,-1.90
 4\C,0,3.051,-2.879,-3.154\N,0,3.747,-3.673,-4.014\H,0,4.123,-3.256,-4.
 859\H,0,4.32,-4.391,-3.588\N,0,2.541,-1.732,-3.641\H,0,2.581,-1.531,-4
 .633\H,0,1.905,-1.213,-3.041\\Version=AM64L-G09RevD.01\State=1-A\HF=-1
 212.3457445\RMSD=9.844e-09\Dipole=1.1197673,-1.049142,-1.006989\Quadru
 pole=-5.0336091,-29.0110765,34.0446856,4.0653518,-26.5484729,7.1484889
 \PG=C01 [X(C12H13N5O1S1)]\\@


 IT CANNOT BE MY BEAUTY, FOR I HAVE NONE; AND IT CANNOT BE MY WIT,
 FOR HE HAS NOT ENOUGH TO KNOW THAT I HAVE ANY.
 -- CATHARINE SEDLEY, PUZZLED ABOUT WHY SHE WAS MISTRESS TO JAMES II
 Job cpu time:       0 days  0 hours  3 minutes  8.2 seconds.
 File lengths (MBytes):  RWF=    163 Int=      0 D2E=      0 Chk=      6 Scr=      1
 Normal termination of Gaussian 09 at Thu Jan 28 04:47:18 2021.
