 Entering Gaussian System, Link 0=g09
 Initial command:
 /prod/apps/gaussian/g09d1/l1.exe "/tmp/ubafar01/1646373/Gau-120358.inp" -scrdir="/tmp/ubafar01/1646373/"
 Entering Link 1 = /prod/apps/gaussian/g09d1/l1.exe PID=    120359.
  
 Copyright (c) 1988,1990,1992,1993,1995,1998,2003,2009,2013,
            Gaussian, Inc.  All Rights Reserved.
  
 This is part of the Gaussian(R) 09 program.  It is based on
 the Gaussian(R) 03 system (copyright 2003, Gaussian, Inc.),
 the Gaussian(R) 98 system (copyright 1998, Gaussian, Inc.),
 the Gaussian(R) 94 system (copyright 1995, Gaussian, Inc.),
 the Gaussian 92(TM) system (copyright 1992, Gaussian, Inc.),
 the Gaussian 90(TM) system (copyright 1990, Gaussian, Inc.),
 the Gaussian 88(TM) system (copyright 1988, Gaussian, Inc.),
 the Gaussian 86(TM) system (copyright 1986, Carnegie Mellon
 University), and the Gaussian 82(TM) system (copyright 1983,
 Carnegie Mellon University). Gaussian is a federally registered
 trademark of Gaussian, Inc.
  
 This software contains proprietary and confidential information,
 including trade secrets, belonging to Gaussian, Inc.
  
 This software is provided under written license and may be
 used, copied, transmitted, or stored only in accord with that
 written license.
  
 The following legend is applicable only to US Government
 contracts under FAR:
  
                    RESTRICTED RIGHTS LEGEND
  
 Use, reproduction and disclosure by the US Government is
 subject to restrictions as set forth in subparagraphs (a)
 and (c) of the Commercial Computer Software - Restricted
 Rights clause in FAR 52.227-19.
  
 Gaussian, Inc.
 340 Quinnipiac St., Bldg. 40, Wallingford CT 06492
  
  
 ---------------------------------------------------------------
 Warning -- This program may not be used in any manner that
 competes with the business of Gaussian, Inc. or will provide
 assistance to any competitor of Gaussian, Inc.  The licensee
 of this program is prohibited from giving any competitor of
 Gaussian, Inc. access to this program.  By using this program,
 the user acknowledges that Gaussian, Inc. is engaged in the
 business of creating and licensing software in the field of
 computational chemistry and represents and warrants to the
 licensee that it is not a competitor of Gaussian, Inc. and that
 it will not use this program in any manner prohibited above.
 ---------------------------------------------------------------
  

 Cite this work as:
 Gaussian 09, Revision D.01,
 M. J. Frisch, G. W. Trucks, H. B. Schlegel, G. E. Scuseria, 
 M. A. Robb, J. R. Cheeseman, G. Scalmani, V. Barone, B. Mennucci, 
 G. A. Petersson, H. Nakatsuji, M. Caricato, X. Li, H. P. Hratchian, 
 A. F. Izmaylov, J. Bloino, G. Zheng, J. L. Sonnenberg, M. Hada, 
 M. Ehara, K. Toyota, R. Fukuda, J. Hasegawa, M. Ishida, T. Nakajima, 
 Y. Honda, O. Kitao, H. Nakai, T. Vreven, J. A. Montgomery, Jr., 
 J. E. Peralta, F. Ogliaro, M. Bearpark, J. J. Heyd, E. Brothers, 
 K. N. Kudin, V. N. Staroverov, T. Keith, R. Kobayashi, J. Normand, 
 K. Raghavachari, A. Rendell, J. C. Burant, S. S. Iyengar, J. Tomasi, 
 M. Cossi, N. Rega, J. M. Millam, M. Klene, J. E. Knox, J. B. Cross, 
 V. Bakken, C. Adamo, J. Jaramillo, R. Gomperts, R. E. Stratmann, 
 O. Yazyev, A. J. Austin, R. Cammi, C. Pomelli, J. W. Ochterski, 
 R. L. Martin, K. Morokuma, V. G. Zakrzewski, G. A. Voth, 
 P. Salvador, J. J. Dannenberg, S. Dapprich, A. D. Daniels, 
 O. Farkas, J. B. Foresman, J. V. Ortiz, J. Cioslowski, 
 and D. J. Fox, Gaussian, Inc., Wallingford CT, 2013.
 
 ******************************************
 Gaussian 09:  AM64L-G09RevD.01 24-Apr-2013
                28-Jan-2021 
 ******************************************
 %nproc=1
 Will use up to    1 processors via shared memory.
 %Chk=SET_328_BBB321_conf1.geo_165_210_060.n.pdb.xyz.mst.n.w.chk
 %mem=2000MB
 -----------------
 #p b3lyp/6-31G(d)
 -----------------
 1/38=1/1;
 2/12=2,17=6,18=5,40=1/2;
 3/5=1,6=6,7=1,11=2,16=1,25=1,30=1,74=-5/1,2,3;
 4//1;
 5/5=2,38=5/2;
 6/7=2,8=2,9=2,10=2,28=1/1;
 99/5=1,9=1/99;
 Leave Link    1 at Thu Jan 28 04:39:44 2021, MaxMem=   262144000 cpu:         0.0
 (Enter /prod/apps/gaussian/g09d1/l101.exe)
 ----------------------------------------------
 SET_328_BBB321_conf1.geo_165_210_060.n.pdb.xyz
 ----------------------------------------------
 Symbolic Z-matrix:
 Charge =  0 Multiplicity = 1
 C                     0.757    -5.429     2.51 
 H                     0.115    -6.171     2.024 
 H                     0.425    -5.311     3.543 
 H                     1.779    -5.813     2.499 
 C                     0.71     -4.137     1.717 
 O                     1.382    -3.982     0.696 
 N                    -0.148    -3.195     2.219 
 H                    -0.643    -3.452     3.066 
 C                    -0.465    -1.919     1.711 
 C                    -1.426    -1.173     2.413 
 C                    -1.777     0.097     1.971 
 C                    -1.185     0.643     0.831 
 H                    -1.46      1.63      0.484 
 H                    -2.519     0.667     2.519 
 H                    -1.89     -1.59      3.301 
 C                     0.132    -1.376     0.57 
 H                     0.878    -1.956     0.049 
 C                    -0.227    -0.094     0.12 
 C                     0.396     0.476    -1.091 
 N                     0.171     1.81     -1.401 
 C                     1.195    -0.2      -1.973 
 H                     1.495    -1.237    -1.951 
 S                     1.707     0.849    -3.26 
 C                     0.784     2.179    -2.51 
 N                     0.821     3.37     -3.146 
 C                     0.17      4.425    -2.658 
 N                    -0.517     4.453    -1.501 
 H                    -1.079     5.258    -1.254 
 H                    -0.636     3.573    -1.006 
 N                     0.189     5.562    -3.406 
 H                    -0.029     6.442    -2.955 
 H                     0.895     5.602    -4.131 
 
 NAtoms=     32 NQM=       32 NQMF=       0 NMMI=      0 NMMIF=      0
                NMic=       0 NMicF=      0.
                    Isotopes and Nuclear Properties:
 (Nuclear quadrupole moments (NQMom) in fm**2, nuclear magnetic moments (NMagM)
  in nuclear magnetons)

  Atom         1           2           3           4           5           6           7           8           9          10
 IAtWgt=          12           1           1           1          12          16          14           1          12          12
 AtmWgt=  12.0000000   1.0078250   1.0078250   1.0078250  12.0000000  15.9949146  14.0030740   1.0078250  12.0000000  12.0000000
 NucSpn=           0           1           1           1           0           0           2           1           0           0
 AtZEff=   0.0000000   0.0000000   0.0000000   0.0000000   0.0000000   0.0000000   0.0000000   0.0000000   0.0000000   0.0000000
 NQMom=    0.0000000   0.0000000   0.0000000   0.0000000   0.0000000   0.0000000   2.0440000   0.0000000   0.0000000   0.0000000
 NMagM=    0.0000000   2.7928460   2.7928460   2.7928460   0.0000000   0.0000000   0.4037610   2.7928460   0.0000000   0.0000000
 AtZNuc=   6.0000000   1.0000000   1.0000000   1.0000000   6.0000000   8.0000000   7.0000000   1.0000000   6.0000000   6.0000000

  Atom        11          12          13          14          15          16          17          18          19          20
 IAtWgt=          12          12           1           1           1          12           1          12          12          14
 AtmWgt=  12.0000000  12.0000000   1.0078250   1.0078250   1.0078250  12.0000000   1.0078250  12.0000000  12.0000000  14.0030740
 NucSpn=           0           0           1           1           1           0           1           0           0           2
 AtZEff=   0.0000000   0.0000000   0.0000000   0.0000000   0.0000000   0.0000000   0.0000000   0.0000000   0.0000000   0.0000000
 NQMom=    0.0000000   0.0000000   0.0000000   0.0000000   0.0000000   0.0000000   0.0000000   0.0000000   0.0000000   2.0440000
 NMagM=    0.0000000   0.0000000   2.7928460   2.7928460   2.7928460   0.0000000   2.7928460   0.0000000   0.0000000   0.4037610
 AtZNuc=   6.0000000   6.0000000   1.0000000   1.0000000   1.0000000   6.0000000   1.0000000   6.0000000   6.0000000   7.0000000

  Atom        21          22          23          24          25          26          27          28          29          30
 IAtWgt=          12           1          32          12          14          12          14           1           1          14
 AtmWgt=  12.0000000   1.0078250  31.9720718  12.0000000  14.0030740  12.0000000  14.0030740   1.0078250   1.0078250  14.0030740
 NucSpn=           0           1           0           0           2           0           2           1           1           2
 AtZEff=   0.0000000   0.0000000   0.0000000   0.0000000   0.0000000   0.0000000   0.0000000   0.0000000   0.0000000   0.0000000
 NQMom=    0.0000000   0.0000000   0.0000000   0.0000000   2.0440000   0.0000000   2.0440000   0.0000000   0.0000000   2.0440000
 NMagM=    0.0000000   2.7928460   0.0000000   0.0000000   0.4037610   0.0000000   0.4037610   2.7928460   2.7928460   0.4037610
 AtZNuc=   6.0000000   1.0000000  16.0000000   6.0000000   7.0000000   6.0000000   7.0000000   1.0000000   1.0000000   7.0000000

  Atom        31          32
 IAtWgt=           1           1
 AtmWgt=   1.0078250   1.0078250
 NucSpn=           1           1
 AtZEff=   0.0000000   0.0000000
 NQMom=    0.0000000   0.0000000
 NMagM=    2.7928460   2.7928460
 AtZNuc=   1.0000000   1.0000000
 Leave Link  101 at Thu Jan 28 04:39:44 2021, MaxMem=   262144000 cpu:         0.1
 (Enter /prod/apps/gaussian/g09d1/l202.exe)
                          Input orientation:                          
 ---------------------------------------------------------------------
 Center     Atomic      Atomic             Coordinates (Angstroms)
 Number     Number       Type             X           Y           Z
 ---------------------------------------------------------------------
      1          6           0        0.757000   -5.429000    2.510000
      2          1           0        0.115000   -6.171000    2.024000
      3          1           0        0.425000   -5.311000    3.543000
      4          1           0        1.779000   -5.813000    2.499000
      5          6           0        0.710000   -4.137000    1.717000
      6          8           0        1.382000   -3.982000    0.696000
      7          7           0       -0.148000   -3.195000    2.219000
      8          1           0       -0.643000   -3.452000    3.066000
      9          6           0       -0.465000   -1.919000    1.711000
     10          6           0       -1.426000   -1.173000    2.413000
     11          6           0       -1.777000    0.097000    1.971000
     12          6           0       -1.185000    0.643000    0.831000
     13          1           0       -1.460000    1.630000    0.484000
     14          1           0       -2.519000    0.667000    2.519000
     15          1           0       -1.890000   -1.590000    3.301000
     16          6           0        0.132000   -1.376000    0.570000
     17          1           0        0.878000   -1.956000    0.049000
     18          6           0       -0.227000   -0.094000    0.120000
     19          6           0        0.396000    0.476000   -1.091000
     20          7           0        0.171000    1.810000   -1.401000
     21          6           0        1.195000   -0.200000   -1.973000
     22          1           0        1.495000   -1.237000   -1.951000
     23         16           0        1.707000    0.849000   -3.260000
     24          6           0        0.784000    2.179000   -2.510000
     25          7           0        0.821000    3.370000   -3.146000
     26          6           0        0.170000    4.425000   -2.658000
     27          7           0       -0.517000    4.453000   -1.501000
     28          1           0       -1.079000    5.258000   -1.254000
     29          1           0       -0.636000    3.573000   -1.006000
     30          7           0        0.189000    5.562000   -3.406000
     31          1           0       -0.029000    6.442000   -2.955000
     32          1           0        0.895000    5.602000   -4.131000
 ---------------------------------------------------------------------
                    Distance matrix (angstroms):
                    1          2          3          4          5
     1  C    0.000000
     2  H    1.094954   0.000000
     3  H    1.091438   1.772868   0.000000
     4  H    1.091815   1.767112   1.781925   0.000000
     5  C    1.516681   2.141362   2.189470   2.136179   0.000000
     6  O    2.403129   2.856675   3.284433   2.600188   1.232092
     7  N    2.427851   2.993956   2.561008   3.262768   1.369501
     8  H    2.485491   3.008868   2.196368   3.429562   2.029688
     9  C    3.801550   4.302775   3.956512   4.562863   2.510017
    10  C    4.784186   5.244617   4.671846   5.639949   3.719168
    11  C    6.103143   6.547541   6.047020   6.917515   4.916954
    12  C    6.592389   7.038739   6.737741   7.297085   5.217703
    13  H    7.671326   8.106036   7.815893   8.363587   6.283906
    14  H    6.920511   7.344469   6.741824   7.775835   5.843634
    15  H    4.729716   5.161038   4.389035   5.651415   3.969416
    16  C    4.536632   5.010632   4.940527   5.110833   3.045130
    17  H    4.258273   4.716887   4.865107   4.657333   2.750856
    18  C    5.928118   6.377469   6.273685   6.510809   4.446822
    19  C    6.925789   7.346073   7.413782   7.372402   5.409550
    20  N    8.248784   8.685052   8.672733   8.712393   6.736413
    21  C    6.901563   7.266034   7.559198   7.200390   5.417683
    22  H    6.165876   6.484549   6.922890   6.389283   4.741355
    23  S    8.579550   8.929475   9.266603   8.806447   7.115106
    24  C    9.114976   9.525084   9.636794   9.484312   7.600320
    25  N   10.460250  10.874650  10.966280  10.821796   8.945174
    26  C   11.142446  11.584445  11.545870  11.575844   9.630165
    27  N   10.740816  11.211353  11.030186  11.254438   9.254683
    28  H   11.478265  11.949601  11.703717  12.034127  10.014659
    29  H    9.764154  10.231834  10.037160  10.306030   8.286769
    30  N   12.494949  12.928792  12.906062  12.914633  10.981219
    31  H   13.092160  13.560935  13.437378  13.535140  11.588311
    32  H   12.876525  13.307740  13.349335  13.230290  11.361402
                    6          7          8          9         10
     6  O    0.000000
     7  N    2.297781   0.000000
     8  H    3.162029   1.014142   0.000000
     9  C    2.949170   1.409514   2.053728   0.000000
    10  C    4.327058   2.399876   2.496666   1.404579   0.000000
    11  C    5.314428   3.681360   3.883347   2.419339   1.389772
    12  C    5.291346   4.210957   4.696596   2.802971   2.420467
    13  H    6.294160   5.292655   5.758553   3.884708   3.402794
    14  H    6.336745   4.541661   4.559029   3.399879   2.142775
    15  H    4.818057   2.604095   2.253282   2.160316   1.085232
    16  C    2.893028   2.471105   3.337726   1.397547   2.421822
    17  H    2.185704   2.701240   3.695098   2.137115   3.392639
    18  C    4.247023   3.745430   4.486439   2.432807   2.803514
    19  C    4.902992   4.972753   5.812861   3.785307   4.279825
    20  N    6.277834   6.185159   6.950204   4.898416   5.098558
    21  C    4.632716   5.324147   6.272581   4.391175   5.201285
    22  H    3.815023   4.891024   5.886218   4.209153   5.251746
    23  S    6.252529   7.057932   8.002461   6.090176   6.788748
    24  C    6.970937   7.218860   8.052097   6.014187   6.352632
    25  N    8.314300   8.533546   9.341944   7.295051   7.522655
    26  C    9.132136   9.052660   9.770991   7.729018   7.720095
    27  N    8.920888   8.512724   9.130301   7.135967   6.913577
    28  H    9.758925   9.185951   9.732245   7.789580   7.411144
    29  H    8.002947   7.512962   8.119843   6.129714   5.902387
    30  N   10.456462  10.413416  11.127947   9.087176   9.045950
    31  H   11.134653  10.938748  11.598305   9.584778   9.421001
    32  H   10.741981  10.899429  11.667783   9.619979   9.701113
                   11         12         13         14         15
    11  C    0.000000
    12  C    1.395772   0.000000
    13  H    2.159108   1.081759   0.000000
    14  H    1.084328   2.151622   2.487986   0.000000
    15  H    2.151195   3.403559   4.299859   2.470064   0.000000
    16  C    2.788693   2.424659   3.402631   3.873016   3.404797
    17  H    3.867547   3.409149   4.302890   4.951832   4.286174
    18  C    2.421814   1.402303   2.150572   3.404054   3.888746
    19  C    3.773780   2.494300   2.693896   4.643900   5.365055
    20  N    4.254346   2.860498   2.499157   4.889678   6.157640
    21  C    4.947336   3.773257   4.053982   5.892669   6.266131
    22  H    5.278979   4.296082   4.783402   6.302247   6.258302
    23  S    6.329859   5.014218   4.965620   7.161637   7.869806
    24  C    5.565322   4.171155   3.781663   6.203773   7.424511
    25  N    6.606498   5.222748   4.626820   7.110136   8.574085
    26  C    6.629482   5.320965   4.510110   6.939353   8.713983
    27  N    5.711140   4.516697   3.577541   5.873857   7.839782
    28  H    6.125663   5.065243   4.040815   6.114443   8.264433
    29  H    4.716671   3.501553   2.583472   4.941270   6.839542
    30  N    7.914765   6.636008   5.771648   8.148614  10.022834
    31  H    8.220706   7.021291   6.085214   8.337590  10.349584
    32  H    8.641702   7.317071   6.528479   8.957238  10.710542
                   16         17         18         19         20
    16  C    0.000000
    17  H    1.079054   0.000000
    18  C    1.405313   2.166359   0.000000
    19  C    2.501704   2.728836   1.476330   0.000000
    20  N    3.746593   4.096963   2.469223   1.387905   0.000000
    21  C    2.996630   2.696759   2.532581   1.368686   2.327200
    22  H    2.869239   2.213063   2.925880   2.209473   3.367445
    23  S    4.701080   4.416418   4.006745   2.561720   2.595900
    24  C    4.748634   4.863696   3.620159   2.250403   1.319777
    25  N    6.066951   6.211083   4.874870   3.574757   2.429223
    26  C    6.638752   6.967516   5.319422   4.254547   2.901426
    27  N    6.219926   6.739719   4.836006   4.101000   2.732909
    28  H    6.985947   7.587454   5.590857   5.006967   3.670533
    29  H    5.250352   5.828813   3.857725   3.265526   1.978748
    30  N    7.996729   8.302534   6.678029   5.591911   4.254157
    31  H    8.577451   8.965103   7.225934   6.264845   4.889820
    32  H    8.448317   8.636901   7.195436   5.980508   4.728249
                   21         22         23         24         25
    21  C    0.000000
    22  H    1.079747   0.000000
    23  S    1.737502   2.471805   0.000000
    24  C    2.473243   3.533703   1.784189   0.000000
    25  N    3.776335   4.806948   2.674590   1.350684   0.000000
    26  C    4.786489   5.857791   3.938597   2.333113   1.332280
    27  N    4.980375   6.052003   4.585747   2.807447   2.380999
    28  H    5.956324   7.021133   5.587944   3.811633   3.279361
    29  H    4.303856   5.345118   4.241502   2.494324   2.596855
    30  N    6.022140   7.074536   4.953585   3.549863   2.296059
    31  H    6.824856   7.892885   5.864160   4.362587   3.193143
    32  H    6.197594   7.203077   4.899897   3.789049   2.440804
                   26         27         28         29         30
    26  C    0.000000
    27  N    1.345883   0.000000
    28  H    2.055506   1.012363   0.000000
    29  H    2.025992   1.016654   1.759823   0.000000
    30  N    1.361115   2.314593   2.516216   3.224399   0.000000
    31  H    2.048438   2.511649   2.323307   3.521109   1.012583
    32  H    2.020070   3.198569   3.506015   4.028204   1.012749
                   31         32
    31  H    0.000000
    32  H    1.715329   0.000000
 Stoichiometry    C12H13N5OS
 Framework group  C1[X(C12H13N5OS)]
 Deg. of freedom    90
 Full point group                 C1      NOp   1
 Largest Abelian subgroup         C1      NOp   1
 Largest concise Abelian subgroup C1      NOp   1
                         Standard orientation:                         
 ---------------------------------------------------------------------
 Center     Atomic      Atomic             Coordinates (Angstroms)
 Number     Number       Type             X           Y           Z
 ---------------------------------------------------------------------
      1          6           0       -6.307925   -0.854266    0.203434
      2          1           0       -6.685335   -1.073696   -0.800725
      3          1           0       -6.778899    0.065683    0.554311
      4          1           0       -6.595226   -1.680822    0.856370
      5          6           0       -4.794338   -0.769374    0.156849
      6          8           0       -4.091028   -1.780987    0.163591
      7          7           0       -4.300405    0.505817    0.083026
      8          1           0       -4.989877    1.249530    0.083204
      9          6           0       -2.962595    0.937581   -0.019801
     10          6           0       -2.744661    2.320969   -0.127419
     11          6           0       -1.448672    2.813830   -0.222107
     12          6           0       -0.354831    1.946870   -0.213576
     13          1           0        0.654199    2.329100   -0.290784
     14          1           0       -1.288680    3.883167   -0.303890
     15          1           0       -3.589815    3.001709   -0.133532
     16          6           0       -1.870587    0.065490   -0.008965
     17          1           0       -2.053512   -0.993568    0.087427
     18          6           0       -0.560411    0.563572   -0.110245
     19          6           0        0.592989   -0.357958   -0.108984
     20          7           0        1.874656    0.165933   -0.013335
     21          6           0        0.526889   -1.721903   -0.201648
     22          1           0       -0.347034   -2.348334   -0.300115
     23         16           0        2.120476   -2.413557   -0.169866
     24          6           0        2.803687   -0.771318   -0.029861
     25          7           0        4.149679   -0.684029    0.041079
     26          6           0        4.751960    0.498794    0.155784
     27          7           0        4.128041    1.685611    0.272374
     28          1           0        4.653774    2.550188    0.240922
     29          1           0        3.117305    1.695661    0.163296
     30          7           0        6.112888    0.503039    0.133641
     31          1           0        6.600665    1.309786    0.503178
     32          1           0        6.559996   -0.391908    0.291202
 ---------------------------------------------------------------------
 Rotational constants (GHZ):      0.7963960      0.1476077      0.1250442
 Leave Link  202 at Thu Jan 28 04:39:44 2021, MaxMem=   262144000 cpu:         0.0
 (Enter /prod/apps/gaussian/g09d1/l301.exe)
 Standard basis: 6-31G(d) (6D, 7F)
 Ernie: Thresh=  0.10000D-02 Tol=  0.10000D-05 Strict=F.
 There are   315 symmetry adapted cartesian basis functions of A   symmetry.
 There are   315 symmetry adapted basis functions of A   symmetry.
   315 basis functions,   608 primitive gaussians,   315 cartesian basis functions
    72 alpha electrons       72 beta electrons
       nuclear repulsion energy      1437.0024779524 Hartrees.
 IExCor=  402 DFT=T Ex+Corr=B3LYP ExCW=0 ScaHFX=  0.200000
 ScaDFX=  0.800000  0.720000  1.000000  0.810000 ScalE2=  1.000000  1.000000
 IRadAn=      0 IRanWt=     -1 IRanGd=            0 ICorTp=0 IEmpDi=  4
 NAtoms=   32 NActive=   32 NUniq=   32 SFac= 1.00D+00 NAtFMM=   60 NAOKFM=F Big=F
 Integral buffers will be    131072 words long.
 Raffenetti 2 integral format.
 Two-electron integral symmetry is turned on.
 Leave Link  301 at Thu Jan 28 04:39:44 2021, MaxMem=   262144000 cpu:         0.0
 (Enter /prod/apps/gaussian/g09d1/l302.exe)
 NPDir=0 NMtPBC=     1 NCelOv=     1 NCel=       1 NClECP=     1 NCelD=      1
         NCelK=      1 NCelE2=     1 NClLst=     1 CellRange=     0.0.
 One-electron integrals computed using PRISM.
 NBasis=   315 RedAO= T EigKep=  3.97D-04  NBF=   315
 NBsUse=   315 1.00D-06 EigRej= -1.00D+00 NBFU=   315
 Precomputing XC quadrature grid using
 IXCGrd= 4 IRadAn=           0 IRanWt=          -1 IRanGd=           0 AccXCQ= 0.00D+00.
 Generated NRdTot=       0 NPtTot=           0 NUsed=           0 NTot=          32
 NSgBfM=   308   308   308   308   309 MxSgAt=    32 MxSgA2=    32.
 Leave Link  302 at Thu Jan 28 04:39:46 2021, MaxMem=   262144000 cpu:         1.1
 (Enter /prod/apps/gaussian/g09d1/l303.exe)
 DipDrv:  MaxL=1.
 Leave Link  303 at Thu Jan 28 04:39:46 2021, MaxMem=   262144000 cpu:         0.0
 (Enter /prod/apps/gaussian/g09d1/l401.exe)
 ExpMin= 1.17D-01 ExpMax= 2.19D+04 ExpMxC= 3.30D+03 IAcc=1 IRadAn=         1 AccDes= 0.00D+00
 Harris functional with IExCor=  402 and IRadAn=       1 diagonalized for initial guess.
 HarFok:  IExCor=  402 AccDes= 0.00D+00 IRadAn=         1 IDoV= 1 UseB2=F ITyADJ=14
 ICtDFT=  3500011 ScaDFX=  1.000000  1.000000  1.000000  1.000000
 FoFCou: FMM=F IPFlag=           0 FMFlag=      100000 FMFlg1=           0
         NFxFlg=           0 DoJE=T BraDBF=F KetDBF=T FulRan=T
         wScrn=  0.000000 ICntrl=     500 IOpCl=  0 I1Cent=   200000004 NGrid=           0
         NMat0=    1 NMatS0=      1 NMatT0=    0 NMatD0=    1 NMtDS0=    0 NMtDT0=    0
 Petite list used in FoFCou.
 Harris En= -1212.26395337184    
 JPrj=0 DoOrth=F DoCkMO=F.
 Leave Link  401 at Thu Jan 28 04:39:49 2021, MaxMem=   262144000 cpu:         3.3
 (Enter /prod/apps/gaussian/g09d1/l502.exe)
 Closed shell SCF:
 Using DIIS extrapolation, IDIIS=  1040.
 Integral symmetry usage will be decided dynamically.
 IVT=      320487 IEndB=      320487 NGot=   262144000 MDV=   261939694
 LenX=   261939694 LenY=   261840028
 Requested convergence on RMS density matrix=1.00D-08 within 128 cycles.
 Requested convergence on MAX density matrix=1.00D-06.
 Requested convergence on             energy=1.00D-06.
 No special actions if energy rises.
 Fock matrices will be formed incrementally for  20 cycles.
 Integral accuracy reduced to 1.0D-05 until final iterations.

 Cycle   1  Pass 0  IDiag  1:
 FoFJK:  IHMeth= 1 ICntrl=       0 DoSepK=F KAlg= 0 I1Cent=   0 FoldK=F
 IRaf= 690000000 NMat=   1 IRICut=       1 DoRegI=T DoRafI=F ISym2E= 0.
 FoFCou: FMM=F IPFlag=           0 FMFlag=      100000 FMFlg1=           0
         NFxFlg=           0 DoJE=F BraDBF=F KetDBF=F FulRan=T
         wScrn=  0.000000 ICntrl=       0 IOpCl=  0 I1Cent=           0 NGrid=           0
         NMat0=    1 NMatS0=      1 NMatT0=    0 NMatD0=    1 NMtDS0=    0 NMtDT0=    0
 Symmetry not used in FoFCou.
 E= -1211.78792658103    
 DIIS: error= 2.89D-02 at cycle   1 NSaved=   1.
 NSaved= 1 IEnMin= 1 EnMin= -1211.78792658103     IErMin= 1 ErrMin= 2.89D-02
 ErrMax= 2.89D-02  0.00D+00 EMaxC= 1.00D-01 BMatC= 5.56D-01 BMatP= 5.56D-01
 IDIUse=3 WtCom= 7.11D-01 WtEn= 2.89D-01
 Coeff-Com:  0.100D+01
 Coeff-En:   0.100D+01
 Coeff:      0.100D+01
 Gap=     0.251 Goal=   None    Shift=    0.000
 GapD=    0.251 DampG=1.000 DampE=0.500 DampFc=0.5000 IDamp=-1.
 Damping current iteration by 5.00D-01
 RMSDP=6.50D-03 MaxDP=2.24D-01              OVMax= 2.82D-01

 Cycle   2  Pass 0  IDiag  1:
 RMSU=  3.23D-03    CP:  9.83D-01
 E= -1211.93124060219     Delta-E=       -0.143314021167 Rises=F Damp=T
 DIIS: error= 1.55D-02 at cycle   2 NSaved=   2.
 NSaved= 2 IEnMin= 2 EnMin= -1211.93124060219     IErMin= 2 ErrMin= 1.55D-02
 ErrMax= 1.55D-02  0.00D+00 EMaxC= 1.00D-01 BMatC= 8.12D-02 BMatP= 5.56D-01
 IDIUse=3 WtCom= 8.45D-01 WtEn= 1.55D-01
 Coeff-Com:  0.201D+00 0.799D+00
 Coeff-En:   0.344D+00 0.656D+00
 Coeff:      0.223D+00 0.777D+00
 Gap=     0.223 Goal=   None    Shift=    0.000
 RMSDP=2.36D-03 MaxDP=1.10D-01 DE=-1.43D-01 OVMax= 2.43D-01

 Cycle   3  Pass 0  IDiag  1:
 RMSU=  1.92D-03    CP:  9.71D-01  5.83D-01
 E= -1212.22394042525     Delta-E=       -0.292699823057 Rises=F Damp=F
 DIIS: error= 1.78D-02 at cycle   3 NSaved=   3.
 NSaved= 3 IEnMin= 3 EnMin= -1212.22394042525     IErMin= 2 ErrMin= 1.55D-02
 ErrMax= 1.78D-02  0.00D+00 EMaxC= 1.00D-01 BMatC= 9.34D-02 BMatP= 8.12D-02
 IDIUse=2 WtCom= 0.00D+00 WtEn= 1.00D+00
 Coeff-En:   0.000D+00 0.000D+00 0.100D+01
 Coeff:      0.000D+00 0.000D+00 0.100D+01
 Gap=     0.165 Goal=   None    Shift=    0.000
 RMSDP=3.43D-03 MaxDP=1.51D-01 DE=-2.93D-01 OVMax= 2.39D-01

 Cycle   4  Pass 0  IDiag  1:
 RMSU=  1.77D-03    CP:  9.81D-01  1.12D+00 -2.34D-01
 E= -1211.80875395890     Delta-E=        0.415186466350 Rises=F Damp=F
 DIIS: error= 4.67D-02 at cycle   4 NSaved=   4.
 NSaved= 4 IEnMin= 3 EnMin= -1212.22394042525     IErMin= 2 ErrMin= 1.55D-02
 ErrMax= 4.67D-02  0.00D+00 EMaxC= 1.00D-01 BMatC= 5.49D-01 BMatP= 8.12D-02
 IDIUse=2 WtCom= 0.00D+00 WtEn= 1.00D+00
 Coeff-En:   0.000D+00 0.000D+00 0.796D+00 0.204D+00
 Coeff:      0.000D+00 0.000D+00 0.796D+00 0.204D+00
 Gap=     0.161 Goal=   None    Shift=    0.000
 RMSDP=1.87D-03 MaxDP=8.14D-02 DE= 4.15D-01 OVMax= 1.20D-01

 Cycle   5  Pass 0  IDiag  1:
 RMSU=  2.66D-04    CP:  9.77D-01  7.67D-01  3.97D-01  5.28D-01
 E= -1212.27428810385     Delta-E=       -0.465534144946 Rises=F Damp=F
 DIIS: error= 1.13D-02 at cycle   5 NSaved=   5.
 NSaved= 5 IEnMin= 5 EnMin= -1212.27428810385     IErMin= 5 ErrMin= 1.13D-02
 ErrMax= 1.13D-02  0.00D+00 EMaxC= 1.00D-01 BMatC= 4.08D-02 BMatP= 8.12D-02
 IDIUse=3 WtCom= 8.87D-01 WtEn= 1.13D-01
 Coeff-Com: -0.792D-02 0.373D-01 0.309D+00-0.910D-01 0.752D+00
 Coeff-En:   0.000D+00 0.000D+00 0.345D+00 0.000D+00 0.655D+00
 Coeff:     -0.702D-02 0.331D-01 0.313D+00-0.807D-01 0.741D+00
 Gap=     0.162 Goal=   None    Shift=    0.000
 RMSDP=6.67D-04 MaxDP=2.61D-02 DE=-4.66D-01 OVMax= 4.52D-02

 Cycle   6  Pass 0  IDiag  1:
 RMSU=  9.33D-05    CP:  9.75D-01  6.83D-01  6.41D-01  3.18D-01  8.19D-01
 E= -1212.31165498237     Delta-E=       -0.037366878525 Rises=F Damp=F
 DIIS: error= 6.21D-04 at cycle   6 NSaved=   6.
 NSaved= 6 IEnMin= 6 EnMin= -1212.31165498237     IErMin= 6 ErrMin= 6.21D-04
 ErrMax= 6.21D-04  0.00D+00 EMaxC= 1.00D-01 BMatC= 2.50D-04 BMatP= 4.08D-02
 IDIUse=3 WtCom= 9.94D-01 WtEn= 6.21D-03
 Coeff-Com: -0.711D-02 0.191D-01 0.152D+00-0.653D-01 0.452D+00 0.449D+00
 Coeff-En:   0.000D+00 0.000D+00 0.000D+00 0.000D+00 0.000D+00 0.100D+01
 Coeff:     -0.706D-02 0.190D-01 0.151D+00-0.649D-01 0.450D+00 0.453D+00
 Gap=     0.161 Goal=   None    Shift=    0.000
 RMSDP=6.55D-05 MaxDP=2.45D-03 DE=-3.74D-02 OVMax= 5.36D-03

 Cycle   7  Pass 0  IDiag  1:
 RMSU=  3.40D-05    CP:  9.75D-01  6.91D-01  6.33D-01  3.27D-01  8.65D-01
                    CP:  5.31D-01
 E= -1212.31186968615     Delta-E=       -0.000214703781 Rises=F Damp=F
 DIIS: error= 2.68D-04 at cycle   7 NSaved=   7.
 NSaved= 7 IEnMin= 7 EnMin= -1212.31186968615     IErMin= 7 ErrMin= 2.68D-04
 ErrMax= 2.68D-04  0.00D+00 EMaxC= 1.00D-01 BMatC= 2.22D-05 BMatP= 2.50D-04
 IDIUse=3 WtCom= 9.97D-01 WtEn= 2.68D-03
 Coeff-Com: -0.302D-02 0.734D-02 0.581D-01-0.288D-01 0.185D+00 0.267D+00
 Coeff-Com:  0.514D+00
 Coeff-En:   0.000D+00 0.000D+00 0.000D+00 0.000D+00 0.000D+00 0.650D-01
 Coeff-En:   0.935D+00
 Coeff:     -0.302D-02 0.732D-02 0.580D-01-0.287D-01 0.184D+00 0.267D+00
 Coeff:      0.515D+00
 Gap=     0.161 Goal=   None    Shift=    0.000
 RMSDP=2.21D-05 MaxDP=8.91D-04 DE=-2.15D-04 OVMax= 1.74D-03

 Cycle   8  Pass 0  IDiag  1:
 RMSU=  1.29D-05    CP:  9.75D-01  6.89D-01  6.37D-01  3.26D-01  8.57D-01
                    CP:  6.08D-01  6.17D-01
 E= -1212.31188997347     Delta-E=       -0.000020287318 Rises=F Damp=F
 DIIS: error= 9.73D-05 at cycle   8 NSaved=   8.
 NSaved= 8 IEnMin= 8 EnMin= -1212.31188997347     IErMin= 8 ErrMin= 9.73D-05
 ErrMax= 9.73D-05  0.00D+00 EMaxC= 1.00D-01 BMatC= 3.57D-06 BMatP= 2.22D-05
 IDIUse=1 WtCom= 1.00D+00 WtEn= 0.00D+00
 Coeff-Com: -0.608D-03 0.512D-03 0.141D-01-0.681D-02 0.434D-01 0.103D+00
 Coeff-Com:  0.334D+00 0.513D+00
 Coeff:     -0.608D-03 0.512D-03 0.141D-01-0.681D-02 0.434D-01 0.103D+00
 Coeff:      0.334D+00 0.513D+00
 Gap=     0.161 Goal=   None    Shift=    0.000
 RMSDP=7.32D-06 MaxDP=3.39D-04 DE=-2.03D-05 OVMax= 8.55D-04

 Initial convergence to 1.0D-05 achieved.  Increase integral accuracy.
 Cycle   9  Pass 1  IDiag  1:
 E= -1212.31189192506     Delta-E=       -0.000001951589 Rises=F Damp=F
 DIIS: error= 5.46D-05 at cycle   1 NSaved=   1.
 NSaved= 1 IEnMin= 1 EnMin= -1212.31189192506     IErMin= 1 ErrMin= 5.46D-05
 ErrMax= 5.46D-05  0.00D+00 EMaxC= 1.00D-01 BMatC= 5.86D-07 BMatP= 5.86D-07
 IDIUse=1 WtCom= 1.00D+00 WtEn= 0.00D+00
 Coeff-Com:  0.100D+01
 Coeff:      0.100D+01
 Gap=     0.161 Goal=   None    Shift=    0.000
 RMSDP=7.32D-06 MaxDP=3.39D-04 DE=-1.95D-06 OVMax= 4.90D-04

 Cycle  10  Pass 1  IDiag  1:
 RMSU=  3.08D-05    CP:  1.00D+00
 E= -1212.31189174092     Delta-E=        0.000000184136 Rises=F Damp=F
 DIIS: error= 4.89D-05 at cycle   2 NSaved=   2.
 NSaved= 2 IEnMin= 1 EnMin= -1212.31189192506     IErMin= 2 ErrMin= 4.89D-05
 ErrMax= 4.89D-05  0.00D+00 EMaxC= 1.00D-01 BMatC= 7.65D-07 BMatP= 5.86D-07
 IDIUse=1 WtCom= 1.00D+00 WtEn= 0.00D+00
 Coeff-Com:  0.543D+00 0.457D+00
 Coeff:      0.543D+00 0.457D+00
 Gap=     0.161 Goal=   None    Shift=    0.000
 RMSDP=4.66D-06 MaxDP=2.53D-04 DE= 1.84D-07 OVMax= 5.21D-04

 Cycle  11  Pass 1  IDiag  1:
 RMSU=  4.62D-06    CP:  1.00D+00  9.79D-01
 E= -1212.31189237126     Delta-E=       -0.000000630331 Rises=F Damp=F
 DIIS: error= 2.41D-05 at cycle   3 NSaved=   3.
 NSaved= 3 IEnMin= 3 EnMin= -1212.31189237126     IErMin= 3 ErrMin= 2.41D-05
 ErrMax= 2.41D-05  0.00D+00 EMaxC= 1.00D-01 BMatC= 1.76D-07 BMatP= 5.86D-07
 IDIUse=1 WtCom= 1.00D+00 WtEn= 0.00D+00
 Coeff-Com:  0.611D-01 0.318D+00 0.621D+00
 Coeff:      0.611D-01 0.318D+00 0.621D+00
 Gap=     0.161 Goal=   None    Shift=    0.000
 RMSDP=1.79D-06 MaxDP=9.23D-05 DE=-6.30D-07 OVMax= 1.50D-04

 Cycle  12  Pass 1  IDiag  1:
 RMSU=  9.20D-07    CP:  1.00D+00  9.94D-01  6.83D-01
 E= -1212.31189252450     Delta-E=       -0.000000153248 Rises=F Damp=F
 DIIS: error= 6.47D-06 at cycle   4 NSaved=   4.
 NSaved= 4 IEnMin= 4 EnMin= -1212.31189252450     IErMin= 4 ErrMin= 6.47D-06
 ErrMax= 6.47D-06  0.00D+00 EMaxC= 1.00D-01 BMatC= 2.29D-08 BMatP= 1.76D-07
 IDIUse=1 WtCom= 1.00D+00 WtEn= 0.00D+00
 Coeff-Com: -0.422D-02 0.169D+00 0.396D+00 0.439D+00
 Coeff:     -0.422D-02 0.169D+00 0.396D+00 0.439D+00
 Gap=     0.161 Goal=   None    Shift=    0.000
 RMSDP=5.56D-07 MaxDP=1.94D-05 DE=-1.53D-07 OVMax= 4.58D-05

 Cycle  13  Pass 1  IDiag  1:
 RMSU=  2.08D-07    CP:  1.00D+00  9.96D-01  7.00D-01  4.48D-01
 E= -1212.31189254653     Delta-E=       -0.000000022030 Rises=F Damp=F
 DIIS: error= 1.20D-06 at cycle   5 NSaved=   5.
 NSaved= 5 IEnMin= 5 EnMin= -1212.31189254653     IErMin= 5 ErrMin= 1.20D-06
 ErrMax= 1.20D-06  0.00D+00 EMaxC= 1.00D-01 BMatC= 6.25D-10 BMatP= 2.29D-08
 IDIUse=1 WtCom= 1.00D+00 WtEn= 0.00D+00
 Coeff-Com: -0.417D-02 0.917D-01 0.216D+00 0.259D+00 0.438D+00
 Coeff:     -0.417D-02 0.917D-01 0.216D+00 0.259D+00 0.438D+00
 Gap=     0.161 Goal=   None    Shift=    0.000
 RMSDP=9.95D-08 MaxDP=3.65D-06 DE=-2.20D-08 OVMax= 9.00D-06

 Cycle  14  Pass 1  IDiag  1:
 RMSU=  7.28D-08    CP:  1.00D+00  9.96D-01  6.97D-01  4.78D-01  7.11D-01
 E= -1212.31189254716     Delta-E=       -0.000000000631 Rises=F Damp=F
 DIIS: error= 2.98D-07 at cycle   6 NSaved=   6.
 NSaved= 6 IEnMin= 6 EnMin= -1212.31189254716     IErMin= 6 ErrMin= 2.98D-07
 ErrMax= 2.98D-07  0.00D+00 EMaxC= 1.00D-01 BMatC= 3.40D-11 BMatP= 6.25D-10
 IDIUse=1 WtCom= 1.00D+00 WtEn= 0.00D+00
 Coeff-Com: -0.179D-02 0.311D-01 0.727D-01 0.898D-01 0.228D+00 0.580D+00
 Coeff:     -0.179D-02 0.311D-01 0.727D-01 0.898D-01 0.228D+00 0.580D+00
 Gap=     0.161 Goal=   None    Shift=    0.000
 RMSDP=3.00D-08 MaxDP=1.00D-06 DE=-6.31D-10 OVMax= 2.74D-06

 Cycle  15  Pass 1  IDiag  1:
 RMSU=  2.32D-08    CP:  1.00D+00  9.96D-01  6.98D-01  4.75D-01  7.66D-01
                    CP:  8.05D-01
 E= -1212.31189254720     Delta-E=       -0.000000000039 Rises=F Damp=F
 DIIS: error= 2.16D-07 at cycle   7 NSaved=   7.
 NSaved= 7 IEnMin= 7 EnMin= -1212.31189254720     IErMin= 7 ErrMin= 2.16D-07
 ErrMax= 2.16D-07  0.00D+00 EMaxC= 1.00D-01 BMatC= 8.62D-12 BMatP= 3.40D-11
 IDIUse=1 WtCom= 1.00D+00 WtEn= 0.00D+00
 Coeff-Com: -0.400D-03 0.400D-02 0.859D-02 0.122D-01 0.709D-01 0.370D+00
 Coeff-Com:  0.535D+00
 Coeff:     -0.400D-03 0.400D-02 0.859D-02 0.122D-01 0.709D-01 0.370D+00
 Coeff:      0.535D+00
 Gap=     0.161 Goal=   None    Shift=    0.000
 RMSDP=1.17D-08 MaxDP=7.17D-07 DE=-3.87D-11 OVMax= 7.99D-07

 Cycle  16  Pass 1  IDiag  1:
 RMSU=  7.44D-09    CP:  1.00D+00  9.96D-01  6.98D-01  4.76D-01  7.68D-01
                    CP:  8.73D-01  6.93D-01
 E= -1212.31189254721     Delta-E=       -0.000000000004 Rises=F Damp=F
 DIIS: error= 8.45D-08 at cycle   8 NSaved=   8.
 NSaved= 8 IEnMin= 8 EnMin= -1212.31189254721     IErMin= 8 ErrMin= 8.45D-08
 ErrMax= 8.45D-08  0.00D+00 EMaxC= 1.00D-01 BMatC= 1.24D-12 BMatP= 8.62D-12
 IDIUse=1 WtCom= 1.00D+00 WtEn= 0.00D+00
 Coeff-Com:  0.242D-04-0.227D-02-0.595D-02-0.641D-02 0.946D-02 0.147D+00
 Coeff-Com:  0.332D+00 0.526D+00
 Coeff:      0.242D-04-0.227D-02-0.595D-02-0.641D-02 0.946D-02 0.147D+00
 Coeff:      0.332D+00 0.526D+00
 Gap=     0.161 Goal=   None    Shift=    0.000
 RMSDP=4.46D-09 MaxDP=2.68D-07 DE=-3.64D-12 OVMax= 2.88D-07

 SCF Done:  E(RB3LYP) =  -1212.31189255     A.U. after   16 cycles
            NFock= 16  Conv=0.45D-08     -V/T= 2.0074
 KE= 1.203349678227D+03 PE=-5.714589983631D+03 EE= 1.861925934904D+03
 Leave Link  502 at Thu Jan 28 04:44:12 2021, MaxMem=   262144000 cpu:       262.5
 (Enter /prod/apps/gaussian/g09d1/l601.exe)
 Copying SCF densities to generalized density rwf, IOpCl= 0 IROHF=0.

 **********************************************************************

            Population analysis using the SCF density.

 **********************************************************************

 Orbital symmetries:
       Occupied  (A) (A) (A) (A) (A) (A) (A) (A) (A) (A) (A) (A)
                 (A) (A) (A) (A) (A) (A) (A) (A) (A) (A) (A) (A)
                 (A) (A) (A) (A) (A) (A) (A) (A) (A) (A) (A) (A)
                 (A) (A) (A) (A) (A) (A) (A) (A) (A) (A) (A) (A)
                 (A) (A) (A) (A) (A) (A) (A) (A) (A) (A) (A) (A)
                 (A) (A) (A) (A) (A) (A) (A) (A) (A) (A) (A) (A)
       Virtual   (A) (A) (A) (A) (A) (A) (A) (A) (A) (A) (A) (A)
                 (A) (A) (A) (A) (A) (A) (A) (A) (A) (A) (A) (A)
                 (A) (A) (A) (A) (A) (A) (A) (A) (A) (A) (A) (A)
                 (A) (A) (A) (A) (A) (A) (A) (A) (A) (A) (A) (A)
                 (A) (A) (A) (A) (A) (A) (A) (A) (A) (A) (A) (A)
                 (A) (A) (A) (A) (A) (A) (A) (A) (A) (A) (A) (A)
                 (A) (A) (A) (A) (A) (A) (A) (A) (A) (A) (A) (A)
                 (A) (A) (A) (A) (A) (A) (A) (A) (A) (A) (A) (A)
                 (A) (A) (A) (A) (A) (A) (A) (A) (A) (A) (A) (A)
                 (A) (A) (A) (A) (A) (A) (A) (A) (A) (A) (A) (A)
                 (A) (A) (A) (A) (A) (A) (A) (A) (A) (A) (A) (A)
                 (A) (A) (A) (A) (A) (A) (A) (A) (A) (A) (A) (A)
                 (A) (A) (A) (A) (A) (A) (A) (A) (A) (A) (A) (A)
                 (A) (A) (A) (A) (A) (A) (A) (A) (A) (A) (A) (A)
                 (A) (A) (A) (A) (A) (A) (A) (A) (A) (A) (A) (A)
                 (A) (A) (A) (A) (A) (A) (A) (A) (A) (A) (A) (A)
                 (A) (A) (A) (A) (A) (A) (A) (A) (A) (A) (A) (A)
                 (A) (A) (A) (A) (A) (A) (A) (A) (A) (A) (A) (A)
                 (A) (A) (A) (A) (A) (A) (A) (A) (A) (A) (A) (A)
                 (A) (A) (A) (A) (A) (A) (A) (A) (A) (A) (A) (A)
                 (A) (A) (A)
 The electronic state is 1-A.
 Alpha  occ. eigenvalues --  -88.88565 -19.11256 -14.37659 -14.36624 -14.36089
 Alpha  occ. eigenvalues --  -14.31173 -14.30297 -10.30860 -10.29242 -10.26214
 Alpha  occ. eigenvalues --  -10.23073 -10.20854 -10.19481 -10.19297 -10.19135
 Alpha  occ. eigenvalues --  -10.18657 -10.18569 -10.17547 -10.17427  -7.94728
 Alpha  occ. eigenvalues --   -5.91120  -5.90781  -5.90410  -1.03012  -1.00053
 Alpha  occ. eigenvalues --   -0.94506  -0.93925  -0.89163  -0.87043  -0.84146
 Alpha  occ. eigenvalues --   -0.77285  -0.76728  -0.75343  -0.71967  -0.70089
 Alpha  occ. eigenvalues --   -0.64180  -0.63078  -0.60777  -0.58660  -0.57529
 Alpha  occ. eigenvalues --   -0.56332  -0.55129  -0.52377  -0.51024  -0.48928
 Alpha  occ. eigenvalues --   -0.48425  -0.47902  -0.47441  -0.45254  -0.43938
 Alpha  occ. eigenvalues --   -0.43087  -0.42610  -0.41746  -0.40475  -0.39850
 Alpha  occ. eigenvalues --   -0.39718  -0.39219  -0.38618  -0.36435  -0.35404
 Alpha  occ. eigenvalues --   -0.35052  -0.32991  -0.30675  -0.28581  -0.28075
 Alpha  occ. eigenvalues --   -0.26911  -0.26396  -0.26057  -0.24672  -0.23684
 Alpha  occ. eigenvalues --   -0.21400  -0.18156
 Alpha virt. eigenvalues --   -0.02030  -0.00795   0.00250   0.04113   0.04551
 Alpha virt. eigenvalues --    0.05250   0.06553   0.07979   0.10097   0.10289
 Alpha virt. eigenvalues --    0.11678   0.11829   0.12073   0.13308   0.14439
 Alpha virt. eigenvalues --    0.15283   0.15494   0.17246   0.18828   0.19525
 Alpha virt. eigenvalues --    0.20826   0.21915   0.23171   0.24415   0.26111
 Alpha virt. eigenvalues --    0.27460   0.28027   0.29055   0.30749   0.31583
 Alpha virt. eigenvalues --    0.32957   0.34568   0.35347   0.35704   0.38281
 Alpha virt. eigenvalues --    0.38684   0.39399   0.40760   0.43237   0.43759
 Alpha virt. eigenvalues --    0.46234   0.47839   0.49430   0.51504   0.52623
 Alpha virt. eigenvalues --    0.53346   0.53861   0.54394   0.55767   0.56375
 Alpha virt. eigenvalues --    0.56461   0.57233   0.57715   0.58670   0.58739
 Alpha virt. eigenvalues --    0.59827   0.60407   0.60606   0.60809   0.61681
 Alpha virt. eigenvalues --    0.62444   0.63074   0.63868   0.64671   0.65583
 Alpha virt. eigenvalues --    0.66509   0.67794   0.67928   0.69364   0.70485
 Alpha virt. eigenvalues --    0.71408   0.74144   0.74606   0.77169   0.79276
 Alpha virt. eigenvalues --    0.79533   0.80062   0.80492   0.81222   0.82230
 Alpha virt. eigenvalues --    0.82617   0.83213   0.84473   0.85022   0.85713
 Alpha virt. eigenvalues --    0.86647   0.87032   0.87393   0.87793   0.88682
 Alpha virt. eigenvalues --    0.89358   0.89875   0.90809   0.91452   0.92647
 Alpha virt. eigenvalues --    0.93642   0.94396   0.95058   0.96079   0.98112
 Alpha virt. eigenvalues --    0.99147   0.99895   1.02823   1.03272   1.03754
 Alpha virt. eigenvalues --    1.05315   1.06524   1.08135   1.09176   1.11753
 Alpha virt. eigenvalues --    1.13109   1.14237   1.15968   1.17880   1.18955
 Alpha virt. eigenvalues --    1.22311   1.24381   1.25192   1.26895   1.27821
 Alpha virt. eigenvalues --    1.28762   1.29882   1.31478   1.32723   1.34585
 Alpha virt. eigenvalues --    1.35104   1.36272   1.38633   1.40130   1.40783
 Alpha virt. eigenvalues --    1.44636   1.46478   1.47125   1.47470   1.48242
 Alpha virt. eigenvalues --    1.48822   1.49980   1.50582   1.51931   1.53399
 Alpha virt. eigenvalues --    1.57870   1.61062   1.64012   1.64879   1.67804
 Alpha virt. eigenvalues --    1.69632   1.70315   1.74135   1.76550   1.76820
 Alpha virt. eigenvalues --    1.78535   1.81017   1.81260   1.82072   1.82580
 Alpha virt. eigenvalues --    1.85410   1.85784   1.86395   1.88297   1.88843
 Alpha virt. eigenvalues --    1.90628   1.92145   1.95922   1.97002   1.97421
 Alpha virt. eigenvalues --    1.98805   2.00102   2.00786   2.04476   2.09700
 Alpha virt. eigenvalues --    2.10095   2.11176   2.12534   2.13634   2.15913
 Alpha virt. eigenvalues --    2.17403   2.18895   2.19689   2.20478   2.22037
 Alpha virt. eigenvalues --    2.25160   2.26355   2.27057   2.29016   2.29396
 Alpha virt. eigenvalues --    2.30110   2.32836   2.33547   2.34463   2.34879
 Alpha virt. eigenvalues --    2.39063   2.41381   2.43409   2.44964   2.46400
 Alpha virt. eigenvalues --    2.49694   2.50005   2.50911   2.52251   2.58029
 Alpha virt. eigenvalues --    2.59975   2.60843   2.63525   2.65018   2.65911
 Alpha virt. eigenvalues --    2.69672   2.70780   2.71638   2.72620   2.74232
 Alpha virt. eigenvalues --    2.77024   2.80513   2.83426   2.84327   2.91390
 Alpha virt. eigenvalues --    2.94572   2.95660   3.00110   3.08093   3.11705
 Alpha virt. eigenvalues --    3.23067   3.28872   3.33269   3.45925   3.81149
 Alpha virt. eigenvalues --    3.89925   3.96853   4.04424   4.07657   4.10146
 Alpha virt. eigenvalues --    4.12002   4.13204   4.16301   4.19524   4.21956
 Alpha virt. eigenvalues --    4.26079   4.27626   4.30236   4.36662   4.43691
 Alpha virt. eigenvalues --    4.46569   4.56157   4.78206
          Condensed to atoms (all electrons):
               1          2          3          4          5          6
     1  C    5.323548   0.360932   0.341026   0.361288   0.342719  -0.077245
     2  H    0.360932   0.520554  -0.026715  -0.021926  -0.019968  -0.000106
     3  H    0.341026  -0.026715   0.578770  -0.024431  -0.027967   0.002858
     4  H    0.361288  -0.021926  -0.024431   0.506803  -0.019567   0.002567
     5  C    0.342719  -0.019968  -0.027967  -0.019567   4.332637   0.579036
     6  O   -0.077245  -0.000106   0.002858   0.002567   0.579036   8.059269
     7  N   -0.117464  -0.000116   0.006537   0.003208   0.254633  -0.086450
     8  H    0.002168   0.000022   0.002814  -0.000145  -0.019885   0.003387
     9  C    0.005922  -0.000169   0.000299  -0.000096  -0.027170  -0.004850
    10  C   -0.000482   0.000011  -0.000017   0.000005   0.005557   0.000286
    11  C    0.000000   0.000000   0.000000   0.000000  -0.000112  -0.000007
    12  C    0.000001   0.000000   0.000000   0.000000   0.000013   0.000005
    13  H    0.000000   0.000000   0.000000   0.000000   0.000000   0.000000
    14  H    0.000000   0.000000   0.000000   0.000000   0.000001   0.000000
    15  H    0.000000   0.000000  -0.000021   0.000000   0.000108   0.000003
    16  C    0.000414   0.000005  -0.000032  -0.000001  -0.004187  -0.010772
    17  H    0.000607  -0.000009  -0.000023   0.000000   0.002320   0.029844
    18  C    0.000005   0.000000   0.000000   0.000000   0.000452   0.001119
    19  C    0.000000   0.000000   0.000000   0.000000  -0.000005  -0.000017
    20  N    0.000000   0.000000   0.000000   0.000000   0.000000   0.000000
    21  C    0.000000   0.000000   0.000000   0.000000  -0.000001  -0.000058
    22  H    0.000000   0.000000   0.000000   0.000000   0.000005   0.000034
    23  S    0.000000   0.000000   0.000000   0.000000   0.000000  -0.000001
    24  C    0.000000   0.000000   0.000000   0.000000   0.000000   0.000000
    25  N    0.000000   0.000000   0.000000   0.000000   0.000000   0.000000
    26  C    0.000000   0.000000   0.000000   0.000000   0.000000   0.000000
    27  N    0.000000   0.000000   0.000000   0.000000   0.000000   0.000000
    28  H    0.000000   0.000000   0.000000   0.000000   0.000000   0.000000
    29  H    0.000000   0.000000   0.000000   0.000000   0.000000   0.000000
    30  N    0.000000   0.000000   0.000000   0.000000   0.000000   0.000000
    31  H    0.000000   0.000000   0.000000   0.000000   0.000000   0.000000
    32  H    0.000000   0.000000   0.000000   0.000000   0.000000   0.000000
               7          8          9         10         11         12
     1  C   -0.117464   0.002168   0.005922  -0.000482   0.000000   0.000001
     2  H   -0.000116   0.000022  -0.000169   0.000011   0.000000   0.000000
     3  H    0.006537   0.002814   0.000299  -0.000017   0.000000   0.000000
     4  H    0.003208  -0.000145  -0.000096   0.000005   0.000000   0.000000
     5  C    0.254633  -0.019885  -0.027170   0.005557  -0.000112   0.000013
     6  O   -0.086450   0.003387  -0.004850   0.000286  -0.000007   0.000005
     7  N    7.258508   0.294255   0.220477  -0.057407   0.004854   0.000797
     8  H    0.294255   0.410951  -0.029023  -0.006472   0.000013  -0.000019
     9  C    0.220477  -0.029023   4.555788   0.499690  -0.001333  -0.036757
    10  C   -0.057407  -0.006472   0.499690   5.057152   0.537737  -0.044805
    11  C    0.004854   0.000013  -0.001333   0.537737   4.881239   0.490870
    12  C    0.000797  -0.000019  -0.036757  -0.044805   0.490870   5.077109
    13  H    0.000004  -0.000001   0.000192   0.005233  -0.052126   0.350873
    14  H   -0.000114  -0.000018   0.003784  -0.041728   0.356492  -0.037890
    15  H   -0.009827   0.009090  -0.048591   0.344279  -0.037720   0.004656
    16  C   -0.052910   0.005302   0.528362  -0.072864  -0.050173  -0.097722
    17  H   -0.012656  -0.000221  -0.030161   0.005883  -0.000169   0.005740
    18  C    0.003431   0.000094   0.002218  -0.037158  -0.000765   0.485757
    19  C   -0.000144   0.000003   0.005439   0.001093   0.007041  -0.036488
    20  N    0.000000   0.000000  -0.000099  -0.000015   0.000824  -0.007914
    21  C    0.000007   0.000000   0.000441  -0.000021  -0.000184   0.013819
    22  H   -0.000003   0.000000   0.000137   0.000002  -0.000001  -0.000221
    23  S    0.000000   0.000000   0.000001  -0.000001   0.000018   0.000111
    24  C    0.000000   0.000000   0.000000   0.000001  -0.000021  -0.000255
    25  N    0.000000   0.000000   0.000000   0.000000   0.000000  -0.000010
    26  C    0.000000   0.000000   0.000000   0.000000   0.000000   0.000009
    27  N    0.000000   0.000000   0.000000   0.000000  -0.000005  -0.000437
    28  H    0.000000   0.000000   0.000000   0.000000   0.000000   0.000002
    29  H    0.000000   0.000000   0.000000   0.000000   0.000054   0.000387
    30  N    0.000000   0.000000   0.000000   0.000000   0.000000   0.000000
    31  H    0.000000   0.000000   0.000000   0.000000   0.000000   0.000000
    32  H    0.000000   0.000000   0.000000   0.000000   0.000000   0.000000
              13         14         15         16         17         18
     1  C    0.000000   0.000000   0.000000   0.000414   0.000607   0.000005
     2  H    0.000000   0.000000   0.000000   0.000005  -0.000009   0.000000
     3  H    0.000000   0.000000  -0.000021  -0.000032  -0.000023   0.000000
     4  H    0.000000   0.000000   0.000000  -0.000001   0.000000   0.000000
     5  C    0.000000   0.000001   0.000108  -0.004187   0.002320   0.000452
     6  O    0.000000   0.000000   0.000003  -0.010772   0.029844   0.001119
     7  N    0.000004  -0.000114  -0.009827  -0.052910  -0.012656   0.003431
     8  H   -0.000001  -0.000018   0.009090   0.005302  -0.000221   0.000094
     9  C    0.000192   0.003784  -0.048591   0.528362  -0.030161   0.002218
    10  C    0.005233  -0.041728   0.344279  -0.072864   0.005883  -0.037158
    11  C   -0.052126   0.356492  -0.037720  -0.050173  -0.000169  -0.000765
    12  C    0.350873  -0.037890   0.004656  -0.097722   0.005740   0.485757
    13  H    0.598977  -0.005052  -0.000163   0.006588  -0.000115  -0.034304
    14  H   -0.005052   0.602307  -0.006049   0.000951   0.000013   0.003065
    15  H   -0.000163  -0.006049   0.623430   0.006387  -0.000151   0.000336
    16  C    0.006588   0.000951   0.006387   5.237493   0.323137   0.463211
    17  H   -0.000115   0.000013  -0.000151   0.323137   0.524790  -0.033843
    18  C   -0.034304   0.003065   0.000336   0.463211  -0.033843   4.837439
    19  C   -0.015224  -0.000181   0.000004  -0.035461  -0.012146   0.330017
    20  N    0.009872   0.000001   0.000000   0.005701   0.000004  -0.055616
    21  C    0.000207   0.000002   0.000000  -0.026444   0.005540  -0.075025
    22  H   -0.000004   0.000000   0.000000   0.004040   0.003727  -0.008187
    23  S    0.000042   0.000000   0.000000   0.000495  -0.000070   0.002690
    24  C   -0.000044   0.000000   0.000000  -0.000016  -0.000004   0.009178
    25  N   -0.000004   0.000000   0.000000   0.000001   0.000000  -0.000166
    26  C    0.000002   0.000000   0.000000   0.000000   0.000000  -0.000063
    27  N    0.000492   0.000000   0.000000   0.000001   0.000000   0.000308
    28  H    0.000010   0.000000   0.000000   0.000000   0.000000  -0.000008
    29  H    0.003641  -0.000002   0.000000  -0.000009   0.000000  -0.001445
    30  N    0.000000   0.000000   0.000000   0.000000   0.000000   0.000000
    31  H    0.000000   0.000000   0.000000   0.000000   0.000000   0.000000
    32  H    0.000000   0.000000   0.000000   0.000000   0.000000   0.000000
              19         20         21         22         23         24
     1  C    0.000000   0.000000   0.000000   0.000000   0.000000   0.000000
     2  H    0.000000   0.000000   0.000000   0.000000   0.000000   0.000000
     3  H    0.000000   0.000000   0.000000   0.000000   0.000000   0.000000
     4  H    0.000000   0.000000   0.000000   0.000000   0.000000   0.000000
     5  C   -0.000005   0.000000  -0.000001   0.000005   0.000000   0.000000
     6  O   -0.000017   0.000000  -0.000058   0.000034  -0.000001   0.000000
     7  N   -0.000144   0.000000   0.000007  -0.000003   0.000000   0.000000
     8  H    0.000003   0.000000   0.000000   0.000000   0.000000   0.000000
     9  C    0.005439  -0.000099   0.000441   0.000137   0.000001   0.000000
    10  C    0.001093  -0.000015  -0.000021   0.000002  -0.000001   0.000001
    11  C    0.007041   0.000824  -0.000184  -0.000001   0.000018  -0.000021
    12  C   -0.036488  -0.007914   0.013819  -0.000221   0.000111  -0.000255
    13  H   -0.015224   0.009872   0.000207  -0.000004   0.000042  -0.000044
    14  H   -0.000181   0.000001   0.000002   0.000000   0.000000   0.000000
    15  H    0.000004   0.000000   0.000000   0.000000   0.000000   0.000000
    16  C   -0.035461   0.005701  -0.026444   0.004040   0.000495  -0.000016
    17  H   -0.012146   0.000004   0.005540   0.003727  -0.000070  -0.000004
    18  C    0.330017  -0.055616  -0.075025  -0.008187   0.002690   0.009178
    19  C    4.665652   0.402883   0.509333  -0.007478  -0.068447  -0.041378
    20  N    0.402883   7.059659  -0.115444   0.004389  -0.088103   0.392591
    21  C    0.509333  -0.115444   5.529345   0.339776   0.287740  -0.055488
    22  H   -0.007478   0.004389   0.339776   0.506157  -0.030014   0.002261
    23  S   -0.068447  -0.088103   0.287740  -0.030014  15.429480   0.304208
    24  C   -0.041378   0.392591  -0.055488   0.002261   0.304208   4.769994
    25  N    0.003202  -0.059878   0.002950  -0.000027  -0.064730   0.376536
    26  C    0.000793  -0.012372   0.000032   0.000001   0.005738  -0.053586
    27  N   -0.000426  -0.033875  -0.000105   0.000000  -0.000476  -0.005205
    28  H    0.000022   0.001088   0.000001   0.000000   0.000036   0.000084
    29  H    0.000009   0.073520   0.000548  -0.000005   0.001397  -0.008185
    30  N   -0.000001  -0.000002   0.000001   0.000000  -0.000303   0.003563
    31  H    0.000000   0.000014   0.000000   0.000000   0.000011  -0.000157
    32  H    0.000000   0.000035   0.000000   0.000000   0.000025   0.000102
              25         26         27         28         29         30
     1  C    0.000000   0.000000   0.000000   0.000000   0.000000   0.000000
     2  H    0.000000   0.000000   0.000000   0.000000   0.000000   0.000000
     3  H    0.000000   0.000000   0.000000   0.000000   0.000000   0.000000
     4  H    0.000000   0.000000   0.000000   0.000000   0.000000   0.000000
     5  C    0.000000   0.000000   0.000000   0.000000   0.000000   0.000000
     6  O    0.000000   0.000000   0.000000   0.000000   0.000000   0.000000
     7  N    0.000000   0.000000   0.000000   0.000000   0.000000   0.000000
     8  H    0.000000   0.000000   0.000000   0.000000   0.000000   0.000000
     9  C    0.000000   0.000000   0.000000   0.000000   0.000000   0.000000
    10  C    0.000000   0.000000   0.000000   0.000000   0.000000   0.000000
    11  C    0.000000   0.000000  -0.000005   0.000000   0.000054   0.000000
    12  C   -0.000010   0.000009  -0.000437   0.000002   0.000387   0.000000
    13  H   -0.000004   0.000002   0.000492   0.000010   0.003641   0.000000
    14  H    0.000000   0.000000   0.000000   0.000000  -0.000002   0.000000
    15  H    0.000000   0.000000   0.000000   0.000000   0.000000   0.000000
    16  C    0.000001   0.000000   0.000001   0.000000  -0.000009   0.000000
    17  H    0.000000   0.000000   0.000000   0.000000   0.000000   0.000000
    18  C   -0.000166  -0.000063   0.000308  -0.000008  -0.001445   0.000000
    19  C    0.003202   0.000793  -0.000426   0.000022   0.000009  -0.000001
    20  N   -0.059878  -0.012372  -0.033875   0.001088   0.073520  -0.000002
    21  C    0.002950   0.000032  -0.000105   0.000001   0.000548   0.000001
    22  H   -0.000027   0.000001   0.000000   0.000000  -0.000005   0.000000
    23  S   -0.064730   0.005738  -0.000476   0.000036   0.001397  -0.000303
    24  C    0.376536  -0.053586  -0.005205   0.000084  -0.008185   0.003563
    25  N    6.923323   0.546455  -0.079200   0.004107  -0.011550  -0.089697
    26  C    0.546455   4.193257   0.358026  -0.017300  -0.017298   0.349216
    27  N   -0.079200   0.358026   7.087256   0.296000   0.257518  -0.109137
    28  H    0.004107  -0.017300   0.296000   0.403339  -0.013892  -0.002445
    29  H   -0.011550  -0.017298   0.257518  -0.013892   0.309494   0.003108
    30  N   -0.089697   0.349216  -0.109137  -0.002445   0.003108   6.990578
    31  H    0.004118  -0.020955  -0.000531   0.002508   0.000108   0.306729
    32  H    0.006052  -0.009440   0.006384  -0.000255  -0.000088   0.301059
              31         32
     1  C    0.000000   0.000000
     2  H    0.000000   0.000000
     3  H    0.000000   0.000000
     4  H    0.000000   0.000000
     5  C    0.000000   0.000000
     6  O    0.000000   0.000000
     7  N    0.000000   0.000000
     8  H    0.000000   0.000000
     9  C    0.000000   0.000000
    10  C    0.000000   0.000000
    11  C    0.000000   0.000000
    12  C    0.000000   0.000000
    13  H    0.000000   0.000000
    14  H    0.000000   0.000000
    15  H    0.000000   0.000000
    16  C    0.000000   0.000000
    17  H    0.000000   0.000000
    18  C    0.000000   0.000000
    19  C    0.000000   0.000000
    20  N    0.000014   0.000035
    21  C    0.000000   0.000000
    22  H    0.000000   0.000000
    23  S    0.000011   0.000025
    24  C   -0.000157   0.000102
    25  N    0.004118   0.006052
    26  C   -0.020955  -0.009440
    27  N   -0.000531   0.006384
    28  H    0.002508  -0.000255
    29  H    0.000108  -0.000088
    30  N    0.306729   0.301059
    31  H    0.403434  -0.022281
    32  H   -0.022281   0.363048
 Mulliken charges:
               1
     1  C   -0.543438
     2  H    0.187484
     3  H    0.146902
     4  H    0.192294
     5  C    0.601380
     6  O   -0.498901
     7  N   -0.709621
     8  H    0.327685
     9  C    0.355500
    10  C   -0.195958
    11  C   -0.136526
    12  C   -0.167631
    13  H    0.130903
    14  H    0.124416
    15  H    0.114231
    16  C   -0.231498
    17  H    0.187964
    18  C    0.107258
    19  C    0.291904
    20  N   -0.577263
    21  C   -0.416971
    22  H    0.185410
    23  S    0.220151
    24  C    0.305822
    25  N   -0.561480
    26  C    0.677486
    27  N   -0.776586
    28  H    0.326702
    29  H    0.402690
    30  N   -0.752668
    31  H    0.327002
    32  H    0.355357
 Sum of Mulliken charges =   0.00000
 Mulliken charges with hydrogens summed into heavy atoms:
               1
     1  C   -0.016758
     5  C    0.601380
     6  O   -0.498901
     7  N   -0.381936
     9  C    0.355500
    10  C   -0.081727
    11  C   -0.012110
    12  C   -0.036729
    16  C   -0.043534
    18  C    0.107258
    19  C    0.291904
    20  N   -0.577263
    21  C   -0.231561
    23  S    0.220151
    24  C    0.305822
    25  N   -0.561480
    26  C    0.677486
    27  N   -0.047194
    30  N   -0.070309
 Electronic spatial extent (au):  <R**2>=           8071.2648
 Charge=              0.0000 electrons
 Dipole moment (field-independent basis, Debye):
    X=              1.0581    Y=              5.7681    Z=              0.7668  Tot=              5.9143
 Quadrupole moment (field-independent basis, Debye-Ang):
   XX=            -58.9130   YY=           -110.0386   ZZ=           -121.0496
   XY=              6.4495   XZ=              6.8393   YZ=              1.0672
 Traceless Quadrupole moment (field-independent basis, Debye-Ang):
   XX=             37.7540   YY=            -13.3715   ZZ=            -24.3825
   XY=              6.4495   XZ=              6.8393   YZ=              1.0672
 Octapole moment (field-independent basis, Debye-Ang**2):
  XXX=             98.2524  YYY=             43.2660  ZZZ=              3.2149  XYY=             33.5172
  XXY=            123.0987  XXZ=             48.7893  XZZ=             -3.1870  YZZ=             -5.8702
  YYZ=             -0.0774  XYZ=              3.9196
 Hexadecapole moment (field-independent basis, Debye-Ang**3):
 XXXX=          -5710.3675 YYYY=          -1634.1740 ZZZZ=           -147.1029 XXXY=            297.0601
 XXXZ=            315.2468 YYYX=             97.9966 YYYZ=              2.0922 ZZZX=              2.7391
 ZZZY=              0.7012 XXYY=          -1572.2156 XXZZ=          -1510.4810 YYZZ=           -332.6117
 XXYZ=             42.8309 YYXZ=             15.2862 ZZXY=             31.4960
 N-N= 1.437002477952D+03 E-N=-5.714589990321D+03  KE= 1.203349678227D+03
 No NMR shielding tensors so no spin-rotation constants.
 Leave Link  601 at Thu Jan 28 04:44:13 2021, MaxMem=   262144000 cpu:         0.2
 (Enter /prod/apps/gaussian/g09d1/l9999.exe)
 1\1\GINC-PIRINEUS7\SP\RB3LYP\6-31G(d)\C12H13N5O1S1\UBAFAR01\28-Jan-202
 1\0\\#p b3lyp/6-31G(d)\\SET_328_BBB321_conf1.geo_165_210_060.n.pdb.xyz
 \\0,1\C,0,0.757,-5.429,2.51\H,0,0.115,-6.171,2.024\H,0,0.425,-5.311,3.
 543\H,0,1.779,-5.813,2.499\C,0,0.71,-4.137,1.717\O,0,1.382,-3.982,0.69
 6\N,0,-0.148,-3.195,2.219\H,0,-0.643,-3.452,3.066\C,0,-0.465,-1.919,1.
 711\C,0,-1.426,-1.173,2.413\C,0,-1.777,0.097,1.971\C,0,-1.185,0.643,0.
 831\H,0,-1.46,1.63,0.484\H,0,-2.519,0.667,2.519\H,0,-1.89,-1.59,3.301\
 C,0,0.132,-1.376,0.57\H,0,0.878,-1.956,0.049\C,0,-0.227,-0.094,0.12\C,
 0,0.396,0.476,-1.091\N,0,0.171,1.81,-1.401\C,0,1.195,-0.2,-1.973\H,0,1
 .495,-1.237,-1.951\S,0,1.707,0.849,-3.26\C,0,0.784,2.179,-2.51\N,0,0.8
 21,3.37,-3.146\C,0,0.17,4.425,-2.658\N,0,-0.517,4.453,-1.501\H,0,-1.07
 9,5.258,-1.254\H,0,-0.636,3.573,-1.006\N,0,0.189,5.562,-3.406\H,0,-0.0
 29,6.442,-2.955\H,0,0.895,5.602,-4.131\\Version=AM64L-G09RevD.01\State
 =1-A\HF=-1212.3118925\RMSD=4.455e-09\Dipole=-1.2073228,1.4303817,1.382
 2572\Quadrupole=-15.47543,22.4750781,-6.9996481,-0.2510813,-4.2218824,
 -15.5707332\PG=C01 [X(C12H13N5O1S1)]\\@


 THE GREAT THING ABOUT BEING IMPERFECT IS THE JOY IT BRINGS OTHERS.
   -- SIGN OUTSIDE LAKE AGASSIZ JR. HIGH SCHOOL, FARGO, N.D.
 Job cpu time:       0 days  0 hours  4 minutes 27.6 seconds.
 File lengths (MBytes):  RWF=     56 Int=      0 D2E=      0 Chk=      5 Scr=      1
 Normal termination of Gaussian 09 at Thu Jan 28 04:44:13 2021.
 Initial command:
 /prod/apps/gaussian/g09d1/l1.exe "/tmp/ubafar01/1646373/Gau-120358.inp" -scrdir="/tmp/ubafar01/1646373/"
 Entering Link 1 = /prod/apps/gaussian/g09d1/l1.exe PID=    120819.
  
 Copyright (c) 1988,1990,1992,1993,1995,1998,2003,2009,2013,
            Gaussian, Inc.  All Rights Reserved.
  
 This is part of the Gaussian(R) 09 program.  It is based on
 the Gaussian(R) 03 system (copyright 2003, Gaussian, Inc.),
 the Gaussian(R) 98 system (copyright 1998, Gaussian, Inc.),
 the Gaussian(R) 94 system (copyright 1995, Gaussian, Inc.),
 the Gaussian 92(TM) system (copyright 1992, Gaussian, Inc.),
 the Gaussian 90(TM) system (copyright 1990, Gaussian, Inc.),
 the Gaussian 88(TM) system (copyright 1988, Gaussian, Inc.),
 the Gaussian 86(TM) system (copyright 1986, Carnegie Mellon
 University), and the Gaussian 82(TM) system (copyright 1983,
 Carnegie Mellon University). Gaussian is a federally registered
 trademark of Gaussian, Inc.
  
 This software contains proprietary and confidential information,
 including trade secrets, belonging to Gaussian, Inc.
  
 This software is provided under written license and may be
 used, copied, transmitted, or stored only in accord with that
 written license.
  
 The following legend is applicable only to US Government
 contracts under FAR:
  
                    RESTRICTED RIGHTS LEGEND
  
 Use, reproduction and disclosure by the US Government is
 subject to restrictions as set forth in subparagraphs (a)
 and (c) of the Commercial Computer Software - Restricted
 Rights clause in FAR 52.227-19.
  
 Gaussian, Inc.
 340 Quinnipiac St., Bldg. 40, Wallingford CT 06492
  
  
 ---------------------------------------------------------------
 Warning -- This program may not be used in any manner that
 competes with the business of Gaussian, Inc. or will provide
 assistance to any competitor of Gaussian, Inc.  The licensee
 of this program is prohibited from giving any competitor of
 Gaussian, Inc. access to this program.  By using this program,
 the user acknowledges that Gaussian, Inc. is engaged in the
 business of creating and licensing software in the field of
 computational chemistry and represents and warrants to the
 licensee that it is not a competitor of Gaussian, Inc. and that
 it will not use this program in any manner prohibited above.
 ---------------------------------------------------------------
  

 Cite this work as:
 Gaussian 09, Revision D.01,
 M. J. Frisch, G. W. Trucks, H. B. Schlegel, G. E. Scuseria, 
 M. A. Robb, J. R. Cheeseman, G. Scalmani, V. Barone, B. Mennucci, 
 G. A. Petersson, H. Nakatsuji, M. Caricato, X. Li, H. P. Hratchian, 
 A. F. Izmaylov, J. Bloino, G. Zheng, J. L. Sonnenberg, M. Hada, 
 M. Ehara, K. Toyota, R. Fukuda, J. Hasegawa, M. Ishida, T. Nakajima, 
 Y. Honda, O. Kitao, H. Nakai, T. Vreven, J. A. Montgomery, Jr., 
 J. E. Peralta, F. Ogliaro, M. Bearpark, J. J. Heyd, E. Brothers, 
 K. N. Kudin, V. N. Staroverov, T. Keith, R. Kobayashi, J. Normand, 
 K. Raghavachari, A. Rendell, J. C. Burant, S. S. Iyengar, J. Tomasi, 
 M. Cossi, N. Rega, J. M. Millam, M. Klene, J. E. Knox, J. B. Cross, 
 V. Bakken, C. Adamo, J. Jaramillo, R. Gomperts, R. E. Stratmann, 
 O. Yazyev, A. J. Austin, R. Cammi, C. Pomelli, J. W. Ochterski, 
 R. L. Martin, K. Morokuma, V. G. Zakrzewski, G. A. Voth, 
 P. Salvador, J. J. Dannenberg, S. Dapprich, A. D. Daniels, 
 O. Farkas, J. B. Foresman, J. V. Ortiz, J. Cioslowski, 
 and D. J. Fox, Gaussian, Inc., Wallingford CT, 2013.
 
 ******************************************
 Gaussian 09:  AM64L-G09RevD.01 24-Apr-2013
                28-Jan-2021 
 ******************************************
 %nproc=1
 Will use up to    1 processors via shared memory.
 %Chk=SET_328_BBB321_conf1.geo_165_210_060.n.pdb.xyz.mst.n.w.chk
 %mem=2000MB
 %subst l502 /dades/curu/work_g09D01_MST_AddSphPartition_ReadGammas/exe-dir/
 ----------------------------------------------------------------------
 #p b3lyp/6-31G(d) scrf=(iefpcm,read,solvent=Water) geom=allcheck guess
 =read
 ----------------------------------------------------------------------
 1/29=7,38=1,40=2/1;
 2/12=2,40=1/2;
 3/5=1,6=6,7=1,11=2,14=-4,16=1,25=1,30=1,70=2203,72=1,74=-5,116=-2/1,2,3;
 4/5=1/1;
 5/5=2,38=6,53=1/2;
 6/7=2,8=2,9=2,10=2,28=1/1;
 99/5=1,9=1/99;
 Leave Link    1 at Thu Jan 28 04:44:13 2021, MaxMem=   262144000 cpu:         0.0
 (Enter /prod/apps/gaussian/g09d1/l101.exe)
 Structure from the checkpoint file:  "SET_328_BBB321_conf1.geo_165_210_060.n.pdb.xyz.mst.n.w.chk"
 ----------------------------------------------
 SET_328_BBB321_conf1.geo_165_210_060.n.pdb.xyz
 ----------------------------------------------
 Charge =  0 Multiplicity = 1
 Z-Matrix found in file.
 C,0,0.757,-5.429,2.51
 H,0,0.115,-6.171,2.024
 H,0,0.425,-5.311,3.543
 H,0,1.779,-5.813,2.499
 C,0,0.71,-4.137,1.717
 O,0,1.382,-3.982,0.696
 N,0,-0.148,-3.195,2.219
 H,0,-0.643,-3.452,3.066
 C,0,-0.465,-1.919,1.711
 C,0,-1.426,-1.173,2.413
 C,0,-1.777,0.097,1.971
 C,0,-1.185,0.643,0.831
 H,0,-1.46,1.63,0.484
 H,0,-2.519,0.667,2.519
 H,0,-1.89,-1.59,3.301
 C,0,0.132,-1.376,0.57
 H,0,0.878,-1.956,0.049
 C,0,-0.227,-0.094,0.12
 C,0,0.396,0.476,-1.091
 N,0,0.171,1.81,-1.401
 C,0,1.195,-0.2,-1.973
 H,0,1.495,-1.237,-1.951
 S,0,1.707,0.849,-3.26
 C,0,0.784,2.179,-2.51
 N,0,0.821,3.37,-3.146
 C,0,0.17,4.425,-2.658
 N,0,-0.517,4.453,-1.501
 H,0,-1.079,5.258,-1.254
 H,0,-0.636,3.573,-1.006
 N,0,0.189,5.562,-3.406
 H,0,-0.029,6.442,-2.955
 H,0,0.895,5.602,-4.131
 Recover connectivity data from disk.
 NAtoms=     32 NQM=       32 NQMF=       0 NMMI=      0 NMMIF=      0
                NMic=       0 NMicF=      0.
                    Isotopes and Nuclear Properties:
 (Nuclear quadrupole moments (NQMom) in fm**2, nuclear magnetic moments (NMagM)
  in nuclear magnetons)

  Atom         1           2           3           4           5           6           7           8           9          10
 IAtWgt=          12           1           1           1          12          16          14           1          12          12
 AtmWgt=  12.0000000   1.0078250   1.0078250   1.0078250  12.0000000  15.9949146  14.0030740   1.0078250  12.0000000  12.0000000
 NucSpn=           0           1           1           1           0           0           2           1           0           0
 AtZEff=  -3.6000000  -1.0000000  -1.0000000  -1.0000000  -3.6000000  -5.6000000  -4.5500000  -1.0000000  -3.6000000  -3.6000000
 NQMom=    0.0000000   0.0000000   0.0000000   0.0000000   0.0000000   0.0000000   2.0440000   0.0000000   0.0000000   0.0000000
 NMagM=    0.0000000   2.7928460   2.7928460   2.7928460   0.0000000   0.0000000   0.4037610   2.7928460   0.0000000   0.0000000
 AtZNuc=   6.0000000   1.0000000   1.0000000   1.0000000   6.0000000   8.0000000   7.0000000   1.0000000   6.0000000   6.0000000

  Atom        11          12          13          14          15          16          17          18          19          20
 IAtWgt=          12          12           1           1           1          12           1          12          12          14
 AtmWgt=  12.0000000  12.0000000   1.0078250   1.0078250   1.0078250  12.0000000   1.0078250  12.0000000  12.0000000  14.0030740
 NucSpn=           0           0           1           1           1           0           1           0           0           2
 AtZEff=  -3.6000000  -3.6000000  -1.0000000  -1.0000000  -1.0000000  -3.6000000  -1.0000000  -3.6000000  -3.6000000  -4.5500000
 NQMom=    0.0000000   0.0000000   0.0000000   0.0000000   0.0000000   0.0000000   0.0000000   0.0000000   0.0000000   2.0440000
 NMagM=    0.0000000   0.0000000   2.7928460   2.7928460   2.7928460   0.0000000   2.7928460   0.0000000   0.0000000   0.4037610
 AtZNuc=   6.0000000   6.0000000   1.0000000   1.0000000   1.0000000   6.0000000   1.0000000   6.0000000   6.0000000   7.0000000

  Atom        21          22          23          24          25          26          27          28          29          30
 IAtWgt=          12           1          32          12          14          12          14           1           1          14
 AtmWgt=  12.0000000   1.0078250  31.9720718  12.0000000  14.0030740  12.0000000  14.0030740   1.0078250   1.0078250  14.0030740
 NucSpn=           0           1           0           0           2           0           2           1           1           2
 AtZEff=  -3.6000000  -1.0000000 -13.6000000  -3.6000000  -4.5500000  -3.6000000  -4.5500000  -1.0000000  -1.0000000  -4.5500000
 NQMom=    0.0000000   0.0000000   0.0000000   0.0000000   2.0440000   0.0000000   2.0440000   0.0000000   0.0000000   2.0440000
 NMagM=    0.0000000   2.7928460   0.0000000   0.0000000   0.4037610   0.0000000   0.4037610   2.7928460   2.7928460   0.4037610
 AtZNuc=   6.0000000   1.0000000  16.0000000   6.0000000   7.0000000   6.0000000   7.0000000   1.0000000   1.0000000   7.0000000

  Atom        31          32
 IAtWgt=           1           1
 AtmWgt=   1.0078250   1.0078250
 NucSpn=           1           1
 AtZEff=  -1.0000000  -1.0000000
 NQMom=    0.0000000   0.0000000
 NMagM=    2.7928460   2.7928460
 AtZNuc=   1.0000000   1.0000000
 Leave Link  101 at Thu Jan 28 04:44:13 2021, MaxMem=   262144000 cpu:         0.0
 (Enter /prod/apps/gaussian/g09d1/l202.exe)
                          Input orientation:                          
 ---------------------------------------------------------------------
 Center     Atomic      Atomic             Coordinates (Angstroms)
 Number     Number       Type             X           Y           Z
 ---------------------------------------------------------------------
      1          6           0        0.757000   -5.429000    2.510000
      2          1           0        0.115000   -6.171000    2.024000
      3          1           0        0.425000   -5.311000    3.543000
      4          1           0        1.779000   -5.813000    2.499000
      5          6           0        0.710000   -4.137000    1.717000
      6          8           0        1.382000   -3.982000    0.696000
      7          7           0       -0.148000   -3.195000    2.219000
      8          1           0       -0.643000   -3.452000    3.066000
      9          6           0       -0.465000   -1.919000    1.711000
     10          6           0       -1.426000   -1.173000    2.413000
     11          6           0       -1.777000    0.097000    1.971000
     12          6           0       -1.185000    0.643000    0.831000
     13          1           0       -1.460000    1.630000    0.484000
     14          1           0       -2.519000    0.667000    2.519000
     15          1           0       -1.890000   -1.590000    3.301000
     16          6           0        0.132000   -1.376000    0.570000
     17          1           0        0.878000   -1.956000    0.049000
     18          6           0       -0.227000   -0.094000    0.120000
     19          6           0        0.396000    0.476000   -1.091000
     20          7           0        0.171000    1.810000   -1.401000
     21          6           0        1.195000   -0.200000   -1.973000
     22          1           0        1.495000   -1.237000   -1.951000
     23         16           0        1.707000    0.849000   -3.260000
     24          6           0        0.784000    2.179000   -2.510000
     25          7           0        0.821000    3.370000   -3.146000
     26          6           0        0.170000    4.425000   -2.658000
     27          7           0       -0.517000    4.453000   -1.501000
     28          1           0       -1.079000    5.258000   -1.254000
     29          1           0       -0.636000    3.573000   -1.006000
     30          7           0        0.189000    5.562000   -3.406000
     31          1           0       -0.029000    6.442000   -2.955000
     32          1           0        0.895000    5.602000   -4.131000
 ---------------------------------------------------------------------
                    Distance matrix (angstroms):
                    1          2          3          4          5
     1  C    0.000000
     2  H    1.094954   0.000000
     3  H    1.091438   1.772868   0.000000
     4  H    1.091815   1.767112   1.781925   0.000000
     5  C    1.516681   2.141362   2.189470   2.136179   0.000000
     6  O    2.403129   2.856675   3.284433   2.600188   1.232092
     7  N    2.427851   2.993956   2.561008   3.262768   1.369501
     8  H    2.485491   3.008868   2.196368   3.429562   2.029688
     9  C    3.801550   4.302775   3.956512   4.562863   2.510017
    10  C    4.784186   5.244617   4.671846   5.639949   3.719168
    11  C    6.103143   6.547541   6.047020   6.917515   4.916954
    12  C    6.592389   7.038739   6.737741   7.297085   5.217703
    13  H    7.671326   8.106036   7.815893   8.363587   6.283906
    14  H    6.920511   7.344469   6.741824   7.775835   5.843634
    15  H    4.729716   5.161038   4.389035   5.651415   3.969416
    16  C    4.536632   5.010632   4.940527   5.110833   3.045130
    17  H    4.258273   4.716887   4.865107   4.657333   2.750856
    18  C    5.928118   6.377469   6.273685   6.510809   4.446822
    19  C    6.925789   7.346073   7.413782   7.372402   5.409550
    20  N    8.248784   8.685052   8.672733   8.712393   6.736413
    21  C    6.901563   7.266034   7.559198   7.200390   5.417683
    22  H    6.165876   6.484549   6.922890   6.389283   4.741355
    23  S    8.579550   8.929475   9.266603   8.806447   7.115106
    24  C    9.114976   9.525084   9.636794   9.484312   7.600320
    25  N   10.460250  10.874650  10.966280  10.821796   8.945174
    26  C   11.142446  11.584445  11.545870  11.575844   9.630165
    27  N   10.740816  11.211353  11.030186  11.254438   9.254683
    28  H   11.478265  11.949601  11.703717  12.034127  10.014659
    29  H    9.764154  10.231834  10.037160  10.306030   8.286769
    30  N   12.494949  12.928792  12.906062  12.914633  10.981219
    31  H   13.092160  13.560935  13.437378  13.535140  11.588311
    32  H   12.876525  13.307740  13.349335  13.230290  11.361402
                    6          7          8          9         10
     6  O    0.000000
     7  N    2.297781   0.000000
     8  H    3.162029   1.014142   0.000000
     9  C    2.949170   1.409514   2.053728   0.000000
    10  C    4.327058   2.399876   2.496666   1.404579   0.000000
    11  C    5.314428   3.681360   3.883347   2.419339   1.389772
    12  C    5.291346   4.210957   4.696596   2.802971   2.420467
    13  H    6.294160   5.292655   5.758553   3.884708   3.402794
    14  H    6.336745   4.541661   4.559029   3.399879   2.142775
    15  H    4.818057   2.604095   2.253282   2.160316   1.085232
    16  C    2.893028   2.471105   3.337726   1.397547   2.421822
    17  H    2.185704   2.701240   3.695098   2.137115   3.392639
    18  C    4.247023   3.745430   4.486439   2.432807   2.803514
    19  C    4.902992   4.972753   5.812861   3.785307   4.279825
    20  N    6.277834   6.185159   6.950204   4.898416   5.098558
    21  C    4.632716   5.324147   6.272581   4.391175   5.201285
    22  H    3.815023   4.891024   5.886218   4.209153   5.251746
    23  S    6.252529   7.057932   8.002461   6.090176   6.788748
    24  C    6.970937   7.218860   8.052097   6.014187   6.352632
    25  N    8.314300   8.533546   9.341944   7.295051   7.522655
    26  C    9.132136   9.052660   9.770991   7.729018   7.720095
    27  N    8.920888   8.512724   9.130301   7.135967   6.913577
    28  H    9.758925   9.185951   9.732245   7.789580   7.411144
    29  H    8.002947   7.512962   8.119843   6.129714   5.902387
    30  N   10.456462  10.413416  11.127947   9.087176   9.045950
    31  H   11.134653  10.938748  11.598305   9.584778   9.421001
    32  H   10.741981  10.899429  11.667783   9.619979   9.701113
                   11         12         13         14         15
    11  C    0.000000
    12  C    1.395772   0.000000
    13  H    2.159108   1.081759   0.000000
    14  H    1.084328   2.151622   2.487986   0.000000
    15  H    2.151195   3.403559   4.299859   2.470064   0.000000
    16  C    2.788693   2.424659   3.402631   3.873016   3.404797
    17  H    3.867547   3.409149   4.302890   4.951832   4.286174
    18  C    2.421814   1.402303   2.150572   3.404054   3.888746
    19  C    3.773780   2.494300   2.693896   4.643900   5.365055
    20  N    4.254346   2.860498   2.499157   4.889678   6.157640
    21  C    4.947336   3.773257   4.053982   5.892669   6.266131
    22  H    5.278979   4.296082   4.783402   6.302247   6.258302
    23  S    6.329859   5.014218   4.965620   7.161637   7.869806
    24  C    5.565322   4.171155   3.781663   6.203773   7.424511
    25  N    6.606498   5.222748   4.626820   7.110136   8.574085
    26  C    6.629482   5.320965   4.510110   6.939353   8.713983
[...]
 Alpha virt. eigenvalues --    1.57223   1.60347   1.63113   1.63478   1.67034
 Alpha virt. eigenvalues --    1.68476   1.70339   1.74377   1.75343   1.75489
 Alpha virt. eigenvalues --    1.77648   1.79930   1.80155   1.81553   1.82130
 Alpha virt. eigenvalues --    1.84373   1.84750   1.85493   1.88005   1.88396
 Alpha virt. eigenvalues --    1.89738   1.91469   1.94867   1.96181   1.96690
 Alpha virt. eigenvalues --    1.97845   1.99724   2.00365   2.03694   2.08881
 Alpha virt. eigenvalues --    2.09288   2.11220   2.12228   2.12984   2.14959
 Alpha virt. eigenvalues --    2.16486   2.18496   2.19130   2.19879   2.21743
 Alpha virt. eigenvalues --    2.24502   2.25646   2.26689   2.28219   2.29000
 Alpha virt. eigenvalues --    2.29617   2.32478   2.33083   2.33865   2.34765
 Alpha virt. eigenvalues --    2.38672   2.40527   2.42628   2.44464   2.46013
 Alpha virt. eigenvalues --    2.48760   2.49536   2.50174   2.51804   2.57216
 Alpha virt. eigenvalues --    2.59829   2.59944   2.63013   2.64358   2.64952
 Alpha virt. eigenvalues --    2.68895   2.69894   2.70922   2.71806   2.73642
 Alpha virt. eigenvalues --    2.76259   2.79583   2.82628   2.83564   2.90310
 Alpha virt. eigenvalues --    2.93498   2.94489   2.99204   3.07153   3.11138
 Alpha virt. eigenvalues --    3.22087   3.28089   3.32396   3.44953   3.82621
 Alpha virt. eigenvalues --    3.90815   3.95169   4.04018   4.06155   4.09225
 Alpha virt. eigenvalues --    4.11024   4.11949   4.15678   4.19283   4.21007
 Alpha virt. eigenvalues --    4.24967   4.26435   4.28989   4.35896   4.42700
 Alpha virt. eigenvalues --    4.45830   4.55221   4.77114
          Condensed to atoms (all electrons):
               1          2          3          4          5          6
     1  C    5.290465   0.361469   0.350343   0.360014   0.357651  -0.077100
     2  H    0.361469   0.507627  -0.023182  -0.022744  -0.020113   0.000105
     3  H    0.350343  -0.023182   0.533623  -0.023482  -0.025448   0.002762
     4  H    0.360014  -0.022744  -0.023482   0.517319  -0.022181   0.002335
     5  C    0.357651  -0.020113  -0.025448  -0.022181   4.301064   0.571244
     6  O   -0.077100   0.000105   0.002762   0.002335   0.571244   8.126497
     7  N   -0.107350  -0.000412   0.005293   0.003421   0.276474  -0.088585
     8  H    0.000576   0.000057   0.002437  -0.000081  -0.016679   0.002898
     9  C    0.006062  -0.000179   0.000203  -0.000107  -0.026514  -0.004729
    10  C   -0.000443   0.000011  -0.000006   0.000004   0.005235   0.000297
    11  C    0.000000   0.000000   0.000000   0.000000  -0.000132  -0.000007
    12  C    0.000001   0.000000   0.000000   0.000000   0.000017   0.000006
    13  H    0.000000   0.000000   0.000000   0.000000   0.000000   0.000000
    14  H    0.000000   0.000000   0.000000   0.000000   0.000001   0.000000
    15  H    0.000003   0.000000  -0.000016   0.000000   0.000116   0.000003
    16  C    0.000378   0.000005  -0.000031   0.000000  -0.004439  -0.012047
    17  H    0.000618  -0.000009  -0.000023  -0.000001   0.002693   0.032274
    18  C    0.000004   0.000000   0.000000   0.000000   0.000376   0.001125
    19  C    0.000000   0.000000   0.000000   0.000000  -0.000004  -0.000019
    20  N    0.000000   0.000000   0.000000   0.000000   0.000000   0.000000
    21  C    0.000000   0.000000   0.000000   0.000000  -0.000001  -0.000061
    22  H    0.000000   0.000000   0.000000   0.000000   0.000004   0.000027
    23  S    0.000000   0.000000   0.000000   0.000000   0.000000  -0.000001
    24  C    0.000000   0.000000   0.000000   0.000000   0.000000   0.000000
    25  N    0.000000   0.000000   0.000000   0.000000   0.000000   0.000000
    26  C    0.000000   0.000000   0.000000   0.000000   0.000000   0.000000
    27  N    0.000000   0.000000   0.000000   0.000000   0.000000   0.000000
    28  H    0.000000   0.000000   0.000000   0.000000   0.000000   0.000000
    29  H    0.000000   0.000000   0.000000   0.000000   0.000000   0.000000
    30  N    0.000000   0.000000   0.000000   0.000000   0.000000   0.000000
    31  H    0.000000   0.000000   0.000000   0.000000   0.000000   0.000000
    32  H    0.000000   0.000000   0.000000   0.000000   0.000000   0.000000
               7          8          9         10         11         12
     1  C   -0.107350   0.000576   0.006062  -0.000443   0.000000   0.000001
     2  H   -0.000412   0.000057  -0.000179   0.000011   0.000000   0.000000
     3  H    0.005293   0.002437   0.000203  -0.000006   0.000000   0.000000
     4  H    0.003421  -0.000081  -0.000107   0.000004   0.000000   0.000000
     5  C    0.276474  -0.016679  -0.026514   0.005235  -0.000132   0.000017
     6  O   -0.088585   0.002898  -0.004729   0.000297  -0.000007   0.000006
     7  N    7.219246   0.299200   0.229073  -0.057586   0.004805   0.000724
     8  H    0.299200   0.341902  -0.025349  -0.004875   0.000086  -0.000017
     9  C    0.229073  -0.025349   4.565619   0.499950  -0.003415  -0.038171
    10  C   -0.057586  -0.004875   0.499950   5.063527   0.530078  -0.045825
    11  C    0.004805   0.000086  -0.003415   0.530078   4.906263   0.487383
    12  C    0.000724  -0.000017  -0.038171  -0.045825   0.487383   5.109380
    13  H    0.000004   0.000000   0.000171   0.004910  -0.047016   0.356817
    14  H   -0.000106  -0.000013   0.003589  -0.039208   0.361735  -0.036668
    15  H   -0.008173   0.006866  -0.042607   0.353849  -0.037060   0.004447
    16  C   -0.055449   0.004582   0.521050  -0.073011  -0.049219  -0.095853
    17  H   -0.013308  -0.000186  -0.032570   0.006237  -0.000329   0.006038
    18  C    0.003568   0.000071   0.000640  -0.037666  -0.004491   0.483589
    19  C   -0.000140   0.000002   0.005641   0.000947   0.007055  -0.039291
    20  N    0.000000   0.000000  -0.000095  -0.000016   0.000830  -0.006395
    21  C    0.000007   0.000000   0.000450  -0.000017  -0.000177   0.013343
    22  H   -0.000003   0.000000   0.000131   0.000003  -0.000002  -0.000206
    23  S    0.000000   0.000000   0.000001  -0.000001   0.000019   0.000118
    24  C    0.000000   0.000000   0.000001   0.000001  -0.000022  -0.000232
    25  N    0.000000   0.000000   0.000000   0.000000   0.000000  -0.000009
    26  C    0.000000   0.000000   0.000000   0.000000   0.000000   0.000012
    27  N    0.000000   0.000000   0.000000   0.000000  -0.000004  -0.000431
    28  H    0.000000   0.000000   0.000000   0.000000   0.000000   0.000002
    29  H    0.000000   0.000000   0.000000   0.000000   0.000049   0.000410
    30  N    0.000000   0.000000   0.000000   0.000000   0.000000   0.000000
    31  H    0.000000   0.000000   0.000000   0.000000   0.000000   0.000000
    32  H    0.000000   0.000000   0.000000   0.000000   0.000000   0.000000
              13         14         15         16         17         18
     1  C    0.000000   0.000000   0.000003   0.000378   0.000618   0.000004
     2  H    0.000000   0.000000   0.000000   0.000005  -0.000009   0.000000
     3  H    0.000000   0.000000  -0.000016  -0.000031  -0.000023   0.000000
     4  H    0.000000   0.000000   0.000000   0.000000  -0.000001   0.000000
     5  C    0.000000   0.000001   0.000116  -0.004439   0.002693   0.000376
     6  O    0.000000   0.000000   0.000003  -0.012047   0.032274   0.001125
     7  N    0.000004  -0.000106  -0.008173  -0.055449  -0.013308   0.003568
     8  H    0.000000  -0.000013   0.006866   0.004582  -0.000186   0.000071
     9  C    0.000171   0.003589  -0.042607   0.521050  -0.032570   0.000640
    10  C    0.004910  -0.039208   0.353849  -0.073011   0.006237  -0.037666
    11  C   -0.047016   0.361735  -0.037060  -0.049219  -0.000329  -0.004491
    12  C    0.356817  -0.036668   0.004447  -0.095853   0.006038   0.483589
    13  H    0.567031  -0.004596  -0.000143   0.006074  -0.000109  -0.037165
    14  H   -0.004596   0.564078  -0.005293   0.000886   0.000012   0.003032
    15  H   -0.000143  -0.005293   0.564537   0.006019  -0.000138   0.000291
    16  C    0.006074   0.000886   0.006019   5.265690   0.322148   0.465168
    17  H   -0.000109   0.000012  -0.000138   0.322148   0.542071  -0.035801
    18  C   -0.037165   0.003032   0.000291   0.465168  -0.035801   4.864433
    19  C   -0.013972  -0.000172   0.000004  -0.037334  -0.012676   0.328430
    20  N    0.009046   0.000001   0.000000   0.005537   0.000011  -0.058663
    21  C    0.000196   0.000002   0.000000  -0.025680   0.005681  -0.077404
    22  H   -0.000003   0.000000   0.000000   0.003705   0.003996  -0.007739
    23  S    0.000032   0.000000   0.000000   0.000484  -0.000090   0.002615
    24  C    0.000003   0.000000   0.000000  -0.000010  -0.000005   0.009514
    25  N   -0.000003   0.000000   0.000000   0.000001   0.000000  -0.000172
    26  C   -0.000004   0.000000   0.000000   0.000000   0.000000  -0.000062
    27  N    0.000514   0.000000   0.000000   0.000001   0.000000   0.000302
    28  H    0.000002   0.000000   0.000000   0.000000   0.000000  -0.000006
    29  H    0.003278  -0.000002   0.000000  -0.000009   0.000000  -0.001313
    30  N    0.000000   0.000000   0.000000   0.000000   0.000000   0.000000
    31  H    0.000000   0.000000   0.000000   0.000000   0.000000   0.000000
    32  H    0.000000   0.000000   0.000000   0.000000   0.000000   0.000000
              19         20         21         22         23         24
     1  C    0.000000   0.000000   0.000000   0.000000   0.000000   0.000000
     2  H    0.000000   0.000000   0.000000   0.000000   0.000000   0.000000
     3  H    0.000000   0.000000   0.000000   0.000000   0.000000   0.000000
     4  H    0.000000   0.000000   0.000000   0.000000   0.000000   0.000000
     5  C   -0.000004   0.000000  -0.000001   0.000004   0.000000   0.000000
     6  O   -0.000019   0.000000  -0.000061   0.000027  -0.000001   0.000000
     7  N   -0.000140   0.000000   0.000007  -0.000003   0.000000   0.000000
     8  H    0.000002   0.000000   0.000000   0.000000   0.000000   0.000000
     9  C    0.005641  -0.000095   0.000450   0.000131   0.000001   0.000001
    10  C    0.000947  -0.000016  -0.000017   0.000003  -0.000001   0.000001
    11  C    0.007055   0.000830  -0.000177  -0.000002   0.000019  -0.000022
    12  C   -0.039291  -0.006395   0.013343  -0.000206   0.000118  -0.000232
    13  H   -0.013972   0.009046   0.000196  -0.000003   0.000032   0.000003
    14  H   -0.000172   0.000001   0.000002   0.000000   0.000000   0.000000
    15  H    0.000004   0.000000   0.000000   0.000000   0.000000   0.000000
    16  C   -0.037334   0.005537  -0.025680   0.003705   0.000484  -0.000010
    17  H   -0.012676   0.000011   0.005681   0.003996  -0.000090  -0.000005
    18  C    0.328430  -0.058663  -0.077404  -0.007739   0.002615   0.009514
    19  C    4.691921   0.399847   0.511543  -0.009258  -0.072897  -0.040278
    20  N    0.399847   7.073783  -0.116078   0.004268  -0.086024   0.397400
    21  C    0.511543  -0.116078   5.546842   0.342885   0.283331  -0.057923
    22  H   -0.009258   0.004268   0.342885   0.491378  -0.029174   0.002193
    23  S   -0.072897  -0.086024   0.283331  -0.029174  15.486045   0.293062
    24  C   -0.040278   0.397400  -0.057923   0.002193   0.293062   4.779813
    25  N    0.003529  -0.062808   0.003062  -0.000027  -0.065087   0.374733
    26  C    0.000679  -0.008159   0.000031   0.000001   0.005679  -0.055593
    27  N   -0.000291  -0.033678  -0.000109   0.000000  -0.000474  -0.004510
    28  H    0.000016   0.000789   0.000001   0.000000   0.000026   0.000049
    29  H    0.000077   0.065971   0.000490  -0.000004   0.001283  -0.007289
    30  N    0.000000   0.000026   0.000001   0.000000  -0.000331   0.003516
    31  H    0.000000   0.000009   0.000000   0.000000   0.000009  -0.000134
    32  H    0.000000   0.000027   0.000000   0.000000   0.000033   0.000157
              25         26         27         28         29         30
     1  C    0.000000   0.000000   0.000000   0.000000   0.000000   0.000000
     2  H    0.000000   0.000000   0.000000   0.000000   0.000000   0.000000
     3  H    0.000000   0.000000   0.000000   0.000000   0.000000   0.000000
     4  H    0.000000   0.000000   0.000000   0.000000   0.000000   0.000000
     5  C    0.000000   0.000000   0.000000   0.000000   0.000000   0.000000
     6  O    0.000000   0.000000   0.000000   0.000000   0.000000   0.000000
     7  N    0.000000   0.000000   0.000000   0.000000   0.000000   0.000000
     8  H    0.000000   0.000000   0.000000   0.000000   0.000000   0.000000
     9  C    0.000000   0.000000   0.000000   0.000000   0.000000   0.000000
    10  C    0.000000   0.000000   0.000000   0.000000   0.000000   0.000000
    11  C    0.000000   0.000000  -0.000004   0.000000   0.000049   0.000000
    12  C   -0.000009   0.000012  -0.000431   0.000002   0.000410   0.000000
    13  H   -0.000003  -0.000004   0.000514   0.000002   0.003278   0.000000
    14  H    0.000000   0.000000   0.000000   0.000000  -0.000002   0.000000
    15  H    0.000000   0.000000   0.000000   0.000000   0.000000   0.000000
    16  C    0.000001   0.000000   0.000001   0.000000  -0.000009   0.000000
    17  H    0.000000   0.000000   0.000000   0.000000   0.000000   0.000000
    18  C   -0.000172  -0.000062   0.000302  -0.000006  -0.001313   0.000000
    19  C    0.003529   0.000679  -0.000291   0.000016   0.000077   0.000000
    20  N   -0.062808  -0.008159  -0.033678   0.000789   0.065971   0.000026
    21  C    0.003062   0.000031  -0.000109   0.000001   0.000490   0.000001
    22  H   -0.000027   0.000001   0.000000   0.000000  -0.000004   0.000000
    23  S   -0.065087   0.005679  -0.000474   0.000026   0.001283  -0.000331
    24  C    0.374733  -0.055593  -0.004510   0.000049  -0.007289   0.003516
    25  N    7.014425   0.523960  -0.084045   0.003675  -0.011087  -0.090710
    26  C    0.523960   4.170089   0.385906  -0.013413  -0.019395   0.375999
    27  N   -0.084045   0.385906   7.055046   0.300876   0.264964  -0.104170
    28  H    0.003675  -0.013413   0.300876   0.330335  -0.012569  -0.002598
    29  H   -0.011087  -0.019395   0.264964  -0.012569   0.312695   0.003224
    30  N   -0.090710   0.375999  -0.104170  -0.002598   0.003224   6.976737
    31  H    0.003474  -0.016939  -0.001364   0.002167   0.000062   0.309293
    32  H    0.005045  -0.013098   0.005662  -0.000171  -0.000090   0.301691
              31         32
     1  C    0.000000   0.000000
     2  H    0.000000   0.000000
     3  H    0.000000   0.000000
     4  H    0.000000   0.000000
     5  C    0.000000   0.000000
     6  O    0.000000   0.000000
     7  N    0.000000   0.000000
     8  H    0.000000   0.000000
     9  C    0.000000   0.000000
    10  C    0.000000   0.000000
    11  C    0.000000   0.000000
    12  C    0.000000   0.000000
    13  H    0.000000   0.000000
    14  H    0.000000   0.000000
    15  H    0.000000   0.000000
    16  C    0.000000   0.000000
    17  H    0.000000   0.000000
    18  C    0.000000   0.000000
    19  C    0.000000   0.000000
    20  N    0.000009   0.000027
    21  C    0.000000   0.000000
    22  H    0.000000   0.000000
    23  S    0.000009   0.000033
    24  C   -0.000134   0.000157
    25  N    0.003474   0.005045
    26  C   -0.016939  -0.013098
    27  N   -0.001364   0.005662
    28  H    0.002167  -0.000171
    29  H    0.000062  -0.000090
    30  N    0.309293   0.301691
    31  H    0.334141  -0.017791
    32  H   -0.017791   0.335853
 Mulliken charges:
               1
     1  C   -0.542688
     2  H    0.197365
     3  H    0.177525
     4  H    0.185503
     5  C    0.600636
     6  O   -0.557024
     7  N   -0.710702
     8  H    0.388524
     9  C    0.341156
    10  C   -0.206394
    11  C   -0.156427
    12  C   -0.199189
    13  H    0.154932
    14  H    0.152723
    15  H    0.157295
    16  C   -0.248646
    17  H    0.173465
    18  C    0.097325
    19  C    0.276641
    20  N   -0.585629
    21  C   -0.430414
    22  H    0.197826
    23  S    0.181342
    24  C    0.305553
    25  N   -0.617956
    26  C    0.664307
    27  N   -0.784195
    28  H    0.390819
    29  H    0.399254
    30  N   -0.772680
    31  H    0.387074
    32  H    0.382682
 Sum of Mulliken charges =   0.00000
 Mulliken charges with hydrogens summed into heavy atoms:
               1
     1  C    0.017704
     5  C    0.600636
     6  O   -0.557024
     7  N   -0.322178
     9  C    0.341156
    10  C   -0.049099
    11  C   -0.003704
    12  C   -0.044258
    16  C   -0.075181
    18  C    0.097325
    19  C    0.276641
    20  N   -0.585629
    21  C   -0.232589
    23  S    0.181342
    24  C    0.305553
    25  N   -0.617956
    26  C    0.664307
    27  N    0.005877
    30  N   -0.002924
 Electronic spatial extent (au):  <R**2>=           8054.8885
 Charge=              0.0000 electrons
 Dipole moment (field-independent basis, Debye):
    X=              1.0529    Y=              8.6065    Z=              0.9696  Tot=              8.7247
 Quadrupole moment (field-independent basis, Debye-Ang):
   XX=            -38.7735   YY=           -107.9848   ZZ=           -121.2163
   XY=              7.6087   XZ=              8.3872   YZ=              1.3662
 Traceless Quadrupole moment (field-independent basis, Debye-Ang):
   XX=             50.5514   YY=            -18.6600   ZZ=            -31.8914
   XY=              7.6087   XZ=              8.3872   YZ=              1.3662
 Octapole moment (field-independent basis, Debye-Ang**2):
  XXX=            119.3410  YYY=             64.4431  ZZZ=              3.5818  XYY=             37.3127
  XXY=            176.9777  XXZ=             57.5636  XZZ=             -3.4549  YZZ=             -4.2642
  YYZ=             -0.0606  XYZ=              4.6633
 Hexadecapole moment (field-independent basis, Debye-Ang**3):
 XXXX=          -4713.8912 YYYY=          -1599.1566 ZZZZ=           -147.5904 XXXY=            359.6459
 XXXZ=            368.0730 YYYX=            100.9444 YYYZ=              2.1098 ZZZX=              4.9532
 ZZZY=              0.9699 XXYY=          -1516.7084 XXZZ=          -1497.8951 YYZZ=           -332.6108
 XXYZ=             56.4704 YYXZ=             21.3942 ZZXY=             33.2828
 N-N= 1.437004487393D+03 E-N=-5.715859164291D+03  KE= 1.203376696689D+03
 No NMR shielding tensors so no spin-rotation constants.
 Leave Link  601 at Thu Jan 28 04:47:30 2021, MaxMem=   262144000 cpu:         0.3
 (Enter /prod/apps/gaussian/g09d1/l9999.exe)
 1\1\GINC-PIRINEUS7\SP\RB3LYP\6-31G(d)\C12H13N5O1S1\UBAFAR01\28-Jan-202
 1\0\\#p b3lyp/6-31G(d) scrf=(iefpcm,read,solvent=Water) geom=allcheck 
 guess=read\\SET_328_BBB321_conf1.geo_165_210_060.n.pdb.xyz\\0,1\C,0,0.
 757,-5.429,2.51\H,0,0.115,-6.171,2.024\H,0,0.425,-5.311,3.543\H,0,1.77
 9,-5.813,2.499\C,0,0.71,-4.137,1.717\O,0,1.382,-3.982,0.696\N,0,-0.148
 ,-3.195,2.219\H,0,-0.643,-3.452,3.066\C,0,-0.465,-1.919,1.711\C,0,-1.4
 26,-1.173,2.413\C,0,-1.777,0.097,1.971\C,0,-1.185,0.643,0.831\H,0,-1.4
 6,1.63,0.484\H,0,-2.519,0.667,2.519\H,0,-1.89,-1.59,3.301\C,0,0.132,-1
 .376,0.57\H,0,0.878,-1.956,0.049\C,0,-0.227,-0.094,0.12\C,0,0.396,0.47
 6,-1.091\N,0,0.171,1.81,-1.401\C,0,1.195,-0.2,-1.973\H,0,1.495,-1.237,
 -1.951\S,0,1.707,0.849,-3.26\C,0,0.784,2.179,-2.51\N,0,0.821,3.37,-3.1
 46\C,0,0.17,4.425,-2.658\N,0,-0.517,4.453,-1.501\H,0,-1.079,5.258,-1.2
 54\H,0,-0.636,3.573,-1.006\N,0,0.189,5.562,-3.406\H,0,-0.029,6.442,-2.
 955\H,0,0.895,5.602,-4.131\\Version=AM64L-G09RevD.01\State=1-A\HF=-121
 2.3458919\RMSD=4.201e-09\Dipole=-1.8600734,1.9379792,2.1370117\Quadrup
 ole=-20.5704622,29.1649516,-8.5944894,-0.0188015,-5.2427071,-21.312530
 1\PG=C01 [X(C12H13N5O1S1)]\\@


 ONE BIG VICE IN A MAN IS APT TO KEEP OUT MANY SMALLER ONES.

                           -- BRET HARTE
 Job cpu time:       0 days  0 hours  3 minutes 17.0 seconds.
 File lengths (MBytes):  RWF=    163 Int=      0 D2E=      0 Chk=      6 Scr=      1
 Normal termination of Gaussian 09 at Thu Jan 28 04:47:30 2021.
