 Entering Gaussian System, Link 0=g16
 Initial command:
 /prod/apps/gaussian/g16b1/l1.exe "/tmp/ubator02/1839489/Gau-113078.inp" -scrdir="/tmp/ubator02/1839489/"
 Entering Link 1 = /prod/apps/gaussian/g16b1/l1.exe PID=    113081.
  
 Copyright (c) 1988-2017, Gaussian, Inc.  All Rights Reserved.
  
 This is part of the Gaussian(R) 16 program.  It is based on
 the Gaussian(R) 09 system (copyright 2009, Gaussian, Inc.),
 the Gaussian(R) 03 system (copyright 2003, Gaussian, Inc.),
 the Gaussian(R) 98 system (copyright 1998, Gaussian, Inc.),
 the Gaussian(R) 94 system (copyright 1995, Gaussian, Inc.),
 the Gaussian 92(TM) system (copyright 1992, Gaussian, Inc.),
 the Gaussian 90(TM) system (copyright 1990, Gaussian, Inc.),
 the Gaussian 88(TM) system (copyright 1988, Gaussian, Inc.),
 the Gaussian 86(TM) system (copyright 1986, Carnegie Mellon
 University), and the Gaussian 82(TM) system (copyright 1983,
 Carnegie Mellon University). Gaussian is a federally registered
 trademark of Gaussian, Inc.
  
 This software contains proprietary and confidential information,
 including trade secrets, belonging to Gaussian, Inc.
  
 This software is provided under written license and may be
 used, copied, transmitted, or stored only in accord with that
 written license.
  
 The following legend is applicable only to US Government
 contracts under FAR:
  
                    RESTRICTED RIGHTS LEGEND
  
 Use, reproduction and disclosure by the US Government is
 subject to restrictions as set forth in subparagraphs (a)
 and (c) of the Commercial Computer Software - Restricted
 Rights clause in FAR 52.227-19.
  
 Gaussian, Inc.
 340 Quinnipiac St., Bldg. 40, Wallingford CT 06492
  
  
 ---------------------------------------------------------------
 Warning -- This program may not be used in any manner that
 competes with the business of Gaussian, Inc. or will provide
 assistance to any competitor of Gaussian, Inc.  The licensee
 of this program is prohibited from giving any competitor of
 Gaussian, Inc. access to this program.  By using this program,
 the user acknowledges that Gaussian, Inc. is engaged in the
 business of creating and licensing software in the field of
 computational chemistry and represents and warrants to the
 licensee that it is not a competitor of Gaussian, Inc. and that
 it will not use this program in any manner prohibited above.
 ---------------------------------------------------------------
  

 Cite this work as:
 Gaussian 16, Revision B.01,
 M. J. Frisch, G. W. Trucks, H. B. Schlegel, G. E. Scuseria, 
 M. A. Robb, J. R. Cheeseman, G. Scalmani, V. Barone, 
 G. A. Petersson, H. Nakatsuji, X. Li, M. Caricato, A. V. Marenich, 
 J. Bloino, B. G. Janesko, R. Gomperts, B. Mennucci, H. P. Hratchian, 
 J. V. Ortiz, A. F. Izmaylov, J. L. Sonnenberg, D. Williams-Young, 
 F. Ding, F. Lipparini, F. Egidi, J. Goings, B. Peng, A. Petrone, 
 T. Henderson, D. Ranasinghe, V. G. Zakrzewski, J. Gao, N. Rega, 
 G. Zheng, W. Liang, M. Hada, M. Ehara, K. Toyota, R. Fukuda, 
 J. Hasegawa, M. Ishida, T. Nakajima, Y. Honda, O. Kitao, H. Nakai, 
 T. Vreven, K. Throssell, J. A. Montgomery, Jr., J. E. Peralta, 
 F. Ogliaro, M. J. Bearpark, J. J. Heyd, E. N. Brothers, K. N. Kudin, 
 V. N. Staroverov, T. A. Keith, R. Kobayashi, J. Normand, 
 K. Raghavachari, A. P. Rendell, J. C. Burant, S. S. Iyengar, 
 J. Tomasi, M. Cossi, J. M. Millam, M. Klene, C. Adamo, R. Cammi, 
 J. W. Ochterski, R. L. Martin, K. Morokuma, O. Farkas, 
 J. B. Foresman, and D. J. Fox, Gaussian, Inc., Wallingford CT, 2016.
 
 ******************************************
 Gaussian 16:  ES64L-G16RevB.01 20-Dec-2017
                18-Jul-2021 
 ******************************************
 %mem=800MB
 %nproc=4
 Will use up to    4 processors via shared memory.
 %chk=SET_328_BBB20_conf1.geo_090_075_180.chk
 -----------------------------------------------------------
 #p b3lyp/6-31G(d) opt freq scrf=(iefpcm,read,solvent=water)
 -----------------------------------------------------------
 1/18=20,19=15,26=3,38=1,40=2/1,3;
 2/9=110,12=2,17=6,18=5,40=1/2;
 3/5=1,6=6,7=1,11=2,25=1,30=1,70=2203,71=1,72=1,74=-5/1,2,3;
 4//1;
 5/5=2,38=5,53=1/2;
 6/7=2,8=2,9=2,10=2,28=1/1;
 7//1,2,3,16;
 1/18=20,19=15,26=3/3(2);
 2/9=110/2;
 99//99;
 2/9=110/2;
 3/5=1,6=6,7=1,11=2,25=1,30=1,70=2205,71=1,72=1,74=-5/1,2,3;
 4/5=5,16=3,69=1/1;
 5/5=2,38=5,53=1/2;
 7//1,2,3,16;
 1/18=20,19=15,26=3/3(-5);
 2/9=110/2;
 6/7=2,8=2,9=2,10=2,19=2,28=1/1;
 99/9=1/99;
 Leave Link    1 at Sun Jul 18 13:28:51 2021, MaxMem=   104857600 cpu:               0.1 elap:               0.0
 (Enter /prod/apps/gaussian/g16b1/l101.exe)
 --------------------------------------------
 SET_328_BBB20_conf1.geo_090_075_180 geometry
 --------------------------------------------
 Symbolic Z-matrix:
 Charge =  1 Multiplicity = 1
 N                    -3.034     2.102     2.351 
 H                    -2.887     1.341     2.984 
 H                    -4.002     2.147     2.102 
 C                    -2.196     1.888     1.096 
 H                    -1.15      1.907     1.41 
 H                    -2.341     2.641     0.317 
 C                    -2.547     0.514     0.501 
 H                    -3.567     0.515     0.111 
 H                    -2.328    -0.316     1.175 
 C                    -1.764     0.192    -0.794 
 H                    -1.831     1.126    -1.357 
 H                    -2.339    -0.597    -1.285 
 N                    -0.412    -0.198    -0.604 
 C                    -0.168    -1.581    -0.433 
 C                    -0.449    -2.596    -1.286 
 H                    -0.967    -2.459    -2.232 
 C                     0.099    -3.876    -1.186 
 H                     0.052    -4.601    -1.995 
 C                     0.893    -4.109    -0.044 
 H                     1.352    -5.082     0.108 
 C                     1.156    -3.113     0.857 
 H                     1.758    -3.319     1.738 
 C                     0.664    -1.883     0.672 
 C                     1.027    -0.804     1.708 
 H                     1.327    -1.241     2.663 
 H                     0.191    -0.14      1.941 
 C                     2.12      0.059     1.128 
 H                     2.969    -0.592     0.907 
 H                     2.478     0.787     1.859 
 C                     1.753     0.934    -0.069 
 C                     2.649     1.893    -0.483 
 H                     3.613     2.101    -0.024 
 C                     2.368     2.841    -1.466 
 H                     3.056     3.638    -1.735 
 C                     1.179     2.681    -2.22 
 H                     0.935     3.418    -2.981 
 C                     0.356     1.628    -1.931 
 H                    -0.483     1.568    -2.619 
 C                     0.581     0.75     -0.857 
 H                    -2.763     2.958     2.791 
 
 ITRead=  0  0  0  0  0  0  0  0  0  0  0  0  0  0  0  0  0  0  0  0
 ITRead=  0  0  0  0  0  0  0  0  0  0  0  0  0  0  0  0  0  0  0  0
 MicOpt= -1 -1 -1 -1 -1 -1 -1 -1 -1 -1 -1 -1 -1 -1 -1 -1 -1 -1 -1 -1
 MicOpt= -1 -1 -1 -1 -1 -1 -1 -1 -1 -1 -1 -1 -1 -1 -1 -1 -1 -1 -1 -1
 NAtoms=     40 NQM=       40 NQMF=       0 NMMI=      0 NMMIF=      0
                NMic=       0 NMicF=      0.
                    Isotopes and Nuclear Properties:
 (Nuclear quadrupole moments (NQMom) in fm**2, nuclear magnetic moments (NMagM)
  in nuclear magnetons)

  Atom         1           2           3           4           5           6           7           8           9          10
 IAtWgt=          14           1           1          12           1           1          12           1           1          12
 AtmWgt=  14.0030740   1.0078250   1.0078250  12.0000000   1.0078250   1.0078250  12.0000000   1.0078250   1.0078250  12.0000000
 NucSpn=           2           1           1           0           1           1           0           1           1           0
 AtZEff=  -0.0000000  -0.0000000  -0.0000000  -0.0000000  -0.0000000  -0.0000000  -0.0000000  -0.0000000  -0.0000000  -0.0000000
 NQMom=    2.0440000   0.0000000   0.0000000   0.0000000   0.0000000   0.0000000   0.0000000   0.0000000   0.0000000   0.0000000
 NMagM=    0.4037610   2.7928460   2.7928460   0.0000000   2.7928460   2.7928460   0.0000000   2.7928460   2.7928460   0.0000000
 AtZNuc=   7.0000000   1.0000000   1.0000000   6.0000000   1.0000000   1.0000000   6.0000000   1.0000000   1.0000000   6.0000000

  Atom        11          12          13          14          15          16          17          18          19          20
 IAtWgt=           1           1          14          12          12           1          12           1          12           1
 AtmWgt=   1.0078250   1.0078250  14.0030740  12.0000000  12.0000000   1.0078250  12.0000000   1.0078250  12.0000000   1.0078250
 NucSpn=           1           1           2           0           0           1           0           1           0           1
 AtZEff=  -0.0000000  -0.0000000  -0.0000000  -0.0000000  -0.0000000  -0.0000000  -0.0000000  -0.0000000  -0.0000000  -0.0000000
 NQMom=    0.0000000   0.0000000   2.0440000   0.0000000   0.0000000   0.0000000   0.0000000   0.0000000   0.0000000   0.0000000
 NMagM=    2.7928460   2.7928460   0.4037610   0.0000000   0.0000000   2.7928460   0.0000000   2.7928460   0.0000000   2.7928460
 AtZNuc=   1.0000000   1.0000000   7.0000000   6.0000000   6.0000000   1.0000000   6.0000000   1.0000000   6.0000000   1.0000000

  Atom        21          22          23          24          25          26          27          28          29          30
 IAtWgt=          12           1          12          12           1           1          12           1           1          12
 AtmWgt=  12.0000000   1.0078250  12.0000000  12.0000000   1.0078250   1.0078250  12.0000000   1.0078250   1.0078250  12.0000000
 NucSpn=           0           1           0           0           1           1           0           1           1           0
 AtZEff=  -0.0000000  -0.0000000  -0.0000000  -0.0000000  -0.0000000  -0.0000000  -0.0000000  -0.0000000  -0.0000000  -0.0000000
 NQMom=    0.0000000   0.0000000   0.0000000   0.0000000   0.0000000   0.0000000   0.0000000   0.0000000   0.0000000   0.0000000
 NMagM=    0.0000000   2.7928460   0.0000000   0.0000000   2.7928460   2.7928460   0.0000000   2.7928460   2.7928460   0.0000000
 AtZNuc=   6.0000000   1.0000000   6.0000000   6.0000000   1.0000000   1.0000000   6.0000000   1.0000000   1.0000000   6.0000000

  Atom        31          32          33          34          35          36          37          38          39          40
 IAtWgt=          12           1          12           1          12           1          12           1          12           1
 AtmWgt=  12.0000000   1.0078250  12.0000000   1.0078250  12.0000000   1.0078250  12.0000000   1.0078250  12.0000000   1.0078250
 NucSpn=           0           1           0           1           0           1           0           1           0           1
 AtZEff=  -0.0000000  -0.0000000  -0.0000000  -0.0000000  -0.0000000  -0.0000000  -0.0000000  -0.0000000  -0.0000000  -0.0000000
 NQMom=    0.0000000   0.0000000   0.0000000   0.0000000   0.0000000   0.0000000   0.0000000   0.0000000   0.0000000   0.0000000
 NMagM=    0.0000000   2.7928460   0.0000000   2.7928460   0.0000000   2.7928460   0.0000000   2.7928460   0.0000000   2.7928460
 AtZNuc=   6.0000000   1.0000000   6.0000000   1.0000000   6.0000000   1.0000000   6.0000000   1.0000000   6.0000000   1.0000000
 Leave Link  101 at Sun Jul 18 13:28:51 2021, MaxMem=   104857600 cpu:               0.5 elap:               0.1
 (Enter /prod/apps/gaussian/g16b1/l103.exe)

 GradGradGradGradGradGradGradGradGradGradGradGradGradGradGradGradGradGrad
 Berny optimization.
 Initialization pass.
                           ----------------------------
                           !    Initial Parameters    !
                           ! (Angstroms and Degrees)  !
 --------------------------                            --------------------------
 ! Name  Definition              Value          Derivative Info.                !
 --------------------------------------------------------------------------------
 ! R1    R(1,2)                  1.0007         estimate D2E/DX2                !
 ! R2    R(1,3)                  1.0005         estimate D2E/DX2                !
 ! R3    R(1,4)                  1.5242         estimate D2E/DX2                !
 ! R4    R(1,40)                 0.9999         estimate D2E/DX2                !
 ! R5    R(4,5)                  1.0923         estimate D2E/DX2                !
 ! R6    R(4,6)                  1.0931         estimate D2E/DX2                !
 ! R7    R(4,7)                  1.5379         estimate D2E/DX2                !
 ! R8    R(7,8)                  1.092          estimate D2E/DX2                !
 ! R9    R(7,9)                  1.0914         estimate D2E/DX2                !
 ! R10   R(7,10)                 1.5472         estimate D2E/DX2                !
 ! R11   R(10,11)                1.0926         estimate D2E/DX2                !
 ! R12   R(10,12)                1.0928         estimate D2E/DX2                !
 ! R13   R(10,13)                1.4199         estimate D2E/DX2                !
 ! R14   R(13,14)                1.4147         estimate D2E/DX2                !
 ! R15   R(13,39)                1.396          estimate D2E/DX2                !
 ! R16   R(14,15)                1.3553         estimate D2E/DX2                !
 ! R17   R(14,23)                1.4158         estimate D2E/DX2                !
 ! R18   R(15,16)                1.0872         estimate D2E/DX2                !
 ! R19   R(15,17)                1.396          estimate D2E/DX2                !
 ! R20   R(17,18)                1.0873         estimate D2E/DX2                !
 ! R21   R(17,19)                1.4103         estimate D2E/DX2                !
 ! R22   R(19,20)                1.0865         estimate D2E/DX2                !
 ! R23   R(19,21)                1.3686         estimate D2E/DX2                !
 ! R24   R(21,22)                1.0867         estimate D2E/DX2                !
 ! R25   R(21,23)                1.3376         estimate D2E/DX2                !
 ! R26   R(23,24)                1.5393         estimate D2E/DX2                !
 ! R27   R(24,25)                1.0922         estimate D2E/DX2                !
 ! R28   R(24,26)                1.0927         estimate D2E/DX2                !
 ! R29   R(24,27)                1.5086         estimate D2E/DX2                !
 ! R30   R(27,28)                1.0924         estimate D2E/DX2                !
 ! R31   R(27,29)                1.092          estimate D2E/DX2                !
 ! R32   R(27,30)                1.5275         estimate D2E/DX2                !
 ! R33   R(30,31)                1.3762         estimate D2E/DX2                !
 ! R34   R(30,39)                1.4242         estimate D2E/DX2                !
 ! R35   R(31,32)                1.0878         estimate D2E/DX2                !
 ! R36   R(31,33)                1.3943         estimate D2E/DX2                !
 ! R37   R(33,34)                1.0867         estimate D2E/DX2                !
 ! R38   R(33,35)                1.417          estimate D2E/DX2                !
 ! R39   R(35,36)                1.0871         estimate D2E/DX2                !
 ! R40   R(35,37)                1.3674         estimate D2E/DX2                !
 ! R41   R(37,38)                1.0867         estimate D2E/DX2                !
 ! R42   R(37,39)                1.4053         estimate D2E/DX2                !
 ! A1    A(2,1,3)              109.4963         estimate D2E/DX2                !
 ! A2    A(2,1,4)              109.4697         estimate D2E/DX2                !
 ! A3    A(2,1,40)             109.4425         estimate D2E/DX2                !
 ! A4    A(3,1,4)              109.4712         estimate D2E/DX2                !
 ! A5    A(3,1,40)             109.465          estimate D2E/DX2                !
 ! A6    A(4,1,40)             109.4828         estimate D2E/DX2                !
 ! A7    A(1,4,5)              106.7004         estimate D2E/DX2                !
 ! A8    A(1,4,6)              114.6546         estimate D2E/DX2                !
 ! A9    A(1,4,7)              108.5738         estimate D2E/DX2                !
 ! A10   A(5,4,6)              108.6577         estimate D2E/DX2                !
 ! A11   A(5,4,7)              110.2018         estimate D2E/DX2                !
 ! A12   A(6,4,7)              108.0266         estimate D2E/DX2                !
 ! A13   A(4,7,8)              110.5203         estimate D2E/DX2                !
 ! A14   A(4,7,9)              113.2488         estimate D2E/DX2                !
 ! A15   A(4,7,10)             113.2202         estimate D2E/DX2                !
 ! A16   A(8,7,9)              114.1218         estimate D2E/DX2                !
 ! A17   A(8,7,10)             100.0187         estimate D2E/DX2                !
 ! A18   A(9,7,10)             104.8965         estimate D2E/DX2                !
 ! A19   A(7,10,11)            102.847          estimate D2E/DX2                !
 ! A20   A(7,10,12)            105.0727         estimate D2E/DX2                !
 ! A21   A(7,10,13)            115.28           estimate D2E/DX2                !
 ! A22   A(11,10,12)           110.6955         estimate D2E/DX2                !
 ! A23   A(11,10,13)           111.2312         estimate D2E/DX2                !
 ! A24   A(12,10,13)           111.2736         estimate D2E/DX2                !
 ! A25   A(10,13,14)           116.6735         estimate D2E/DX2                !
 ! A26   A(10,13,39)           117.8098         estimate D2E/DX2                !
 ! A27   A(14,13,39)           124.2693         estimate D2E/DX2                !
 ! A28   A(13,14,15)           128.3372         estimate D2E/DX2                !
 ! A29   A(13,14,23)           113.842          estimate D2E/DX2                !
 ! A30   A(15,14,23)           116.9569         estimate D2E/DX2                !
 ! A31   A(14,15,16)           123.5084         estimate D2E/DX2                !
 ! A32   A(14,15,17)           124.0717         estimate D2E/DX2                !
 ! A33   A(16,15,17)           111.4022         estimate D2E/DX2                !
 ! A34   A(15,17,18)           122.7592         estimate D2E/DX2                !
 ! A35   A(15,17,19)           115.5002         estimate D2E/DX2                !
 ! A36   A(18,17,19)           121.1082         estimate D2E/DX2                !
 ! A37   A(17,19,20)           119.9393         estimate D2E/DX2                !
 ! A38   A(17,19,21)           121.4039         estimate D2E/DX2                !
 ! A39   A(20,19,21)           118.5841         estimate D2E/DX2                !
 ! A40   A(19,21,22)           120.1465         estimate D2E/DX2                !
 ! A41   A(19,21,23)           120.4962         estimate D2E/DX2                !
 ! A42   A(22,21,23)           119.3529         estimate D2E/DX2                !
 ! A43   A(14,23,21)           121.3489         estimate D2E/DX2                !
 ! A44   A(14,23,24)           120.9552         estimate D2E/DX2                !
 ! A45   A(21,23,24)           117.6951         estimate D2E/DX2                !
 ! A46   A(23,24,25)           111.8881         estimate D2E/DX2                !
 ! A47   A(23,24,26)           112.8951         estimate D2E/DX2                !
 ! A48   A(23,24,27)           108.2464         estimate D2E/DX2                !
 ! A49   A(25,24,26)           105.4748         estimate D2E/DX2                !
 ! A50   A(25,24,27)           111.4714         estimate D2E/DX2                !
 ! A51   A(26,24,27)           106.7779         estimate D2E/DX2                !
 ! A52   A(24,27,28)           107.4543         estimate D2E/DX2                !
 ! A53   A(24,27,29)           111.1939         estimate D2E/DX2                !
 ! A54   A(24,27,30)           117.0594         estimate D2E/DX2                !
 ! A55   A(28,27,29)           106.1354         estimate D2E/DX2                !
 ! A56   A(28,27,30)           111.6884         estimate D2E/DX2                !
 ! A57   A(29,27,30)           102.7946         estimate D2E/DX2                !
 ! A58   A(27,30,31)           118.5879         estimate D2E/DX2                !
 ! A59   A(27,30,39)           123.8692         estimate D2E/DX2                !
 ! A60   A(31,30,39)           117.3457         estimate D2E/DX2                !
 ! A61   A(30,31,32)           125.6832         estimate D2E/DX2                !
 ! A62   A(30,31,33)           123.6894         estimate D2E/DX2                !
 ! A63   A(32,31,33)           110.2486         estimate D2E/DX2                !
 ! A64   A(31,33,34)           123.0655         estimate D2E/DX2                !
 ! A65   A(31,33,35)           117.8722         estimate D2E/DX2                !
 ! A66   A(34,33,35)           118.8385         estimate D2E/DX2                !
 ! A67   A(33,35,36)           118.965          estimate D2E/DX2                !
 ! A68   A(33,35,37)           118.6555         estimate D2E/DX2                !
 ! A69   A(36,35,37)           122.34           estimate D2E/DX2                !
 ! A70   A(35,37,38)           111.9263         estimate D2E/DX2                !
 ! A71   A(35,37,39)           123.1126         estimate D2E/DX2                !
 ! A72   A(38,37,39)           124.9574         estimate D2E/DX2                !
 ! A73   A(13,39,30)           124.947          estimate D2E/DX2                !
 ! A74   A(13,39,37)           116.6723         estimate D2E/DX2                !
 ! A75   A(30,39,37)           118.286          estimate D2E/DX2                !
 ! D1    D(2,1,4,5)            -63.3491         estimate D2E/DX2                !
 ! D2    D(2,1,4,6)            176.3056         estimate D2E/DX2                !
 ! D3    D(2,1,4,7)             55.4122         estimate D2E/DX2                !
 ! D4    D(3,1,4,5)            176.6212         estimate D2E/DX2                !
 ! D5    D(3,1,4,6)             56.2759         estimate D2E/DX2                !
 ! D6    D(3,1,4,7)            -64.6175         estimate D2E/DX2                !
 ! D7    D(40,1,4,5)            56.6218         estimate D2E/DX2                !
 ! D8    D(40,1,4,6)           -63.7235         estimate D2E/DX2                !
 ! D9    D(40,1,4,7)           175.3831         estimate D2E/DX2                !
 ! D10   D(1,4,7,8)             68.0901         estimate D2E/DX2                !
 ! D11   D(1,4,7,9)            -61.3839         estimate D2E/DX2                !
 ! D12   D(1,4,7,10)           179.3566         estimate D2E/DX2                !
 ! D13   D(5,4,7,8)           -175.3792         estimate D2E/DX2                !
 ! D14   D(5,4,7,9)             55.1468         estimate D2E/DX2                !
 ! D15   D(5,4,7,10)           -64.1127         estimate D2E/DX2                !
 ! D16   D(6,4,7,8)            -56.8094         estimate D2E/DX2                !
 ! D17   D(6,4,7,9)            173.7165         estimate D2E/DX2                !
 ! D18   D(6,4,7,10)            54.4571         estimate D2E/DX2                !
 ! D19   D(4,7,10,11)          -44.5933         estimate D2E/DX2                !
 ! D20   D(4,7,10,12)         -160.4937         estimate D2E/DX2                !
 ! D21   D(4,7,10,13)           76.6366         estimate D2E/DX2                !
 ! D22   D(8,7,10,11)           72.9963         estimate D2E/DX2                !
 ! D23   D(8,7,10,12)          -42.904          estimate D2E/DX2                !
 ! D24   D(8,7,10,13)         -165.7738         estimate D2E/DX2                !
 ! D25   D(9,7,10,11)         -168.5509         estimate D2E/DX2                !
 ! D26   D(9,7,10,12)           75.5487         estimate D2E/DX2                !
 ! D27   D(9,7,10,13)          -47.321          estimate D2E/DX2                !
 ! D28   D(7,10,13,14)          89.8486         estimate D2E/DX2                !
 ! D29   D(7,10,13,39)        -102.3541         estimate D2E/DX2                !
 ! D30   D(11,10,13,14)       -153.5821         estimate D2E/DX2                !
 ! D31   D(11,10,13,39)         14.2152         estimate D2E/DX2                !
 ! D32   D(12,10,13,14)        -29.6561         estimate D2E/DX2                !
 ! D33   D(12,10,13,39)        138.1412         estimate D2E/DX2                !
 ! D34   D(10,13,14,15)         59.6276         estimate D2E/DX2                !
 ! D35   D(10,13,14,23)       -131.4585         estimate D2E/DX2                !
 ! D36   D(39,13,14,15)       -107.2972         estimate D2E/DX2                !
 ! D37   D(39,13,14,23)         61.6168         estimate D2E/DX2                !
 ! D38   D(10,13,39,30)        139.9362         estimate D2E/DX2                !
 ! D39   D(10,13,39,37)        -36.4533         estimate D2E/DX2                !
 ! D40   D(14,13,39,30)        -53.2757         estimate D2E/DX2                !
 ! D41   D(14,13,39,37)        130.3348         estimate D2E/DX2                !
 ! D42   D(13,14,15,16)         -3.2435         estimate D2E/DX2                !
 ! D43   D(13,14,15,17)        164.2153         estimate D2E/DX2                !
 ! D44   D(23,14,15,16)       -171.8636         estimate D2E/DX2                !
 ! D45   D(23,14,15,17)         -4.4049         estimate D2E/DX2                !
 ! D46   D(13,14,23,21)       -169.8001         estimate D2E/DX2                !
 ! D47   D(13,14,23,24)         10.5393         estimate D2E/DX2                !
 ! D48   D(15,14,23,21)          0.4582         estimate D2E/DX2                !
 ! D49   D(15,14,23,24)       -179.2024         estimate D2E/DX2                !
 ! D50   D(14,15,17,18)       -165.1877         estimate D2E/DX2                !
 ! D51   D(14,15,17,19)          5.7776         estimate D2E/DX2                !
 ! D52   D(16,15,17,18)          3.5988         estimate D2E/DX2                !
 ! D53   D(16,15,17,19)        174.5642         estimate D2E/DX2                !
 ! D54   D(15,17,19,20)        179.778          estimate D2E/DX2                !
 ! D55   D(15,17,19,21)         -3.3665         estimate D2E/DX2                !
 ! D56   D(18,17,19,20)         -9.0945         estimate D2E/DX2                !
 ! D57   D(18,17,19,21)        167.761          estimate D2E/DX2                !
 ! D58   D(17,19,21,22)        179.0714         estimate D2E/DX2                !
 ! D59   D(17,19,21,23)         -0.1583         estimate D2E/DX2                !
 ! D60   D(20,19,21,22)         -4.0316         estimate D2E/DX2                !
 ! D61   D(20,19,21,23)        176.7387         estimate D2E/DX2                !
 ! D62   D(19,21,23,14)          1.7195         estimate D2E/DX2                !
 ! D63   D(19,21,23,24)       -178.6092         estimate D2E/DX2                !
 ! D64   D(22,21,23,14)       -177.5162         estimate D2E/DX2                !
 ! D65   D(22,21,23,24)          2.155          estimate D2E/DX2                !
 ! D66   D(14,23,24,25)        157.9245         estimate D2E/DX2                !
 ! D67   D(14,23,24,26)         39.1215         estimate D2E/DX2                !
 ! D68   D(14,23,24,27)        -78.8588         estimate D2E/DX2                !
 ! D69   D(21,23,24,25)        -21.7481         estimate D2E/DX2                !
 ! D70   D(21,23,24,26)       -140.5511         estimate D2E/DX2                !
 ! D71   D(21,23,24,27)        101.4686         estimate D2E/DX2                !
 ! D72   D(23,24,27,28)        -59.1546         estimate D2E/DX2                !
 ! D73   D(23,24,27,29)       -174.9            estimate D2E/DX2                !
 ! D74   D(23,24,27,30)         67.403          estimate D2E/DX2                !
 ! D75   D(25,24,27,28)         64.3139         estimate D2E/DX2                !
 ! D76   D(25,24,27,29)        -51.4315         estimate D2E/DX2                !
 ! D77   D(25,24,27,30)       -169.1284         estimate D2E/DX2                !
 ! D78   D(26,24,27,28)        179.0253         estimate D2E/DX2                !
 ! D79   D(26,24,27,29)         63.2799         estimate D2E/DX2                !
 ! D80   D(26,24,27,30)        -54.417          estimate D2E/DX2                !
 ! D81   D(24,27,30,31)        169.2884         estimate D2E/DX2                !
 ! D82   D(24,27,30,39)        -15.9589         estimate D2E/DX2                !
 ! D83   D(28,27,30,31)        -66.2648         estimate D2E/DX2                !
 ! D84   D(28,27,30,39)        108.4879         estimate D2E/DX2                !
 ! D85   D(29,27,30,31)         47.1269         estimate D2E/DX2                !
 ! D86   D(29,27,30,39)       -138.1204         estimate D2E/DX2                !
 ! D87   D(27,30,31,32)         -0.657          estimate D2E/DX2                !
 ! D88   D(27,30,31,33)       -172.8935         estimate D2E/DX2                !
 ! D89   D(39,30,31,32)       -175.7528         estimate D2E/DX2                !
 ! D90   D(39,30,31,33)         12.0107         estimate D2E/DX2                !
 ! D91   D(27,30,39,13)          3.4434         estimate D2E/DX2                !
 ! D92   D(27,30,39,37)        179.7796         estimate D2E/DX2                !
 ! D93   D(31,30,39,13)        178.2563         estimate D2E/DX2                !
 ! D94   D(31,30,39,37)         -5.4075         estimate D2E/DX2                !
 ! D95   D(30,31,33,34)        175.4574         estimate D2E/DX2                !
 ! D96   D(30,31,33,35)        -10.0494         estimate D2E/DX2                !
 ! D97   D(32,31,33,34)          2.1735         estimate D2E/DX2                !
 ! D98   D(32,31,33,35)        176.6667         estimate D2E/DX2                !
 ! D99   D(31,33,35,36)        179.1018         estimate D2E/DX2                !
 ! D100  D(31,33,35,37)          1.3353         estimate D2E/DX2                !
 ! D101  D(34,33,35,36)         -6.1657         estimate D2E/DX2                !
 ! D102  D(34,33,35,37)        176.0677         estimate D2E/DX2                !
 ! D103  D(33,35,37,38)       -175.8608         estimate D2E/DX2                !
 ! D104  D(33,35,37,39)          4.8056         estimate D2E/DX2                !
 ! D105  D(36,35,37,38)          6.4521         estimate D2E/DX2                !
 ! D106  D(36,35,37,39)       -172.8816         estimate D2E/DX2                !
 ! D107  D(35,37,39,13)        173.8753         estimate D2E/DX2                !
 ! D108  D(35,37,39,30)         -2.7643         estimate D2E/DX2                !
 ! D109  D(38,37,39,13)         -5.3705         estimate D2E/DX2                !
 ! D110  D(38,37,39,30)        177.9899         estimate D2E/DX2                !
 --------------------------------------------------------------------------------
 Trust Radius=3.00D-01 FncErr=1.00D-07 GrdErr=1.00D-06 EigMax=2.50D+02 EigMin=1.00D-04
 Number of steps in this run=    237 maximum allowed number of steps=    240.
 GradGradGradGradGradGradGradGradGradGradGradGradGradGradGradGradGradGrad

 Leave Link  103 at Sun Jul 18 13:28:51 2021, MaxMem=   104857600 cpu:               0.1 elap:               0.0
 (Enter /prod/apps/gaussian/g16b1/l202.exe)
                          Input orientation:                          
 ---------------------------------------------------------------------
 Center     Atomic      Atomic             Coordinates (Angstroms)
 Number     Number       Type             X           Y           Z
 ---------------------------------------------------------------------
      1          7           0       -3.034000    2.102000    2.351000
      2          1           0       -2.887000    1.341000    2.984000
      3          1           0       -4.002000    2.147000    2.102000
      4          6           0       -2.196000    1.888000    1.096000
      5          1           0       -1.150000    1.907000    1.410000
      6          1           0       -2.341000    2.641000    0.317000
      7          6           0       -2.547000    0.514000    0.501000
      8          1           0       -3.567000    0.515000    0.111000
      9          1           0       -2.328000   -0.316000    1.175000
     10          6           0       -1.764000    0.192000   -0.794000
     11          1           0       -1.831000    1.126000   -1.357000
     12          1           0       -2.339000   -0.597000   -1.285000
     13          7           0       -0.412000   -0.198000   -0.604000
     14          6           0       -0.168000   -1.581000   -0.433000
     15          6           0       -0.449000   -2.596000   -1.286000
     16          1           0       -0.967000   -2.459000   -2.232000
     17          6           0        0.099000   -3.876000   -1.186000
     18          1           0        0.052000   -4.601000   -1.995000
     19          6           0        0.893000   -4.109000   -0.044000
     20          1           0        1.352000   -5.082000    0.108000
     21          6           0        1.156000   -3.113000    0.857000
     22          1           0        1.758000   -3.319000    1.738000
     23          6           0        0.664000   -1.883000    0.672000
     24          6           0        1.027000   -0.804000    1.708000
     25          1           0        1.327000   -1.241000    2.663000
     26          1           0        0.191000   -0.140000    1.941000
     27          6           0        2.120000    0.059000    1.128000
     28          1           0        2.969000   -0.592000    0.907000
     29          1           0        2.478000    0.787000    1.859000
     30          6           0        1.753000    0.934000   -0.069000
     31          6           0        2.649000    1.893000   -0.483000
     32          1           0        3.613000    2.101000   -0.024000
     33          6           0        2.368000    2.841000   -1.466000
     34          1           0        3.056000    3.638000   -1.735000
     35          6           0        1.179000    2.681000   -2.220000
     36          1           0        0.935000    3.418000   -2.981000
     37          6           0        0.356000    1.628000   -1.931000
     38          1           0       -0.483000    1.568000   -2.619000
     39          6           0        0.581000    0.750000   -0.857000
     40          1           0       -2.763000    2.958000    2.791000
 ---------------------------------------------------------------------
                    Distance matrix (angstroms):
                    1          2          3          4          5
     1  N    0.000000
     2  H    1.000709   0.000000
     3  H    1.000525   1.634254   0.000000
     4  C    1.524160   2.083563   2.083447   0.000000
     5  H    2.114938   2.411431   2.944549   1.092279   0.000000
     6  H    2.215384   3.016787   2.487807   1.093103   1.775355
     7  C    2.486245   2.639094   2.710519   1.537889   2.172174
     8  H    2.796472   3.065747   2.610887   2.176004   3.076842
     9  H    2.779953   2.516071   3.118970   2.209362   2.526784
    10  C    3.892560   4.105437   4.149396   2.575877   2.859342
    11  H    4.018588   4.472767   4.209556   2.594432   2.954659
    12  H    4.581280   4.720223   4.665498   3.444537   3.866104
    13  N    4.571314   4.622542   5.070460   3.228630   3.005306
    14  C    5.434069   5.254230   5.918088   4.299370   4.065356
    15  C    6.479290   6.298945   6.826302   5.369561   5.294981
    16  H    6.788159   6.732983   7.014985   5.610921   5.688551
    17  C    7.619878   7.315886   7.994102   6.610465   6.460829
    18  H    8.563955   8.290689   8.874448   7.530930   7.442640
    19  C    7.728769   7.291069   8.228237   6.841457   6.517685
    20  H    8.710792   8.215560   9.214108   7.883232   7.536666
    21  C    6.854514   6.380289   7.471452   6.025199   5.551923
    22  H    7.261286   6.696577   7.949041   6.569561   5.989585
    23  C    5.689857   5.324389   6.329088   4.751822   4.266068
    24  C    5.034879   4.642047   5.844183   4.243717   3.489650
    25  H    5.503755   4.952531   6.339677   4.965648   4.197075
    26  H    3.949087   3.571455   4.778864   3.244161   2.504087
    27  C    5.677437   5.491658   6.541201   4.687656   3.766634
    28  H    6.736377   6.507162   7.584523   5.732656   4.843983
    29  H    5.688008   5.509607   6.625636   4.862165   3.823400
    30  C    5.489626   5.569206   6.269341   4.226339   3.400232
    31  C    6.353875   6.555310   7.140206   5.095811   4.244531
    32  H    7.058558   7.202476   7.906340   5.919818   4.977968
    33  C    6.655615   7.047519   7.334109   5.319976   4.638971
    34  H    7.492849   7.928709   8.170741   6.217762   5.529722
    35  C    6.243288   6.738662   6.768131   4.797430   4.381805
    36  H    6.776064   7.382604   7.199048   5.363394   5.090307
    37  C    5.481998   5.895476   5.960421   3.967749   3.675345
    38  H    5.611921   6.101176   5.916624   4.103412   4.097884
    39  C    5.018704   5.208607   5.631268   3.580640   3.078035
    40  H    0.999888   1.633191   1.633268   2.083126   2.369289
                    6          7          8          9         10
     6  H    0.000000
     7  C    2.144859   0.000000
     8  H    2.462801   1.092017   0.000000
     9  H    3.078990   1.091392   1.832424   0.000000
    10  C    2.750427   1.547190   2.043077   2.110242   0.000000
    11  H    2.314649   2.083114   2.354154   2.955909   1.092618
    12  H    3.612624   2.113618   2.166413   2.476021   1.092807
    13  N    3.553759   2.507228   3.312645   2.617216   1.419896
    14  C    4.807256   3.304697   4.030180   2.975145   2.412689
    15  C    5.794432   4.155367   4.620807   3.845200   3.121575
    16  H    5.864749   4.336406   4.592856   4.248814   3.119432
    17  C    7.119262   5.396238   5.865377   4.913069   4.491443
    18  H    7.969840   6.256840   6.611040   5.837339   5.264324
    19  C    7.493436   5.788156   6.426274   5.123246   5.110846
    20  H    8.563099   6.831681   7.451374   6.115198   6.191780
    21  C    6.754933   5.195582   6.002135   4.479128   4.709058
    22  H    7.371746   5.895344   6.760348   5.101997   5.580558
    23  C    5.442667   4.010657   4.895558   3.414757   3.514252
    24  C    5.014612   3.995929   5.039346   3.431947   3.878363
    25  H    5.833341   4.770969   5.792018   4.053245   4.853722
    26  H    4.096628   3.161955   4.230897   2.638767   3.378235
    27  C    5.217755   4.730861   5.795187   4.464027   4.335577
    28  H    6.244717   5.640419   6.676703   5.310952   5.090122
    29  H    5.388677   5.212420   6.298533   4.978162   5.038551
    30  C    4.452379   4.357901   5.339509   4.445739   3.666808
    31  C    5.108777   5.465191   6.394558   5.692027   4.739693
    32  H    5.988155   6.382773   7.354320   6.524950   5.757544
    33  C    5.039223   5.782840   6.566691   6.244513   4.954009
    34  H    5.859379   6.793576   7.551488   7.286266   5.999400
    35  C    4.339167   5.097333   5.713986   5.727747   4.109726
    36  H    4.713036   5.716805   6.185134   6.470105   4.740743
    37  C    3.654242   3.947535   4.560533   4.542051   2.801654
    38  H    3.636425   3.886568   4.251207   4.620381   2.620107
    39  C    3.673179   3.418222   4.265929   3.705086   2.411298
    40  H    2.529674   3.356172   3.714440   3.676922   4.636915
                   11         12         13         14         15
    11  H    0.000000
    12  H    1.797770   0.000000
    13  N    2.081717   2.082376   0.000000
    14  C    3.308654   2.531284   1.414732   0.000000
    15  C    3.970925   2.751018   2.493371   1.355284   0.000000
    16  H    3.790032   2.499247   2.840868   2.155385   1.087202
    17  C    5.364154   4.087235   3.758661   2.430087   1.395960
    18  H    6.062282   4.717308   4.640753   3.407146   2.184881
    19  C    6.045607   4.931536   4.160835   2.769084   2.373330
    20  H    7.128603   5.973203   5.241383   3.854878   3.371503
    21  C    5.638536   4.809724   3.618062   2.400854   2.726860
    22  H    6.497536   5.773493   4.464807   3.382804   3.812893
    23  C    4.404083   3.808104   2.371746   1.415787   2.362393
    24  C    4.613815   4.508975   2.789857   2.572088   3.788651
    25  H    5.633476   5.425956   3.845160   3.454829   4.537048
    26  H    4.070386   4.125145   2.616104   2.800221   4.105492
    27  C    4.787913   5.112298   3.078457   3.218892   4.413183
    28  H    5.578281   5.742800   3.724180   3.551688   4.528575
    29  H    5.387491   5.916391   3.922843   4.226346   5.468367
    30  C    3.813248   4.535094   2.500975   3.185587   4.334835
    31  C    4.628452   5.632357   3.708995   4.472881   5.513033
    32  H    5.688994   6.655496   4.671448   5.293427   6.336742
    33  C    4.537037   5.831677   4.207964   5.201199   6.126080
    34  H    5.507794   6.873409   5.293494   6.271151   7.165848
    35  C    3.496126   4.898554   3.664884   4.813774   5.600845
    36  H    3.942258   5.451212   4.532107   5.718296   6.399740
    37  C    2.316128   3.554007   2.384330   3.579981   4.348129
    38  H    1.898713   3.148256   2.680303   3.846300   4.372292
    39  C    2.491811   3.244070   1.395981   2.484822   3.527132
    40  H    4.629336   5.425088   5.197457   6.142534   7.267974
                   16         17         18         19         20
    16  H    0.000000
    17  C    2.058728   0.000000
    18  H    2.383840   1.087343   0.000000
    19  C    3.312015   1.410280   2.180767   0.000000
    20  H    4.211115   2.167690   2.518724   1.086515   0.000000
    21  C    3.804835   2.423482   3.401009   1.368571   2.115745
    22  H    4.891434   3.407683   4.299913   2.132569   2.435140
    23  C    3.380111   2.782703   3.856807   2.349505   3.320398
    24  C    4.715788   4.321297   5.392591   3.743058   4.578964
    25  H    5.541388   4.823485   5.883212   3.967572   4.613234
    26  H    4.912500   4.872811   5.950793   4.492882   5.397330
    27  C    5.211477   4.992320   5.978742   4.500149   5.297179
    28  H    5.369460   4.837583   5.744787   4.193264   4.838718
    29  H    6.256263   6.056008   7.054739   5.486752   6.227282
    30  C    4.856894   5.207639   6.102385   5.115865   6.031947
    31  C    5.922361   6.346501   7.155598   6.268992   7.119137
    32  H    6.829734   7.030147   7.841069   6.779594   7.531602
    33  C    6.308643   7.095410   7.811982   7.245703   8.141478
    34  H    7.321540   8.093543   8.773411   8.219128   9.074066
    35  C    5.570014   6.725311   7.372128   7.135886   8.106398
    36  H    6.222358   7.558000   8.127499   8.079818   9.053497
    37  C    4.306332   5.560134   6.236742   6.063193   7.083335
    38  H    4.074402   5.659448   6.223517   6.383755   7.417968
    39  C    3.818980   4.662665   5.496188   4.936415   5.961366
    40  H    7.602633   8.408991   9.379153   8.446659   9.421959
                   21         22         23         24         25
    21  C    0.000000
    22  H    1.086739   0.000000
    23  C    1.337606   2.096494   0.000000
    24  C    2.464208   2.619253   1.539255   0.000000
    25  H    2.606772   2.315053   2.194496   1.092243   0.000000
    26  H    3.308324   3.550034   2.207292   1.092740   1.738960
    27  C    3.326307   3.451670   2.469663   1.508581   2.162192
    28  H    3.105626   3.097355   2.652344   2.111376   2.490161
    29  H    4.238123   4.170405   3.439254   2.158584   2.466577
    30  C    4.194293   4.620961   3.109741   2.589488   3.517943
    31  C    5.393022   5.735126   4.419550   3.834733   4.633245
    32  H    5.830850   5.993502   5.005324   4.257493   4.859499
    33  C    6.505028   6.970173   5.458098   5.015833   5.898733
    34  H    7.476929   7.883298   6.480490   5.975153   6.792384
    35  C    6.560403   7.211172   5.427613   5.253334   6.264797
    36  H    7.578459   8.266405   6.443481   6.310346   7.329030
    37  C    5.557880   6.316643   4.381506   4.428000   5.502621
    38  H    6.056456   6.920137   4.904660   5.160369   6.250288
    39  C    4.265113   4.967506   3.045886   3.032005   4.112298
    40  H    7.480372   7.806983   6.298394   5.448819   5.863112
                   26         27         28         29         30
    26  H    0.000000
    27  C    2.102763   0.000000
    28  H    2.998457   1.092448   0.000000
    29  H    2.469093   1.092021   1.746146   0.000000
    30  C    2.762864   1.527456   2.181721   2.065047   0.000000
    31  C    4.006324   2.497743   2.865262   2.595658   1.376188
    32  H    4.537994   2.779553   2.921258   2.561349   2.196250
    33  C    5.023280   3.811806   4.216375   3.909813   2.442639
    34  H    5.999540   4.677831   4.988049   4.623756   3.432926
    35  C    5.123291   4.355395   4.867726   4.681119   2.829892
    36  H    6.118740   5.437921   5.944224   5.720892   3.913965
    37  C    4.259746   3.864057   4.450889   4.424281   2.429051
    38  H    4.915805   4.805486   5.386518   5.424939   3.450239
    39  C    2.961926   2.605039   3.258098   3.313100   1.424213
    40  H    4.364198   5.917217   7.000556   5.748908   5.715805
                   31         32         33         34         35
    31  C    0.000000
    32  H    1.087769   0.000000
    33  C    1.394258   2.043768   0.000000
    34  H    2.185904   2.366461   1.086699   0.000000
    35  C    2.408114   3.329140   1.416982   2.161991   0.000000
    36  H    3.391670   4.201193   2.163710   2.469728   1.087118
    37  C    2.724845   3.803739   2.394940   3.371723   1.367355
    38  H    3.804937   4.878046   3.328384   4.194148   2.039660
    39  C    2.392269   3.422297   2.817185   3.903467   2.438059
    40  H    6.414284   7.022254   6.668051   7.403232   6.381709
                   36         37         38         39         40
    36  H    0.000000
    37  C    2.154493   0.000000
    38  H    2.358870   1.086676   0.000000
    39  C    3.428544   1.405342   2.214919   0.000000
    40  H    6.870429   5.813290   6.033125   5.418995   0.000000
 Stoichiometry    C17H21N2(1+)
 Framework group  C1[X(C17H21N2)]
 Deg. of freedom   114
 Full point group                 C1      NOp   1
 Largest Abelian subgroup         C1      NOp   1
 Largest concise Abelian subgroup C1      NOp   1
                         Standard orientation:                         
 ---------------------------------------------------------------------
 Center     Atomic      Atomic             Coordinates (Angstroms)
 Number     Number       Type             X           Y           Z
 ---------------------------------------------------------------------
      1          7           0        2.698503    3.468082    1.079488
      2          1           0        1.924819    3.724863    1.659915
      3          1           0        2.916285    4.223035    0.460080
      4          6           0        2.334659    2.231902    0.265522
      5          1           0        2.165947    1.423681    0.980636
      6          1           0        3.099805    1.913947   -0.447452
      7          6           0        1.044900    2.524368   -0.519391
      8          1           0        1.228450    3.274447   -1.291526
      9          1           0        0.190482    2.745134    0.122768
     10          6           0        0.584621    1.338510   -1.400118
     11          1           0        1.514250    1.010832   -1.871531
     12          1           0       -0.089178    1.778414   -2.139515
     13          7           0       -0.041706    0.272254   -0.702322
     14          6           0       -1.445673    0.352441   -0.547684
     15          6           0       -2.395416    0.416012   -1.512434
     16          1           0       -2.169520    0.463538   -2.574847
     17          6           0       -3.752870    0.177822   -1.290429
     18          1           0       -4.459319    0.002701   -2.098252
     19          6           0       -4.122410   -0.019316    0.056221
     20          1           0       -5.161756   -0.206745    0.311455
     21          6           0       -3.188019   -0.043707    1.055873
     22          1           0       -3.497031   -0.182051    2.088527
     23          6           0       -1.889998    0.117273    0.775843
     24          6           0       -0.891654    0.045915    1.945254
     25          1           0       -1.373445    0.246448    2.904763
     26          1           0       -0.087671    0.781430    1.863340
     27          6           0       -0.240468   -1.314776    1.928025
     28          1           0       -1.033974   -2.059068    2.027120
     29          1           0        0.412850   -1.450765    2.792427
     30          6           0        0.683718   -1.627993    0.752908
     31          6           0        1.465111   -2.759233    0.813009
     32          1           0        1.497370   -3.464891    1.640201
     33          6           0        2.446098   -3.072406   -0.126960
     34          1           0        3.105837   -3.930676   -0.031928
     35          6           0        2.500886   -2.296025   -1.311049
     36          1           0        3.268130   -2.515311   -2.049342
     37          6           0        1.613634   -1.266599   -1.461802
     38          1           0        1.704003   -0.792291   -2.435316
     39          6           0        0.711768   -0.877008   -0.456893
     40          1           0        3.492760    3.267888    1.652948
 ---------------------------------------------------------------------
 Rotational constants (GHZ):           0.4443511           0.3316004           0.2564740
 Leave Link  202 at Sun Jul 18 13:28:51 2021, MaxMem=   104857600 cpu:               0.1 elap:               0.0
 (Enter /prod/apps/gaussian/g16b1/l301.exe)
 Standard basis: 6-31G(d) (6D, 7F)
 Ernie: Thresh=  0.10000D-02 Tol=  0.10000D-05 Strict=F.
 There are   327 symmetry adapted cartesian basis functions of A   symmetry.
 There are   327 symmetry adapted basis functions of A   symmetry.
   327 basis functions,   616 primitive gaussians,   327 cartesian basis functions
    68 alpha electrons       68 beta electrons
       nuclear repulsion energy      1445.4047233659 Hartrees.
 IExCor=  402 DFT=T Ex+Corr=B3LYP ExCW=0 ScaHFX=  0.200000
 ScaDFX=  0.800000  0.720000  1.000000  0.810000 ScalE2=  1.000000  1.000000
 IRadAn=      5 IRanWt=     -1 IRanGd=            0 ICorTp=0 IEmpDi=  4
 NAtoms=   40 NActive=   40 NUniq=   40 SFac= 1.00D+00 NAtFMM=   60 NAOKFM=F Big=F
 Integral buffers will be    131072 words long.
 Raffenetti 2 integral format.
 Two-electron integral symmetry is turned on.
 Using the following non-standard input for PCM:
 MSTModel=DFT cav MSTCharged
 --- end of non-standard input.
 MST model for solvation energy: B3LYP parametrization.
 MST cavity parameters:
 ISph   IAn     Re0     Alpha   Atom Type   QCorr
 ------------------------------------------------
   1      7     1.70     1.15      NH         T
   2      1     0.90     1.15      NH         T
   3      1     0.90     1.15      NH         T
   4      6     1.50     1.25      CH2        F
   5      1     1.20     1.25      CH2        F
   6      1     1.20     1.25      CH2        F
   7      6     1.50     1.25      CH2        F
   8      1     1.20     1.25      CH2        F
   9      1     1.20     1.25      CH2        F
  10      6     1.50     1.25      CH2        F
  11      1     1.20     1.25      CH2        F
  12      1     1.20     1.25      CH2        F
  13      7     1.40     1.25      N          F
  14      6     1.50     1.25      C          F
  15      6     1.50     1.25      CH         F
  16      1     1.20     1.25      CH         F
  17      6     1.50     1.25      CH         F
  18      1     1.20     1.25      CH         F
  19      6     1.50     1.25      CH         F
  20      1     1.20     1.25      CH         F
  21      6     1.50     1.25      CH         F
  22      1     1.20     1.25      CH         F
  23      6     1.50     1.25      C          F
  24      6     1.50     1.25      CH2        F
  25      1     1.20     1.25      CH2        F
  26      1     1.20     1.25      CH2        F
  27      6     1.50     1.25      CH2        F
  28      1     1.20     1.25      CH2        F
  29      1     1.20     1.25      CH2        F
  30      6     1.50     1.25      C          F
  31      6     1.50     1.25      CH         F
  32      1     1.20     1.25      CH         F
  33      6     1.50     1.25      CH         F
  34      1     1.20     1.25      CH         F
  35      6     1.50     1.25      CH         F
  36      1     1.20     1.25      CH         F
  37      6     1.50     1.25      CH         F
  38      1     1.20     1.25      CH         F
  39      6     1.50     1.25      C          F
  40      1     0.90     1.15      NH         T
 ------------------------------------------------------------------------------
 Polarizable Continuum Model (PCM)
 =================================
 Model                : PCM.
 Atomic radii         : MST.
 Polarization charges : Total charges.
 Charge compensation  : None.
 Solution method      : On-the-fly selection.
 Cavity type          : Scaled VdW (van der Waals Surface) (Alpha=1.250).
 Cavity algorithm     : GePol (No added spheres)
                        Default sphere list used, NSphG=   40.
                        Lebedev-Laikov grids with approx.  5.0 points / Ang**2.
                        Smoothing algorithm: York/Karplus (Gamma=1.0000).
                        Polarization charges: spherical gaussians, with
                                              point-specific exponents (IZeta= 3).
                        Self-potential: point-specific (ISelfS= 7).
                        Self-field    : sphere-specific E.n sum rule (ISelfD= 2).
 1st derivatives      : Analytical E(r).r(x)/FMM algorithm (CHGder, D1EAlg=3).
                        Cavity 1st derivative terms included.
 Solvent              : Water, Eps=  78.355300 Eps(inf)=   1.777849
 ------------------------------------------------------------------------------
 GePol: Number of generator spheres                  =      40
 GePol: Total number of spheres                      =      40
 GePol: Number of exposed spheres                    =      40 (100.00%)
 GePol: Number of points                             =    2655
 GePol: Average weight of points                     =       0.12
 GePol: Minimum weight of points                     =   0.12D-09
 GePol: Maximum weight of points                     =    0.21416
 GePol: Number of points with low weight             =     186
 GePol: Fraction of low-weight points (<1% of avg)   =       7.01%
 GePol: Cavity surface area                          =    330.191 Ang**2
 GePol: Cavity volume                                =    327.797 Ang**3
 PCM non-electrostatic energy =         0.0015669627 Hartrees.
 Nuclear repulsion after PCM non-electrostatic terms =     1445.4062903286 Hartrees.
 Leave Link  301 at Sun Jul 18 13:28:51 2021, MaxMem=   104857600 cpu:               0.3 elap:               0.1
 (Enter /prod/apps/gaussian/g16b1/l302.exe)
 NPDir=0 NMtPBC=     1 NCelOv=     1 NCel=       1 NClECP=     1 NCelD=      1
         NCelK=      1 NCelE2=     1 NClLst=     1 CellRange=     0.0.
 One-electron integrals computed using PRISM.
 One-electron integral symmetry used in STVInt
 NBasis=   327 RedAO= T EigKep=  3.67D-04  NBF=   327
 NBsUse=   327 1.00D-06 EigRej= -1.00D+00 NBFU=   327
 Precomputing XC quadrature grid using
 IXCGrd= 4 IRadAn=           5 IRanWt=          -1 IRanGd=           0 AccXCQ= 0.00D+00.
 Generated NRdTot=       0 NPtTot=           0 NUsed=           0 NTot=          32
 NSgBfM=   326   326   326   326   326 MxSgAt=    40 MxSgA2=    40.
 Leave Link  302 at Sun Jul 18 13:28:52 2021, MaxMem=   104857600 cpu:               2.2 elap:               0.6
 (Enter /prod/apps/gaussian/g16b1/l303.exe)
 DipDrv:  MaxL=1.
 Leave Link  303 at Sun Jul 18 13:28:52 2021, MaxMem=   104857600 cpu:               0.2 elap:               0.1
 (Enter /prod/apps/gaussian/g16b1/l401.exe)
 ExpMin= 1.61D-01 ExpMax= 4.17D+03 ExpMxC= 6.27D+02 IAcc=3 IRadAn=         5 AccDes= 0.00D+00
 Harris functional with IExCor=  402 and IRadAn=       5 diagonalized for initial guess.
 HarFok:  IExCor=  402 AccDes= 0.00D+00 IRadAn=         5 IDoV= 1 UseB2=F ITyADJ=14
 ICtDFT=  3500011 ScaDFX=  1.000000  1.000000  1.000000  1.000000
 FoFCou: FMM=F IPFlag=           0 FMFlag=      100000 FMFlg1=           0
         NFxFlg=           0 DoJE=T BraDBF=F KetDBF=T FulRan=T
         wScrn=  0.000000 ICntrl=       500 IOpCl=  0 I1Cent=   200000004 NGrid=           0
         NMat0=    1 NMatS0=      1 NMatT0=    0 NMatD0=    1 NMtDS0=    0 NMtDT0=    0
 Petite list used in FoFCou.
 Harris En= -769.739783931934    
 JPrj=0 DoOrth=F DoCkMO=F.
 Leave Link  401 at Sun Jul 18 13:28:55 2021, MaxMem=   104857600 cpu:              12.1 elap:               3.0
 (Enter /prod/apps/gaussian/g16b1/l502.exe)
 Integral symmetry usage will be decided dynamically.
 Closed shell SCF:
 Using DIIS extrapolation, IDIIS=  1040.
 NGot=   104857600 LenX=   104637967 LenY=   104530597
 Requested convergence on RMS density matrix=1.00D-08 within 128 cycles.
 Requested convergence on MAX density matrix=1.00D-06.
 Requested convergence on             energy=1.00D-06.
 No special actions if energy rises.
 Fock matrices will be formed incrementally for  20 cycles.

 Cycle   1  Pass 1  IDiag  1:
 FoFJK:  IHMeth= 1 ICntrl=       0 DoSepK=F KAlg= 0 I1Cent=           0 FoldK=F
 IRaf= 850000000 NMat=       1 IRICut=       1 DoRegI=T DoRafI=F ISym2E= 0 IDoP0=0 IntGTp=1.
 FoFCou: FMM=F IPFlag=           0 FMFlag=      100000 FMFlg1=           0
         NFxFlg=           0 DoJE=F BraDBF=F KetDBF=F FulRan=T
         wScrn=  0.000000 ICntrl=         0 IOpCl=  0 I1Cent=           0 NGrid=           0
         NMat0=    1 NMatS0=      1 NMatT0=    0 NMatD0=    1 NMtDS0=    0 NMtDT0=    0
 Symmetry not used in FoFCou.
 Inv3:  Mode=1 IEnd=    21147075.
 Iteration    1 A*A^-1 deviation from unit magnitude is 3.00D-15 for   1849.
 Iteration    1 A*A^-1 deviation from orthogonality  is 2.30D-15 for   2011   1144.
 Iteration    1 A^-1*A deviation from unit magnitude is 3.11D-15 for    215.
 Iteration    1 A^-1*A deviation from orthogonality  is 3.24D-14 for   2067   2011.
 E= -769.363414571410    
 DIIS: error= 2.17D-02 at cycle   1 NSaved=   1.
 NSaved= 1 IEnMin= 1 EnMin= -769.363414571410     IErMin= 1 ErrMin= 2.17D-02
 ErrMax= 2.17D-02  0.00D+00 EMaxC= 1.00D-01 BMatC= 3.89D-01 BMatP= 3.89D-01
 IDIUse=3 WtCom= 7.83D-01 WtEn= 2.17D-01
 Coeff-Com:  0.100D+01
 Coeff-En:   0.100D+01
 Coeff:      0.100D+01
 Gap=     0.218 Goal=   None    Shift=    0.000
 GapD=    0.218 DampG=1.000 DampE=0.500 DampFc=0.5000 IDamp=-1.
 Damping current iteration by 5.00D-01
 RMSDP=4.21D-03 MaxDP=1.04D-01              OVMax= 1.75D-01

 Cycle   2  Pass 1  IDiag  1:
 RMSU=  2.05D-03    CP:  9.74D-01
 E= -769.567681451169     Delta-E=       -0.204266879759 Rises=F Damp=T
 DIIS: error= 4.98D-03 at cycle   2 NSaved=   2.
 NSaved= 2 IEnMin= 2 EnMin= -769.567681451169     IErMin= 2 ErrMin= 4.98D-03
 ErrMax= 4.98D-03  0.00D+00 EMaxC= 1.00D-01 BMatC= 2.36D-02 BMatP= 3.89D-01
 IDIUse=3 WtCom= 9.50D-01 WtEn= 4.98D-02
 Coeff-Com: -0.145D-01 0.101D+01
 Coeff-En:   0.000D+00 0.100D+01
 Coeff:     -0.137D-01 0.101D+01
 Gap=     0.206 Goal=   None    Shift=    0.000
 RMSDP=1.14D-03 MaxDP=3.97D-02 DE=-2.04D-01 OVMax= 1.27D-01

 Cycle   3  Pass 1  IDiag  1:
 RMSU=  1.12D-03    CP:  9.63D-01  1.00D+00
 E= -769.767608215346     Delta-E=       -0.199926764177 Rises=F Damp=F
 DIIS: error= 4.31D-03 at cycle   3 NSaved=   3.
 NSaved= 3 IEnMin= 3 EnMin= -769.767608215346     IErMin= 3 ErrMin= 4.31D-03
 ErrMax= 4.31D-03  0.00D+00 EMaxC= 1.00D-01 BMatC= 1.66D-02 BMatP= 2.36D-02
 IDIUse=3 WtCom= 9.57D-01 WtEn= 4.31D-02
 Coeff-Com: -0.518D-01 0.475D+00 0.577D+00
 Coeff-En:   0.000D+00 0.000D+00 0.100D+01
 Coeff:     -0.496D-01 0.454D+00 0.595D+00
 Gap=     0.198 Goal=   None    Shift=    0.000
 RMSDP=7.09D-04 MaxDP=3.35D-02 DE=-2.00D-01 OVMax= 8.14D-02

 Cycle   4  Pass 1  IDiag  1:
 RMSU=  5.80D-04    CP:  9.63D-01  1.05D+00  6.47D-01
 E= -769.778470738690     Delta-E=       -0.010862523345 Rises=F Damp=F
 DIIS: error= 2.74D-03 at cycle   4 NSaved=   4.
 NSaved= 4 IEnMin= 4 EnMin= -769.778470738690     IErMin= 4 ErrMin= 2.74D-03
 ErrMax= 2.74D-03  0.00D+00 EMaxC= 1.00D-01 BMatC= 5.97D-03 BMatP= 1.66D-02
 IDIUse=3 WtCom= 9.73D-01 WtEn= 2.74D-02
 Coeff-Com: -0.252D-01 0.104D+00 0.390D+00 0.531D+00
 Coeff-En:   0.000D+00 0.000D+00 0.304D+00 0.696D+00
 Coeff:     -0.245D-01 0.101D+00 0.388D+00 0.536D+00
 Gap=     0.187 Goal=   None    Shift=    0.000
 RMSDP=3.23D-04 MaxDP=1.41D-02 DE=-1.09D-02 OVMax= 3.30D-02

 Cycle   5  Pass 1  IDiag  1:
 RMSU=  1.05D-04    CP:  9.63D-01  1.05D+00  7.55D-01  5.16D-01
 E= -769.784726891704     Delta-E=       -0.006256153013 Rises=F Damp=F
 DIIS: error= 2.76D-04 at cycle   5 NSaved=   5.
 NSaved= 5 IEnMin= 5 EnMin= -769.784726891704     IErMin= 5 ErrMin= 2.76D-04
 ErrMax= 2.76D-04  0.00D+00 EMaxC= 1.00D-01 BMatC= 1.21D-04 BMatP= 5.97D-03
 IDIUse=3 WtCom= 9.97D-01 WtEn= 2.76D-03
 Coeff-Com: -0.794D-02 0.209D-01 0.140D+00 0.234D+00 0.613D+00
 Coeff-En:   0.000D+00 0.000D+00 0.000D+00 0.000D+00 0.100D+01
 Coeff:     -0.792D-02 0.209D-01 0.140D+00 0.233D+00 0.614D+00
 Gap=     0.187 Goal=   None    Shift=    0.000
 RMSDP=5.17D-05 MaxDP=1.50D-03 DE=-6.26D-03 OVMax= 3.79D-03

 Cycle   6  Pass 1  IDiag  1:
 RMSU=  3.44D-05    CP:  9.63D-01  1.05D+00  7.59D-01  5.55D-01  7.06D-01
 E= -769.784832573632     Delta-E=       -0.000105681929 Rises=F Damp=F
 DIIS: error= 1.29D-04 at cycle   6 NSaved=   6.
 NSaved= 6 IEnMin= 6 EnMin= -769.784832573632     IErMin= 6 ErrMin= 1.29D-04
 ErrMax= 1.29D-04  0.00D+00 EMaxC= 1.00D-01 BMatC= 1.79D-05 BMatP= 1.21D-04
 IDIUse=3 WtCom= 9.99D-01 WtEn= 1.29D-03
 Coeff-Com: -0.224D-02 0.311D-02 0.433D-01 0.798D-01 0.333D+00 0.543D+00
 Coeff-En:   0.000D+00 0.000D+00 0.000D+00 0.000D+00 0.760D-01 0.924D+00
 Coeff:     -0.224D-02 0.311D-02 0.432D-01 0.797D-01 0.333D+00 0.543D+00
 Gap=     0.187 Goal=   None    Shift=    0.000
 RMSDP=1.55D-05 MaxDP=8.49D-04 DE=-1.06D-04 OVMax= 1.56D-03

 Cycle   7  Pass 1  IDiag  1:
 RMSU=  7.32D-06    CP:  9.63D-01  1.05D+00  7.60D-01  5.55D-01  7.57D-01
                    CP:  6.35D-01
 E= -769.784850154897     Delta-E=       -0.000017581265 Rises=F Damp=F
 DIIS: error= 2.99D-05 at cycle   7 NSaved=   7.
 NSaved= 7 IEnMin= 7 EnMin= -769.784850154897     IErMin= 7 ErrMin= 2.99D-05
 ErrMax= 2.99D-05  0.00D+00 EMaxC= 1.00D-01 BMatC= 7.02D-07 BMatP= 1.79D-05
 IDIUse=1 WtCom= 1.00D+00 WtEn= 0.00D+00
 Coeff-Com: -0.739D-03 0.646D-03 0.149D-01 0.274D-01 0.135D+00 0.262D+00
 Coeff-Com:  0.560D+00
 Coeff:     -0.739D-03 0.646D-03 0.149D-01 0.274D-01 0.135D+00 0.262D+00
 Coeff:      0.560D+00
 Gap=     0.187 Goal=   None    Shift=    0.000
 RMSDP=3.79D-06 MaxDP=1.97D-04 DE=-1.76D-05 OVMax= 3.66D-04

 Cycle   8  Pass 1  IDiag  1:
 RMSU=  2.68D-06    CP:  9.63D-01  1.05D+00  7.61D-01  5.56D-01  7.57D-01
                    CP:  6.52D-01  6.71D-01
 E= -769.784850807601     Delta-E=       -0.000000652704 Rises=F Damp=F
 DIIS: error= 1.07D-05 at cycle   8 NSaved=   8.
 NSaved= 8 IEnMin= 8 EnMin= -769.784850807601     IErMin= 8 ErrMin= 1.07D-05
 ErrMax= 1.07D-05  0.00D+00 EMaxC= 1.00D-01 BMatC= 9.92D-08 BMatP= 7.02D-07
 IDIUse=1 WtCom= 1.00D+00 WtEn= 0.00D+00
 Coeff-Com:  0.376D-04-0.296D-03-0.620D-04-0.794D-03 0.105D-01 0.370D-01
 Coeff-Com:  0.287D+00 0.667D+00
 Coeff:      0.376D-04-0.296D-03-0.620D-04-0.794D-03 0.105D-01 0.370D-01
 Coeff:      0.287D+00 0.667D+00
 Gap=     0.187 Goal=   None    Shift=    0.000
 RMSDP=1.26D-06 MaxDP=5.30D-05 DE=-6.53D-07 OVMax= 1.11D-04

 Cycle   9  Pass 1  IDiag  1:
 RMSU=  6.48D-07    CP:  9.63D-01  1.05D+00  7.61D-01  5.55D-01  7.61D-01
                    CP:  6.58D-01  7.58D-01  7.57D-01
 E= -769.784850912457     Delta-E=       -0.000000104856 Rises=F Damp=F
 DIIS: error= 1.75D-06 at cycle   9 NSaved=   9.
 NSaved= 9 IEnMin= 9 EnMin= -769.784850912457     IErMin= 9 ErrMin= 1.75D-06
 ErrMax= 1.75D-06  0.00D+00 EMaxC= 1.00D-01 BMatC= 3.85D-09 BMatP= 9.92D-08
 IDIUse=1 WtCom= 1.00D+00 WtEn= 0.00D+00
 Coeff-Com:  0.500D-04-0.144D-03-0.680D-03-0.175D-02-0.188D-02 0.287D-02
 Coeff-Com:  0.859D-01 0.262D+00 0.653D+00
 Coeff:      0.500D-04-0.144D-03-0.680D-03-0.175D-02-0.188D-02 0.287D-02
 Coeff:      0.859D-01 0.262D+00 0.653D+00
 Gap=     0.187 Goal=   None    Shift=    0.000
 RMSDP=2.43D-07 MaxDP=7.64D-06 DE=-1.05D-07 OVMax= 1.81D-05

 Cycle  10  Pass 1  IDiag  1:
 RMSU=  1.85D-07    CP:  9.63D-01  1.05D+00  7.61D-01  5.55D-01  7.61D-01
                    CP:  6.59D-01  7.64D-01  7.95D-01  8.75D-01
 E= -769.784850915650     Delta-E=       -0.000000003193 Rises=F Damp=F
 DIIS: error= 7.64D-07 at cycle  10 NSaved=  10.
 NSaved=10 IEnMin=10 EnMin= -769.784850915650     IErMin=10 ErrMin= 7.64D-07
 ErrMax= 7.64D-07  0.00D+00 EMaxC= 1.00D-01 BMatC= 6.24D-10 BMatP= 3.85D-09
 IDIUse=1 WtCom= 1.00D+00 WtEn= 0.00D+00
 Coeff-Com:  0.207D-04-0.400D-04-0.297D-03-0.807D-03-0.182D-02-0.211D-02
 Coeff-Com:  0.128D-01 0.620D-01 0.328D+00 0.602D+00
 Coeff:      0.207D-04-0.400D-04-0.297D-03-0.807D-03-0.182D-02-0.211D-02
 Coeff:      0.128D-01 0.620D-01 0.328D+00 0.602D+00
 Gap=     0.187 Goal=   None    Shift=    0.000
 RMSDP=8.85D-08 MaxDP=2.87D-06 DE=-3.19D-09 OVMax= 7.58D-06

 Cycle  11  Pass 1  IDiag  1:
 RMSU=  5.62D-08    CP:  9.63D-01  1.05D+00  7.61D-01  5.55D-01  7.62D-01
                    CP:  6.59D-01  7.67D-01  8.04D-01  9.13D-01  7.54D-01
 E= -769.784850916275     Delta-E=       -0.000000000625 Rises=F Damp=F
 DIIS: error= 1.63D-07 at cycle  11 NSaved=  11.
 NSaved=11 IEnMin=11 EnMin= -769.784850916275     IErMin=11 ErrMin= 1.63D-07
 ErrMax= 1.63D-07  0.00D+00 EMaxC= 1.00D-01 BMatC= 3.22D-11 BMatP= 6.24D-10
 IDIUse=1 WtCom= 1.00D+00 WtEn= 0.00D+00
 Coeff-Com:  0.432D-05-0.395D-05-0.561D-04-0.184D-03-0.543D-03-0.108D-02
 Coeff-Com: -0.297D-02 0.102D-02 0.663D-01 0.216D+00 0.722D+00
 Coeff:      0.432D-05-0.395D-05-0.561D-04-0.184D-03-0.543D-03-0.108D-02
 Coeff:     -0.297D-02 0.102D-02 0.663D-01 0.216D+00 0.722D+00
 Gap=     0.187 Goal=   None    Shift=    0.000
 RMSDP=3.07D-08 MaxDP=8.50D-07 DE=-6.25D-10 OVMax= 3.13D-06

 Cycle  12  Pass 1  IDiag  1:
 RMSU=  1.96D-08    CP:  9.63D-01  1.05D+00  7.61D-01  5.55D-01  7.62D-01
                    CP:  6.59D-01  7.67D-01  8.06D-01  9.32D-01  8.20D-01
                    CP:  8.35D-01
 E= -769.784850916307     Delta-E=       -0.000000000032 Rises=F Damp=F
 DIIS: error= 9.94D-08 at cycle  12 NSaved=  12.
 NSaved=12 IEnMin=12 EnMin= -769.784850916307     IErMin=12 ErrMin= 9.94D-08
 ErrMax= 9.94D-08  0.00D+00 EMaxC= 1.00D-01 BMatC= 8.32D-12 BMatP= 3.22D-11
 IDIUse=1 WtCom= 1.00D+00 WtEn= 0.00D+00
 Coeff-Com:  0.987D-07 0.232D-05 0.534D-05-0.108D-04-0.849D-04-0.360D-03
 Coeff-Com: -0.336D-02-0.679D-02-0.410D-03 0.528D-01 0.420D+00 0.539D+00
 Coeff:      0.987D-07 0.232D-05 0.534D-05-0.108D-04-0.849D-04-0.360D-03
 Coeff:     -0.336D-02-0.679D-02-0.410D-03 0.528D-01 0.420D+00 0.539D+00
 Gap=     0.187 Goal=   None    Shift=    0.000
 RMSDP=1.18D-08 MaxDP=4.66D-07 DE=-3.18D-11 OVMax= 1.41D-06

 Cycle  13  Pass 1  IDiag  1:
 RMSU=  6.89D-09    CP:  9.63D-01  1.05D+00  7.61D-01  5.55D-01  7.62D-01
                    CP:  6.59D-01  7.67D-01  8.06D-01  9.36D-01  8.23D-01
                    CP:  9.18D-01  6.43D-01
 E= -769.784850916322     Delta-E=       -0.000000000015 Rises=F Damp=F
 DIIS: error= 1.93D-08 at cycle  13 NSaved=  13.
 NSaved=13 IEnMin=13 EnMin= -769.784850916322     IErMin=13 ErrMin= 1.93D-08
 ErrMax= 1.93D-08  0.00D+00 EMaxC= 1.00D-01 BMatC= 3.72D-13 BMatP= 8.32D-12
 IDIUse=1 WtCom= 1.00D+00 WtEn= 0.00D+00
 Coeff-Com: -0.344D-06 0.115D-05 0.793D-05 0.139D-04 0.233D-04-0.296D-04
 Coeff-Com: -0.102D-02-0.264D-02-0.703D-02-0.308D-02 0.818D-01 0.217D+00
 Coeff-Com:  0.715D+00
 Coeff:     -0.344D-06 0.115D-05 0.793D-05 0.139D-04 0.233D-04-0.296D-04
 Coeff:     -0.102D-02-0.264D-02-0.703D-02-0.308D-02 0.818D-01 0.217D+00
 Coeff:      0.715D+00
 Gap=     0.187 Goal=   None    Shift=    0.000
 RMSDP=2.94D-09 MaxDP=9.64D-08 DE=-1.55D-11 OVMax= 3.34D-07

 Error on total polarization charges =  0.01960
 SCF Done:  E(RB3LYP) =  -769.784850916     A.U. after   13 cycles
            NFock= 13  Conv=0.29D-08     -V/T= 2.0091
 KE= 7.628721859142D+02 PE=-4.657467939063D+03 EE= 1.679404611904D+03
 Leave Link  502 at Sun Jul 18 13:30:31 2021, MaxMem=   104857600 cpu:             383.5 elap:              95.9
 (Enter /prod/apps/gaussian/g16b1/l601.exe)
 Copying SCF densities to generalized density rwf, IOpCl= 0 IROHF=0.

 **********************************************************************

            Population analysis using the SCF Density.

 **********************************************************************

 Orbital symmetries:
       Occupied  (A) (A) (A) (A) (A) (A) (A) (A) (A) (A) (A) (A)
                 (A) (A) (A) (A) (A) (A) (A) (A) (A) (A) (A) (A)
                 (A) (A) (A) (A) (A) (A) (A) (A) (A) (A) (A) (A)
                 (A) (A) (A) (A) (A) (A) (A) (A) (A) (A) (A) (A)
                 (A) (A) (A) (A) (A) (A) (A) (A) (A) (A) (A) (A)
                 (A) (A) (A) (A) (A) (A) (A) (A)
       Virtual   (A) (A) (A) (A) (A) (A) (A) (A) (A) (A) (A) (A)
                 (A) (A) (A) (A) (A) (A) (A) (A) (A) (A) (A) (A)
                 (A) (A) (A) (A) (A) (A) (A) (A) (A) (A) (A) (A)
                 (A) (A) (A) (A) (A) (A) (A) (A) (A) (A) (A) (A)
                 (A) (A) (A) (A) (A) (A) (A) (A) (A) (A) (A) (A)
                 (A) (A) (A) (A) (A) (A) (A) (A) (A) (A) (A) (A)
                 (A) (A) (A) (A) (A) (A) (A) (A) (A) (A) (A) (A)
                 (A) (A) (A) (A) (A) (A) (A) (A) (A) (A) (A) (A)
                 (A) (A) (A) (A) (A) (A) (A) (A) (A) (A) (A) (A)
                 (A) (A) (A) (A) (A) (A) (A) (A) (A) (A) (A) (A)
                 (A) (A) (A) (A) (A) (A) (A) (A) (A) (A) (A) (A)
                 (A) (A) (A) (A) (A) (A) (A) (A) (A) (A) (A) (A)
                 (A) (A) (A) (A) (A) (A) (A) (A) (A) (A) (A) (A)
                 (A) (A) (A) (A) (A) (A) (A) (A) (A) (A) (A) (A)
                 (A) (A) (A) (A) (A) (A) (A) (A) (A) (A) (A) (A)
                 (A) (A) (A) (A) (A) (A) (A) (A) (A) (A) (A) (A)
                 (A) (A) (A) (A) (A) (A) (A) (A) (A) (A) (A) (A)
                 (A) (A) (A) (A) (A) (A) (A) (A) (A) (A) (A) (A)
                 (A) (A) (A) (A) (A) (A) (A) (A) (A) (A) (A) (A)
                 (A) (A) (A) (A) (A) (A) (A) (A) (A) (A) (A) (A)
                 (A) (A) (A) (A) (A) (A) (A) (A) (A) (A) (A) (A)
                 (A) (A) (A) (A) (A) (A) (A)
 The electronic state is 1-A.
 Alpha  occ. eigenvalues --  -14.44648 -14.34792 -10.25287 -10.23093 -10.22351
 Alpha  occ. eigenvalues --  -10.21493 -10.19665 -10.19427 -10.19150 -10.18856
 Alpha  occ. eigenvalues --  -10.18641 -10.18519 -10.18435 -10.18427 -10.18399
 Alpha  occ. eigenvalues --  -10.18374 -10.18216 -10.18156 -10.17713  -1.00234
 Alpha  occ. eigenvalues --   -0.96484  -0.86438  -0.85076  -0.80052  -0.79365
 Alpha  occ. eigenvalues --   -0.76087  -0.75380  -0.73312  -0.71692  -0.68334
 Alpha  occ. eigenvalues --   -0.64821  -0.63183  -0.60582  -0.59358  -0.58798
 Alpha  occ. eigenvalues --   -0.58245  -0.57649  -0.56171  -0.52688  -0.51482
 Alpha  occ. eigenvalues --   -0.50174  -0.48609  -0.47712  -0.46927  -0.46065
 Alpha  occ. eigenvalues --   -0.44676  -0.44378  -0.43540  -0.43238  -0.41784
 Alpha  occ. eigenvalues --   -0.41019  -0.40541  -0.39081  -0.38177  -0.37641
 Alpha  occ. eigenvalues --   -0.37437  -0.36096  -0.35103  -0.35041  -0.34305
 Alpha  occ. eigenvalues --   -0.33537  -0.33269  -0.32203  -0.28284  -0.25592
 Alpha  occ. eigenvalues --   -0.24664  -0.23976  -0.19421
 Alpha virt. eigenvalues --   -0.00744  -0.00361   0.00119   0.00781   0.05430
 Alpha virt. eigenvalues --    0.07850   0.09405   0.10142   0.10679   0.11201
 Alpha virt. eigenvalues --    0.12110   0.12986   0.13616   0.14170   0.14845
 Alpha virt. eigenvalues --    0.15500   0.15808   0.15920   0.16665   0.17202
 Alpha virt. eigenvalues --    0.17274   0.18012   0.18511   0.19337   0.19575
 Alpha virt. eigenvalues --    0.19641   0.21621   0.21852   0.22282   0.23055
 Alpha virt. eigenvalues --    0.24125   0.24765   0.26406   0.27615   0.27673
 Alpha virt. eigenvalues --    0.29217   0.32737   0.32980   0.34302   0.35273
 Alpha virt. eigenvalues --    0.36198   0.36966   0.38518   0.40186   0.46695
 Alpha virt. eigenvalues --    0.47645   0.48904   0.49164   0.50630   0.52068
 Alpha virt. eigenvalues --    0.52795   0.53442   0.53579   0.54207   0.54616
 Alpha virt. eigenvalues --    0.54960   0.55909   0.56647   0.58090   0.58409
 Alpha virt. eigenvalues --    0.59263   0.59836   0.60093   0.60571   0.60914
 Alpha virt. eigenvalues --    0.61342   0.61746   0.62235   0.62586   0.62690
 Alpha virt. eigenvalues --    0.63605   0.64849   0.65556   0.65668   0.67124
 Alpha virt. eigenvalues --    0.68269   0.69164   0.69841   0.70418   0.71671
 Alpha virt. eigenvalues --    0.73462   0.74820   0.75299   0.76746   0.78311
 Alpha virt. eigenvalues --    0.79962   0.80954   0.82781   0.83189   0.83792
 Alpha virt. eigenvalues --    0.84034   0.84462   0.84855   0.84958   0.85384
 Alpha virt. eigenvalues --    0.85707   0.86867   0.87275   0.88639   0.89814
 Alpha virt. eigenvalues --    0.89950   0.91163   0.91709   0.92394   0.93336
 Alpha virt. eigenvalues --    0.93870   0.94268   0.95320   0.96113   0.96190
 Alpha virt. eigenvalues --    0.97732   0.98527   0.99233   1.00163   1.02717
 Alpha virt. eigenvalues --    1.03776   1.04134   1.06676   1.08276   1.09078
 Alpha virt. eigenvalues --    1.10754   1.11257   1.11717   1.14767   1.14863
 Alpha virt. eigenvalues --    1.16802   1.19724   1.21013   1.22041   1.24189
 Alpha virt. eigenvalues --    1.25618   1.27432   1.29781   1.31926   1.33492
 Alpha virt. eigenvalues --    1.35366   1.38024   1.39504   1.41666   1.43049
 Alpha virt. eigenvalues --    1.43656   1.45844   1.47056   1.47805   1.48211
 Alpha virt. eigenvalues --    1.50351   1.51318   1.53112   1.55302   1.56027
 Alpha virt. eigenvalues --    1.61095   1.61410   1.63876   1.66874   1.70079
 Alpha virt. eigenvalues --    1.70334   1.71590   1.76382   1.78218   1.79354
 Alpha virt. eigenvalues --    1.80152   1.81393   1.82781   1.83607   1.84002
 Alpha virt. eigenvalues --    1.85016   1.85404   1.86600   1.88757   1.89912
 Alpha virt. eigenvalues --    1.91720   1.92891   1.94542   1.95362   1.95581
 Alpha virt. eigenvalues --    1.96665   1.98069   1.98414   2.01072   2.01550
 Alpha virt. eigenvalues --    2.03421   2.05323   2.06689   2.09151   2.09469
 Alpha virt. eigenvalues --    2.11919   2.14106   2.15490   2.17356   2.17868
 Alpha virt. eigenvalues --    2.18665   2.19924   2.21052   2.23112   2.25168
 Alpha virt. eigenvalues --    2.25855   2.27458   2.28014   2.28635   2.29622
 Alpha virt. eigenvalues --    2.30362   2.32124   2.33581   2.34381   2.36707
 Alpha virt. eigenvalues --    2.37950   2.39770   2.40037   2.41775   2.42691
 Alpha virt. eigenvalues --    2.46557   2.50082   2.50141   2.53178   2.55720
 Alpha virt. eigenvalues --    2.58859   2.60592   2.61880   2.63177   2.64856
 Alpha virt. eigenvalues --    2.65851   2.68379   2.70006   2.71511   2.72893
 Alpha virt. eigenvalues --    2.74965   2.75876   2.77550   2.79153   2.82655
 Alpha virt. eigenvalues --    2.83199   2.86762   2.88045   2.90455   2.99637
 Alpha virt. eigenvalues --    3.00393   3.16806   3.21554   3.40978   3.46374
 Alpha virt. eigenvalues --    3.75578   4.09739   4.09871   4.12874   4.13790
 Alpha virt. eigenvalues --    4.14816   4.16804   4.20741   4.25487   4.30231
 Alpha virt. eigenvalues --    4.34734   4.38976   4.41792   4.42191   4.47519
 Alpha virt. eigenvalues --    4.55388   4.56997   4.75111   4.78449
          Condensed to atoms (all electrons):
               1          2          3          4          5          6
     1  N    6.689289   0.304256   0.302433   0.231038  -0.034636  -0.023885
     2  H    0.304256   0.271390  -0.010902  -0.017638  -0.002163   0.002626
     3  H    0.302433  -0.010902   0.274268  -0.017107   0.003308  -0.002276
     4  C    0.231038  -0.017638  -0.017107   4.995440   0.379715   0.379967
     5  H   -0.034636  -0.002163   0.003308   0.379715   0.497453  -0.028525
     6  H   -0.023885   0.002626  -0.002276   0.379967  -0.028525   0.486981
     7  C   -0.050448  -0.001223  -0.000935   0.366417  -0.036296  -0.037239
     8  H   -0.003374  -0.000134   0.003249  -0.037534   0.004575  -0.003892
     9  H   -0.001983   0.003552  -0.000181  -0.037716  -0.004027   0.004164
    10  C    0.002711  -0.000054  -0.000068  -0.032903  -0.002983  -0.002503
    11  H    0.000025   0.000021   0.000012  -0.008371  -0.000128   0.006837
    12  H   -0.000109   0.000001  -0.000003   0.004753  -0.000004   0.000002
    13  N   -0.000088   0.000009   0.000007  -0.002133   0.003179  -0.000191
    14  C    0.000001  -0.000003   0.000000  -0.000168  -0.000061   0.000001
    15  C   -0.000000  -0.000000  -0.000000  -0.000005  -0.000002   0.000000
    16  H   -0.000000  -0.000000   0.000000  -0.000001  -0.000000  -0.000000
    17  C    0.000000   0.000000  -0.000000   0.000000  -0.000000  -0.000000
    18  H   -0.000000   0.000000   0.000000   0.000000   0.000000  -0.000000
    19  C   -0.000000   0.000000   0.000000  -0.000000   0.000000   0.000000
    20  H   -0.000000   0.000000  -0.000000   0.000000   0.000000   0.000000
    21  C    0.000000   0.000000   0.000000   0.000000   0.000001   0.000000
    22  H    0.000000  -0.000000  -0.000000  -0.000000  -0.000000  -0.000000
    23  C    0.000001  -0.000003  -0.000000   0.000111  -0.000061  -0.000002
    24  C    0.000000   0.000017  -0.000000  -0.000638   0.000164   0.000012
    25  H   -0.000000  -0.000000   0.000000   0.000009  -0.000006  -0.000000
    26  H   -0.000033   0.000139  -0.000000  -0.000162   0.003226   0.000012
    27  C    0.000000  -0.000001   0.000000   0.000031  -0.000048  -0.000001
    28  H    0.000000   0.000000  -0.000000  -0.000001   0.000007  -0.000000
    29  H   -0.000000   0.000000   0.000000   0.000002   0.000017   0.000000
    30  C    0.000008  -0.000000  -0.000000  -0.000245   0.001205  -0.000033
    31  C   -0.000000   0.000000   0.000000  -0.000055   0.000049  -0.000003
    32  H    0.000000  -0.000000   0.000000  -0.000000   0.000000  -0.000000
    33  C   -0.000000   0.000000   0.000000  -0.000003   0.000003  -0.000001
    34  H    0.000000   0.000000  -0.000000   0.000000  -0.000000   0.000000
    35  C    0.000000  -0.000000   0.000000  -0.000002  -0.000109   0.000062
    36  H   -0.000000   0.000000   0.000000  -0.000002   0.000000   0.000002
    37  C    0.000010  -0.000000  -0.000000   0.000525  -0.000111   0.000372
    38  H   -0.000000  -0.000000   0.000000  -0.000035   0.000029  -0.000062
    39  C    0.000019   0.000001  -0.000001   0.001692   0.001928   0.000086
    40  H    0.303302  -0.010283  -0.010147  -0.015554  -0.001869  -0.001068
               7          8          9         10         11         12
     1  N   -0.050448  -0.003374  -0.001983   0.002711   0.000025  -0.000109
     2  H   -0.001223  -0.000134   0.003552  -0.000054   0.000021   0.000001
     3  H   -0.000935   0.003249  -0.000181  -0.000068   0.000012  -0.000003
     4  C    0.366417  -0.037534  -0.037716  -0.032903  -0.008371   0.004753
     5  H   -0.036296   0.004575  -0.004027  -0.002983  -0.000128  -0.000004
     6  H   -0.037239  -0.003892   0.004164  -0.002503   0.006837   0.000002
     7  C    5.131481   0.357845   0.369343   0.359379  -0.061121  -0.054224
     8  H    0.357845   0.564377  -0.022687  -0.034148   0.000839  -0.003076
     9  H    0.369343  -0.022687   0.548443  -0.036306   0.006247  -0.001952
    10  C    0.359379  -0.034148  -0.036306   4.945094   0.372537   0.379700
[...]
     24          6           0       -0.088287   -1.172410    1.894144
     25          1           0       -0.403315   -1.829886    2.711134
     26          1           0       -0.354832   -0.147235    2.176898
     27          6           0        1.435314   -1.280047    1.739817
     28          1           0        1.677743   -2.324454    1.504568
     29          1           0        1.905988   -1.080617    2.709126
     30          6           0        2.109823   -0.387164    0.707250
     31          6           0        3.511547   -0.374143    0.748717
     32          1           0        3.996953   -0.983281    1.505464
     33          6           0        4.289439    0.390819   -0.115523
     34          1           0        5.371507    0.376393   -0.038976
     35          6           0        3.649248    1.172172   -1.074606
     36          1           0        4.222714    1.772798   -1.774318
     37          6           0        2.259744    1.172620   -1.149293
     38          1           0        1.780633    1.760590   -1.921286
     39          6           0        1.464156    0.415540   -0.265559
     40          1           0       -3.436911    3.026437    2.278271
 ---------------------------------------------------------------------
 Rotational constants (GHZ):           0.4652267           0.3150206           0.2482498
 Leave Link  202 at Sun Jul 18 14:54:42 2021, MaxMem=   262144000 cpu:               0.1 elap:               0.0
 (Enter /prod/apps/gaussian/g16b1/l301.exe)
 Standard basis: Aug-CC-pVDZ (5D, 7F)
 Ernie: Thresh=  0.10000D-02 Tol=  0.10000D-05 Strict=F.
 Ernie:  38 primitive shells out of 622 were deleted.
 There are   664 symmetry adapted cartesian basis functions of A   symmetry.
 There are   626 symmetry adapted basis functions of A   symmetry.
   626 basis functions,  1048 primitive gaussians,   664 cartesian basis functions
    68 alpha electrons       68 beta electrons
       nuclear repulsion energy      1436.1699200035 Hartrees.
 IExCor=    0 DFT=F Ex=HF Corr=None ExCW=0 ScaHFX=  1.000000
 ScaDFX=  1.000000  1.000000  1.000000  1.000000 ScalE2=  1.000000  1.000000
 IRadAn=      5 IRanWt=     -1 IRanGd=            0 ICorTp=0 IEmpDi=  4
 NAtoms=   40 NActive=   40 NUniq=   40 SFac= 1.00D+00 NAtFMM=   60 NAOKFM=F Big=F
 Integral buffers will be    131072 words long.
 Raffenetti 1 integral format.
 Two-electron integral symmetry is turned on.
 Leave Link  301 at Sun Jul 18 14:54:42 2021, MaxMem=   262144000 cpu:               0.2 elap:               0.1
 (Enter /prod/apps/gaussian/g16b1/l302.exe)
 NPDir=0 NMtPBC=     1 NCelOv=     1 NCel=       1 NClECP=     1 NCelD=      1
         NCelK=      1 NCelE2=     1 NClLst=     1 CellRange=     0.0.
 One-electron integrals computed using PRISM.
 One-electron integral symmetry used in STVInt
 NBasis=   626 RedAO= T EigKep=  1.01D-06  NBF=   626
 NBsUse=   625 1.00D-06 EigRej=  8.51D-07 NBFU=   625
 Leave Link  302 at Sun Jul 18 14:54:42 2021, MaxMem=   262144000 cpu:               2.1 elap:               0.5
 (Enter /prod/apps/gaussian/g16b1/l303.exe)
 DipDrv:  MaxL=1.
 Leave Link  303 at Sun Jul 18 14:54:42 2021, MaxMem=   262144000 cpu:               0.4 elap:               0.1
 (Enter /prod/apps/gaussian/g16b1/l401.exe)
 ExpMin= 2.97D-02 ExpMax= 9.05D+03 ExpMxC= 3.09D+02 IAcc=3 IRadAn=         5 AccDes= 0.00D+00
 Harris functional with IExCor=  205 and IRadAn=       5 diagonalized for initial guess.
 HarFok:  IExCor=  205 AccDes= 0.00D+00 IRadAn=         5 IDoV= 1 UseB2=F ITyADJ=14
 ICtDFT=  3500011 ScaDFX=  1.000000  1.000000  1.000000  1.000000
 FoFCou: FMM=F IPFlag=           0 FMFlag=      100000 FMFlg1=           0
         NFxFlg=           0 DoJE=T BraDBF=F KetDBF=T FulRan=T
         wScrn=  0.000000 ICntrl=       500 IOpCl=  0 I1Cent=   200000004 NGrid=           0
         NMat0=    1 NMatS0=      1 NMatT0=    0 NMatD0=    1 NMtDS0=    0 NMtDT0=    0
 Petite list used in FoFCou.
 Harris En= -765.966014925880    
 JPrj=0 DoOrth=F DoCkMO=F.
 Leave Link  401 at Sun Jul 18 14:54:48 2021, MaxMem=   262144000 cpu:              21.0 elap:               5.3
 (Enter /prod/apps/gaussian/g16b1/l502.exe)
 Integral symmetry usage will be decided dynamically.
 Closed shell SCF:
 Using DIIS extrapolation, IDIIS=  1040.
 NGot=   262144000 LenX=   261251932 LenY=   260810372
 Requested convergence on RMS density matrix=1.00D-08 within 128 cycles.
 Requested convergence on MAX density matrix=1.00D-06.
 Requested convergence on             energy=1.00D-06.
 No special actions if energy rises.
 Fock matrices will be formed incrementally for  20 cycles.

 Cycle   1  Pass 1  IDiag  1:
 FoFJK:  IHMeth= 1 ICntrl=       0 DoSepK=F KAlg= 0 I1Cent=           0 FoldK=F
 IRaf= 950000000 NMat=       1 IRICut=       1 DoRegI=T DoRafI=F ISym2E= 0 IDoP0=0 IntGTp=1.
 FoFCou: FMM=F IPFlag=           0 FMFlag=      100000 FMFlg1=           0
         NFxFlg=           0 DoJE=F BraDBF=F KetDBF=F FulRan=T
         wScrn=  0.000000 ICntrl=         0 IOpCl=  0 I1Cent=           0 NGrid=           0
         NMat0=    1 NMatS0=      1 NMatT0=    0 NMatD0=    1 NMtDS0=    0 NMtDT0=    0
 Symmetry not used in FoFCou.
 E= -764.019959779796    
 DIIS: error= 1.27D-02 at cycle   1 NSaved=   1.
 NSaved= 1 IEnMin= 1 EnMin= -764.019959779796     IErMin= 1 ErrMin= 1.27D-02
 ErrMax= 1.27D-02  0.00D+00 EMaxC= 1.00D-01 BMatC= 8.67D-01 BMatP= 8.67D-01
 IDIUse=3 WtCom= 8.73D-01 WtEn= 1.27D-01
 Coeff-Com:  0.100D+01
 Coeff-En:   0.100D+01
 Coeff:      0.100D+01
 Gap=     0.489 Goal=   None    Shift=    0.000
 GapD=    0.489 DampG=2.000 DampE=0.500 DampFc=1.0000 IDamp=-1.
 RMSDP=9.61D-02 MaxDP=9.23D+00              OVMax= 1.67D-01

 Cycle   2  Pass 1  IDiag  1:
 RMSU=  3.22D-02    CP:  4.50D-01
 E= -764.642932452983     Delta-E=       -0.622972673187 Rises=F Damp=F
 DIIS: error= 6.77D-03 at cycle   2 NSaved=   2.
 NSaved= 2 IEnMin= 2 EnMin= -764.642932452983     IErMin= 2 ErrMin= 6.77D-03
 ErrMax= 6.77D-03  0.00D+00 EMaxC= 1.00D-01 BMatC= 1.05D-01 BMatP= 8.67D-01
 IDIUse=3 WtCom= 9.32D-01 WtEn= 6.77D-02
 Coeff-Com:  0.193D+00 0.807D+00
 Coeff-En:   0.000D+00 0.100D+01
 Coeff:      0.180D+00 0.820D+00
 Gap=     0.288 Goal=   None    Shift=    0.000
 RMSDP=7.32D-03 MaxDP=9.06D-01 DE=-6.23D-01 OVMax= 5.48D-02

 Cycle   3  Pass 1  IDiag  1:
 RMSU=  7.14D-03    CP:  4.59D-01  1.01D+00
 E= -764.740919687363     Delta-E=       -0.097987234380 Rises=F Damp=F
 DIIS: error= 1.77D-03 at cycle   3 NSaved=   3.
 NSaved= 3 IEnMin= 3 EnMin= -764.740919687363     IErMin= 3 ErrMin= 1.77D-03
 ErrMax= 1.77D-03  0.00D+00 EMaxC= 1.00D-01 BMatC= 8.35D-03 BMatP= 1.05D-01
 IDIUse=3 WtCom= 9.82D-01 WtEn= 1.77D-02
 Coeff-Com: -0.179D-01 0.170D+00 0.848D+00
 Coeff-En:   0.000D+00 0.000D+00 0.100D+01
 Coeff:     -0.176D-01 0.167D+00 0.850D+00
 Gap=     0.283 Goal=   None    Shift=    0.000
 RMSDP=2.83D-03 MaxDP=2.77D-01 DE=-9.80D-02 OVMax= 3.46D-02

 Cycle   4  Pass 1  IDiag  1:
 RMSU=  1.36D-03    CP:  4.46D-01  1.01D+00  8.20D-01
 E= -764.749388555631     Delta-E=       -0.008468868268 Rises=F Damp=F
 DIIS: error= 6.26D-04 at cycle   4 NSaved=   4.
 NSaved= 4 IEnMin= 4 EnMin= -764.749388555631     IErMin= 4 ErrMin= 6.26D-04
 ErrMax= 6.26D-04  0.00D+00 EMaxC= 1.00D-01 BMatC= 1.06D-03 BMatP= 8.35D-03
 IDIUse=3 WtCom= 9.94D-01 WtEn= 6.26D-03
 Coeff-Com: -0.146D-01 0.218D-01 0.299D+00 0.694D+00
 Coeff-En:   0.000D+00 0.000D+00 0.000D+00 0.100D+01
 Coeff:     -0.145D-01 0.217D-01 0.297D+00 0.696D+00
 Gap=     0.273 Goal=   None    Shift=    0.000
 RMSDP=6.04D-04 MaxDP=8.88D-02 DE=-8.47D-03 OVMax= 6.82D-03

 Cycle   5  Pass 1  IDiag  1:
 RMSU=  4.22D-04    CP:  4.44D-01  1.01D+00  8.14D-01  8.99D-01
 E= -764.750500342220     Delta-E=       -0.001111786589 Rises=F Damp=F
 DIIS: error= 1.84D-04 at cycle   5 NSaved=   5.
 NSaved= 5 IEnMin= 5 EnMin= -764.750500342220     IErMin= 5 ErrMin= 1.84D-04
 ErrMax= 1.84D-04  0.00D+00 EMaxC= 1.00D-01 BMatC= 6.16D-05 BMatP= 1.06D-03
 IDIUse=3 WtCom= 9.98D-01 WtEn= 1.84D-03
 Coeff-Com:  0.212D-03-0.175D-01-0.578D-01 0.810D-01 0.994D+00
 Coeff-En:   0.000D+00 0.000D+00 0.000D+00 0.000D+00 0.100D+01
 Coeff:      0.212D-03-0.175D-01-0.577D-01 0.808D-01 0.994D+00
 Gap=     0.276 Goal=   None    Shift=    0.000
 RMSDP=2.25D-04 MaxDP=1.81D-02 DE=-1.11D-03 OVMax= 5.77D-03

 Cycle   6  Pass 1  IDiag  1:
 RMSU=  1.37D-04    CP:  4.43D-01  1.01D+00  8.26D-01  9.88D-01  9.70D-01
 E= -764.750629838839     Delta-E=       -0.000129496619 Rises=F Damp=F
 DIIS: error= 5.95D-05 at cycle   6 NSaved=   6.
 NSaved= 6 IEnMin= 6 EnMin= -764.750629838839     IErMin= 6 ErrMin= 5.95D-05
 ErrMax= 5.95D-05  0.00D+00 EMaxC= 1.00D-01 BMatC= 1.08D-05 BMatP= 6.16D-05
 IDIUse=1 WtCom= 1.00D+00 WtEn= 0.00D+00
 Coeff-Com:  0.138D-02-0.666D-02-0.389D-01-0.619D-01 0.235D+00 0.871D+00
 Coeff:      0.138D-02-0.666D-02-0.389D-01-0.619D-01 0.235D+00 0.871D+00
 Gap=     0.276 Goal=   None    Shift=    0.000
 RMSDP=7.09D-05 MaxDP=6.00D-03 DE=-1.29D-04 OVMax= 1.44D-03

 Cycle   7  Pass 1  IDiag  1:
 RMSU=  5.34D-05    CP:  4.43D-01  1.01D+00  8.24D-01  9.86D-01  1.03D+00
                    CP:  9.81D-01
 E= -764.750648162249     Delta-E=       -0.000018323409 Rises=F Damp=F
 DIIS: error= 2.64D-05 at cycle   7 NSaved=   7.
 NSaved= 7 IEnMin= 7 EnMin= -764.750648162249     IErMin= 7 ErrMin= 2.64D-05
 ErrMax= 2.64D-05  0.00D+00 EMaxC= 1.00D-01 BMatC= 1.25D-06 BMatP= 1.08D-05
 IDIUse=1 WtCom= 1.00D+00 WtEn= 0.00D+00
 Coeff-Com:  0.283D-03 0.492D-03-0.748D-03-0.303D-01-0.608D-01 0.175D+00
 Coeff-Com:  0.916D+00
 Coeff:      0.283D-03 0.492D-03-0.748D-03-0.303D-01-0.608D-01 0.175D+00
 Coeff:      0.916D+00
 Gap=     0.277 Goal=   None    Shift=    0.000
 RMSDP=2.20D-05 MaxDP=1.23D-03 DE=-1.83D-05 OVMax= 9.43D-04

 Cycle   8  Pass 1  IDiag  1:
 RMSU=  1.68D-05    CP:  4.43D-01  1.01D+00  8.25D-01  9.90D-01  1.05D+00
                    CP:  1.05D+00  1.04D+00
 E= -764.750651200237     Delta-E=       -0.000003037988 Rises=F Damp=F
 DIIS: error= 1.19D-05 at cycle   8 NSaved=   8.
 NSaved= 8 IEnMin= 8 EnMin= -764.750651200237     IErMin= 8 ErrMin= 1.19D-05
 ErrMax= 1.19D-05  0.00D+00 EMaxC= 1.00D-01 BMatC= 1.93D-07 BMatP= 1.25D-06
 IDIUse=1 WtCom= 1.00D+00 WtEn= 0.00D+00
 Coeff-Com: -0.205D-03 0.861D-03 0.607D-02 0.860D-02-0.193D-01-0.149D+00
 Coeff-Com: -0.714D-01 0.122D+01
 Coeff:     -0.205D-03 0.861D-03 0.607D-02 0.860D-02-0.193D-01-0.149D+00
 Coeff:     -0.714D-01 0.122D+01
 Gap=     0.277 Goal=   None    Shift=    0.000
 RMSDP=1.39D-05 MaxDP=1.07D-03 DE=-3.04D-06 OVMax= 5.48D-04

 Cycle   9  Pass 1  IDiag  1:
 RMSU=  8.66D-06    CP:  4.43D-01  1.01D+00  8.25D-01  9.88D-01  1.05D+00
                    CP:  1.05D+00  1.16D+00  1.34D+00
 E= -764.750651940737     Delta-E=       -0.000000740500 Rises=F Damp=F
 DIIS: error= 5.16D-06 at cycle   9 NSaved=   9.
 NSaved= 9 IEnMin= 9 EnMin= -764.750651940737     IErMin= 9 ErrMin= 5.16D-06
 ErrMax= 5.16D-06  0.00D+00 EMaxC= 1.00D-01 BMatC= 3.73D-08 BMatP= 1.93D-07
 IDIUse=1 WtCom= 1.00D+00 WtEn= 0.00D+00
 Coeff-Com: -0.887D-04 0.140D-03 0.167D-02 0.588D-02 0.557D-02-0.602D-01
 Coeff-Com: -0.154D+00 0.282D+00 0.920D+00
 Coeff:     -0.887D-04 0.140D-03 0.167D-02 0.588D-02 0.557D-02-0.602D-01
 Coeff:     -0.154D+00 0.282D+00 0.920D+00
 Gap=     0.277 Goal=   None    Shift=    0.000
 RMSDP=4.83D-06 MaxDP=2.36D-04 DE=-7.40D-07 OVMax= 2.10D-04

 Cycle  10  Pass 1  IDiag  1:
 RMSU=  2.99D-06    CP:  4.43D-01  1.01D+00  8.25D-01  9.88D-01  1.05D+00
                    CP:  1.04D+00  1.19D+00  1.50D+00  1.20D+00
 E= -764.750652081926     Delta-E=       -0.000000141190 Rises=F Damp=F
 DIIS: error= 2.69D-06 at cycle  10 NSaved=  10.
 NSaved=10 IEnMin=10 EnMin= -764.750652081926     IErMin=10 ErrMin= 2.69D-06
 ErrMax= 2.69D-06  0.00D+00 EMaxC= 1.00D-01 BMatC= 7.78D-09 BMatP= 3.73D-08
 IDIUse=1 WtCom= 1.00D+00 WtEn= 0.00D+00
 Coeff-Com:  0.553D-04-0.214D-03-0.154D-02-0.311D-02 0.336D-02 0.445D-01
 Coeff-Com:  0.370D-01-0.326D+00-0.118D+00 0.136D+01
 Coeff:      0.553D-04-0.214D-03-0.154D-02-0.311D-02 0.336D-02 0.445D-01
 Coeff:      0.370D-01-0.326D+00-0.118D+00 0.136D+01
 Gap=     0.277 Goal=   None    Shift=    0.000
 RMSDP=3.59D-06 MaxDP=1.44D-04 DE=-1.41D-07 OVMax= 1.23D-04

 Cycle  11  Pass 1  IDiag  1:
 RMSU=  1.84D-06    CP:  4.43D-01  1.01D+00  8.25D-01  9.87D-01  1.05D+00
                    CP:  1.04D+00  1.20D+00  1.57D+00  1.45D+00  1.55D+00
 E= -764.750652128379     Delta-E=       -0.000000046453 Rises=F Damp=F
 DIIS: error= 8.11D-07 at cycle  11 NSaved=  11.
 NSaved=11 IEnMin=11 EnMin= -764.750652128379     IErMin=11 ErrMin= 8.11D-07
 ErrMax= 8.11D-07  0.00D+00 EMaxC= 1.00D-01 BMatC= 1.26D-09 BMatP= 7.78D-09
 IDIUse=1 WtCom= 1.00D+00 WtEn= 0.00D+00
 Coeff-Com:  0.233D-04-0.530D-04-0.471D-03-0.147D-02-0.910D-03 0.171D-01
 Coeff-Com:  0.339D-01-0.866D-01-0.191D+00 0.108D+00 0.112D+01
 Coeff:      0.233D-04-0.530D-04-0.471D-03-0.147D-02-0.910D-03 0.171D-01
 Coeff:      0.339D-01-0.866D-01-0.191D+00 0.108D+00 0.112D+01
 Gap=     0.277 Goal=   None    Shift=    0.000
 RMSDP=1.49D-06 MaxDP=1.18D-04 DE=-4.65D-08 OVMax= 4.86D-05

 Cycle  12  Pass 1  IDiag  1:
 RMSU=  5.88D-07    CP:  4.43D-01  1.01D+00  8.25D-01  9.87D-01  1.05D+00
                    CP:  1.04D+00  1.20D+00  1.60D+00  1.52D+00  1.79D+00
                    CP:  1.35D+00
 E= -764.750652134974     Delta-E=       -0.000000006595 Rises=F Damp=F
 DIIS: error= 2.58D-07 at cycle  12 NSaved=  12.
 NSaved=12 IEnMin=12 EnMin= -764.750652134974     IErMin=12 ErrMin= 2.58D-07
 ErrMax= 2.58D-07  0.00D+00 EMaxC= 1.00D-01 BMatC= 1.59D-10 BMatP= 1.26D-09
 IDIUse=1 WtCom= 1.00D+00 WtEn= 0.00D+00
 Coeff-Com: -0.484D-05 0.228D-04 0.165D-03 0.323D-03-0.744D-03-0.444D-02
 Coeff-Com: -0.201D-02 0.399D-01-0.375D-02-0.195D+00 0.110D+00 0.106D+01
 Coeff:     -0.484D-05 0.228D-04 0.165D-03 0.323D-03-0.744D-03-0.444D-02
 Coeff:     -0.201D-02 0.399D-01-0.375D-02-0.195D+00 0.110D+00 0.106D+01
 Gap=     0.277 Goal=   None    Shift=    0.000
 RMSDP=5.10D-07 MaxDP=2.75D-05 DE=-6.59D-09 OVMax= 1.52D-05

 Cycle  13  Pass 1  IDiag  1:
 RMSU=  2.47D-07    CP:  4.43D-01  1.01D+00  8.25D-01  9.87D-01  1.05D+00
                    CP:  1.04D+00  1.21D+00  1.61D+00  1.54D+00  1.83D+00
                    CP:  1.47D+00  1.28D+00
 E= -764.750652135587     Delta-E=       -0.000000000613 Rises=F Damp=F
 DIIS: error= 6.95D-08 at cycle  13 NSaved=  13.
 NSaved=13 IEnMin=13 EnMin= -764.750652135587     IErMin=13 ErrMin= 6.95D-08
 ErrMax= 6.95D-08  0.00D+00 EMaxC= 1.00D-01 BMatC= 1.59D-11 BMatP= 1.59D-10
 IDIUse=1 WtCom= 1.00D+00 WtEn= 0.00D+00
 Coeff-Com: -0.288D-05 0.735D-05 0.618D-04 0.204D-03 0.206D-04-0.210D-02
 Coeff-Com: -0.425D-02 0.122D-01 0.232D-01-0.192D-01-0.137D+00 0.730D-01
 Coeff-Com:  0.105D+01
 Coeff:     -0.288D-05 0.735D-05 0.618D-04 0.204D-03 0.206D-04-0.210D-02
 Coeff:     -0.425D-02 0.122D-01 0.232D-01-0.192D-01-0.137D+00 0.730D-01
 Coeff:      0.105D+01
 Gap=     0.277 Goal=   None    Shift=    0.000
 RMSDP=1.63D-07 MaxDP=1.57D-05 DE=-6.13D-10 OVMax= 3.42D-06

 Cycle  14  Pass 1  IDiag  1:
 RMSU=  7.87D-08    CP:  4.43D-01  1.01D+00  8.25D-01  9.87D-01  1.05D+00
                    CP:  1.05D+00  1.21D+00  1.61D+00  1.55D+00  1.83D+00
                    CP:  1.48D+00  1.39D+00  1.26D+00
 E= -764.750652135635     Delta-E=       -0.000000000048 Rises=F Damp=F
 DIIS: error= 2.57D-08 at cycle  14 NSaved=  14.
 NSaved=14 IEnMin=14 EnMin= -764.750652135635     IErMin=14 ErrMin= 2.57D-08
 ErrMax= 2.57D-08  0.00D+00 EMaxC= 1.00D-01 BMatC= 1.65D-12 BMatP= 1.59D-11
 IDIUse=1 WtCom= 1.00D+00 WtEn= 0.00D+00
 Coeff-Com:  0.169D-06-0.123D-05-0.986D-05-0.900D-05 0.527D-04 0.278D-03
 Coeff-Com: -0.221D-03-0.276D-02 0.208D-02 0.156D-01-0.235D-01-0.838D-01
 Coeff-Com:  0.734D-01 0.102D+01
 Coeff:      0.169D-06-0.123D-05-0.986D-05-0.900D-05 0.527D-04 0.278D-03
 Coeff:     -0.221D-03-0.276D-02 0.208D-02 0.156D-01-0.235D-01-0.838D-01
 Coeff:      0.734D-01 0.102D+01
 Gap=     0.277 Goal=   None    Shift=    0.000
 RMSDP=4.21D-08 MaxDP=2.43D-06 DE=-4.82D-11 OVMax= 9.91D-07

 Cycle  15  Pass 1  IDiag  1:
 RMSU=  2.37D-08    CP:  4.43D-01  1.01D+00  8.25D-01  9.87D-01  1.05D+00
                    CP:  1.05D+00  1.21D+00  1.61D+00  1.55D+00  1.83D+00
                    CP:  1.48D+00  1.39D+00  1.33D+00  1.17D+00
 E= -764.750652135638     Delta-E=       -0.000000000003 Rises=F Damp=F
 DIIS: error= 1.26D-08 at cycle  15 NSaved=  15.
 NSaved=15 IEnMin=15 EnMin= -764.750652135638     IErMin=15 ErrMin= 1.26D-08
 ErrMax= 1.26D-08  0.00D+00 EMaxC= 1.00D-01 BMatC= 2.96D-13 BMatP= 1.65D-12
 IDIUse=1 WtCom= 1.00D+00 WtEn= 0.00D+00
 Coeff-Com:  0.433D-06-0.124D-05-0.109D-04-0.312D-04 0.272D-05 0.374D-03
 Coeff-Com:  0.560D-03-0.232D-02-0.288D-02 0.613D-02 0.147D-01-0.253D-01
 Coeff-Com: -0.141D+00 0.193D+00 0.957D+00
 Coeff:      0.433D-06-0.124D-05-0.109D-04-0.312D-04 0.272D-05 0.374D-03
 Coeff:      0.560D-03-0.232D-02-0.288D-02 0.613D-02 0.147D-01-0.253D-01
 Coeff:     -0.141D+00 0.193D+00 0.957D+00
 Gap=     0.277 Goal=   None    Shift=    0.000
 RMSDP=1.58D-08 MaxDP=1.05D-06 DE=-2.73D-12 OVMax= 3.91D-07

 Cycle  16  Pass 1  IDiag  1:
 RMSU=  9.78D-09    CP:  4.43D-01  1.01D+00  8.25D-01  9.87D-01  1.05D+00
                    CP:  1.05D+00  1.21D+00  1.61D+00  1.55D+00  1.83D+00
                    CP:  1.48D+00  1.40D+00  1.34D+00  1.25D+00  1.20D+00
 E= -764.750652135656     Delta-E=       -0.000000000019 Rises=F Damp=F
 DIIS: error= 6.13D-09 at cycle  16 NSaved=  16.
 NSaved=16 IEnMin=16 EnMin= -764.750652135656     IErMin=16 ErrMin= 6.13D-09
 ErrMax= 6.13D-09  0.00D+00 EMaxC= 1.00D-01 BMatC= 4.06D-14 BMatP= 2.96D-13
 IDIUse=1 WtCom= 1.00D+00 WtEn= 0.00D+00
 Coeff-Com: -0.232D-07 0.176D-06 0.133D-05 0.909D-06-0.719D-05-0.316D-04
 Coeff-Com:  0.216D-04 0.348D-03-0.193D-03-0.172D-02 0.254D-02 0.116D-01
 Coeff-Com: -0.707D-02-0.137D+00-0.266D-02 0.113D+01
 Coeff:     -0.232D-07 0.176D-06 0.133D-05 0.909D-06-0.719D-05-0.316D-04
 Coeff:      0.216D-04 0.348D-03-0.193D-03-0.172D-02 0.254D-02 0.116D-01
 Coeff:     -0.707D-02-0.137D+00-0.266D-02 0.113D+01
 Gap=     0.277 Goal=   None    Shift=    0.000
 RMSDP=6.06D-09 MaxDP=3.21D-07 DE=-1.86D-11 OVMax= 2.83D-07

 SCF Done:  E(RHF) =  -764.750652136     A.U. after   16 cycles
            NFock= 16  Conv=0.61D-08     -V/T= 2.0011
 KE= 7.639255036944D+02 PE=-4.637342060371D+03 EE= 1.672495984537D+03
 Leave Link  502 at Sun Jul 18 15:15:56 2021, MaxMem=   262144000 cpu:            5072.5 elap:            1268.2
 (Enter /prod/apps/gaussian/g16b1/l801.exe)
 ExpMin= 2.97D-02 ExpMax= 9.05D+03 ExpMxC= 3.09D+02 IAcc=3 IRadAn=         5 AccDes= 0.00D+00
 HarFok:  IExCor=  205 AccDes= 0.00D+00 IRadAn=         5 IDoV=-2 UseB2=F ITyADJ=14
 ICtDFT= 12500011 ScaDFX=  1.000000  1.000000  1.000000  1.000000
 Largest valence mixing into a core orbital is  1.09D-04
 Largest core mixing into a valence orbital is  4.10D-05
 Range of M.O.s used for correlation:    20   625
 NBasis=   626 NAE=    68 NBE=    68 NFC=    19 NFV=     0
 NROrb=    606 NOA=    49 NOB=    49 NVA=   557 NVB=   557

 **** Warning!!: The largest alpha MO coefficient is  0.12415224D+03

 Leave Link  801 at Sun Jul 18 15:15:56 2021, MaxMem=   262144000 cpu:               1.1 elap:               0.3
 (Enter /prod/apps/gaussian/g16b1/l906.exe)
 FulOut=F Deriv=F AODrv=F NAtomX=    40
   MMem=           3  MDisk=          49 MDiskD=          49
  W3Min=    18122552 MinDsk=    19000149 NBas6D=         664
 NBas2D=      221647    NTT=      220780    LW2=     2000000
    MDV=   259370738 MDiskM=        5383 NBas2p=      207260
 Disk-based method using OVN memory for 49 occupieds at a time.
 Estimated scratch disk usage= 17228541100 words.
 IMap=   1   2   3   4   5   6   7   8   9  10  11  12  13  14  15  16  17  18  19  20
 IMap=  21  22  23  24  25  26  27  28  29  30  31  32  33  34  35  36  37  38  39  40
 IMap=  41  42  43  44  45  46  47  48  49
 Actual    scratch disk usage= 17014619308 words.
 JobTyp=1 Pass  1:  I=   1 to  49 NPSUse=  4 ParTrn=T ParDer=T DoDerP=F.
Erroneous write. Write -1 instead of 794160.
fd = 4
orig len = 8384512 left = 794160
g_write
