 Entering Gaussian System, Link 0=g16
 Initial command:
 /prod/apps/gaussian/g16b1/l1.exe "/tmp/ubator02/1839669/Gau-167910.inp" -scrdir="/tmp/ubator02/1839669/"
 Entering Link 1 = /prod/apps/gaussian/g16b1/l1.exe PID=    167911.
  
 Copyright (c) 1988-2017, Gaussian, Inc.  All Rights Reserved.
  
 This is part of the Gaussian(R) 16 program.  It is based on
 the Gaussian(R) 09 system (copyright 2009, Gaussian, Inc.),
 the Gaussian(R) 03 system (copyright 2003, Gaussian, Inc.),
 the Gaussian(R) 98 system (copyright 1998, Gaussian, Inc.),
 the Gaussian(R) 94 system (copyright 1995, Gaussian, Inc.),
 the Gaussian 92(TM) system (copyright 1992, Gaussian, Inc.),
 the Gaussian 90(TM) system (copyright 1990, Gaussian, Inc.),
 the Gaussian 88(TM) system (copyright 1988, Gaussian, Inc.),
 the Gaussian 86(TM) system (copyright 1986, Carnegie Mellon
 University), and the Gaussian 82(TM) system (copyright 1983,
 Carnegie Mellon University). Gaussian is a federally registered
 trademark of Gaussian, Inc.
  
 This software contains proprietary and confidential information,
 including trade secrets, belonging to Gaussian, Inc.
  
 This software is provided under written license and may be
 used, copied, transmitted, or stored only in accord with that
 written license.
  
 The following legend is applicable only to US Government
 contracts under FAR:
  
                    RESTRICTED RIGHTS LEGEND
  
 Use, reproduction and disclosure by the US Government is
 subject to restrictions as set forth in subparagraphs (a)
 and (c) of the Commercial Computer Software - Restricted
 Rights clause in FAR 52.227-19.
  
 Gaussian, Inc.
 340 Quinnipiac St., Bldg. 40, Wallingford CT 06492
  
  
 ---------------------------------------------------------------
 Warning -- This program may not be used in any manner that
 competes with the business of Gaussian, Inc. or will provide
 assistance to any competitor of Gaussian, Inc.  The licensee
 of this program is prohibited from giving any competitor of
 Gaussian, Inc. access to this program.  By using this program,
 the user acknowledges that Gaussian, Inc. is engaged in the
 business of creating and licensing software in the field of
 computational chemistry and represents and warrants to the
 licensee that it is not a competitor of Gaussian, Inc. and that
 it will not use this program in any manner prohibited above.
 ---------------------------------------------------------------
  

 Cite this work as:
 Gaussian 16, Revision B.01,
 M. J. Frisch, G. W. Trucks, H. B. Schlegel, G. E. Scuseria, 
 M. A. Robb, J. R. Cheeseman, G. Scalmani, V. Barone, 
 G. A. Petersson, H. Nakatsuji, X. Li, M. Caricato, A. V. Marenich, 
 J. Bloino, B. G. Janesko, R. Gomperts, B. Mennucci, H. P. Hratchian, 
 J. V. Ortiz, A. F. Izmaylov, J. L. Sonnenberg, D. Williams-Young, 
 F. Ding, F. Lipparini, F. Egidi, J. Goings, B. Peng, A. Petrone, 
 T. Henderson, D. Ranasinghe, V. G. Zakrzewski, J. Gao, N. Rega, 
 G. Zheng, W. Liang, M. Hada, M. Ehara, K. Toyota, R. Fukuda, 
 J. Hasegawa, M. Ishida, T. Nakajima, Y. Honda, O. Kitao, H. Nakai, 
 T. Vreven, K. Throssell, J. A. Montgomery, Jr., J. E. Peralta, 
 F. Ogliaro, M. J. Bearpark, J. J. Heyd, E. N. Brothers, K. N. Kudin, 
 V. N. Staroverov, T. A. Keith, R. Kobayashi, J. Normand, 
 K. Raghavachari, A. P. Rendell, J. C. Burant, S. S. Iyengar, 
 J. Tomasi, M. Cossi, J. M. Millam, M. Klene, C. Adamo, R. Cammi, 
 J. W. Ochterski, R. L. Martin, K. Morokuma, O. Farkas, 
 J. B. Foresman, and D. J. Fox, Gaussian, Inc., Wallingford CT, 2016.
 
 ******************************************
 Gaussian 16:  ES64L-G16RevB.01 20-Dec-2017
                18-Jul-2021 
 ******************************************
 %mem=800MB
 %nproc=4
 Will use up to    4 processors via shared memory.
 %chk=SET_328_BBB321_conf1.geo_180_210_225.chk
 -----------------------------------------------------------
 #p b3lyp/6-31G(d) opt freq scrf=(iefpcm,read,solvent=water)
 -----------------------------------------------------------
 1/18=20,19=15,26=3,38=1,40=2/1,3;
 2/9=110,12=2,17=6,18=5,40=1/2;
 3/5=1,6=6,7=1,11=2,25=1,30=1,70=2203,71=1,72=1,74=-5/1,2,3;
 4//1;
 5/5=2,38=5,53=1/2;
 6/7=2,8=2,9=2,10=2,28=1/1;
 7//1,2,3,16;
 1/18=20,19=15,26=3/3(2);
 2/9=110/2;
 99//99;
 2/9=110/2;
 3/5=1,6=6,7=1,11=2,25=1,30=1,70=2205,71=1,72=1,74=-5/1,2,3;
 4/5=5,16=3,69=1/1;
 5/5=2,38=5,53=1/2;
 7//1,2,3,16;
 1/18=20,19=15,26=3/3(-5);
 2/9=110/2;
 6/7=2,8=2,9=2,10=2,19=2,28=1/1;
 99/9=1/99;
 Leave Link    1 at Sun Jul 18 15:37:11 2021, MaxMem=   104857600 cpu:               0.1 elap:               0.0
 (Enter /prod/apps/gaussian/g16b1/l101.exe)
 ---------------------------------------------
 SET_328_BBB321_conf1.geo_180_210_225 geometry
 ---------------------------------------------
 Symbolic Z-matrix:
 Charge =  1 Multiplicity = 1
 C                     4.449    -4.094    -0.603 
 H                     4.071    -4.385    -1.585 
 H                     4.82     -5.051    -0.231 
 H                     5.254    -3.356    -0.631 
 C                     3.421    -3.525     0.149 
 O                     2.725    -4.227     0.928 
 N                     3.101    -2.317    -0.21 
 H                     3.576    -1.907    -1.001 
 C                     2.184    -1.454     0.391 
 C                     2.099    -1.344     1.78 
 C                     1.085    -0.562     2.366 
 C                     0.23      0.144     1.55 
 H                    -0.579     0.762     1.929 
 H                     0.895    -0.559     3.436 
 H                     2.867    -1.813     2.39 
 C                     1.27     -0.759    -0.432 
 H                     1.321    -0.971    -1.497 
 C                     0.263    -0.001     0.153 
 C                    -0.768     0.596    -0.678 
 N                    -1.419     1.817    -0.294 
 C                    -1.215    -0.037    -1.779 
 H                    -0.911    -0.966    -2.245 
 S                    -2.696     0.74     -2.247 
 C                    -2.491     1.94     -1.043 
 N                    -3.466     2.85     -0.981 
 C                    -3.498     3.808    -0.209 
 N                    -4.474     4.606    -0.528 
 H                    -4.357     5.503    -0.07 
 H                    -4.618     4.621    -1.531 
 N                    -4.04      3.498     0.944 
 H                    -4.952     3.938     0.997 
 H                    -4.148     2.503     0.783 
 H                    -4.233     2.745    -1.614 
 
 ITRead=  0  0  0  0  0  0  0  0  0  0  0  0  0  0  0  0  0  0  0  0
 ITRead=  0  0  0  0  0  0  0  0  0  0  0  0  0
 MicOpt= -1 -1 -1 -1 -1 -1 -1 -1 -1 -1 -1 -1 -1 -1 -1 -1 -1 -1 -1 -1
 MicOpt= -1 -1 -1 -1 -1 -1 -1 -1 -1 -1 -1 -1 -1
 NAtoms=     33 NQM=       33 NQMF=       0 NMMI=      0 NMMIF=      0
                NMic=       0 NMicF=      0.
                    Isotopes and Nuclear Properties:
 (Nuclear quadrupole moments (NQMom) in fm**2, nuclear magnetic moments (NMagM)
  in nuclear magnetons)

  Atom         1           2           3           4           5           6           7           8           9          10
 IAtWgt=          12           1           1           1          12          16          14           1          12          12
 AtmWgt=  12.0000000   1.0078250   1.0078250   1.0078250  12.0000000  15.9949146  14.0030740   1.0078250  12.0000000  12.0000000
 NucSpn=           0           1           1           1           0           0           2           1           0           0
 AtZEff=  -0.0000000  -0.0000000  -0.0000000  -0.0000000  -0.0000000  -0.0000000  -0.0000000  -0.0000000  -0.0000000  -0.0000000
 NQMom=    0.0000000   0.0000000   0.0000000   0.0000000   0.0000000   0.0000000   2.0440000   0.0000000   0.0000000   0.0000000
 NMagM=    0.0000000   2.7928460   2.7928460   2.7928460   0.0000000   0.0000000   0.4037610   2.7928460   0.0000000   0.0000000
 AtZNuc=   6.0000000   1.0000000   1.0000000   1.0000000   6.0000000   8.0000000   7.0000000   1.0000000   6.0000000   6.0000000

  Atom        11          12          13          14          15          16          17          18          19          20
 IAtWgt=          12          12           1           1           1          12           1          12          12          14
 AtmWgt=  12.0000000  12.0000000   1.0078250   1.0078250   1.0078250  12.0000000   1.0078250  12.0000000  12.0000000  14.0030740
 NucSpn=           0           0           1           1           1           0           1           0           0           2
 AtZEff=  -0.0000000  -0.0000000  -0.0000000  -0.0000000  -0.0000000  -0.0000000  -0.0000000  -0.0000000  -0.0000000  -0.0000000
 NQMom=    0.0000000   0.0000000   0.0000000   0.0000000   0.0000000   0.0000000   0.0000000   0.0000000   0.0000000   2.0440000
 NMagM=    0.0000000   0.0000000   2.7928460   2.7928460   2.7928460   0.0000000   2.7928460   0.0000000   0.0000000   0.4037610
 AtZNuc=   6.0000000   6.0000000   1.0000000   1.0000000   1.0000000   6.0000000   1.0000000   6.0000000   6.0000000   7.0000000

  Atom        21          22          23          24          25          26          27          28          29          30
 IAtWgt=          12           1          32          12          14          12          14           1           1          14
 AtmWgt=  12.0000000   1.0078250  31.9720718  12.0000000  14.0030740  12.0000000  14.0030740   1.0078250   1.0078250  14.0030740
 NucSpn=           0           1           0           0           2           0           2           1           1           2
 AtZEff=  -0.0000000  -0.0000000  -0.0000000  -0.0000000  -0.0000000  -0.0000000  -0.0000000  -0.0000000  -0.0000000  -0.0000000
 NQMom=    0.0000000   0.0000000   0.0000000   0.0000000   2.0440000   0.0000000   2.0440000   0.0000000   0.0000000   2.0440000
 NMagM=    0.0000000   2.7928460   0.0000000   0.0000000   0.4037610   0.0000000   0.4037610   2.7928460   2.7928460   0.4037610
 AtZNuc=   6.0000000   1.0000000  16.0000000   6.0000000   7.0000000   6.0000000   7.0000000   1.0000000   1.0000000   7.0000000

  Atom        31          32          33
 IAtWgt=           1           1           1
 AtmWgt=   1.0078250   1.0078250   1.0078250
 NucSpn=           1           1           1
 AtZEff=  -0.0000000  -0.0000000  -0.0000000
 NQMom=    0.0000000   0.0000000   0.0000000
 NMagM=    2.7928460   2.7928460   2.7928460
 AtZNuc=   1.0000000   1.0000000   1.0000000
 Leave Link  101 at Sun Jul 18 15:37:11 2021, MaxMem=   104857600 cpu:               0.5 elap:               0.1
 (Enter /prod/apps/gaussian/g16b1/l103.exe)

 GradGradGradGradGradGradGradGradGradGradGradGradGradGradGradGradGradGrad
 Berny optimization.
 Initialization pass.
                           ----------------------------
                           !    Initial Parameters    !
                           ! (Angstroms and Degrees)  !
 --------------------------                            --------------------------
 ! Name  Definition              Value          Derivative Info.                !
 --------------------------------------------------------------------------------
 ! R1    R(1,2)                  1.0917         estimate D2E/DX2                !
 ! R2    R(1,3)                  1.0917         estimate D2E/DX2                !
 ! R3    R(1,4)                  1.0925         estimate D2E/DX2                !
 ! R4    R(1,5)                  1.395          estimate D2E/DX2                !
 ! R5    R(5,6)                  1.2586         estimate D2E/DX2                !
 ! R6    R(5,7)                  1.3002         estimate D2E/DX2                !
 ! R7    R(7,8)                  1.0097         estimate D2E/DX2                !
 ! R8    R(7,9)                  1.3953         estimate D2E/DX2                !
 ! R9    R(9,10)                 1.3959         estimate D2E/DX2                !
 ! R10   R(9,16)                 1.4127         estimate D2E/DX2                !
 ! R11   R(10,11)                1.4082         estimate D2E/DX2                !
 ! R12   R(10,15)                1.0871         estimate D2E/DX2                !
 ! R13   R(11,12)                1.3767         estimate D2E/DX2                !
 ! R14   R(11,14)                1.0867         estimate D2E/DX2                !
 ! R15   R(12,13)                1.0863         estimate D2E/DX2                !
 ! R16   R(12,18)                1.4049         estimate D2E/DX2                !
 ! R17   R(16,17)                1.0871         estimate D2E/DX2                !
 ! R18   R(16,18)                1.3895         estimate D2E/DX2                !
 ! R19   R(18,19)                1.4526         estimate D2E/DX2                !
 ! R20   R(19,20)                1.436          estimate D2E/DX2                !
 ! R21   R(19,21)                1.3464         estimate D2E/DX2                !
 ! R22   R(20,24)                1.3135         estimate D2E/DX2                !
 ! R23   R(21,22)                1.0829         estimate D2E/DX2                !
 ! R24   R(21,23)                1.7367         estimate D2E/DX2                !
 ! R25   R(23,24)                1.7122         estimate D2E/DX2                !
 ! R26   R(24,25)                1.3351         estimate D2E/DX2                !
 ! R27   R(25,26)                1.2308         estimate D2E/DX2                !
 ! R28   R(25,33)                1.0            estimate D2E/DX2                !
 ! R29   R(26,27)                1.3004         estimate D2E/DX2                !
 ! R30   R(26,30)                1.3112         estimate D2E/DX2                !
 ! R31   R(27,28)                1.0139         estimate D2E/DX2                !
 ! R32   R(27,29)                1.0134         estimate D2E/DX2                !
 ! R33   R(30,31)                1.014          estimate D2E/DX2                !
 ! R34   R(30,32)                1.0137         estimate D2E/DX2                !
 ! A1    A(2,1,3)              100.982          estimate D2E/DX2                !
 ! A2    A(2,1,4)              114.3396         estimate D2E/DX2                !
 ! A3    A(2,1,5)              109.7827         estimate D2E/DX2                !
 ! A4    A(3,1,4)              110.5178         estimate D2E/DX2                !
 ! A5    A(3,1,5)              115.1055         estimate D2E/DX2                !
 ! A6    A(4,1,5)              106.337          estimate D2E/DX2                !
 ! A7    A(1,5,6)              120.9079         estimate D2E/DX2                !
 ! A8    A(1,5,7)              114.2978         estimate D2E/DX2                !
 ! A9    A(6,5,7)              123.5734         estimate D2E/DX2                !
 ! A10   A(5,7,8)              118.5423         estimate D2E/DX2                !
 ! A11   A(5,7,9)              128.1309         estimate D2E/DX2                !
 ! A12   A(8,7,9)              113.2957         estimate D2E/DX2                !
 ! A13   A(7,9,10)             121.1545         estimate D2E/DX2                !
 ! A14   A(7,9,16)             118.5909         estimate D2E/DX2                !
 ! A15   A(10,9,16)            120.1            estimate D2E/DX2                !
 ! A16   A(9,10,11)            120.1098         estimate D2E/DX2                !
 ! A17   A(9,10,15)            118.7705         estimate D2E/DX2                !
 ! A18   A(11,10,15)           120.9804         estimate D2E/DX2                !
 ! A19   A(10,11,12)           119.033          estimate D2E/DX2                !
 ! A20   A(10,11,14)           122.4889         estimate D2E/DX2                !
 ! A21   A(12,11,14)           118.2677         estimate D2E/DX2                !
 ! A22   A(11,12,13)           123.1932         estimate D2E/DX2                !
 ! A23   A(11,12,18)           121.458          estimate D2E/DX2                !
 ! A24   A(13,12,18)           115.0331         estimate D2E/DX2                !
 ! A25   A(9,16,17)            116.3873         estimate D2E/DX2                !
 ! A26   A(9,16,18)            119.4703         estimate D2E/DX2                !
 ! A27   A(17,16,18)           123.561          estimate D2E/DX2                !
 ! A28   A(12,18,16)           119.4695         estimate D2E/DX2                !
 ! A29   A(12,18,19)           120.6497         estimate D2E/DX2                !
 ! A30   A(16,18,19)           119.8496         estimate D2E/DX2                !
 ! A31   A(18,19,20)           121.2152         estimate D2E/DX2                !
 ! A32   A(18,19,21)           120.6806         estimate D2E/DX2                !
 ! A33   A(20,19,21)           117.8998         estimate D2E/DX2                !
 ! A34   A(19,20,24)           107.285          estimate D2E/DX2                !
 ! A35   A(19,21,22)           131.4566         estimate D2E/DX2                !
 ! A36   A(19,21,23)           107.0462         estimate D2E/DX2                !
 ! A37   A(22,21,23)           120.4817         estimate D2E/DX2                !
 ! A38   A(21,23,24)            91.2588         estimate D2E/DX2                !
 ! A39   A(20,24,23)           115.662          estimate D2E/DX2                !
 ! A40   A(20,24,25)           129.2969         estimate D2E/DX2                !
 ! A41   A(23,24,25)           115.0183         estimate D2E/DX2                !
 ! A42   A(24,25,26)           125.3553         estimate D2E/DX2                !
 ! A43   A(24,25,33)           117.3324         estimate D2E/DX2                !
 ! A44   A(26,25,33)           117.3122         estimate D2E/DX2                !
 ! A45   A(25,26,27)           110.0775         estimate D2E/DX2                !
 ! A46   A(25,26,30)           112.2278         estimate D2E/DX2                !
 ! A47   A(27,26,30)            92.8975         estimate D2E/DX2                !
 ! A48   A(26,27,28)           110.21           estimate D2E/DX2                !
 ! A49   A(26,27,29)           111.009          estimate D2E/DX2                !
 ! A50   A(28,27,29)           116.7677         estimate D2E/DX2                !
 ! A51   A(26,30,31)           108.3703         estimate D2E/DX2                !
 ! A52   A(26,30,32)            97.8418         estimate D2E/DX2                !
 ! A53   A(31,30,32)           109.7795         estimate D2E/DX2                !
 ! D1    D(2,1,5,6)             93.0346         estimate D2E/DX2                !
 ! D2    D(2,1,5,7)            -74.7771         estimate D2E/DX2                !
 ! D3    D(3,1,5,6)            -20.0506         estimate D2E/DX2                !
 ! D4    D(3,1,5,7)            172.1377         estimate D2E/DX2                !
 ! D5    D(4,1,5,6)           -142.7814         estimate D2E/DX2                !
 ! D6    D(4,1,5,7)             49.4069         estimate D2E/DX2                !
 ! D7    D(1,5,7,8)              2.3358         estimate D2E/DX2                !
 ! D8    D(1,5,7,9)           -175.4879         estimate D2E/DX2                !
 ! D9    D(6,5,7,8)           -165.1071         estimate D2E/DX2                !
 ! D10   D(6,5,7,9)             17.0692         estimate D2E/DX2                !
 ! D11   D(5,7,9,10)            41.266          estimate D2E/DX2                !
 ! D12   D(5,7,9,16)          -134.2173         estimate D2E/DX2                !
 ! D13   D(8,7,9,10)          -136.6525         estimate D2E/DX2                !
 ! D14   D(8,7,9,16)            47.8641         estimate D2E/DX2                !
 ! D15   D(7,9,10,11)         -174.1069         estimate D2E/DX2                !
 ! D16   D(7,9,10,15)           10.1398         estimate D2E/DX2                !
 ! D17   D(16,9,10,11)           1.3089         estimate D2E/DX2                !
 ! D18   D(16,9,10,15)        -174.4444         estimate D2E/DX2                !
 ! D19   D(7,9,16,17)            1.9588         estimate D2E/DX2                !
 ! D20   D(7,9,16,18)          173.528          estimate D2E/DX2                !
 ! D21   D(10,9,16,17)        -173.5736         estimate D2E/DX2                !
 ! D22   D(10,9,16,18)          -2.0044         estimate D2E/DX2                !
 ! D23   D(9,10,11,12)          -3.4278         estimate D2E/DX2                !
 ! D24   D(9,10,11,14)         171.2074         estimate D2E/DX2                !
 ! D25   D(15,10,11,12)        172.2302         estimate D2E/DX2                !
 ! D26   D(15,10,11,14)        -13.1346         estimate D2E/DX2                !
 ! D27   D(10,11,12,13)        179.5528         estimate D2E/DX2                !
 ! D28   D(10,11,12,18)          6.3295         estimate D2E/DX2                !
 ! D29   D(14,11,12,13)          4.6901         estimate D2E/DX2                !
 ! D30   D(14,11,12,18)       -168.5332         estimate D2E/DX2                !
 ! D31   D(11,12,18,16)         -7.0635         estimate D2E/DX2                !
 ! D32   D(11,12,18,19)        170.9014         estimate D2E/DX2                !
 ! D33   D(13,12,18,16)        179.1933         estimate D2E/DX2                !
 ! D34   D(13,12,18,19)         -2.8419         estimate D2E/DX2                !
 ! D35   D(9,16,18,12)           4.7624         estimate D2E/DX2                !
 ! D36   D(9,16,18,19)        -173.219          estimate D2E/DX2                !
 ! D37   D(17,16,18,12)        175.694          estimate D2E/DX2                !
 ! D38   D(17,16,18,19)         -2.2874         estimate D2E/DX2                !
 ! D39   D(12,18,19,20)         31.3235         estimate D2E/DX2                !
 ! D40   D(12,18,19,21)       -143.3716         estimate D2E/DX2                !
 ! D41   D(16,18,19,20)       -150.7194         estimate D2E/DX2                !
 ! D42   D(16,18,19,21)         34.5855         estimate D2E/DX2                !
 ! D43   D(18,19,20,24)       -165.3346         estimate D2E/DX2                !
 ! D44   D(21,19,20,24)          9.5034         estimate D2E/DX2                !
 ! D45   D(18,19,21,22)         -3.3076         estimate D2E/DX2                !
 ! D46   D(18,19,21,23)        164.8724         estimate D2E/DX2                !
 ! D47   D(20,19,21,22)       -178.1744         estimate D2E/DX2                !
 ! D48   D(20,19,21,23)         -9.9945         estimate D2E/DX2                !
 ! D49   D(19,20,24,23)         -4.1937         estimate D2E/DX2                !
 ! D50   D(19,20,24,25)        173.9666         estimate D2E/DX2                !
 ! D51   D(19,21,23,24)          5.9228         estimate D2E/DX2                !
 ! D52   D(22,21,23,24)        175.6615         estimate D2E/DX2                !
 ! D53   D(21,23,24,20)         -0.8636         estimate D2E/DX2                !
 ! D54   D(21,23,24,25)       -179.2926         estimate D2E/DX2                !
 ! D55   D(20,24,25,26)          3.3962         estimate D2E/DX2                !
 ! D56   D(20,24,25,33)       -176.6384         estimate D2E/DX2                !
 ! D57   D(23,24,25,26)       -178.4337         estimate D2E/DX2                !
 ! D58   D(23,24,25,33)          1.5317         estimate D2E/DX2                !
 ! D59   D(24,25,26,27)        170.8587         estimate D2E/DX2                !
 ! D60   D(24,25,26,30)        -87.165          estimate D2E/DX2                !
 ! D61   D(33,25,26,27)         -9.1067         estimate D2E/DX2                !
 ! D62   D(33,25,26,30)         92.8697         estimate D2E/DX2                !
 ! D63   D(25,26,27,28)       -164.7465         estimate D2E/DX2                !
 ! D64   D(25,26,27,29)        -33.7909         estimate D2E/DX2                !
 ! D65   D(30,26,27,28)         80.3064         estimate D2E/DX2                !
 ! D66   D(30,26,27,29)       -148.738          estimate D2E/DX2                !
 ! D67   D(25,26,30,31)       -108.2224         estimate D2E/DX2                !
 ! D68   D(25,26,30,32)          5.7111         estimate D2E/DX2                !
 ! D69   D(27,26,30,31)          4.8572         estimate D2E/DX2                !
 ! D70   D(27,26,30,32)        118.7906         estimate D2E/DX2                !
 --------------------------------------------------------------------------------
 Trust Radius=3.00D-01 FncErr=1.00D-07 GrdErr=1.00D-06 EigMax=2.50D+02 EigMin=1.00D-04
 Number of steps in this run=    167 maximum allowed number of steps=    198.
 GradGradGradGradGradGradGradGradGradGradGradGradGradGradGradGradGradGrad

 Leave Link  103 at Sun Jul 18 15:37:11 2021, MaxMem=   104857600 cpu:               0.0 elap:               0.0
 (Enter /prod/apps/gaussian/g16b1/l202.exe)
                          Input orientation:                          
 ---------------------------------------------------------------------
 Center     Atomic      Atomic             Coordinates (Angstroms)
 Number     Number       Type             X           Y           Z
 ---------------------------------------------------------------------
      1          6           0        4.449000   -4.094000   -0.603000
      2          1           0        4.071000   -4.385000   -1.585000
      3          1           0        4.820000   -5.051000   -0.231000
      4          1           0        5.254000   -3.356000   -0.631000
      5          6           0        3.421000   -3.525000    0.149000
      6          8           0        2.725000   -4.227000    0.928000
      7          7           0        3.101000   -2.317000   -0.210000
      8          1           0        3.576000   -1.907000   -1.001000
      9          6           0        2.184000   -1.454000    0.391000
     10          6           0        2.099000   -1.344000    1.780000
     11          6           0        1.085000   -0.562000    2.366000
     12          6           0        0.230000    0.144000    1.550000
     13          1           0       -0.579000    0.762000    1.929000
     14          1           0        0.895000   -0.559000    3.436000
     15          1           0        2.867000   -1.813000    2.390000
     16          6           0        1.270000   -0.759000   -0.432000
     17          1           0        1.321000   -0.971000   -1.497000
     18          6           0        0.263000   -0.001000    0.153000
     19          6           0       -0.768000    0.596000   -0.678000
     20          7           0       -1.419000    1.817000   -0.294000
     21          6           0       -1.215000   -0.037000   -1.779000
     22          1           0       -0.911000   -0.966000   -2.245000
     23         16           0       -2.696000    0.740000   -2.247000
     24          6           0       -2.491000    1.940000   -1.043000
     25          7           0       -3.466000    2.850000   -0.981000
     26          6           0       -3.498000    3.808000   -0.209000
     27          7           0       -4.474000    4.606000   -0.528000
     28          1           0       -4.357000    5.503000   -0.070000
     29          1           0       -4.618000    4.621000   -1.531000
     30          7           0       -4.040000    3.498000    0.944000
     31          1           0       -4.952000    3.938000    0.997000
     32          1           0       -4.148000    2.503000    0.783000
     33          1           0       -4.233000    2.745000   -1.614000
 ---------------------------------------------------------------------
                    Distance matrix (angstroms):
                    1          2          3          4          5
     1  C    0.000000
     2  H    1.091737   0.000000
     3  H    1.091730   1.684599   0.000000
     4  H    1.092453   1.835333   1.794821   0.000000
     5  C    1.395009   2.041778   2.104822   1.999212   0.000000
     6  O    2.309508   2.855144   2.532051   3.095959   1.258595
     7  N    2.264792   2.666111   3.229576   2.427379   1.300210
     8  H    2.388201   2.593562   3.467733   2.247707   1.991092
     9  C    3.617715   4.007007   4.502642   3.753264   2.424412
    10  C    4.331707   4.945674   5.018945   4.451414   3.027310
    11  C    5.710208   6.256351   6.391068   5.845426   4.376226
    12  C    6.355786   6.715158   7.157380   6.499795   5.060320
    13  H    7.434551   7.775751   8.222273   7.585210   6.127542
    14  H    6.437442   7.066519   7.002184   6.585179   5.097274
    15  H    4.082124   4.885225   4.600923   4.147898   2.874011
    16  C    4.610586   4.724710   5.573524   4.759860   3.551777
    17  H    4.509628   4.384705   5.521970   4.680456   3.693539
    18  C    5.903116   6.061433   6.812944   6.064715   4.731972
    19  C    7.015612   7.003494   7.957020   7.203124   5.934163
    20  N    8.334796   8.382815   9.278928   8.449996   7.222106
    21  C    7.065630   6.847228   7.997357   7.360817   6.113577
    22  H    6.419513   6.078280   7.320368   6.806197   5.571888
    23  S    8.781874   8.514468   9.700010   9.087969   7.832543
    24  C    9.206865   9.130128  10.148110   9.391612   8.138724
    25  N   10.536092  10.465009  11.473713  10.708657   9.452423
    26  C   11.213904  11.238700  12.152016  11.318060  10.088291
    27  N   12.462566  12.448789  13.406129  12.571318  11.353524
    28  H   13.035802  13.080480  13.986785  13.083116  11.918474
    29  H   12.610428  12.514379  13.576208  12.723950  11.567421
    30  N   11.493250  11.589903  12.367927  11.654886  10.277211
    31  H   12.468032  12.544066  13.334245  12.649714  11.248227
    32  H   10.924734  10.981982  11.769288  11.168029   9.696829
    33  H   11.098251  10.945052  12.026933  11.322176  10.050114
                    6          7          8          9         10
     6  O    0.000000
     7  N    2.254888   0.000000
     8  H    3.134907   1.009656   0.000000
     9  C    2.875861   1.395299   2.020034   0.000000
    10  C    3.070744   2.431220   3.198822   1.395939   0.000000
    11  C    4.264935   3.712150   4.398954   2.429833   1.408232
    12  C    5.071247   4.170943   4.680803   2.777589   2.400043
    13  H    6.067004   5.253376   5.742167   3.861382   3.410150
    14  H    4.805537   4.609807   5.356476   3.425576   2.192756
    15  H    2.825775   2.658716   3.465602   2.142748   1.087145
    16  C    3.999206   2.414375   2.638049   1.412710   2.433600
    17  H    4.295739   2.576138   2.491413   2.131338   3.388679
    18  C    4.951883   3.681015   3.992558   2.420350   2.796726
    19  C    6.167788   4.865568   5.023910   3.749609   4.245592
    20  N    7.429398   6.125962   6.270411   4.914293   5.164274
    21  C    6.356693   5.127184   5.201525   4.274341   5.035606
    22  H    5.824306   4.697081   4.750388   4.094590   5.040199
    23  S    8.008680   6.862931   6.920774   5.965491   6.599380
    24  C    8.314048   7.077175   7.183986   5.952413   6.310474
    25  N    9.594618   8.391533   8.498189   7.233899   7.495464
    26  C   10.226423   9.003467   9.128525   7.767481   7.862928
    27  N   11.487708  10.266922  10.365587   9.049703   9.161533
    28  H   12.075745  10.807116  10.895290   9.560180   9.590821
    29  H   11.758122  10.462497  10.489867   9.320242   9.574029
    30  N   10.268452   9.281154   9.539419   7.972847   7.863281
    31  H   11.207512  10.268042  10.530091   8.964563   8.844728
    32  H    9.620398   8.761647   9.071435   7.477014   7.403947
    33  H   10.172724   9.021231   9.110288   7.926507   8.266401
                   11         12         13         14         15
    11  C    0.000000
    12  C    1.376705   0.000000
    13  H    2.170908   1.086299   0.000000
    14  H    1.086742   2.119771   2.487723   0.000000
    15  H    2.177407   3.389575   4.326438   2.560355   0.000000
    16  C    2.811021   2.413573   3.362523   3.891279   3.409547
    17  H    3.891754   3.423115   4.283779   4.968471   4.267066
    18  C    2.426474   1.404893   2.108390   3.389525   3.881795
    19  C    3.747067   2.482799   2.619108   4.585258   5.331897
    20  N    4.359502   2.986380   2.600068   4.991280   6.224994
    21  C    4.769345   3.633597   3.846058   5.649850   6.098972
    22  H    5.040690   4.115338   4.529733   5.975035   6.039364
    23  S    6.104993   4.830518   4.682003   6.846837   7.678968
    24  C    5.537965   4.165706   3.725079   6.145847   7.387737
    25  N    6.599678   5.233432   4.600284   7.081631   8.556524
    26  C    6.836038   5.515157   4.729664   7.187153   8.880522
    27  N    8.123173   6.808461   5.998684   8.438998  10.178829
    28  H    8.504921   7.237669   6.383288   8.753478  10.571737
    29  H    8.635642   7.282801   6.570921   9.049677  10.620538
    30  N    6.691137   5.463465   4.520447   6.857371   8.832004
    31  H    7.653073   6.446190   5.484408   7.769114   9.805672
    32  H    6.267727   5.031904   4.133057   6.468856   8.391694
    33  H    7.420093   6.057596   5.462312   7.919299   9.339025
                   16         17         18         19         20
    16  C    0.000000
    17  H    1.087092   0.000000
    18  C    1.389546   2.186953   0.000000
    19  C    2.459672   2.736818   1.452560   0.000000
    20  N    3.726331   4.089958   2.516755   1.436001   0.000000
    21  C    2.917348   2.717200   2.432777   1.346365   2.384147
    22  H    2.843691   2.354008   2.838997   2.217156   3.436503
    23  S    4.611982   4.430159   3.881335   2.489916   2.569994
    24  C    4.669373   4.817819   3.575250   2.215466   1.313512
    25  N    5.979630   6.146679   4.829037   3.528672   2.393589
    26  C    6.606137   6.908006   5.365132   4.241439   2.879852
    27  N    7.860406   8.100859   6.642844   5.462329   4.143224
    28  H    8.426554   8.728613   7.189447   6.109765   4.718963
    29  H    8.051133   8.157410   6.929856   5.634779   4.430145
    30  N    6.943452   7.393968   5.602186   4.664598   3.350828
    31  H    7.925726   8.346787   6.589710   5.610744   4.318265
    32  H    6.439844   6.868554   5.111148   4.146754   3.012966
    33  H    6.630094   6.683507   5.556692   4.183363   3.243791
                   21         22         23         24         25
    21  C    0.000000
    22  H    1.082873   0.000000
    23  S    1.736696   2.469143   0.000000
    24  C    2.465441   3.519381   1.712204   0.000000
    25  N    3.746809   4.763148   2.578324   1.335129   0.000000
    26  C    4.739305   5.799047   3.769519   2.280138   1.230761
    27  N    5.808918   6.833026   4.589357   3.362301   2.074803
    28  H    6.594274   7.645489   5.494035   4.138074   2.943163
    29  H    5.773983   6.742864   4.389636   3.456882   2.183127
    30  N    5.281248   6.315668   4.426667   2.962252   2.110688
    31  H    6.121435   7.133685   5.083333   3.769632   2.702670
    32  H    4.649509   5.628580   3.794387   2.529208   1.922818
    33  H    4.107928   5.020495   2.604435   2.002156   1.000001
                   26         27         28         29         30
    26  C    0.000000
    27  N    1.300439   0.000000
    28  H    1.905315   1.013934   0.000000
    29  H    1.913910   1.013395   1.726432   0.000000
    30  N    1.311211   1.892830   2.269077   2.778640   0.000000
    31  H    1.893529   1.732147   1.985381   2.639854   1.013979
    32  H    1.763403   2.499521   3.125906   3.171974   1.013711
    33  H    1.908984   2.168132   3.163207   1.916896   2.673504
                   31         32         33
    31  H    0.000000
    32  H    1.658746   0.000000
    33  H    2.959313   2.410684   0.000000
 Stoichiometry    C12H14N5OS(1+)
 Framework group  C1[X(C12H14N5OS)]
 Deg. of freedom    93
 Full point group                 C1      NOp   1
 Largest Abelian subgroup         C1      NOp   1
 Largest concise Abelian subgroup C1      NOp   1
                         Standard orientation:                         
 ---------------------------------------------------------------------
 Center     Atomic      Atomic             Coordinates (Angstroms)
 Number     Number       Type             X           Y           Z
 ---------------------------------------------------------------------
      1          6           0        6.326033   -1.027860   -0.410354
      2          1           0        6.135484   -2.091481   -0.254498
      3          1           0        7.277590   -0.908416    0.111323
      4          1           0        6.424979   -0.737059   -1.458732
      5          6           0        5.269351   -0.278152    0.106763
      6          8           0        5.307620    0.167202    1.283308
      7          7           0        4.189521   -0.305422   -0.616956
      8          1           0        4.181551   -0.875422   -1.450288
      9          6           0        3.002523    0.401141   -0.420329
     10          6           0        3.015949    1.739261   -0.022962
     11          6           0        1.809768    2.395686    0.289047
     12          6           0        0.620690    1.720941    0.127395
     13          1           0       -0.347228    2.159013    0.353833
     14          1           0        1.782730    3.386887    0.733794
     15          1           0        3.960720    2.277097   -0.027877
     16          6           0        1.776500   -0.290893   -0.537404
     17          1           0        1.840837   -1.356010   -0.745144
     18          6           0        0.591372    0.358446   -0.213881
     19          6           0       -0.656504   -0.384586   -0.188553
     20          7           0       -1.909233    0.254529   -0.478895
     21          6           0       -0.682811   -1.669747    0.211906
     22          1           0        0.110496   -2.344911    0.507592
     23         16           0       -2.343564   -2.072750    0.521103
     24          6           0       -2.862607   -0.554595   -0.076763
     25          7           0       -4.181709   -0.352520   -0.035486
     26          6           0       -4.760769    0.655472   -0.439728
     27          7           0       -6.046953    0.463503   -0.435211
     28          1           0       -6.509224    1.174786   -0.990588
     29          1           0       -6.271093   -0.501020   -0.650683
     30          7           0       -4.829927    1.589425    0.477998
     31          1           0       -5.790264    1.653425    0.797075
     32          1           0       -4.263744    1.132140    1.183645
     33          1           0       -4.745641   -1.079939    0.355468
 ---------------------------------------------------------------------
 Rotational constants (GHZ):           1.0174853           0.1293715           0.1186293
 Leave Link  202 at Sun Jul 18 15:37:11 2021, MaxMem=   104857600 cpu:               0.1 elap:               0.0
 (Enter /prod/apps/gaussian/g16b1/l301.exe)
 Standard basis: 6-31G(d) (6D, 7F)
 Ernie: Thresh=  0.10000D-02 Tol=  0.10000D-05 Strict=F.
 There are   317 symmetry adapted cartesian basis functions of A   symmetry.
 There are   317 symmetry adapted basis functions of A   symmetry.
   317 basis functions,   612 primitive gaussians,   317 cartesian basis functions
    72 alpha electrons       72 beta electrons
       nuclear repulsion energy      1466.5495366693 Hartrees.
 IExCor=  402 DFT=T Ex+Corr=B3LYP ExCW=0 ScaHFX=  0.200000
 ScaDFX=  0.800000  0.720000  1.000000  0.810000 ScalE2=  1.000000  1.000000
 IRadAn=      5 IRanWt=     -1 IRanGd=            0 ICorTp=0 IEmpDi=  4
 NAtoms=   33 NActive=   33 NUniq=   33 SFac= 1.00D+00 NAtFMM=   60 NAOKFM=F Big=F
 Integral buffers will be    131072 words long.
 Raffenetti 2 integral format.
 Two-electron integral symmetry is turned on.
 Using the following non-standard input for PCM:
 MSTModel=DFT cav MSTCharged
 --- end of non-standard input.
 MST model for solvation energy: B3LYP parametrization.
 MST cavity parameters:
 ISph   IAn     Re0     Alpha   Atom Type   QCorr
 ------------------------------------------------
   1      6     1.50     1.25      CH3        F
   2      1     1.20     1.25      CH3        F
   3      1     1.20     1.25      CH3        F
   4      1     1.20     1.25      CH3        F
   5      6     1.50     1.25      C          F
   6      8     1.40     1.25      O          F
   7      7     1.50     1.25      NH         F
   8      1     0.90     1.25      NH         F
   9      6     1.50     1.25      C          F
  10      6     1.50     1.25      CH         F
  11      6     1.50     1.25      CH         F
  12      6     1.50     1.25      CH         F
  13      1     1.20     1.25      CH         F
  14      1     1.20     1.25      CH         F
  15      1     1.20     1.25      CH         F
  16      6     1.50     1.25      CH         F
  17      1     1.20     1.25      CH         F
  18      6     1.50     1.25      C          F
  19      6     1.50     1.25      C          F
  20      7     1.40     1.25      N          F
  21      6     1.50     1.25      CH         F
  22      1     1.20     1.25      CH         F
  23     16     1.75     1.25      S          F
  24      6     1.50     1.25      C          F
  25      7     1.50     1.15      NH         T
  26      6     1.50     1.15      C          T
  27      7     1.55     1.15      NH         T
  28      1     0.90     1.15      NH         T
  29      1     0.90     1.15      NH         T
  30      7     1.55     1.15      NH         T
  31      1     0.90     1.15      NH         T
  32      1     0.90     1.15      NH         T
  33      1     0.90     1.15      NH         T
 ------------------------------------------------------------------------------
 Polarizable Continuum Model (PCM)
 =================================
 Model                : PCM.
 Atomic radii         : MST.
 Polarization charges : Total charges.
 Charge compensation  : None.
 Solution method      : On-the-fly selection.
 Cavity type          : Scaled VdW (van der Waals Surface) (Alpha=1.250).
 Cavity algorithm     : GePol (No added spheres)
                        Default sphere list used, NSphG=   33.
                        Lebedev-Laikov grids with approx.  5.0 points / Ang**2.
                        Smoothing algorithm: York/Karplus (Gamma=1.0000).
                        Polarization charges: spherical gaussians, with
                                              point-specific exponents (IZeta= 3).
                        Self-potential: point-specific (ISelfS= 7).
                        Self-field    : sphere-specific E.n sum rule (ISelfD= 2).
 1st derivatives      : Analytical E(r).r(x)/FMM algorithm (CHGder, D1EAlg=3).
                        Cavity 1st derivative terms included.
 Solvent              : Water, Eps=  78.355300 Eps(inf)=   1.777849
 ------------------------------------------------------------------------------
 GePol: Number of generator spheres                  =      33
 GePol: Total number of spheres                      =      33
 GePol: Number of exposed spheres                    =      33 (100.00%)
 GePol: Number of points                             =    2481
 GePol: Average weight of points                     =       0.13
 GePol: Minimum weight of points                     =   0.10D-08
 GePol: Maximum weight of points                     =    0.22001
 GePol: Number of points with low weight             =     147
 GePol: Fraction of low-weight points (<1% of avg)   =       5.93%
 GePol: Cavity surface area                          =    313.567 Ang**2
 GePol: Cavity volume                                =    292.135 Ang**3
 PCM non-electrostatic energy =         0.0016386453 Hartrees.
 Nuclear repulsion after PCM non-electrostatic terms =     1466.5511753146 Hartrees.
 Leave Link  301 at Sun Jul 18 15:37:11 2021, MaxMem=   104857600 cpu:               0.3 elap:               0.1
 (Enter /prod/apps/gaussian/g16b1/l302.exe)
 NPDir=0 NMtPBC=     1 NCelOv=     1 NCel=       1 NClECP=     1 NCelD=      1
         NCelK=      1 NCelE2=     1 NClLst=     1 CellRange=     0.0.
 One-electron integrals computed using PRISM.
 One-electron integral symmetry used in STVInt
 NBasis=   317 RedAO= T EigKep=  4.76D-04  NBF=   317
 NBsUse=   317 1.00D-06 EigRej= -1.00D+00 NBFU=   317
 Precomputing XC quadrature grid using
 IXCGrd= 4 IRadAn=           5 IRanWt=          -1 IRanGd=           0 AccXCQ= 0.00D+00.
 Generated NRdTot=       0 NPtTot=           0 NUsed=           0 NTot=          32
 NSgBfM=   311   311   311   311   311 MxSgAt=    33 MxSgA2=    33.
 Leave Link  302 at Sun Jul 18 15:37:11 2021, MaxMem=   104857600 cpu:               1.6 elap:               0.4
 (Enter /prod/apps/gaussian/g16b1/l303.exe)
 DipDrv:  MaxL=1.
 Leave Link  303 at Sun Jul 18 15:37:11 2021, MaxMem=   104857600 cpu:               0.2 elap:               0.1
 (Enter /prod/apps/gaussian/g16b1/l401.exe)
 ExpMin= 1.17D-01 ExpMax= 2.19D+04 ExpMxC= 3.30D+03 IAcc=3 IRadAn=         5 AccDes= 0.00D+00
 Harris functional with IExCor=  402 and IRadAn=       5 diagonalized for initial guess.
 HarFok:  IExCor=  402 AccDes= 0.00D+00 IRadAn=         5 IDoV= 1 UseB2=F ITyADJ=14
 ICtDFT=  3500011 ScaDFX=  1.000000  1.000000  1.000000  1.000000
 FoFCou: FMM=F IPFlag=           0 FMFlag=      100000 FMFlg1=           0
         NFxFlg=           0 DoJE=T BraDBF=F KetDBF=T FulRan=T
         wScrn=  0.000000 ICntrl=       500 IOpCl=  0 I1Cent=   200000004 NGrid=           0
         NMat0=    1 NMatS0=      1 NMatT0=    0 NMatD0=    1 NMtDS0=    0 NMtDT0=    0
 Petite list used in FoFCou.
 Harris En= -1212.38522926647    
 JPrj=0 DoOrth=F DoCkMO=F.
 Leave Link  401 at Sun Jul 18 15:37:13 2021, MaxMem=   104857600 cpu:               7.5 elap:               1.9
 (Enter /prod/apps/gaussian/g16b1/l502.exe)
 Integral symmetry usage will be decided dynamically.
 Closed shell SCF:
 Using DIIS extrapolation, IDIIS=  1040.
 NGot=   104857600 LenX=   104651207 LenY=   104550277
 Requested convergence on RMS density matrix=1.00D-08 within 128 cycles.
 Requested convergence on MAX density matrix=1.00D-06.
 Requested convergence on             energy=1.00D-06.
 No special actions if energy rises.
 Fock matrices will be formed incrementally for  20 cycles.

 Cycle   1  Pass 1  IDiag  1:
 FoFJK:  IHMeth= 1 ICntrl=       0 DoSepK=F KAlg= 0 I1Cent=           0 FoldK=F
 IRaf= 710000000 NMat=       1 IRICut=       1 DoRegI=T DoRafI=F ISym2E= 0 IDoP0=0 IntGTp=1.
 FoFCou: FMM=F IPFlag=           0 FMFlag=      100000 FMFlg1=           0
         NFxFlg=           0 DoJE=F BraDBF=F KetDBF=F FulRan=T
         wScrn=  0.000000 ICntrl=         0 IOpCl=  0 I1Cent=           0 NGrid=           0
         NMat0=    1 NMatS0=      1 NMatT0=    0 NMatD0=    1 NMtDS0=    0 NMtDT0=    0
 Symmetry not used in FoFCou.
 Inv3:  Mode=1 IEnd=    18466083.
 Iteration    1 A*A^-1 deviation from unit magnitude is 3.11D-15 for   1345.
 Iteration    1 A*A^-1 deviation from orthogonality  is 2.35D-15 for   2038   1625.
 Iteration    1 A^-1*A deviation from unit magnitude is 2.89D-15 for   1345.
 Iteration    1 A^-1*A deviation from orthogonality  is 4.02D-15 for   1544   1520.
 E= -1212.02333328558    
 DIIS: error= 2.55D-02 at cycle   1 NSaved=   1.
 NSaved= 1 IEnMin= 1 EnMin= -1212.02333328558     IErMin= 1 ErrMin= 2.55D-02
 ErrMax= 2.55D-02  0.00D+00 EMaxC= 1.00D-01 BMatC= 5.28D-01 BMatP= 5.28D-01
 IDIUse=3 WtCom= 7.45D-01 WtEn= 2.55D-01
 Coeff-Com:  0.100D+01
 Coeff-En:   0.100D+01
 Coeff:      0.100D+01
 Gap=     0.097 Goal=   None    Shift=    0.000
 GapD=    0.097 DampG=0.500 DampE=0.500 DampFc=0.2500 IDamp=-1.
 Damping current iteration by 2.50D-01
 RMSDP=6.71D-03 MaxDP=4.15D-01              OVMax= 9.11D-01

 Cycle   2  Pass 1  IDiag  1:
 RMSU=  1.66D-03    CP:  9.88D-01
 E= -1212.13311652852     Delta-E=       -0.109783242943 Rises=F Damp=T
 DIIS: error= 1.51D-02 at cycle   2 NSaved=   2.
 NSaved= 2 IEnMin= 2 EnMin= -1212.13311652852     IErMin= 2 ErrMin= 1.51D-02
 ErrMax= 1.51D-02  0.00D+00 EMaxC= 1.00D-01 BMatC= 1.26D-01 BMatP= 5.28D-01
 IDIUse=3 WtCom= 8.49D-01 WtEn= 1.51D-01
 Coeff-Com: -0.377D+00 0.138D+01
 Coeff-En:   0.173D+00 0.827D+00
 Coeff:     -0.294D+00 0.129D+01
 Gap=    -0.280 Goal=   None    Shift=    0.000
 RMSDP=2.69D-03 MaxDP=1.30D-01 DE=-1.10D-01 OVMax= 6.39D-01

 Cycle   3  Pass 1  IDiag  1:
 RMSU=  2.66D-03    CP:  9.68D-01  1.10D+00
 E= -1212.22052006959     Delta-E=       -0.087403541074 Rises=F Damp=F
 DIIS: error= 2.70D-02 at cycle   3 NSaved=   3.
 NSaved= 3 IEnMin= 3 EnMin= -1212.22052006959     IErMin= 2 ErrMin= 1.51D-02
 ErrMax= 2.70D-02  0.00D+00 EMaxC= 1.00D-01 BMatC= 3.34D-01 BMatP= 1.26D-01
 IDIUse=2 WtCom= 0.00D+00 WtEn= 1.00D+00
 Coeff-En:   0.000D+00 0.399D+00 0.601D+00
 Coeff:      0.000D+00 0.399D+00 0.601D+00
 Gap=     0.100 Goal=   None    Shift=    0.000
 RMSDP=5.01D-03 MaxDP=4.52D-01 DE=-8.74D-02 OVMax= 9.77D-01

 Cycle   4  Pass 1  IDiag  1:
 RMSU=  1.83D-03    CP:  9.62D-01  2.76D+00 -4.13D-01
 E= -1210.90149562111     Delta-E=        1.319024448480 Rises=F Damp=F
 DIIS: error= 4.87D-02 at cycle   4 NSaved=   4.
 NSaved= 4 IEnMin= 3 EnMin= -1212.22052006959     IErMin= 2 ErrMin= 1.51D-02
 ErrMax= 4.87D-02  0.00D+00 EMaxC= 1.00D-01 BMatC= 1.07D+00 BMatP= 1.26D-01
 IDIUse=2 WtCom= 0.00D+00 WtEn= 1.00D+00
 EnCoef did     1 forward-backward iterations
 Coeff-En:   0.615D-01 0.000D+00 0.723D+00 0.215D+00
 Coeff:      0.615D-01 0.000D+00 0.723D+00 0.215D+00
 Gap=    -0.070 Goal=   None    Shift=    0.000
 RMSDP=4.59D-03 MaxDP=3.34D-01 DE= 1.32D+00 OVMax= 8.82D-01

 Cycle   5  Pass 1  IDiag  1:
 RMSU=  1.68D-03    CP:  9.79D-01  7.75D-01  3.83D-01  8.89D-02
 E= -1212.47129322179     Delta-E=       -1.569797600681 Rises=F Damp=F
 DIIS: error= 1.04D-02 at cycle   5 NSaved=   5.
 NSaved= 5 IEnMin= 5 EnMin= -1212.47129322179     IErMin= 5 ErrMin= 1.04D-02
 ErrMax= 1.04D-02  0.00D+00 EMaxC= 1.00D-01 BMatC= 4.89D-02 BMatP= 1.26D-01
 IDIUse=3 WtCom= 8.96D-01 WtEn= 1.04D-01
 Coeff-Com: -0.206D+00 0.438D+00 0.288D+00 0.466D-02 0.475D+00
 Coeff-En:   0.000D+00 0.000D+00 0.801D-01 0.000D+00 0.920D+00
 Coeff:     -0.184D+00 0.392D+00 0.267D+00 0.417D-02 0.521D+00
 Gap=     0.110 Goal=   None    Shift=    0.000
 RMSDP=9.16D-04 MaxDP=5.01D-02 DE=-1.57D+00 OVMax= 5.58D-02

 Cycle   6  Pass 1  IDiag  1:
 RMSU=  5.52D-04    CP:  9.76D-01  8.69D-01  5.53D-01  4.71D-02  6.77D-01
 E= -1212.49920640194     Delta-E=       -0.027913180149 Rises=F Damp=F
 DIIS: error= 8.26D-03 at cycle   6 NSaved=   6.
 NSaved= 6 IEnMin= 6 EnMin= -1212.49920640194     IErMin= 6 ErrMin= 8.26D-03
 ErrMax= 8.26D-03  0.00D+00 EMaxC= 1.00D-01 BMatC= 1.56D-02 BMatP= 4.89D-02
 IDIUse=3 WtCom= 9.17D-01 WtEn= 8.26D-02
 Coeff-Com: -0.146D+00 0.216D+00 0.539D-01-0.106D-01 0.333D+00 0.554D+00
 Coeff-En:   0.000D+00 0.000D+00 0.000D+00 0.000D+00 0.243D+00 0.757D+00
 Coeff:     -0.134D+00 0.199D+00 0.494D-01-0.972D-02 0.326D+00 0.571D+00
 Gap=     0.083 Goal=   None    Shift=    0.000
 RMSDP=3.92D-04 MaxDP=2.27D-02 DE=-2.79D-02 OVMax= 2.94D-02

 Cycle   7  Pass 1  IDiag  1:
 RMSU=  1.51D-04    CP:  9.77D-01  9.09D-01  5.10D-01  6.68D-03  8.46D-01
                    CP:  7.06D-01
 E= -1212.51188137486     Delta-E=       -0.012674972921 Rises=F Damp=F
 DIIS: error= 6.30D-04 at cycle   7 NSaved=   7.
 NSaved= 7 IEnMin= 7 EnMin= -1212.51188137486     IErMin= 7 ErrMin= 6.30D-04
 ErrMax= 6.30D-04  0.00D+00 EMaxC= 1.00D-01 BMatC= 5.31D-04 BMatP= 1.56D-02
 IDIUse=3 WtCom= 9.94D-01 WtEn= 6.30D-03
 Coeff-Com: -0.394D-01 0.505D-01-0.257D-01 0.151D-03 0.622D-01 0.254D+00
 Coeff-Com:  0.699D+00
 Coeff-En:   0.000D+00 0.000D+00 0.000D+00 0.000D+00 0.000D+00 0.000D+00
 Coeff-En:   0.100D+01
 Coeff:     -0.391D-01 0.502D-01-0.255D-01 0.150D-03 0.618D-01 0.252D+00
 Coeff:      0.700D+00
 Gap=     0.082 Goal=   None    Shift=    0.000
 RMSDP=1.00D-04 MaxDP=4.38D-03 DE=-1.27D-02 OVMax= 9.64D-03

 Cycle   8  Pass 1  IDiag  1:
 RMSU=  5.90D-05    CP:  9.77D-01  8.98D-01  4.96D-01  1.50D-02  8.66D-01
                    CP:  8.04D-01  8.61D-01
 E= -1212.51237544645     Delta-E=       -0.000494071583 Rises=F Damp=F
 DIIS: error= 2.76D-04 at cycle   8 NSaved=   8.
 NSaved= 8 IEnMin= 8 EnMin= -1212.51237544645     IErMin= 8 ErrMin= 2.76D-04
 ErrMax= 2.76D-04  0.00D+00 EMaxC= 1.00D-01 BMatC= 9.02D-05 BMatP= 5.31D-04
 IDIUse=3 WtCom= 9.97D-01 WtEn= 2.76D-03
 Coeff-Com: -0.957D-02 0.120D-01-0.253D-01 0.979D-03-0.115D-01 0.743D-01
 Coeff-Com:  0.398D+00 0.561D+00
 Coeff-En:   0.000D+00 0.000D+00 0.000D+00 0.000D+00 0.000D+00 0.000D+00
 Coeff-En:   0.000D+00 0.100D+01
 Coeff:     -0.955D-02 0.120D-01-0.252D-01 0.977D-03-0.115D-01 0.741D-01
 Coeff:      0.397D+00 0.562D+00
 Gap=     0.082 Goal=   None    Shift=    0.000
 RMSDP=3.77D-05 MaxDP=1.55D-03 DE=-4.94D-04 OVMax= 3.24D-03

 Cycle   9  Pass 1  IDiag  1:
 RMSU=  2.30D-05    CP:  9.77D-01  9.01D-01  4.92D-01  1.09D-02  8.75D-01
                    CP:  8.22D-01  9.52D-01  7.57D-01
 E= -1212.51246225139     Delta-E=       -0.000086804944 Rises=F Damp=F
 DIIS: error= 1.49D-04 at cycle   9 NSaved=   9.
 NSaved= 9 IEnMin= 9 EnMin= -1212.51246225139     IErMin= 9 ErrMin= 1.49D-04
 ErrMax= 1.49D-04  0.00D+00 EMaxC= 1.00D-01 BMatC= 1.03D-05 BMatP= 9.02D-05
 IDIUse=3 WtCom= 9.99D-01 WtEn= 1.49D-03
 Coeff-Com: -0.223D-02 0.392D-02-0.761D-02 0.207D-03-0.111D-01-0.574D-03
 Coeff-Com:  0.556D-01 0.260D+00 0.702D+00
 Coeff-En:   0.000D+00 0.000D+00 0.000D+00 0.000D+00 0.000D+00 0.000D+00
 Coeff-En:   0.000D+00 0.000D+00 0.100D+01
 Coeff:     -0.223D-02 0.391D-02-0.760D-02 0.206D-03-0.111D-01-0.573D-03
 Coeff:      0.555D-01 0.260D+00 0.702D+00
 Gap=     0.082 Goal=   None    Shift=    0.000
 RMSDP=1.43D-05 MaxDP=6.78D-04 DE=-8.68D-05 OVMax= 9.56D-04

 Cycle  10  Pass 1  IDiag  1:
 RMSU=  9.76D-06    CP:  9.77D-01  9.01D-01  4.91D-01  9.98D-03  8.77D-01
                    CP:  8.30D-01  9.71D-01  8.39D-01  7.58D-01
 E= -1212.51247166285     Delta-E=       -0.000009411462 Rises=F Damp=F
 DIIS: error= 3.37D-05 at cycle  10 NSaved=  10.
 NSaved=10 IEnMin=10 EnMin= -1212.51247166285     IErMin=10 ErrMin= 3.37D-05
 ErrMax= 3.37D-05  0.00D+00 EMaxC= 1.00D-01 BMatC= 1.40D-06 BMatP= 1.03D-05
 IDIUse=1 WtCom= 1.00D+00 WtEn= 0.00D+00
 Coeff-Com: -0.575D-03 0.110D-02-0.843D-03 0.496D-04-0.227D-02-0.675D-02
 Coeff-Com: -0.234D-01 0.469D-01 0.343D+00 0.643D+00
 Coeff:     -0.575D-03 0.110D-02-0.843D-03 0.496D-04-0.227D-02-0.675D-02
 Coeff:     -0.234D-01 0.469D-01 0.343D+00 0.643D+00
 Gap=     0.082 Goal=   None    Shift=    0.000
 RMSDP=5.81D-06 MaxDP=1.90D-04 DE=-9.41D-06 OVMax= 6.89D-04

 Cycle  11  Pass 1  IDiag  1:
 RMSU=  3.64D-06    CP:  9.77D-01  9.02D-01  4.91D-01  9.83D-03  8.78D-01
                    CP:  8.32D-01  9.72D-01  8.57D-01  8.74D-01  7.51D-01
 E= -1212.51247311391     Delta-E=       -0.000001451054 Rises=F Damp=F
 DIIS: error= 1.15D-05 at cycle  11 NSaved=  11.
 NSaved=11 IEnMin=11 EnMin= -1212.51247311391     IErMin=11 ErrMin= 1.15D-05
 ErrMax= 1.15D-05  0.00D+00 EMaxC= 1.00D-01 BMatC= 1.53D-07 BMatP= 1.40D-06
 IDIUse=1 WtCom= 1.00D+00 WtEn= 0.00D+00
 Coeff-Com: -0.136D-03 0.242D-03 0.260D-03 0.488D-06 0.528D-04-0.359D-02
 Coeff-Com: -0.190D-01-0.443D-02 0.106D+00 0.341D+00 0.579D+00
 Coeff:     -0.136D-03 0.242D-03 0.260D-03 0.488D-06 0.528D-04-0.359D-02
 Coeff:     -0.190D-01-0.443D-02 0.106D+00 0.341D+00 0.579D+00
 Gap=     0.082 Goal=   None    Shift=    0.000
 RMSDP=1.87D-06 MaxDP=1.10D-04 DE=-1.45D-06 OVMax= 1.62D-04

 Cycle  12  Pass 1  IDiag  1:
 RMSU=  1.17D-06    CP:  9.77D-01  9.02D-01  4.90D-01  9.90D-03  8.79D-01
                    CP:  8.33D-01  9.72D-01  8.66D-01  8.97D-01  8.29D-01
                    CP:  8.59D-01
 E= -1212.51247327108     Delta-E=       -0.000000157174 Rises=F Damp=F
 DIIS: error= 3.81D-06 at cycle  12 NSaved=  12.
 NSaved=12 IEnMin=12 EnMin= -1212.51247327108     IErMin=12 ErrMin= 3.81D-06
 ErrMax= 3.81D-06  0.00D+00 EMaxC= 1.00D-01 BMatC= 1.21D-08 BMatP= 1.53D-07
 IDIUse=1 WtCom= 1.00D+00 WtEn= 0.00D+00
 Coeff-Com: -0.439D-04 0.616D-04 0.259D-03-0.116D-04 0.414D-03-0.920D-03
 Coeff-Com: -0.668D-02-0.948D-02 0.102D-01 0.104D+00 0.283D+00 0.620D+00
 Coeff:     -0.439D-04 0.616D-04 0.259D-03-0.116D-04 0.414D-03-0.920D-03
 Coeff:     -0.668D-02-0.948D-02 0.102D-01 0.104D+00 0.283D+00 0.620D+00
 Gap=     0.082 Goal=   None    Shift=    0.000
 RMSDP=6.38D-07 MaxDP=3.41D-05 DE=-1.57D-07 OVMax= 6.95D-05

 Cycle  13  Pass 1  IDiag  1:
 RMSU=  3.82D-07    CP:  9.77D-01  9.02D-01  4.90D-01  9.85D-03  8.79D-01
                    CP:  8.33D-01  9.72D-01  8.68D-01  9.01D-01  8.53D-01
                    CP:  9.44D-01  8.72D-01
 E= -1212.51247328595     Delta-E=       -0.000000014869 Rises=F Damp=F
 DIIS: error= 1.37D-06 at cycle  13 NSaved=  13.
 NSaved=13 IEnMin=13 EnMin= -1212.51247328595     IErMin=13 ErrMin= 1.37D-06
 ErrMax= 1.37D-06  0.00D+00 EMaxC= 1.00D-01 BMatC= 1.84D-09 BMatP= 1.21D-08
 IDIUse=1 WtCom= 1.00D+00 WtEn= 0.00D+00
 Coeff-Com:  0.256D-04-0.451D-04 0.109D-03-0.135D-05 0.188D-03-0.424D-04
 Coeff-Com: -0.756D-03-0.460D-02-0.902D-02 0.952D-02 0.505D-01 0.288D+00
 Coeff-Com:  0.666D+00
 Coeff:      0.256D-04-0.451D-04 0.109D-03-0.135D-05 0.188D-03-0.424D-04
 Coeff:     -0.756D-03-0.460D-02-0.902D-02 0.952D-02 0.505D-01 0.288D+00
 Coeff:      0.666D+00
 Gap=     0.082 Goal=   None    Shift=    0.000
 RMSDP=2.70D-07 MaxDP=1.00D-05 DE=-1.49D-08 OVMax= 3.23D-05

 Cycle  14  Pass 1  IDiag  1:
 RMSU=  1.57D-07    CP:  9.77D-01  9.02D-01  4.90D-01  9.83D-03  8.79D-01
                    CP:  8.33D-01  9.73D-01  8.68D-01  9.04D-01  8.65D-01
                    CP:  9.76D-01  9.64D-01  9.33D-01
 E= -1212.51247328803     Delta-E=       -0.000000002080 Rises=F Damp=F
 DIIS: error= 9.78D-07 at cycle  14 NSaved=  14.
 NSaved=14 IEnMin=14 EnMin= -1212.51247328803     IErMin=14 ErrMin= 9.78D-07
 ErrMax= 9.78D-07  0.00D+00 EMaxC= 1.00D-01 BMatC= 5.88D-10 BMatP= 1.84D-09
 IDIUse=1 WtCom= 1.00D+00 WtEn= 0.00D+00
 Coeff-Com:  0.322D-04-0.443D-04 0.260D-05 0.134D-05-0.131D-04 0.147D-03
 Coeff-Com:  0.119D-02-0.918D-04-0.568D-02-0.148D-01-0.400D-01 0.658D-02
 Coeff-Com:  0.345D+00 0.708D+00
 Coeff:      0.322D-04-0.443D-04 0.260D-05 0.134D-05-0.131D-04 0.147D-03
 Coeff:      0.119D-02-0.918D-04-0.568D-02-0.148D-01-0.400D-01 0.658D-02
 Coeff:      0.345D+00 0.708D+00
 Gap=     0.082 Goal=   None    Shift=    0.000
 RMSDP=1.45D-07 MaxDP=5.64D-06 DE=-2.08D-09 OVMax= 1.69D-05

 Cycle  15  Pass 1  IDiag  1:
 RMSU=  5.97D-08    CP:  9.77D-01  9.02D-01  4.90D-01  9.83D-03  8.79D-01
                    CP:  8.33D-01  9.73D-01  8.69D-01  9.05D-01  8.70D-01
                    CP:  9.93D-01  1.02D+00  1.09D+00  8.45D-01
 E= -1212.51247328863     Delta-E=       -0.000000000601 Rises=F Damp=F
 DIIS: error= 3.23D-07 at cycle  15 NSaved=  15.
 NSaved=15 IEnMin=15 EnMin= -1212.51247328863     IErMin=15 ErrMin= 3.23D-07
 ErrMax= 3.23D-07  0.00D+00 EMaxC= 1.00D-01 BMatC= 9.84D-11 BMatP= 5.88D-10
 IDIUse=1 WtCom= 1.00D+00 WtEn= 0.00D+00
 Coeff-Com:  0.201D-04-0.288D-04-0.847D-05 0.112D-05-0.280D-04 0.674D-04
 Coeff-Com:  0.702D-03 0.505D-03-0.152D-02-0.786D-02-0.247D-01-0.334D-01
 Coeff-Com:  0.745D-01 0.336D+00 0.656D+00
 Coeff:      0.201D-04-0.288D-04-0.847D-05 0.112D-05-0.280D-04 0.674D-04
 Coeff:      0.702D-03 0.505D-03-0.152D-02-0.786D-02-0.247D-01-0.334D-01
 Coeff:      0.745D-01 0.336D+00 0.656D+00
 Gap=     0.082 Goal=   None    Shift=    0.000
 RMSDP=4.08D-08 MaxDP=1.80D-06 DE=-6.01D-10 OVMax= 3.27D-06

 Cycle  16  Pass 1  IDiag  1:
 RMSU=  2.06D-08    CP:  9.77D-01  9.02D-01  4.90D-01  9.83D-03  8.79D-01
                    CP:  8.33D-01  9.73D-01  8.69D-01  9.05D-01  8.71D-01
                    CP:  9.97D-01  1.03D+00  1.13D+00  9.53D-01  8.70D-01
 E= -1212.51247328873     Delta-E=       -0.000000000099 Rises=F Damp=F
 DIIS: error= 2.07D-07 at cycle  16 NSaved=  16.
 NSaved=16 IEnMin=16 EnMin= -1212.51247328873     IErMin=16 ErrMin= 2.07D-07
 ErrMax= 2.07D-07  0.00D+00 EMaxC= 1.00D-01 BMatC= 2.27D-11 BMatP= 9.84D-11
 IDIUse=1 WtCom= 1.00D+00 WtEn= 0.00D+00
 Coeff-Com:  0.569D-05-0.727D-05-0.397D-05 0.293D-06-0.130D-04 0.204D-04
 Coeff-Com:  0.261D-03 0.396D-03 0.214D-03-0.213D-02-0.850D-02-0.224D-01
 Coeff-Com: -0.122D-01 0.891D-01 0.353D+00 0.603D+00
 Coeff:      0.569D-05-0.727D-05-0.397D-05 0.293D-06-0.130D-04 0.204D-04
 Coeff:      0.261D-03 0.396D-03 0.214D-03-0.213D-02-0.850D-02-0.224D-01
 Coeff:     -0.122D-01 0.891D-01 0.353D+00 0.603D+00
 Gap=     0.082 Goal=   None    Shift=    0.000
 RMSDP=1.93D-08 MaxDP=9.24D-07 DE=-9.91D-11 OVMax= 1.75D-06

 Cycle  17  Pass 1  IDiag  1:
 RMSU=  7.42D-09    CP:  9.77D-01  9.02D-01  4.90D-01  9.83D-03  8.79D-01
                    CP:  8.33D-01  9.73D-01  8.69D-01  9.05D-01  8.71D-01
                    CP:  9.99D-01  1.03D+00  1.14D+00  9.75D-01  9.73D-01
                    CP:  7.62D-01
 E= -1212.51247328874     Delta-E=       -0.000000000014 Rises=F Damp=F
 DIIS: error= 3.55D-08 at cycle  17 NSaved=  17.
 NSaved=17 IEnMin=17 EnMin= -1212.51247328874     IErMin=17 ErrMin= 3.55D-08
 ErrMax= 3.55D-08  0.00D+00 EMaxC= 1.00D-01 BMatC= 1.43D-12 BMatP= 2.27D-11
 IDIUse=1 WtCom= 1.00D+00 WtEn= 0.00D+00
 Coeff-Com:  0.107D-05-0.134D-05-0.144D-05 0.137D-06-0.394D-05 0.345D-05
 Coeff-Com:  0.668D-04 0.177D-03 0.342D-03-0.189D-03-0.158D-02-0.844D-02
 Coeff-Com: -0.170D-01 0.797D-02 0.106D+00 0.318D+00 0.594D+00
 Coeff:      0.107D-05-0.134D-05-0.144D-05 0.137D-06-0.394D-05 0.345D-05
 Coeff:      0.668D-04 0.177D-03 0.342D-03-0.189D-03-0.158D-02-0.844D-02
 Coeff:     -0.170D-01 0.797D-02 0.106D+00 0.318D+00 0.594D+00
 Gap=     0.082 Goal=   None    Shift=    0.000
 RMSDP=5.02D-09 MaxDP=1.79D-07 DE=-1.41D-11 OVMax= 3.30D-07

 Error on total polarization charges =  0.02566
 SCF Done:  E(RB3LYP) =  -1212.51247329     A.U. after   17 cycles
            NFock= 17  Conv=0.50D-08     -V/T= 2.0057
 KE= 1.205641003204D+03 PE=-5.755244560011D+03 EE= 1.870539908204D+03
 Leave Link  502 at Sun Jul 18 15:38:29 2021, MaxMem=   104857600 cpu:             304.0 elap:              76.1
 (Enter /prod/apps/gaussian/g16b1/l601.exe)
 Copying SCF densities to generalized density rwf, IOpCl= 0 IROHF=0.

 **********************************************************************

            Population analysis using the SCF Density.

 **********************************************************************

 Orbital symmetries:
       Occupied  (A) (A) (A) (A) (A) (A) (A) (A) (A) (A) (A) (A)
                 (A) (A) (A) (A) (A) (A) (A) (A) (A) (A) (A) (A)
                 (A) (A) (A) (A) (A) (A) (A) (A) (A) (A) (A) (A)
                 (A) (A) (A) (A) (A) (A) (A) (A) (A) (A) (A) (A)
                 (A) (A) (A) (A) (A) (A) (A) (A) (A) (A) (A) (A)
                 (A) (A) (A) (A) (A) (A) (A) (A) (A) (A) (A) (A)
       Virtual   (A) (A) (A) (A) (A) (A) (A) (A) (A) (A) (A) (A)
                 (A) (A) (A) (A) (A) (A) (A) (A) (A) (A) (A) (A)
                 (A) (A) (A) (A) (A) (A) (A) (A) (A) (A) (A) (A)
                 (A) (A) (A) (A) (A) (A) (A) (A) (A) (A) (A) (A)
                 (A) (A) (A) (A) (A) (A) (A) (A) (A) (A) (A) (A)
                 (A) (A) (A) (A) (A) (A) (A) (A) (A) (A) (A) (A)
                 (A) (A) (A) (A) (A) (A) (A) (A) (A) (A) (A) (A)
                 (A) (A) (A) (A) (A) (A) (A) (A) (A) (A) (A) (A)
                 (A) (A) (A) (A) (A) (A) (A) (A) (A) (A) (A) (A)
                 (A) (A) (A) (A) (A) (A) (A) (A) (A) (A) (A) (A)
                 (A) (A) (A) (A) (A) (A) (A) (A) (A) (A) (A) (A)
                 (A) (A) (A) (A) (A) (A) (A) (A) (A) (A) (A) (A)
                 (A) (A) (A) (A) (A) (A) (A) (A) (A) (A) (A) (A)
                 (A) (A) (A) (A) (A) (A) (A) (A) (A) (A) (A) (A)
                 (A) (A) (A) (A) (A) (A) (A) (A) (A) (A) (A) (A)
                 (A) (A) (A) (A) (A) (A) (A) (A) (A) (A) (A) (A)
                 (A) (A) (A) (A) (A) (A) (A) (A) (A) (A) (A) (A)
                 (A) (A) (A) (A) (A) (A) (A) (A) (A) (A) (A) (A)
                 (A) (A) (A) (A) (A) (A) (A) (A) (A) (A) (A) (A)
                 (A) (A) (A) (A) (A) (A) (A) (A) (A) (A) (A) (A)
                 (A) (A) (A) (A) (A)
 The electronic state is 1-A.
 Alpha  occ. eigenvalues --  -88.92712 -19.10504 -14.41554 -14.36887 -14.36798
 Alpha  occ. eigenvalues --  -14.35672 -14.34102 -10.34374 -10.31115 -10.28129
 Alpha  occ. eigenvalues --  -10.24429 -10.23785 -10.22938 -10.20970 -10.19900
 Alpha  occ. eigenvalues --  -10.19892 -10.19747 -10.19303 -10.17677  -7.99037
 Alpha  occ. eigenvalues --   -5.95440  -5.95053  -5.94702  -1.13329  -1.03169
 Alpha  occ. eigenvalues --   -1.01275  -0.95599  -0.94507  -0.89545  -0.86474
 Alpha  occ. eigenvalues --   -0.82314  -0.80220  -0.77955  -0.75207  -0.73118
 Alpha  occ. eigenvalues --   -0.69033  -0.66113  -0.63734  -0.62912  -0.60976
 Alpha  occ. eigenvalues --   -0.58984  -0.56250  -0.54613  -0.54120  -0.53608
 Alpha  occ. eigenvalues --   -0.50986  -0.49752  -0.48750  -0.47917  -0.47390
 Alpha  occ. eigenvalues --   -0.46143  -0.45357  -0.44692  -0.44358  -0.43113
 Alpha  occ. eigenvalues --   -0.42483  -0.40910  -0.38937  -0.38651  -0.38189
 Alpha  occ. eigenvalues --   -0.37040  -0.36202  -0.34836  -0.33562  -0.30702
 Alpha  occ. eigenvalues --   -0.29973  -0.28800  -0.27098  -0.25061  -0.24656
 Alpha  occ. eigenvalues --   -0.23492  -0.22175
 Alpha virt. eigenvalues --   -0.13974  -0.03723  -0.01934  -0.00956   0.00757
 Alpha virt. eigenvalues --    0.02736   0.05666   0.08259   0.09448   0.09974
 Alpha virt. eigenvalues --    0.11176   0.11659   0.12954   0.14031   0.14309
 Alpha virt. eigenvalues --    0.15052   0.15233   0.16237   0.16906   0.17859
 Alpha virt. eigenvalues --    0.17929   0.19082   0.19654   0.19798   0.23283
 Alpha virt. eigenvalues --    0.24758   0.26179   0.26901   0.27629   0.29357
 Alpha virt. eigenvalues --    0.30433   0.30766   0.31305   0.33021   0.34576
 Alpha virt. eigenvalues --    0.35000   0.35187   0.36772   0.37372   0.39873
 Alpha virt. eigenvalues --    0.41139   0.42298   0.44672   0.45616   0.48511
 Alpha virt. eigenvalues --    0.49820   0.50561   0.52821   0.53060   0.53753
 Alpha virt. eigenvalues --    0.54088   0.55004   0.55491   0.56404   0.56605
 Alpha virt. eigenvalues --    0.57559   0.58736   0.59146   0.59459   0.60664
 Alpha virt. eigenvalues --    0.61413   0.62602   0.63458   0.64020   0.64916
 Alpha virt. eigenvalues --    0.66261   0.66613   0.67885   0.68856   0.69321
 Alpha virt. eigenvalues --    0.70549   0.72560   0.73502   0.74225   0.75362
 Alpha virt. eigenvalues --    0.76240   0.76570   0.77479   0.78642   0.80058
 Alpha virt. eigenvalues --    0.80637   0.81636   0.82385   0.82759   0.83325
 Alpha virt. eigenvalues --    0.83950   0.84532   0.85689   0.85934   0.86414
 Alpha virt. eigenvalues --    0.87076   0.87155   0.87715   0.88360   0.89020
 Alpha virt. eigenvalues --    0.89227   0.89536   0.91329   0.93344   0.93903
 Alpha virt. eigenvalues --    0.94491   0.95487   0.95953   0.96357   0.98217
 Alpha virt. eigenvalues --    0.99076   0.99925   1.01702   1.02013   1.02381
 Alpha virt. eigenvalues --    1.03687   1.04989   1.06087   1.08505   1.10769
 Alpha virt. eigenvalues --    1.12415   1.12712   1.15203   1.17283   1.17735
 Alpha virt. eigenvalues --    1.21980   1.22563   1.23327   1.24874   1.25792
 Alpha virt. eigenvalues --    1.29288   1.30026   1.31730   1.34124   1.35742
 Alpha virt. eigenvalues --    1.36202   1.38753   1.39291   1.44418   1.45968
 Alpha virt. eigenvalues --    1.46373   1.47752   1.48746   1.49237   1.52888
 Alpha virt. eigenvalues --    1.53894   1.55240   1.59101   1.59672   1.62738
 Alpha virt. eigenvalues --    1.66929   1.70678   1.71612   1.72192   1.75123
 Alpha virt. eigenvalues --    1.76629   1.78379   1.79741   1.80837   1.82049
 Alpha virt. eigenvalues --    1.84229   1.85173   1.87934   1.88031   1.88675
 Alpha virt. eigenvalues --    1.89759   1.92324   1.93436   1.95017   1.96150
 Alpha virt. eigenvalues --    1.98681   1.99134   2.01093   2.03273   2.05252
 Alpha virt. eigenvalues --    2.06628   2.09279   2.11123   2.12124   2.13023
 Alpha virt. eigenvalues --    2.13552   2.14599   2.16448   2.17847   2.20235
 Alpha virt. eigenvalues --    2.21192   2.22040   2.23716   2.25337   2.26230
 Alpha virt. eigenvalues --    2.27431   2.28625   2.30628   2.31626   2.33709
 Alpha virt. eigenvalues --    2.36224   2.40699   2.42375   2.43431   2.44773
 Alpha virt. eigenvalues --    2.47369   2.47896   2.49306   2.50846   2.54797
 Alpha virt. eigenvalues --    2.56290   2.56472   2.58435   2.61071   2.63322
 Alpha virt. eigenvalues --    2.64757   2.65251   2.65820   2.69180   2.71972
 Alpha virt. eigenvalues --    2.75685   2.77050   2.77457   2.79351   2.82419
 Alpha virt. eigenvalues --    2.84442   2.88248   2.90594   2.96338   3.00515
 Alpha virt. eigenvalues --    3.03640   3.07723   3.17751   3.25952   3.29558
 Alpha virt. eigenvalues --    3.42800   3.79419   3.84591   3.93822   4.00961
 Alpha virt. eigenvalues --    4.07140   4.08394   4.09628   4.12251   4.14731
 Alpha virt. eigenvalues --    4.18576   4.19653   4.22448   4.28377   4.32221
 Alpha virt. eigenvalues --    4.35615   4.43202   4.51556   4.58194   4.74697
          Condensed to atoms (all electrons):
               1          2          3          4          5          6
     1  C    5.364254   0.359992   0.359654   0.334641   0.360750  -0.098883
     2  H    0.359992   0.504089  -0.028582  -0.016225  -0.022791  -0.000321
     3  H    0.359654  -0.028582   0.519131  -0.020259  -0.021292   0.002418
     4  H    0.334641  -0.016225  -0.020259   0.542305  -0.026912   0.003975
     5  C    0.360750  -0.022791  -0.021292  -0.026912   4.302463   0.597242
     6  O   -0.098883  -0.000321   0.002418   0.003975   0.597242   8.211213
     7  N   -0.140299  -0.001775   0.006177   0.004769   0.253730  -0.110192
     8  H   -0.001565   0.000958  -0.000046   0.001841  -0.022970   0.003105
     9  C    0.007864  -0.000232  -0.000120  -0.000077  -0.015852   0.004922
    10  C    0.000666  -0.000006  -0.000002  -0.000020  -0.001785   0.003216
    11  C   -0.000006   0.000000  -0.000000  -0.000000   0.000095  -0.000202
    12  C    0.000000  -0.000000  -0.000000   0.000000   0.000032   0.000005
    13  H    0.000000  -0.000000  -0.000000  -0.000000  -0.000000   0.000000
    14  H   -0.000000  -0.000000   0.000000  -0.000000  -0.000006   0.000001
    15  H   -0.000169   0.000005   0.000008  -0.000021   0.004604   0.001897
    16  C   -0.000519   0.000055   0.000003  -0.000013   0.001432  -0.000359
    17  H   -0.000006  -0.000005   0.000001  -0.000005   0.000049  -0.000010
    18  C    0.000004  -0.000000  -0.000000  -0.000000  -0.000114  -0.000013
    19  C   -0.000000   0.000000   0.000000   0.000000  -0.000001  -0.000000
    20  N    0.000000   0.000000  -0.000000  -0.000000  -0.000000   0.000000
    21  C    0.000000  -0.000000  -0.000000  -0.000000   0.000000  -0.000000
    22  H    0.000000   0.000000  -0.000000   0.000000  -0.000000   0.000000
    23  S   -0.000000   0.000000  -0.000000  -0.000000   0.000000   0.000000
    24  C    0.000000   0.000000   0.000000   0.000000  -0.000000   0.000000
    25  N    0.000000   0.000000  -0.000000   0.000000  -0.000000   0.000000
    26  C   -0.000000   0.000000   0.000000  -0.000000   0.000000   0.000000
    27  N    0.000000  -0.000000   0.000000   0.000000   0.000000   0.000000
    28  H    0.000000   0.000000   0.000000   0.000000  -0.000000   0.000000
    29  H   -0.000000   0.000000   0.000000   0.000000  -0.000000   0.000000
    30  N   -0.000000   0.000000  -0.000000   0.000000  -0.000000  -0.000000
    31  H   -0.000000  -0.000000   0.000000  -0.000000   0.000000   0.000000
    32  H   -0.000000  -0.000000  -0.000000  -0.000000   0.000000   0.000000
    33  H   -0.000000   0.000000   0.000000  -0.000000  -0.000000   0.000000
               7          8          9         10         11         12
     1  C   -0.140299  -0.001565   0.007864   0.000666  -0.000006   0.000000
     2  H   -0.001775   0.000958  -0.000232  -0.000006   0.000000  -0.000000
     3  H    0.006177  -0.000046  -0.000120  -0.000002  -0.000000  -0.000000
     4  H    0.004769   0.001841  -0.000077  -0.000020  -0.000000   0.000000
     5  C    0.253730  -0.022970  -0.015852  -0.001785   0.000095   0.000032
     6  O   -0.110192   0.003105   0.004922   0.003216  -0.000202   0.000005
     7  N    7.249953   0.301504   0.206130  -0.064452   0.005338   0.000897
     8  H    0.301504   0.336309  -0.017952   0.003955  -0.000053  -0.000015
     9  C    0.206130  -0.017952   4.596037   0.554715  -0.005710  -0.038842
    10  C   -0.064452   0.003955   0.554715   4.976350   0.500004  -0.042420
    11  C    0.005338  -0.000053  -0.005710   0.500004   4.932367   0.505536
    12  C    0.000897  -0.000015  -0.038842  -0.042420   0.505536   5.021769
    13  H    0.000005  -0.000000   0.000226   0.005019  -0.043449   0.358115
    14  H   -0.000109   0.000002   0.002821  -0.035137   0.361132  -0.036880
    15  H   -0.009228  -0.000049  -0.035127   0.355025  -0.040796   0.004317
    16  C   -0.048950  -0.004992   0.480656  -0.063197  -0.052772  -0.066664
    17  H   -0.003449   0.002801  -0.042289   0.005873  -0.000134   0.005663
    18  C    0.003911   0.000006  -0.004290  -0.038287  -0.005608   0.511062
    19  C   -0.000216   0.000006   0.005850   0.000756   0.008075  -0.050729
    20  N    0.000000  -0.000000  -0.000099   0.000004   0.000400  -0.006010
    21  C   -0.000004  -0.000001   0.000178   0.000029  -0.000267   0.007233
    22  H   -0.000014   0.000001   0.000040   0.000003  -0.000005  -0.000176
    23  S   -0.000000  -0.000000  -0.000001  -0.000000   0.000015   0.000120
    24  C   -0.000000   0.000000   0.000004   0.000000  -0.000007   0.000019
    25  N   -0.000000   0.000000  -0.000000   0.000000  -0.000000  -0.000014
    26  C   -0.000000  -0.000000   0.000000   0.000000   0.000000  -0.000001
    27  N    0.000000   0.000000  -0.000000   0.000000   0.000000  -0.000000
    28  H    0.000000   0.000000   0.000000  -0.000000   0.000000   0.000000
    29  H   -0.000000  -0.000000   0.000000  -0.000000   0.000000   0.000000
    30  N   -0.000000  -0.000000  -0.000000   0.000000  -0.000000  -0.000011
    31  H   -0.000000  -0.000000   0.000000  -0.000000   0.000000   0.000000
    32  H   -0.000000  -0.000000  -0.000000   0.000000  -0.000000  -0.000005
    33  H   -0.000000  -0.000000   0.000000  -0.000000  -0.000000   0.000000
              13         14         15         16         17         18
     1  C    0.000000  -0.000000  -0.000169  -0.000519  -0.000006   0.000004
     2  H   -0.000000  -0.000000   0.000005   0.000055  -0.000005  -0.000000
     3  H   -0.000000   0.000000   0.000008   0.000003   0.000001  -0.000000
     4  H   -0.000000  -0.000000  -0.000021  -0.000013  -0.000005  -0.000000
     5  C   -0.000000  -0.000006   0.004604   0.001432   0.000049  -0.000114
     6  O    0.000000   0.000001   0.001897  -0.000359  -0.000010  -0.000013
     7  N    0.000005  -0.000109  -0.009228  -0.048950  -0.003449   0.003911
     8  H   -0.000000   0.000002  -0.000049  -0.004992   0.002801   0.000006
     9  C    0.000226   0.002821  -0.035127   0.480656  -0.042289  -0.004290
    10  C    0.005019  -0.035137   0.355025  -0.063197   0.005873  -0.038287
    11  C   -0.043449   0.361132  -0.040796  -0.052772  -0.000134  -0.005608
    12  C    0.358115  -0.036880   0.004317  -0.066664   0.005663   0.511062
    13  H    0.574850  -0.004922  -0.000137   0.006891  -0.000142  -0.046768
    14  H   -0.004922   0.550357  -0.004030   0.000983   0.000017   0.003270
    15  H   -0.000137  -0.004030   0.560228   0.006082  -0.000158   0.000338
    16  C    0.006891   0.000983   0.006082   5.165252   0.346958   0.509604
    17  H   -0.000142   0.000017  -0.000158   0.346958   0.561026  -0.036323
    18  C   -0.046768   0.003270   0.000338   0.509604  -0.036323   4.771094
    19  C   -0.013555  -0.000209   0.000005  -0.044000  -0.010314   0.339748
    20  N    0.012443  -0.000006   0.000000   0.003611   0.000000  -0.055559
    21  C    0.000465   0.000002  -0.000000  -0.017484   0.006309  -0.055962
    22  H   -0.000018   0.000000  -0.000000   0.003259   0.001895  -0.006551
    23  S    0.000116  -0.000000   0.000000   0.000470  -0.000042   0.006708
    24  C   -0.000251  -0.000000  -0.000000   0.000071  -0.000009   0.006116
    25  N   -0.000044   0.000000  -0.000000   0.000002   0.000000  -0.000176
    26  C    0.000045  -0.000000   0.000000   0.000000   0.000000  -0.000042
    27  N    0.000000  -0.000000   0.000000  -0.000000  -0.000000  -0.000000
    28  H   -0.000000  -0.000000  -0.000000  -0.000000  -0.000000   0.000000
    29  H   -0.000000   0.000000  -0.000000   0.000000  -0.000000  -0.000000
    30  N    0.000048  -0.000000   0.000000   0.000000   0.000000   0.000006
    31  H    0.000000   0.000000   0.000000  -0.000000   0.000000  -0.000000
    32  H    0.000045  -0.000000   0.000000   0.000000   0.000000   0.000000
    33  H   -0.000000   0.000000   0.000000   0.000000   0.000000   0.000001
              19         20         21         22         23         24
     1  C   -0.000000   0.000000   0.000000   0.000000  -0.000000   0.000000
     2  H    0.000000   0.000000  -0.000000   0.000000   0.000000   0.000000
     3  H    0.000000  -0.000000  -0.000000  -0.000000  -0.000000   0.000000
     4  H    0.000000  -0.000000  -0.000000   0.000000  -0.000000   0.000000
     5  C   -0.000001  -0.000000   0.000000  -0.000000   0.000000  -0.000000
     6  O   -0.000000   0.000000  -0.000000   0.000000   0.000000   0.000000
     7  N   -0.000216   0.000000  -0.000004  -0.000014  -0.000000  -0.000000
     8  H    0.000006  -0.000000  -0.000001   0.000001  -0.000000   0.000000
     9  C    0.005850  -0.000099   0.000178   0.000040  -0.000001   0.000004
    10  C    0.000756   0.000004   0.000029   0.000003  -0.000000   0.000000
    11  C    0.008075   0.000400  -0.000267  -0.000005   0.000015  -0.000007
    12  C   -0.050729  -0.006010   0.007233  -0.000176   0.000120   0.000019
    13  H   -0.013555   0.012443   0.000465  -0.000018   0.000116  -0.000251
    14  H   -0.000209  -0.000006   0.000002   0.000000  -0.000000  -0.000000
    15  H    0.000005   0.000000  -0.000000  -0.000000   0.000000  -0.000000
    16  C   -0.044000   0.003611  -0.017484   0.003259   0.000470   0.000071
    17  H   -0.010314   0.000000   0.006309   0.001895  -0.000042  -0.000009
    18  C    0.339748  -0.055559  -0.055962  -0.006551   0.006708   0.006116
    19  C    4.747979   0.373853   0.534299  -0.011273  -0.079617  -0.038949
    20  N    0.373853   7.004925  -0.086040   0.003721  -0.086422   0.422419
    21  C    0.534299  -0.086040   5.391771   0.351699   0.287294  -0.050527
    22  H   -0.011273   0.003721   0.351699   0.453046  -0.026555   0.001575
    23  S   -0.079617  -0.086422   0.287294  -0.026555  15.379910   0.315726
    24  C   -0.038949   0.422419  -0.050527   0.001575   0.315726   4.760357
    25  N    0.002171  -0.063971   0.002734  -0.000013  -0.074856   0.268101
    26  C    0.000158   0.008752   0.000012  -0.000000   0.008704  -0.053310
    27  N   -0.000006   0.000459   0.000003  -0.000000  -0.000545   0.008864
    28  H    0.000000   0.000011  -0.000000   0.000000   0.000019  -0.000226
    29  H   -0.000001   0.000013   0.000001  -0.000000  -0.000012  -0.000061
    30  N    0.000034   0.000718  -0.000008  -0.000000   0.000474   0.000312
    31  H   -0.000001   0.000026  -0.000000  -0.000000   0.000045   0.000209
    32  H   -0.000022   0.001410  -0.000031  -0.000000  -0.000064   0.008385
    33  H   -0.000071   0.002453   0.000000  -0.000003  -0.000436  -0.015419
              25         26         27         28         29         30
     1  C    0.000000  -0.000000   0.000000   0.000000  -0.000000  -0.000000
     2  H    0.000000   0.000000  -0.000000   0.000000   0.000000   0.000000
     3  H   -0.000000   0.000000   0.000000   0.000000   0.000000  -0.000000
     4  H    0.000000  -0.000000   0.000000   0.000000   0.000000   0.000000
     5  C   -0.000000   0.000000   0.000000  -0.000000  -0.000000  -0.000000
     6  O    0.000000   0.000000   0.000000   0.000000   0.000000  -0.000000
     7  N   -0.000000  -0.000000   0.000000   0.000000  -0.000000  -0.000000
     8  H    0.000000  -0.000000   0.000000   0.000000  -0.000000  -0.000000
     9  C   -0.000000   0.000000  -0.000000   0.000000   0.000000  -0.000000
    10  C    0.000000   0.000000   0.000000  -0.000000  -0.000000   0.000000
[...]
 Alpha virt. eigenvalues --    3.78080   3.79920   3.84795   3.92500   4.04599
 Alpha virt. eigenvalues --    4.07864   4.15544   4.20679   4.92580
          Condensed to atoms (all electrons):
               1          2          3          4          5          6
     1  C    4.661380   0.360034   0.348289   0.320450   0.061056  -0.075389
     2  H    0.360034   0.731055  -0.081685  -0.076867  -0.014804   0.000401
     3  H    0.348289  -0.081685   0.859636  -0.118739  -0.043610   0.027170
     4  H    0.320450  -0.076867  -0.118739   0.933781   0.047655   0.004287
     5  C    0.061056  -0.014804  -0.043610   0.047655   5.357097   0.181717
     6  O   -0.075389   0.000401   0.027170   0.004287   0.181717   8.760286
     7  N   -0.032628   0.015118   0.088774  -0.124906   0.252952  -0.169269
     8  H   -0.077001   0.007651  -0.019628   0.031741  -0.079296  -0.000735
     9  C    0.180980  -0.025282  -0.015096   0.040635  -0.146377   0.171695
    10  C   -0.031568  -0.003413  -0.003485   0.001005   0.053998   0.087973
    11  C    0.033675   0.004024   0.002960   0.002686   0.028037  -0.095968
    12  C   -0.022394  -0.001527  -0.001063  -0.003269   0.060874   0.007774
    13  H   -0.000465  -0.000053  -0.000004  -0.000067  -0.006935   0.000668
    14  H    0.002300   0.000199   0.000109   0.000202   0.016798  -0.001105
    15  H   -0.011185  -0.001205  -0.000476   0.000357   0.133124  -0.102471
    16  C   -0.169088   0.009075   0.013677  -0.052603  -0.335912  -0.001372
    17  H    0.031158   0.000632   0.002827  -0.003650  -0.070960   0.008176
    18  C    0.024336  -0.004462  -0.001988   0.012911  -0.154540   0.034713
    19  C    0.004516   0.000670   0.000487  -0.001226   0.038208  -0.007884
    20  N   -0.000208  -0.000005   0.000004   0.000014   0.003440  -0.000111
    21  C    0.000748   0.000051  -0.000168   0.000993  -0.018137   0.001388
    22  H    0.000260  -0.000062  -0.000009   0.000509   0.003625  -0.000237
    23  S    0.000005  -0.000006  -0.000005   0.000004  -0.000358   0.000030
    24  C    0.000100   0.000015   0.000011   0.000030   0.004848  -0.000158
    25  N   -0.000010  -0.000003  -0.000001  -0.000003  -0.000119   0.000002
    26  C    0.000004  -0.000000  -0.000001   0.000002  -0.000135   0.000005
    27  N   -0.000000   0.000000   0.000000  -0.000000   0.000001  -0.000000
    28  H   -0.000000  -0.000000  -0.000000  -0.000000   0.000000   0.000000
    29  H    0.000000   0.000000   0.000000   0.000000  -0.000001  -0.000000
    30  N   -0.000000   0.000000   0.000000   0.000000  -0.000024   0.000001
    31  H   -0.000001  -0.000000  -0.000000   0.000000  -0.000021   0.000001
    32  H   -0.000009   0.000001  -0.000001  -0.000001   0.000588  -0.000034
    33  H    0.000001  -0.000000   0.000000   0.000000   0.000027  -0.000000
               7          8          9         10         11         12
     1  C   -0.032628  -0.077001   0.180980  -0.031568   0.033675  -0.022394
     2  H    0.015118   0.007651  -0.025282  -0.003413   0.004024  -0.001527
     3  H    0.088774  -0.019628  -0.015096  -0.003485   0.002960  -0.001063
     4  H   -0.124906   0.031741   0.040635   0.001005   0.002686  -0.003269
     5  C    0.252952  -0.079296  -0.146377   0.053998   0.028037   0.060874
     6  O   -0.169269  -0.000735   0.171695   0.087973  -0.095968   0.007774
     7  N    8.061786   0.281761  -1.195722   0.907300  -0.389469   0.282448
     8  H    0.281761   0.992145  -0.214904  -0.113084  -0.033223   0.031024
     9  C   -1.195722  -0.214904  17.930338  -6.296094   4.150676  -3.873614
    10  C    0.907300  -0.113084  -6.296094  16.198690  -6.746382   3.346714
    11  C   -0.389469  -0.033223   4.150676  -6.746382  18.503520  -6.316767
    12  C    0.282448   0.031024  -3.873614   3.346714  -6.316767  21.336691
    13  H    0.003893  -0.003366  -0.051658  -0.176992   0.664734  -1.399174
    14  H   -0.006948  -0.000095  -0.308250   1.120136  -1.631635   0.865563
    15  H   -0.168428   0.007162   0.807641  -1.687662   0.799770  -0.180454
    16  C    0.754156   0.300282  -6.630744   2.696877  -4.566172  -1.663513
    17  H   -0.250385  -0.040805   0.745187  -0.248761   0.081204  -0.123575
    18  C   -0.636101  -0.059457   1.553586  -4.371778   2.034822  -6.154406
    19  C    0.073293   0.057646  -1.813655   0.624864  -0.772647   0.959593
    20  N   -0.004557   0.000394   0.153043  -0.047003  -0.004758  -0.115490
    21  C   -0.065172  -0.030130   1.014722  -0.371044   0.230195  -1.582364
    22  H   -0.002786  -0.001157  -0.053645  -0.024965   0.021471   0.119700
    23  S    0.001097   0.000623  -0.023880   0.019522  -0.028525   0.067889
    24  C   -0.003296   0.006737   0.226730  -0.104093   0.169386  -0.340869
    25  N    0.000426   0.000144  -0.016605   0.008865  -0.025586   0.028515
    26  C   -0.000252   0.000008  -0.004596  -0.001133   0.033577  -0.020434
    27  N    0.000001   0.000001  -0.000113   0.000263  -0.001231   0.000133
    28  H    0.000000   0.000003  -0.000025   0.000035   0.000196  -0.000097
    29  H   -0.000002  -0.000006  -0.000026   0.000011   0.000012   0.000569
    30  N   -0.000077  -0.000088   0.002127  -0.001654  -0.015165  -0.010968
    31  H   -0.000020  -0.000018  -0.000211   0.000040   0.003760   0.003874
    32  H    0.000476   0.000439   0.000611   0.005084  -0.008975  -0.006972
    33  H    0.000029   0.000063   0.000527   0.000112  -0.000230  -0.003645
              13         14         15         16         17         18
     1  C   -0.000465   0.002300  -0.011185  -0.169088   0.031158   0.024336
     2  H   -0.000053   0.000199  -0.001205   0.009075   0.000632  -0.004462
     3  H   -0.000004   0.000109  -0.000476   0.013677   0.002827  -0.001988
     4  H   -0.000067   0.000202   0.000357  -0.052603  -0.003650   0.012911
     5  C   -0.006935   0.016798   0.133124  -0.335912  -0.070960  -0.154540
     6  O    0.000668  -0.001105  -0.102471  -0.001372   0.008176   0.034713
     7  N    0.003893  -0.006948  -0.168428   0.754156  -0.250385  -0.636101
     8  H   -0.003366  -0.000095   0.007162   0.300282  -0.040805  -0.059457
     9  C   -0.051658  -0.308250   0.807641  -6.630744   0.745187   1.553586
    10  C   -0.176992   1.120136  -1.687662   2.696877  -0.248761  -4.371778
    11  C    0.664734  -1.631635   0.799770  -4.566172   0.081204   2.034822
    12  C   -1.399174   0.865563  -0.180454  -1.663513  -0.123575  -6.154406
    13  H    2.170189  -0.117746  -0.008824  -0.177170  -0.004223   0.703975
    14  H   -0.117746   1.850837  -0.100446   0.098024   0.010618  -0.276529
    15  H   -0.008824  -0.100446   2.348908  -0.096173  -0.036295  -0.087151
    16  C   -0.177170   0.098024  -0.096173  27.492261  -2.244591  -8.472869
    17  H   -0.004223   0.010618  -0.036295  -2.244591   2.568258   1.402025
    18  C    0.703975  -0.276529  -0.087151  -8.472869   1.402025  23.766240
    19  C    0.148234  -0.019589   0.018134  -0.324474  -0.320015  -8.275763
    20  N   -0.093807   0.005617   0.001227  -0.038843   0.014229   0.524753
    21  C    0.028376   0.005111  -0.002317  -1.529701   0.348336   2.810206
    22  H    0.005014  -0.000567   0.001797   0.019627  -0.065302  -0.232713
    23  S    0.001486  -0.001128   0.000437   0.004350  -0.005867  -0.286610
    24  C   -0.051089   0.005328  -0.002171  -0.156491  -0.035579   0.626567
    25  N    0.007477  -0.001352   0.000276   0.058460   0.001343  -0.245999
    26  C    0.003936   0.001380  -0.000225  -0.036728   0.000503  -0.014014
    27  N    0.002001  -0.000125   0.000008   0.001255   0.000054  -0.002246
    28  H   -0.000178   0.000004  -0.000002  -0.000293  -0.000028  -0.000424
    29  H   -0.000037   0.000003   0.000000   0.000115   0.000073  -0.000060
    30  N    0.000173  -0.000049   0.000058   0.012504   0.000467   0.034103
    31  H   -0.000587  -0.000022   0.000019   0.000516   0.000147  -0.006910
    32  H   -0.013344   0.000953   0.000075   0.006448  -0.002309   0.027781
    33  H   -0.001171   0.000013   0.000005  -0.002163  -0.000996   0.008708
              19         20         21         22         23         24
     1  C    0.004516  -0.000208   0.000748   0.000260   0.000005   0.000100
     2  H    0.000670  -0.000005   0.000051  -0.000062  -0.000006   0.000015
     3  H    0.000487   0.000004  -0.000168  -0.000009  -0.000005   0.000011
     4  H   -0.001226   0.000014   0.000993   0.000509   0.000004   0.000030
     5  C    0.038208   0.003440  -0.018137   0.003625  -0.000358   0.004848
     6  O   -0.007884  -0.000111   0.001388  -0.000237   0.000030  -0.000158
     7  N    0.073293  -0.004557  -0.065172  -0.002786   0.001097  -0.003296
     8  H    0.057646   0.000394  -0.030130  -0.001157   0.000623   0.006737
     9  C   -1.813655   0.153043   1.014722  -0.053645  -0.023880   0.226730
    10  C    0.624864  -0.047003  -0.371044  -0.024965   0.019522  -0.104093
    11  C   -0.772647  -0.004758   0.230195   0.021471  -0.028525   0.169386
    12  C    0.959593  -0.115490  -1.582364   0.119700   0.067889  -0.340869
    13  H    0.148234  -0.093807   0.028376   0.005014   0.001486  -0.051089
    14  H   -0.019589   0.005617   0.005111  -0.000567  -0.001128   0.005328
    15  H    0.018134   0.001227  -0.002317   0.001797   0.000437  -0.002171
    16  C   -0.324474  -0.038843  -1.529701   0.019627   0.004350  -0.156491
    17  H   -0.320015   0.014229   0.348336  -0.065302  -0.005867  -0.035579
    18  C   -8.275763   0.524753   2.810206  -0.232713  -0.286610   0.626567
    19  C   26.369494  -1.470932  -8.438795   0.909654   0.149471  -1.930482
    20  N   -1.470932   8.069945   0.661540   0.003221  -0.201678   0.408140
    21  C   -8.438795   0.661540  13.868378  -0.474593   0.149027  -0.820181
    22  H    0.909654   0.003221  -0.474593   1.599062  -0.227506  -0.003221
    23  S    0.149471  -0.201678   0.149027  -0.227506  15.846721   0.231602
    24  C   -1.930482   0.408140  -0.820181  -0.003221   0.231602   8.151315
    25  N    0.688099  -0.179966  -0.069832  -0.016305  -0.133746  -0.327434
    26  C    0.125868   0.037673  -0.161517  -0.009285  -0.062509  -0.437082
    27  N    0.023264   0.004748  -0.001690  -0.000075   0.004675   0.030138
    28  H    0.003350   0.002355  -0.003673  -0.000164  -0.000231  -0.015423
    29  H   -0.000369   0.000119   0.001244   0.000048  -0.002079  -0.025474
    30  N   -0.106489  -0.019853   0.073163   0.002573  -0.010129   0.017142
    31  H    0.010834  -0.002021   0.002218   0.000038  -0.001088  -0.001207
    32  H   -0.035657  -0.016965  -0.059745  -0.002437   0.002482   0.029556
    33  H   -0.085358  -0.014585   0.002544   0.001456   0.022773  -0.098586
              25         26         27         28         29         30
     1  C   -0.000010   0.000004  -0.000000  -0.000000   0.000000  -0.000000
     2  H   -0.000003  -0.000000   0.000000  -0.000000   0.000000   0.000000
     3  H   -0.000001  -0.000001   0.000000  -0.000000   0.000000   0.000000
     4  H   -0.000003   0.000002  -0.000000  -0.000000   0.000000   0.000000
     5  C   -0.000119  -0.000135   0.000001   0.000000  -0.000001  -0.000024
     6  O    0.000002   0.000005  -0.000000   0.000000  -0.000000   0.000001
     7  N    0.000426  -0.000252   0.000001   0.000000  -0.000002  -0.000077
     8  H    0.000144   0.000008   0.000001   0.000003  -0.000006  -0.000088
     9  C   -0.016605  -0.004596  -0.000113  -0.000025  -0.000026   0.002127
    10  C    0.008865  -0.001133   0.000263   0.000035   0.000011  -0.001654
    11  C   -0.025586   0.033577  -0.001231   0.000196   0.000012  -0.015165
    12  C    0.028515  -0.020434   0.000133  -0.000097   0.000569  -0.010968
    13  H    0.007477   0.003936   0.002001  -0.000178  -0.000037   0.000173
    14  H   -0.001352   0.001380  -0.000125   0.000004   0.000003  -0.000049
    15  H    0.000276  -0.000225   0.000008  -0.000002   0.000000   0.000058
    16  C    0.058460  -0.036728   0.001255  -0.000293   0.000115   0.012504
    17  H    0.001343   0.000503   0.000054  -0.000028   0.000073   0.000467
    18  C   -0.245999  -0.014014  -0.002246  -0.000424  -0.000060   0.034103
    19  C    0.688099   0.125868   0.023264   0.003350  -0.000369  -0.106489
    20  N   -0.179966   0.037673   0.004748   0.002355   0.000119  -0.019853
    21  C   -0.069832  -0.161517  -0.001690  -0.003673   0.001244   0.073163
    22  H   -0.016305  -0.009285  -0.000075  -0.000164   0.000048   0.002573
    23  S   -0.133746  -0.062509   0.004675  -0.000231  -0.002079  -0.010129
    24  C   -0.327434  -0.437082   0.030138  -0.015423  -0.025474   0.017142
    25  N    7.437669   0.204610  -0.100289  -0.021121   0.019696  -0.036273
    26  C    0.204610   5.183669   0.112052  -0.073408  -0.079690   0.156221
    27  N   -0.100289   0.112052   6.389797   0.461791   0.448864  -0.105812
    28  H   -0.021121  -0.073408   0.461791   0.777189  -0.142374  -0.016690
    29  H    0.019696  -0.079690   0.448864  -0.142374   0.773197   0.005527
    30  N   -0.036273   0.156221  -0.105812  -0.016690   0.005527   6.317628
    31  H    0.019376  -0.125081  -0.003674  -0.008965   0.002643   0.447880
    32  H   -0.034742  -0.098947   0.010474   0.003881  -0.001570   0.418381
    33  H    0.436328  -0.104466  -0.005857   0.002059  -0.003845   0.012822
              31         32         33
     1  C   -0.000001  -0.000009   0.000001
     2  H   -0.000000   0.000001  -0.000000
     3  H   -0.000000  -0.000001   0.000000
     4  H    0.000000  -0.000001   0.000000
     5  C   -0.000021   0.000588   0.000027
     6  O    0.000001  -0.000034  -0.000000
     7  N   -0.000020   0.000476   0.000029
     8  H   -0.000018   0.000439   0.000063
     9  C   -0.000211   0.000611   0.000527
    10  C    0.000040   0.005084   0.000112
    11  C    0.003760  -0.008975  -0.000230
    12  C    0.003874  -0.006972  -0.003645
    13  H   -0.000587  -0.013344  -0.001171
    14  H   -0.000022   0.000953   0.000013
    15  H    0.000019   0.000075   0.000005
    16  C    0.000516   0.006448  -0.002163
    17  H    0.000147  -0.002309  -0.000996
    18  C   -0.006910   0.027781   0.008708
    19  C    0.010834  -0.035657  -0.085358
    20  N   -0.002021  -0.016965  -0.014585
    21  C    0.002218  -0.059745   0.002544
    22  H    0.000038  -0.002437   0.001456
    23  S   -0.001088   0.002482   0.022773
    24  C   -0.001207   0.029556  -0.098586
    25  N    0.019376  -0.034742   0.436328
    26  C   -0.125081  -0.098947  -0.104466
    27  N   -0.003674   0.010474  -0.005857
    28  H   -0.008965   0.003881   0.002059
    29  H    0.002643  -0.001570  -0.003845
    30  N    0.447880   0.418381   0.012822
    31  H    0.849381  -0.201388  -0.000809
    32  H   -0.201388   0.852008   0.003811
    33  H   -0.000809   0.003811   0.833402
 Mulliken charges:
               1
     1  C    0.390658
     2  H    0.080448
     3  H   -0.057983
     4  H   -0.015931
     5  C    0.627185
     6  O   -0.831553
     7  N   -0.673492
     8  H   -0.044830
     9  C   -0.308001
    10  C    1.157626
    11  C   -0.127973
    12  C    0.709235
    13  H   -0.633266
    14  H   -0.517608
    15  H   -0.633511
    16  C    1.031274
    17  H   -0.761896
    18  C    1.719293
    19  C   -0.602344
    20  N   -0.679682
    21  C    0.430819
    22  H   -0.573022
    23  S    0.483152
    24  C    0.445191
    25  N   -0.701904
    26  C    1.369997
    27  N   -0.268403
    28  H    0.032232
    29  H    0.003412
    30  N   -0.177497
    31  H    0.011296
    32  H    0.120050
    33  H   -0.002969
 Sum of Mulliken charges =   1.00000
 Mulliken charges with hydrogens summed into heavy atoms:
               1
     1  C    0.397191
     5  C    0.627185
     6  O   -0.831553
     7  N   -0.718322
     9  C   -0.308001
    10  C    0.524115
    11  C   -0.645582
    12  C    0.075969
    16  C    0.269378
    18  C    1.719293
    19  C   -0.602344
    20  N   -0.679682
    21  C   -0.142204
    23  S    0.483152
    24  C    0.445191
    25  N   -0.704873
    26  C    1.369997
    27  N   -0.232760
    30  N   -0.046151
 Electronic spatial extent (au):  <R**2>=           8732.3463
 Charge=              1.0000 electrons
 Dipole moment (field-independent basis, Debye):
    X=            -20.2060    Y=             -0.9884    Z=             -1.3062  Tot=             20.2723
 Quadrupole moment (field-independent basis, Debye-Ang):
   XX=             14.9385   YY=            -88.1382   ZZ=           -123.6529
   XY=            -40.1838   XZ=              2.8816   YZ=             -1.4504
 Traceless Quadrupole moment (field-independent basis, Debye-Ang):
   XX=             80.5560   YY=            -22.5207   ZZ=            -58.0353
   XY=            -40.1838   XZ=              2.8816   YZ=             -1.4504
 Octapole moment (field-independent basis, Debye-Ang**2):
  XXX=           -754.4333  YYY=             34.8628  ZZZ=             -5.0492  XYY=            -79.9252
  XXY=             -9.8790  XXZ=            -53.5642  XZZ=             -0.5151  YZZ=             -0.3466
  YYZ=             -3.6005  XYZ=             19.8772
 Hexadecapole moment (field-independent basis, Debye-Ang**3):
 XXXX=          -4868.0397 YYYY=          -1271.8171 ZZZZ=           -178.3845 XXXY=          -1386.4562
 XXXZ=            110.8112 YYYX=           -236.8212 YYYZ=            -15.8792 ZZZX=             -2.0762
 ZZZY=             -3.9398 XXYY=          -1437.7092 XXZZ=          -1699.7536 YYZZ=           -300.3646
 XXYZ=            -63.2817 YYXZ=             40.3986 ZZXY=            -26.1542
 N-N= 1.442432552864D+03 E-N=-5.705377684342D+03  KE= 1.205989241136D+03
 Leave Link  601 at Sun Jul 18 16:52:00 2021, MaxMem=   262144000 cpu:               0.6 elap:               0.2
 (Enter /prod/apps/gaussian/g16b1/l9999.exe)
 1\1\GINC-PIRINEUS10\SP\RMP2-FC\Aug-CC-pVDZ\C12H14N5O1S1(1+)\UBATOR02\1
 8-Jul-2021\0\\#p mp2/aug-cc-pVDZ scf=tight maxdisk=180GB geom=allcheck
 \\SET_328_BBB321_conf1.geo_180_210_225 geometry\\1,1\C,0,4.6671581583,
 -4.0222858136,-0.46254641\H,0,4.1217794444,-4.8972239274,-0.8307185595
 \H,0,5.5494521773,-4.3631018125,0.0783727464\H,0,4.9759595674,-3.43176
 68375,-1.3285941857\C,0,3.7895151256,-3.2270097198,0.4860031113\O,0,3.
 935777567,-3.2722638693,1.7077481601\N,0,2.8206714775,-2.4859855738,-0
 .1388372242\H,0,2.8067860868,-2.5379740063,-1.1518864982\C,0,1.8238240
 727,-1.6737512905,0.4320388438\C,0,1.6864214254,-1.470641349,1.8159905
 677\C,0,0.6717195133,-0.6353059637,2.2826052612\C,0,-0.208883902,-0.00
 05777695,1.408517135\H,0,-0.9965485938,0.6416213311,1.7828854488\H,0,0
 .5692942781,-0.4800987525,3.3518442072\H,0,2.369042887,-1.961463557,2.
 4923376868\C,0,0.939708118,-1.0371711545,-0.4466044552\H,0,1.057350711
 8,-1.1874502815,-1.5135209047\C,0,-0.0800259471,-0.2042256557,0.025966
 5528\C,0,-1.0083557164,0.4436589159,-0.9167647247\N,0,-1.8563492521,1.
 4455876071,-0.4600076754\C,0,-1.1428540137,0.1475948783,-2.2449475003\
 H,0,-0.6258403748,-0.5996359737,-2.8264843226\S,0,-2.3545695492,1.1459
 833573,-2.9854368497\C,0,-2.607714226,1.9019524569,-1.4188157862\N,0,-
 3.5444682163,2.9120920946,-1.289521189\C,0,-3.7856746181,3.666106145,-
 0.1757596139\N,0,-4.7353144866,4.5924862796,-0.2601542077\H,0,-4.93659
 56262,5.1892534236,0.5359518427\H,0,-5.2241360688,4.7621952504,-1.1334
 647507\N,0,-3.0986512435,3.4754646814,0.9397051418\H,0,-3.2976960815,4
 .0429030249,1.7575809708\H,0,-2.3992248909,2.7354440866,0.9784445078\H
 ,0,-4.1155578036,3.128589775,-2.1049273266\\Version=ES64L-G16RevB.01\S
 tate=1-A\HF=-1207.1549012\MP2=-1209.9712091\RMSD=5.424e-09\PG=C01 [X(C
 12H14N5O1S1)]\\@


 THE REASON MAN'S BEST FRIEND IS A DOG IS BECAUSE
 HE WAGS HIS TAIL INSTEAD OF HIS TONGUE.
 Job cpu time:       0 days  2 hours  1 minutes 58.5 seconds.
 Elapsed time:       0 days  0 hours 32 minutes 46.1 seconds.
 File lengths (MBytes):  RWF=  86222 Int=      0 D2E=      0 Chk=     27 Scr=      1
 Normal termination of Gaussian 16 at Sun Jul 18 16:52:01 2021.
