 Entering Gaussian System, Link 0=g16
 Initial command:
 /prod/apps/gaussian/g16b1/l1.exe "/tmp/ubator02/1839520/Gau-223387.inp" -scrdir="/tmp/ubator02/1839520/"
 Entering Link 1 = /prod/apps/gaussian/g16b1/l1.exe PID=    223388.
  
 Copyright (c) 1988-2017, Gaussian, Inc.  All Rights Reserved.
  
 This is part of the Gaussian(R) 16 program.  It is based on
 the Gaussian(R) 09 system (copyright 2009, Gaussian, Inc.),
 the Gaussian(R) 03 system (copyright 2003, Gaussian, Inc.),
 the Gaussian(R) 98 system (copyright 1998, Gaussian, Inc.),
 the Gaussian(R) 94 system (copyright 1995, Gaussian, Inc.),
 the Gaussian 92(TM) system (copyright 1992, Gaussian, Inc.),
 the Gaussian 90(TM) system (copyright 1990, Gaussian, Inc.),
 the Gaussian 88(TM) system (copyright 1988, Gaussian, Inc.),
 the Gaussian 86(TM) system (copyright 1986, Carnegie Mellon
 University), and the Gaussian 82(TM) system (copyright 1983,
 Carnegie Mellon University). Gaussian is a federally registered
 trademark of Gaussian, Inc.
  
 This software contains proprietary and confidential information,
 including trade secrets, belonging to Gaussian, Inc.
  
 This software is provided under written license and may be
 used, copied, transmitted, or stored only in accord with that
 written license.
  
 The following legend is applicable only to US Government
 contracts under FAR:
  
                    RESTRICTED RIGHTS LEGEND
  
 Use, reproduction and disclosure by the US Government is
 subject to restrictions as set forth in subparagraphs (a)
 and (c) of the Commercial Computer Software - Restricted
 Rights clause in FAR 52.227-19.
  
 Gaussian, Inc.
 340 Quinnipiac St., Bldg. 40, Wallingford CT 06492
  
  
 ---------------------------------------------------------------
 Warning -- This program may not be used in any manner that
 competes with the business of Gaussian, Inc. or will provide
 assistance to any competitor of Gaussian, Inc.  The licensee
 of this program is prohibited from giving any competitor of
 Gaussian, Inc. access to this program.  By using this program,
 the user acknowledges that Gaussian, Inc. is engaged in the
 business of creating and licensing software in the field of
 computational chemistry and represents and warrants to the
 licensee that it is not a competitor of Gaussian, Inc. and that
 it will not use this program in any manner prohibited above.
 ---------------------------------------------------------------
  

 Cite this work as:
 Gaussian 16, Revision B.01,
 M. J. Frisch, G. W. Trucks, H. B. Schlegel, G. E. Scuseria, 
 M. A. Robb, J. R. Cheeseman, G. Scalmani, V. Barone, 
 G. A. Petersson, H. Nakatsuji, X. Li, M. Caricato, A. V. Marenich, 
 J. Bloino, B. G. Janesko, R. Gomperts, B. Mennucci, H. P. Hratchian, 
 J. V. Ortiz, A. F. Izmaylov, J. L. Sonnenberg, D. Williams-Young, 
 F. Ding, F. Lipparini, F. Egidi, J. Goings, B. Peng, A. Petrone, 
 T. Henderson, D. Ranasinghe, V. G. Zakrzewski, J. Gao, N. Rega, 
 G. Zheng, W. Liang, M. Hada, M. Ehara, K. Toyota, R. Fukuda, 
 J. Hasegawa, M. Ishida, T. Nakajima, Y. Honda, O. Kitao, H. Nakai, 
 T. Vreven, K. Throssell, J. A. Montgomery, Jr., J. E. Peralta, 
 F. Ogliaro, M. J. Bearpark, J. J. Heyd, E. N. Brothers, K. N. Kudin, 
 V. N. Staroverov, T. A. Keith, R. Kobayashi, J. Normand, 
 K. Raghavachari, A. P. Rendell, J. C. Burant, S. S. Iyengar, 
 J. Tomasi, M. Cossi, J. M. Millam, M. Klene, C. Adamo, R. Cammi, 
 J. W. Ochterski, R. L. Martin, K. Morokuma, O. Farkas, 
 J. B. Foresman, and D. J. Fox, Gaussian, Inc., Wallingford CT, 2016.
 
 ******************************************
 Gaussian 16:  ES64L-G16RevB.01 20-Dec-2017
                18-Jul-2021 
 ******************************************
 %mem=800MB
 %nproc=4
 Will use up to    4 processors via shared memory.
 %chk=SET_328_BBB227_conf1.geo_075_180_060.chk
 -----------------------------------------------------------
 #p b3lyp/6-31G(d) opt freq scrf=(iefpcm,read,solvent=water)
 -----------------------------------------------------------
 1/18=20,19=15,26=3,38=1,40=2/1,3;
 2/9=110,12=2,17=6,18=5,40=1/2;
 3/5=1,6=6,7=1,11=2,25=1,30=1,70=2203,71=1,72=1,74=-5/1,2,3;
 4//1;
 5/5=2,38=5,53=1/2;
 6/7=2,8=2,9=2,10=2,28=1/1;
 7//1,2,3,16;
 1/18=20,19=15,26=3/3(2);
 2/9=110/2;
 99//99;
 2/9=110/2;
 3/5=1,6=6,7=1,11=2,25=1,30=1,70=2205,71=1,72=1,74=-5/1,2,3;
 4/5=5,16=3,69=1/1;
 5/5=2,38=5,53=1/2;
 7//1,2,3,16;
 1/18=20,19=15,26=3/3(-5);
 2/9=110/2;
 6/7=2,8=2,9=2,10=2,19=2,28=1/1;
 99/9=1/99;
 Leave Link    1 at Sun Jul 18 13:35:46 2021, MaxMem=   104857600 cpu:               0.1 elap:               0.0
 (Enter /prod/apps/gaussian/g16b1/l101.exe)
 ---------------------------------------------
 SET_328_BBB227_conf1.geo_075_180_060 geometry
 ---------------------------------------------
 Symbolic Z-matrix:
 Charge =  1 Multiplicity = 1
 S                    -0.827    -1.21     -2.391 
 C                    -0.483    -0.954    -0.79 
 N                    -1.335    -0.358     0.057 
 C                    -2.62      0.203    -0.263 
 C                    -3.768    -0.86     -0.511 
 C                    -5.115    -0.179    -0.747 
 C                    -5.599     0.759     0.353 
 C                    -4.501     1.813     0.591 
 C                    -3.08      1.204     0.82 
 H                    -3.155     0.722     1.803 
 H                    -2.332     1.995     0.953 
 H                    -4.737     2.522     1.395 
 H                    -4.483     2.381    -0.347 
 H                    -5.662     0.133     1.252 
 H                    -6.555     1.207     0.055 
 H                    -5.839    -0.985    -0.919 
 H                    -5.19      0.373    -1.692 
 H                    -3.854    -1.471     0.396 
 H                    -3.548    -1.531    -1.35 
 H                    -2.582     0.839    -1.156 
 H                    -0.995    -0.239     1.003 
 N                     0.661    -1.446    -0.119 
 C                     1.171    -1.089     1.289 
 C                     2.291    -0.131     1.283 
 H                     1.751     0.726     0.861 
 H                     2.734     0.067     2.266 
 H                     0.314    -0.703     1.855 
 H                     1.41     -2.035     1.792 
 C                     1.661    -2.117    -0.928 
 H                     1.391    -2.479    -1.927 
 H                     2.057    -2.974    -0.37 
 C                     2.797    -1.131    -1.193 
 H                     2.451    -0.288    -1.804 
 H                     3.644    -1.585    -1.722 
 C                     3.359    -0.662     0.194 
 H                     3.934    -1.479     0.647 
 C                     4.417     0.428    -0.043 
 C                     5.694     0.338     0.369 
 H                     6.169    -0.427     0.967 
 N                     6.251     1.586     0.059 
 H                     7.065     1.471    -0.51 
 C                     5.277     2.247    -0.634 
 H                     5.513     3.251    -0.963 
 N                     4.141     1.592    -0.664 
 H                     6.479     2.082     0.897 
 
 ITRead=  0  0  0  0  0  0  0  0  0  0  0  0  0  0  0  0  0  0  0  0
 ITRead=  0  0  0  0  0  0  0  0  0  0  0  0  0  0  0  0  0  0  0  0
 ITRead=  0  0  0  0  0
 MicOpt= -1 -1 -1 -1 -1 -1 -1 -1 -1 -1 -1 -1 -1 -1 -1 -1 -1 -1 -1 -1
 MicOpt= -1 -1 -1 -1 -1 -1 -1 -1 -1 -1 -1 -1 -1 -1 -1 -1 -1 -1 -1 -1
 MicOpt= -1 -1 -1 -1 -1
 NAtoms=     45 NQM=       45 NQMF=       0 NMMI=      0 NMMIF=      0
                NMic=       0 NMicF=      0.
                    Isotopes and Nuclear Properties:
 (Nuclear quadrupole moments (NQMom) in fm**2, nuclear magnetic moments (NMagM)
  in nuclear magnetons)

  Atom         1           2           3           4           5           6           7           8           9          10
 IAtWgt=          32          12          14          12          12          12          12          12          12           1
 AtmWgt=  31.9720718  12.0000000  14.0030740  12.0000000  12.0000000  12.0000000  12.0000000  12.0000000  12.0000000   1.0078250
 NucSpn=           0           0           2           0           0           0           0           0           0           1
 AtZEff=  -0.0000000  -0.0000000  -0.0000000  -0.0000000  -0.0000000  -0.0000000  -0.0000000  -0.0000000  -0.0000000  -0.0000000
 NQMom=    0.0000000   0.0000000   2.0440000   0.0000000   0.0000000   0.0000000   0.0000000   0.0000000   0.0000000   0.0000000
 NMagM=    0.0000000   0.0000000   0.4037610   0.0000000   0.0000000   0.0000000   0.0000000   0.0000000   0.0000000   2.7928460
 AtZNuc=  16.0000000   6.0000000   7.0000000   6.0000000   6.0000000   6.0000000   6.0000000   6.0000000   6.0000000   1.0000000

  Atom        11          12          13          14          15          16          17          18          19          20
 IAtWgt=           1           1           1           1           1           1           1           1           1           1
 AtmWgt=   1.0078250   1.0078250   1.0078250   1.0078250   1.0078250   1.0078250   1.0078250   1.0078250   1.0078250   1.0078250
 NucSpn=           1           1           1           1           1           1           1           1           1           1
 AtZEff=  -0.0000000  -0.0000000  -0.0000000  -0.0000000  -0.0000000  -0.0000000  -0.0000000  -0.0000000  -0.0000000  -0.0000000
 NQMom=    0.0000000   0.0000000   0.0000000   0.0000000   0.0000000   0.0000000   0.0000000   0.0000000   0.0000000   0.0000000
 NMagM=    2.7928460   2.7928460   2.7928460   2.7928460   2.7928460   2.7928460   2.7928460   2.7928460   2.7928460   2.7928460
 AtZNuc=   1.0000000   1.0000000   1.0000000   1.0000000   1.0000000   1.0000000   1.0000000   1.0000000   1.0000000   1.0000000

  Atom        21          22          23          24          25          26          27          28          29          30
 IAtWgt=           1          14          12          12           1           1           1           1          12           1
 AtmWgt=   1.0078250  14.0030740  12.0000000  12.0000000   1.0078250   1.0078250   1.0078250   1.0078250  12.0000000   1.0078250
 NucSpn=           1           2           0           0           1           1           1           1           0           1
 AtZEff=  -0.0000000  -0.0000000  -0.0000000  -0.0000000  -0.0000000  -0.0000000  -0.0000000  -0.0000000  -0.0000000  -0.0000000
 NQMom=    0.0000000   2.0440000   0.0000000   0.0000000   0.0000000   0.0000000   0.0000000   0.0000000   0.0000000   0.0000000
 NMagM=    2.7928460   0.4037610   0.0000000   0.0000000   2.7928460   2.7928460   2.7928460   2.7928460   0.0000000   2.7928460
 AtZNuc=   1.0000000   7.0000000   6.0000000   6.0000000   1.0000000   1.0000000   1.0000000   1.0000000   6.0000000   1.0000000

  Atom        31          32          33          34          35          36          37          38          39          40
 IAtWgt=           1          12           1           1          12           1          12          12           1          14
 AtmWgt=   1.0078250  12.0000000   1.0078250   1.0078250  12.0000000   1.0078250  12.0000000  12.0000000   1.0078250  14.0030740
 NucSpn=           1           0           1           1           0           1           0           0           1           2
 AtZEff=  -0.0000000  -0.0000000  -0.0000000  -0.0000000  -0.0000000  -0.0000000  -0.0000000  -0.0000000  -0.0000000  -0.0000000
 NQMom=    0.0000000   0.0000000   0.0000000   0.0000000   0.0000000   0.0000000   0.0000000   0.0000000   0.0000000   2.0440000
 NMagM=    2.7928460   0.0000000   2.7928460   2.7928460   0.0000000   2.7928460   0.0000000   0.0000000   2.7928460   0.4037610
 AtZNuc=   1.0000000   6.0000000   1.0000000   1.0000000   6.0000000   1.0000000   6.0000000   6.0000000   1.0000000   7.0000000

  Atom        41          42          43          44          45
 IAtWgt=           1          12           1          14           1
 AtmWgt=   1.0078250  12.0000000   1.0078250  14.0030740   1.0078250
 NucSpn=           1           0           1           2           1
 AtZEff=  -0.0000000  -0.0000000  -0.0000000  -0.0000000  -0.0000000
 NQMom=    0.0000000   0.0000000   0.0000000   2.0440000   0.0000000
 NMagM=    2.7928460   0.0000000   2.7928460   0.4037610   2.7928460
 AtZNuc=   1.0000000   6.0000000   1.0000000   7.0000000   1.0000000
 Leave Link  101 at Sun Jul 18 13:35:46 2021, MaxMem=   104857600 cpu:               0.5 elap:               0.1
 (Enter /prod/apps/gaussian/g16b1/l103.exe)

 GradGradGradGradGradGradGradGradGradGradGradGradGradGradGradGradGradGrad
 Berny optimization.
 Initialization pass.
                           ----------------------------
                           !    Initial Parameters    !
                           ! (Angstroms and Degrees)  !
 --------------------------                            --------------------------
 ! Name  Definition              Value          Derivative Info.                !
 --------------------------------------------------------------------------------
 ! R1    R(1,2)                  1.6574         estimate D2E/DX2                !
 ! R2    R(2,3)                  1.3411         estimate D2E/DX2                !
 ! R3    R(2,22)                 1.4146         estimate D2E/DX2                !
 ! R4    R(3,4)                  1.4382         estimate D2E/DX2                !
 ! R5    R(3,21)                 1.0123         estimate D2E/DX2                !
 ! R6    R(4,5)                  1.5841         estimate D2E/DX2                !
 ! R7    R(4,9)                  1.5448         estimate D2E/DX2                !
 ! R8    R(4,20)                 1.097          estimate D2E/DX2                !
 ! R9    R(5,6)                  1.5277         estimate D2E/DX2                !
 ! R10   R(5,18)                 1.097          estimate D2E/DX2                !
 ! R11   R(5,19)                 1.0966         estimate D2E/DX2                !
 ! R12   R(6,7)                  1.5245         estimate D2E/DX2                !
 ! R13   R(6,16)                 1.097          estimate D2E/DX2                !
 ! R14   R(6,17)                 1.097          estimate D2E/DX2                !
 ! R15   R(7,8)                  1.5405         estimate D2E/DX2                !
 ! R16   R(7,14)                 1.0973         estimate D2E/DX2                !
 ! R17   R(7,15)                 1.097          estimate D2E/DX2                !
 ! R18   R(8,9)                  1.5629         estimate D2E/DX2                !
 ! R19   R(8,12)                 1.0976         estimate D2E/DX2                !
 ! R20   R(8,13)                 1.0967         estimate D2E/DX2                !
 ! R21   R(9,10)                 1.0974         estimate D2E/DX2                !
 ! R22   R(9,11)                 1.0968         estimate D2E/DX2                !
 ! R23   R(22,23)                1.5395         estimate D2E/DX2                !
 ! R24   R(22,29)                1.4508         estimate D2E/DX2                !
 ! R25   R(23,24)                1.4738         estimate D2E/DX2                !
 ! R26   R(23,27)                1.0972         estimate D2E/DX2                !
 ! R27   R(23,28)                1.0977         estimate D2E/DX2                !
 ! R28   R(24,25)                1.0973         estimate D2E/DX2                !
 ! R29   R(24,26)                1.0962         estimate D2E/DX2                !
 ! R30   R(24,35)                1.6151         estimate D2E/DX2                !
 ! R31   R(29,30)                1.0963         estimate D2E/DX2                !
 ! R32   R(29,31)                1.0966         estimate D2E/DX2                !
 ! R33   R(29,32)                1.5274         estimate D2E/DX2                !
 ! R34   R(32,33)                1.0971         estimate D2E/DX2                !
 ! R35   R(32,34)                1.097          estimate D2E/DX2                !
 ! R36   R(32,35)                1.5683         estimate D2E/DX2                !
 ! R37   R(35,36)                1.097          estimate D2E/DX2                !
 ! R38   R(35,37)                1.5374         estimate D2E/DX2                !
 ! R39   R(37,38)                1.3448         estimate D2E/DX2                !
 ! R40   R(37,44)                1.3479         estimate D2E/DX2                !
 ! R41   R(38,39)                1.081          estimate D2E/DX2                !
 ! R42   R(38,40)                1.4014         estimate D2E/DX2                !
 ! R43   R(40,41)                0.9998         estimate D2E/DX2                !
 ! R44   R(40,42)                1.366          estimate D2E/DX2                !
 ! R45   R(40,45)                1.0001         estimate D2E/DX2                !
 ! R46   R(42,43)                1.0826         estimate D2E/DX2                !
 ! R47   R(42,44)                1.3116         estimate D2E/DX2                !
 ! A1    A(1,2,3)              123.1516         estimate D2E/DX2                !
 ! A2    A(1,2,22)             124.9125         estimate D2E/DX2                !
 ! A3    A(3,2,22)             111.6396         estimate D2E/DX2                !
 ! A4    A(2,3,4)              126.9034         estimate D2E/DX2                !
 ! A5    A(2,3,21)             115.4098         estimate D2E/DX2                !
 ! A6    A(4,3,21)             117.5285         estimate D2E/DX2                !
 ! A7    A(3,4,5)              114.8719         estimate D2E/DX2                !
 ! A8    A(3,4,9)              111.2738         estimate D2E/DX2                !
 ! A9    A(3,4,20)             112.1067         estimate D2E/DX2                !
 ! A10   A(5,4,9)              109.1945         estimate D2E/DX2                !
 ! A11   A(5,4,20)             106.6611         estimate D2E/DX2                !
 ! A12   A(9,4,20)             101.8488         estimate D2E/DX2                !
 ! A13   A(4,5,6)              111.3483         estimate D2E/DX2                !
 ! A14   A(4,5,18)             107.5256         estimate D2E/DX2                !
 ! A15   A(4,5,19)             112.6431         estimate D2E/DX2                !
 ! A16   A(6,5,18)             107.8718         estimate D2E/DX2                !
 ! A17   A(6,5,19)             109.3572         estimate D2E/DX2                !
 ! A18   A(18,5,19)            107.9087         estimate D2E/DX2                !
 ! A19   A(5,6,7)              116.2787         estimate D2E/DX2                !
 ! A20   A(5,6,16)             106.1779         estimate D2E/DX2                !
 ! A21   A(5,6,17)             114.6878         estimate D2E/DX2                !
 ! A22   A(7,6,16)             110.8346         estimate D2E/DX2                !
 ! A23   A(7,6,17)             106.8739         estimate D2E/DX2                !
 ! A24   A(16,6,17)            100.9252         estimate D2E/DX2                !
 ! A25   A(6,7,8)              107.828          estimate D2E/DX2                !
 ! A26   A(6,7,14)             104.9733         estimate D2E/DX2                !
 ! A27   A(6,7,15)             109.3863         estimate D2E/DX2                !
 ! A28   A(8,7,14)             107.7385         estimate D2E/DX2                !
 ! A29   A(8,7,15)             112.5624         estimate D2E/DX2                !
 ! A30   A(14,7,15)            113.9226         estimate D2E/DX2                !
 ! A31   A(7,8,9)              113.8336         estimate D2E/DX2                !
 ! A32   A(7,8,12)             113.6946         estimate D2E/DX2                !
 ! A33   A(7,8,13)             103.5274         estimate D2E/DX2                !
 ! A34   A(9,8,12)             109.8686         estimate D2E/DX2                !
 ! A35   A(9,8,13)             108.1924         estimate D2E/DX2                !
 ! A36   A(12,8,13)            107.1859         estimate D2E/DX2                !
 ! A37   A(4,9,8)              114.8667         estimate D2E/DX2                !
 ! A38   A(4,9,10)             111.3291         estimate D2E/DX2                !
 ! A39   A(4,9,11)             110.442          estimate D2E/DX2                !
 ! A40   A(8,9,10)             103.9022         estimate D2E/DX2                !
 ! A41   A(8,9,11)             110.9059         estimate D2E/DX2                !
 ! A42   A(10,9,11)            104.7596         estimate D2E/DX2                !
 ! A43   A(2,22,23)            128.3958         estimate D2E/DX2                !
 ! A44   A(2,22,29)            116.9875         estimate D2E/DX2                !
 ! A45   A(23,22,29)           112.8871         estimate D2E/DX2                !
 ! A46   A(22,23,24)           113.5004         estimate D2E/DX2                !
 ! A47   A(22,23,27)           107.1355         estimate D2E/DX2                !
 ! A48   A(22,23,28)           106.9396         estimate D2E/DX2                !
 ! A49   A(24,23,27)           111.5302         estimate D2E/DX2                !
 ! A50   A(24,23,28)           113.3637         estimate D2E/DX2                !
 ! A51   A(27,23,28)           103.7014         estimate D2E/DX2                !
 ! A52   A(23,24,25)            97.7731         estimate D2E/DX2                !
 ! A53   A(23,24,26)           114.8877         estimate D2E/DX2                !
 ! A54   A(23,24,35)           106.9507         estimate D2E/DX2                !
 ! A55   A(25,24,26)           113.7438         estimate D2E/DX2                !
 ! A56   A(25,24,35)           108.837          estimate D2E/DX2                !
 ! A57   A(26,24,35)           113.3768         estimate D2E/DX2                !
 ! A58   A(22,29,30)           119.4124         estimate D2E/DX2                !
 ! A59   A(22,29,31)           109.063          estimate D2E/DX2                !
 ! A60   A(22,29,32)           108.1097         estimate D2E/DX2                !
 ! A61   A(30,29,31)           107.1303         estimate D2E/DX2                !
 ! A62   A(30,29,32)           103.7819         estimate D2E/DX2                !
 ! A63   A(31,29,32)           108.9164         estimate D2E/DX2                !
 ! A64   A(29,32,33)           110.9826         estimate D2E/DX2                !
 ! A65   A(29,32,34)           113.0021         estimate D2E/DX2                !
 ! A66   A(29,32,35)           107.8263         estimate D2E/DX2                !
 ! A67   A(33,32,34)           107.0343         estimate D2E/DX2                !
 ! A68   A(33,32,35)           112.0713         estimate D2E/DX2                !
 ! A69   A(34,32,35)           105.8763         estimate D2E/DX2                !
 ! A70   A(24,35,32)           117.2372         estimate D2E/DX2                !
 ! A71   A(24,35,36)           108.2426         estimate D2E/DX2                !
 ! A72   A(24,35,37)           109.0206         estimate D2E/DX2                !
 ! A73   A(32,35,36)           109.2888         estimate D2E/DX2                !
 ! A74   A(32,35,37)           108.8016         estimate D2E/DX2                !
 ! A75   A(36,35,37)           103.3547         estimate D2E/DX2                !
 ! A76   A(35,37,38)           123.9718         estimate D2E/DX2                !
 ! A77   A(35,37,44)           122.846          estimate D2E/DX2                !
 ! A78   A(38,37,44)           113.1653         estimate D2E/DX2                !
 ! A79   A(37,38,39)           129.3539         estimate D2E/DX2                !
 ! A80   A(37,38,40)           104.4805         estimate D2E/DX2                !
 ! A81   A(39,38,40)           125.3082         estimate D2E/DX2                !
 ! A82   A(38,40,41)           110.308          estimate D2E/DX2                !
 ! A83   A(38,40,42)           105.0559         estimate D2E/DX2                !
 ! A84   A(38,40,45)           110.299          estimate D2E/DX2                !
 ! A85   A(41,40,42)           110.3328         estimate D2E/DX2                !
 ! A86   A(41,40,45)           110.3834         estimate D2E/DX2                !
 ! A87   A(42,40,45)           110.3444         estimate D2E/DX2                !
 ! A88   A(40,42,43)           116.5851         estimate D2E/DX2                !
 ! A89   A(40,42,44)           112.8001         estimate D2E/DX2                !
 ! A90   A(43,42,44)           130.1646         estimate D2E/DX2                !
 ! A91   A(37,44,42)           104.0854         estimate D2E/DX2                !
 ! D1    D(1,2,3,4)             -3.1226         estimate D2E/DX2                !
 ! D2    D(1,2,3,21)          -178.4033         estimate D2E/DX2                !
 ! D3    D(22,2,3,4)          -177.1445         estimate D2E/DX2                !
 ! D4    D(22,2,3,21)            7.5748         estimate D2E/DX2                !
 ! D5    D(1,2,22,23)          169.8165         estimate D2E/DX2                !
 ! D6    D(1,2,22,29)            5.9867         estimate D2E/DX2                !
 ! D7    D(3,2,22,23)          -16.2875         estimate D2E/DX2                !
 ! D8    D(3,2,22,29)          179.8827         estimate D2E/DX2                !
 ! D9    D(2,3,4,5)             74.8794         estimate D2E/DX2                !
 ! D10   D(2,3,4,9)           -160.413          estimate D2E/DX2                !
 ! D11   D(2,3,4,20)           -47.0858         estimate D2E/DX2                !
 ! D12   D(21,3,4,5)          -109.9279         estimate D2E/DX2                !
 ! D13   D(21,3,4,9)            14.7797         estimate D2E/DX2                !
 ! D14   D(21,3,4,20)          128.107          estimate D2E/DX2                !
 ! D15   D(3,4,5,6)            176.0147         estimate D2E/DX2                !
 ! D16   D(3,4,5,18)            58.0477         estimate D2E/DX2                !
 ! D17   D(3,4,5,19)           -60.7116         estimate D2E/DX2                !
 ! D18   D(9,4,5,6)             50.2225         estimate D2E/DX2                !
 ! D19   D(9,4,5,18)           -67.7446         estimate D2E/DX2                !
 ! D20   D(9,4,5,19)           173.4962         estimate D2E/DX2                !
 ! D21   D(20,4,5,6)           -59.1148         estimate D2E/DX2                !
 ! D22   D(20,4,5,18)         -177.0819         estimate D2E/DX2                !
 ! D23   D(20,4,5,19)           64.1589         estimate D2E/DX2                !
 ! D24   D(3,4,9,8)           -177.1514         estimate D2E/DX2                !
 ! D25   D(3,4,9,10)           -59.4241         estimate D2E/DX2                !
 ! D26   D(3,4,9,11)            56.5152         estimate D2E/DX2                !
 ! D27   D(5,4,9,8)            -49.3111         estimate D2E/DX2                !
 ! D28   D(5,4,9,10)            68.4162         estimate D2E/DX2                !
 ! D29   D(5,4,9,11)          -175.6446         estimate D2E/DX2                !
 ! D30   D(20,4,9,8)            63.223          estimate D2E/DX2                !
 ! D31   D(20,4,9,10)         -179.0497         estimate D2E/DX2                !
 ! D32   D(20,4,9,11)          -63.1105         estimate D2E/DX2                !
 ! D33   D(4,5,6,7)            -56.8284         estimate D2E/DX2                !
 ! D34   D(4,5,6,16)           179.3736         estimate D2E/DX2                !
 ! D35   D(4,5,6,17)            68.8524         estimate D2E/DX2                !
 ! D36   D(18,5,6,7)            60.9297         estimate D2E/DX2                !
 ! D37   D(18,5,6,16)          -62.8684         estimate D2E/DX2                !
 ! D38   D(18,5,6,17)         -173.3895         estimate D2E/DX2                !
 ! D39   D(19,5,6,7)           178.0416         estimate D2E/DX2                !
 ! D40   D(19,5,6,16)           54.2436         estimate D2E/DX2                !
 ! D41   D(19,5,6,17)          -56.2776         estimate D2E/DX2                !
 ! D42   D(5,6,7,8)             55.5496         estimate D2E/DX2                !
 ! D43   D(5,6,7,14)           -59.1149         estimate D2E/DX2                !
 ! D44   D(5,6,7,15)           178.263          estimate D2E/DX2                !
 ! D45   D(16,6,7,8)           176.9074         estimate D2E/DX2                !
 ! D46   D(16,6,7,14)           62.2429         estimate D2E/DX2                !
 ! D47   D(16,6,7,15)          -60.3792         estimate D2E/DX2                !
 ! D48   D(17,6,7,8)           -73.985          estimate D2E/DX2                !
 ! D49   D(17,6,7,14)          171.3505         estimate D2E/DX2                !
 ! D50   D(17,6,7,15)           48.7283         estimate D2E/DX2                !
 ! D51   D(6,7,8,9)            -51.1356         estimate D2E/DX2                !
 ! D52   D(6,7,8,12)          -177.9783         estimate D2E/DX2                !
 ! D53   D(6,7,8,13)            66.0796         estimate D2E/DX2                !
 ! D54   D(14,7,8,9)            61.6836         estimate D2E/DX2                !
 ! D55   D(14,7,8,12)          -65.1591         estimate D2E/DX2                !
 ! D56   D(14,7,8,13)          178.8988         estimate D2E/DX2                !
 ! D57   D(15,7,8,9)          -171.8795         estimate D2E/DX2                !
 ! D58   D(15,7,8,12)           61.2779         estimate D2E/DX2                !
 ! D59   D(15,7,8,13)          -54.6643         estimate D2E/DX2                !
 ! D60   D(7,8,9,4)             52.1418         estimate D2E/DX2                !
 ! D61   D(7,8,9,10)           -69.7089         estimate D2E/DX2                !
 ! D62   D(7,8,9,11)           178.2362         estimate D2E/DX2                !
 ! D63   D(12,8,9,4)          -179.0459         estimate D2E/DX2                !
 ! D64   D(12,8,9,10)           59.1033         estimate D2E/DX2                !
 ! D65   D(12,8,9,11)          -52.9515         estimate D2E/DX2                !
 ! D66   D(13,8,9,4)           -62.3365         estimate D2E/DX2                !
 ! D67   D(13,8,9,10)          175.8128         estimate D2E/DX2                !
 ! D68   D(13,8,9,11)           63.7579         estimate D2E/DX2                !
 ! D69   D(2,22,23,24)        -101.1423         estimate D2E/DX2                !
 ! D70   D(2,22,23,27)          22.4194         estimate D2E/DX2                !
 ! D71   D(2,22,23,28)         133.0911         estimate D2E/DX2                !
 ! D72   D(29,22,23,24)         63.2308         estimate D2E/DX2                !
 ! D73   D(29,22,23,27)       -173.2075         estimate D2E/DX2                !
 ! D74   D(29,22,23,28)        -62.5358         estimate D2E/DX2                !
 ! D75   D(2,22,29,30)         -17.7214         estimate D2E/DX2                !
 ! D76   D(2,22,29,31)        -141.264          estimate D2E/DX2                !
 ! D77   D(2,22,29,32)         100.4492         estimate D2E/DX2                !
 ! D78   D(23,22,29,30)        175.9832         estimate D2E/DX2                !
 ! D79   D(23,22,29,31)         52.4406         estimate D2E/DX2                !
 ! D80   D(23,22,29,32)        -65.8462         estimate D2E/DX2                !
 ! D81   D(22,23,24,25)         64.7515         estimate D2E/DX2                !
 ! D82   D(22,23,24,26)       -174.4973         estimate D2E/DX2                !
 ! D83   D(22,23,24,35)        -47.7233         estimate D2E/DX2                !
 ! D84   D(27,23,24,25)        -56.3747         estimate D2E/DX2                !
 ! D85   D(27,23,24,26)         64.3766         estimate D2E/DX2                !
 ! D86   D(27,23,24,35)       -168.8494         estimate D2E/DX2                !
 ! D87   D(28,23,24,25)       -172.9772         estimate D2E/DX2                !
 ! D88   D(28,23,24,26)        -52.2259         estimate D2E/DX2                !
 ! D89   D(28,23,24,35)         74.5481         estimate D2E/DX2                !
 ! D90   D(23,24,35,32)         45.4607         estimate D2E/DX2                !
 ! D91   D(23,24,35,36)        -78.654          estimate D2E/DX2                !
 ! D92   D(23,24,35,37)        169.5766         estimate D2E/DX2                !
 ! D93   D(25,24,35,32)        -59.2165         estimate D2E/DX2                !
 ! D94   D(25,24,35,36)        176.6689         estimate D2E/DX2                !
 ! D95   D(25,24,35,37)         64.8994         estimate D2E/DX2                !
 ! D96   D(26,24,35,32)        173.1259         estimate D2E/DX2                !
 ! D97   D(26,24,35,36)         49.0112         estimate D2E/DX2                !
 ! D98   D(26,24,35,37)        -62.7582         estimate D2E/DX2                !
 ! D99   D(22,29,32,33)        -65.109          estimate D2E/DX2                !
 ! D100  D(22,29,32,34)        174.6487         estimate D2E/DX2                !
 ! D101  D(22,29,32,35)         57.9889         estimate D2E/DX2                !
 ! D102  D(30,29,32,33)         62.6414         estimate D2E/DX2                !
 ! D103  D(30,29,32,34)        -57.6009         estimate D2E/DX2                !
 ! D104  D(30,29,32,35)       -174.2607         estimate D2E/DX2                !
 ! D105  D(31,29,32,33)        176.5107         estimate D2E/DX2                !
 ! D106  D(31,29,32,34)         56.2683         estimate D2E/DX2                !
 ! D107  D(31,29,32,35)        -60.3915         estimate D2E/DX2                !
 ! D108  D(29,32,35,24)        -50.6512         estimate D2E/DX2                !
 ! D109  D(29,32,35,36)         72.9335         estimate D2E/DX2                !
 ! D110  D(29,32,35,37)       -174.8776         estimate D2E/DX2                !
 ! D111  D(33,32,35,24)         71.7794         estimate D2E/DX2                !
 ! D112  D(33,32,35,36)       -164.636          estimate D2E/DX2                !
 ! D113  D(33,32,35,37)        -52.447          estimate D2E/DX2                !
 ! D114  D(34,32,35,24)       -171.8634         estimate D2E/DX2                !
 ! D115  D(34,32,35,36)        -48.2787         estimate D2E/DX2                !
 ! D116  D(34,32,35,37)         63.9102         estimate D2E/DX2                !
 ! D117  D(24,35,37,38)        109.4627         estimate D2E/DX2                !
 ! D118  D(24,35,37,44)        -68.9376         estimate D2E/DX2                !
 ! D119  D(32,35,37,38)       -121.5786         estimate D2E/DX2                !
 ! D120  D(32,35,37,44)         60.0212         estimate D2E/DX2                !
 ! D121  D(36,35,37,38)         -5.5084         estimate D2E/DX2                !
 ! D122  D(36,35,37,44)        176.0914         estimate D2E/DX2                !
 ! D123  D(35,37,38,39)         -4.8491         estimate D2E/DX2                !
 ! D124  D(35,37,38,40)       -174.5138         estimate D2E/DX2                !
 ! D125  D(44,37,38,39)        173.6891         estimate D2E/DX2                !
 ! D126  D(44,37,38,40)          4.0244         estimate D2E/DX2                !
 ! D127  D(35,37,44,42)        178.3545         estimate D2E/DX2                !
 ! D128  D(38,37,44,42)         -0.2025         estimate D2E/DX2                !
 ! D129  D(37,38,40,41)       -124.9098         estimate D2E/DX2                !
 ! D130  D(37,38,40,42)         -6.014          estimate D2E/DX2                !
 ! D131  D(37,38,40,45)        112.8911         estimate D2E/DX2                !
 ! D132  D(39,38,40,41)         64.8777         estimate D2E/DX2                !
 ! D133  D(39,38,40,42)       -176.2264         estimate D2E/DX2                !
 ! D134  D(39,38,40,45)        -57.3214         estimate D2E/DX2                !
 ! D135  D(38,40,42,43)        179.5551         estimate D2E/DX2                !
 ! D136  D(38,40,42,44)          6.4631         estimate D2E/DX2                !
 ! D137  D(41,40,42,43)        -61.5657         estimate D2E/DX2                !
 ! D138  D(41,40,42,44)        125.3423         estimate D2E/DX2                !
 ! D139  D(45,40,42,43)         60.6805         estimate D2E/DX2                !
 ! D140  D(45,40,42,44)       -112.4115         estimate D2E/DX2                !
 ! D141  D(40,42,44,37)         -3.9997         estimate D2E/DX2                !
 ! D142  D(43,42,44,37)       -175.9086         estimate D2E/DX2                !
 --------------------------------------------------------------------------------
 Trust Radius=3.00D-01 FncErr=1.00D-07 GrdErr=1.00D-06 EigMax=2.50D+02 EigMin=1.00D-04
 Number of steps in this run=    270 maximum allowed number of steps=    270.
 GradGradGradGradGradGradGradGradGradGradGradGradGradGradGradGradGradGrad

 Leave Link  103 at Sun Jul 18 13:35:46 2021, MaxMem=   104857600 cpu:               0.1 elap:               0.0
 (Enter /prod/apps/gaussian/g16b1/l202.exe)
                          Input orientation:                          
 ---------------------------------------------------------------------
 Center     Atomic      Atomic             Coordinates (Angstroms)
 Number     Number       Type             X           Y           Z
 ---------------------------------------------------------------------
      1         16           0       -0.827000   -1.210000   -2.391000
      2          6           0       -0.483000   -0.954000   -0.790000
      3          7           0       -1.335000   -0.358000    0.057000
      4          6           0       -2.620000    0.203000   -0.263000
      5          6           0       -3.768000   -0.860000   -0.511000
      6          6           0       -5.115000   -0.179000   -0.747000
      7          6           0       -5.599000    0.759000    0.353000
      8          6           0       -4.501000    1.813000    0.591000
      9          6           0       -3.080000    1.204000    0.820000
     10          1           0       -3.155000    0.722000    1.803000
     11          1           0       -2.332000    1.995000    0.953000
     12          1           0       -4.737000    2.522000    1.395000
     13          1           0       -4.483000    2.381000   -0.347000
     14          1           0       -5.662000    0.133000    1.252000
     15          1           0       -6.555000    1.207000    0.055000
     16          1           0       -5.839000   -0.985000   -0.919000
     17          1           0       -5.190000    0.373000   -1.692000
     18          1           0       -3.854000   -1.471000    0.396000
     19          1           0       -3.548000   -1.531000   -1.350000
     20          1           0       -2.582000    0.839000   -1.156000
     21          1           0       -0.995000   -0.239000    1.003000
     22          7           0        0.661000   -1.446000   -0.119000
     23          6           0        1.171000   -1.089000    1.289000
     24          6           0        2.291000   -0.131000    1.283000
     25          1           0        1.751000    0.726000    0.861000
     26          1           0        2.734000    0.067000    2.266000
     27          1           0        0.314000   -0.703000    1.855000
     28          1           0        1.410000   -2.035000    1.792000
     29          6           0        1.661000   -2.117000   -0.928000
     30          1           0        1.391000   -2.479000   -1.927000
     31          1           0        2.057000   -2.974000   -0.370000
     32          6           0        2.797000   -1.131000   -1.193000
     33          1           0        2.451000   -0.288000   -1.804000
     34          1           0        3.644000   -1.585000   -1.722000
     35          6           0        3.359000   -0.662000    0.194000
     36          1           0        3.934000   -1.479000    0.647000
     37          6           0        4.417000    0.428000   -0.043000
     38          6           0        5.694000    0.338000    0.369000
     39          1           0        6.169000   -0.427000    0.967000
     40          7           0        6.251000    1.586000    0.059000
     41          1           0        7.065000    1.471000   -0.510000
     42          6           0        5.277000    2.247000   -0.634000
     43          1           0        5.513000    3.251000   -0.963000
     44          7           0        4.141000    1.592000   -0.664000
     45          1           0        6.479000    2.082000    0.897000
 ---------------------------------------------------------------------
                    Distance matrix (angstroms):
                    1          2          3          4          5
     1  S    0.000000
     2  C    1.657430   0.000000
     3  N    2.641339   1.341092   0.000000
     4  C    3.120866   2.486593   1.438175   0.000000
     5  C    3.508045   3.298166   2.548356   1.584101   0.000000
     6  C    4.706659   4.696584   3.868702   2.570059   1.527700
     7  C    5.846236   5.514914   4.417805   3.092415   2.592338
     8  C    5.615080   5.070283   3.875816   2.619079   2.982721
     9  C    4.605858   3.740785   2.463136   1.544827   2.550490
    10  H    5.171252   4.083162   2.743595   2.196347   2.869336
    11  H    4.870255   3.892743   2.708031   2.184689   3.515170
    12  H    6.599221   5.912133   4.653842   3.550833   4.001215
    13  H    5.517205   5.226708   4.192284   2.867317   3.322981
    14  H    6.200994   5.672158   4.515754   3.399101   2.771544
    15  H    6.680927   6.500241   5.449553   4.073495   3.515710
    16  H    5.228533   5.357643   4.650991   3.493371   2.114505
    17  H    4.693640   4.972965   4.295857   2.945478   2.221966
    18  H    4.122890   3.610751   2.774716   2.181585   1.096980
    19  H    2.930966   3.168715   2.872794   2.247111   1.096614
    20  H    2.967095   2.784709   2.111679   1.096991   2.170074
    21  H    3.534162   1.997052   1.012263   2.106833   3.219839
    22  N    2.726137   1.414582   2.280074   3.674901   4.484763
    23  C    4.189158   2.660109   2.886559   4.295305   5.261764
    24  C    4.938060   3.559457   3.834381   5.159418   6.360924
    25  H    4.579267   3.246376   3.368214   4.543407   5.903994
    26  H    5.999925   4.553094   4.649416   5.922808   7.130713
    27  H    4.425771   2.773848   2.463946   3.730297   4.720734
    28  H    4.814798   3.379162   3.654802   5.047036   5.787583
    29  C    3.025419   2.443020   3.611139   4.914426   5.588200
    30  H    2.597149   2.670257   3.983211   5.103934   5.589409
    31  H    3.938730   3.272369   4.304817   5.655007   6.198347
    32  C    3.817698   3.309401   4.385596   5.655824   6.605891
    33  H    3.455421   3.174919   4.219244   5.322669   6.377695
    34  H    4.536301   4.277723   5.427781   6.675576   7.545190
    35  C    4.950265   3.976743   4.705828   6.058508   7.164521
    36  H    5.654107   4.674450   5.419142   6.827308   7.813125
    37  C    5.974587   5.145671   5.806316   7.044033   8.298927
    38  C    7.248265   6.416220   7.070262   8.339079   9.578050
    39  H    7.799569   6.900281   7.559291   8.896984  10.055642
    40  N    7.994886   7.247010   7.831126   8.983931  10.328997
    41  H    8.544565   7.932927   8.615494   9.770776  11.080950
    42  C    7.231647   6.591535   7.140172   8.165671   9.564549
    43  H    7.882595   7.325570   7.807713   8.713552  10.160787
    44  N    5.959426   5.280092   5.857381   6.913844   8.281787
    45  H    8.661746   7.780277   8.229082   9.363121  10.753550
                    6          7          8          9         10
     6  C    0.000000
     7  C    1.524500   0.000000
     8  C    2.476955   1.540508   0.000000
     9  C    2.917088   2.600284   1.562870   0.000000
    10  H    3.340045   2.842007   2.114460   1.097378   0.000000
    11  H    3.919358   3.544148   2.206520   1.096756   1.737918
    12  H    3.467917   2.221931   1.097631   2.193946   2.430882
    13  H    2.667025   2.089579   1.096719   2.171549   3.022973
    14  H    2.095842   1.097290   2.146449   2.828496   2.633547
    15  H    2.153555   1.097016   2.207589   3.558210   3.853664
    16  H    1.096994   2.171893   3.449514   3.927839   4.186525
    17  H    1.096975   2.120920   2.785751   3.384199   4.059317
    18  H    2.136781   2.831921   3.352803   2.816820   2.697684
    19  H    2.155691   3.514386   3.982214   3.522520   3.895108
    20  H    2.760379   3.374281   2.771867   2.070219   3.016239
    21  H    4.476662   4.755557   4.083195   2.542236   2.495821
    22  N    5.946583   6.653751   6.145846   4.679669   4.791259
    23  C    6.669872   7.079838   6.409399   4.852712   4.717859
    24  C    7.679325   7.994317   7.098540   5.553759   5.536870
    25  H    7.109616   7.367608   6.351533   4.854763   4.995620
    26  H    8.411034   8.577722   7.628851   6.098056   5.943376
    27  H    6.043097   6.273517   5.577829   4.028289   3.750639
    28  H    7.243403   7.681357   7.154679   5.621032   5.332954
    29  C    7.050020   7.913276   7.464751   6.046621   6.221908
    30  H    7.000745   8.033875   7.712150   6.410955   6.695179
    31  H    7.706604   8.548237   8.175956   6.727596   6.748873
    32  C    7.981539   8.743857   8.069114   6.636529   6.916352
    33  H    7.640254   8.399486   7.647256   6.301063   6.742239
    34  H    8.924547   9.758740   9.123453   7.710542   7.998392
    35  C    8.539757   9.071399   8.250020   6.733094   6.851024
    36  H    9.247575   9.796590   9.054812   7.511632   7.512300
    37  C    9.577217  10.029289   9.047149   7.586300   7.799316
    38  C   10.878751  11.300856  10.303540   8.828161   8.972659
    39  H   11.416127  11.843539  10.909073   9.392857   9.431653
    40  N   11.530430  11.882460  10.767546   9.369771   9.605252
    41  H   12.293538  12.713324  11.623318  10.235293  10.505207
    42  C   10.672015  11.021601   9.863988   8.546427   8.908604
    43  H   11.169868  11.463789  10.235378   9.011601   9.443560
    44  N    9.424270   9.828315   8.735447   7.382116   7.750781
    45  H   11.926261  12.162415  10.987556   9.599547   9.771612
                   11         12         13         14         15
    11  H    0.000000
    12  H    2.501423   0.000000
    13  H    2.542793   1.766058   0.000000
    14  H    3.826924   2.565813   3.000058   0.000000
    15  H    4.388744   2.613417   2.415174   1.839493   0.000000
    16  H    4.968283   4.343737   3.673673   2.448366   2.503237
    17  H    4.218421   3.788533   2.518122   2.991241   2.368711
    18  H    3.826211   4.209720   3.973109   2.564062   3.818817
    19  H    4.383508   5.037416   4.145356   3.742766   4.302641
    20  H    2.417999   3.739534   2.577993   3.972820   4.169733
    21  H    2.604002   4.666835   4.566513   4.688419   5.822647
    22  N    4.684839   6.868451   6.415501   6.659821   7.690211
    23  C    4.679205   6.924956   6.832650   6.941509   8.153861
    24  C    5.099108   7.512905   7.406357   7.957441   9.030501
    25  H    4.276648   6.753141   6.562092   7.446952   8.358866
    26  H    5.577231   7.912111   8.016698   8.457267   9.616322
    27  H    3.885116   6.010393   6.113188   6.064246   7.353316
    28  H    5.563037   7.662210   7.668365   7.416536   8.773195
    29  C    6.032475   8.237175   7.636642   7.965000   8.917282
    30  H    6.493982   8.578932   7.785877   8.165378   8.980748
    31  H    6.760519   8.915138   8.452701   8.477458   9.582689
    32  C    6.378388   8.763750   8.127008   8.895527   9.720270
    33  H    5.974130   8.354463   7.571444   8.679697   9.316595
    34  H    7.462212   9.839934   9.147016   9.919568  10.722527
    35  C    6.326390   8.782111   8.429086   9.117556  10.089593
    36  H    7.171127   9.578818   9.313084   9.749245  10.843624
    37  C    6.999750   9.499916   9.116832  10.166135  11.000056
    38  C    8.216044  10.706460  10.404702  11.392122  12.283801
    39  H    8.839303  11.305778  11.093988  11.847674  12.860866
    40  N    8.639121  11.108426  10.771055  12.060432  12.811608
    41  H    9.524629  12.000868  11.584946  12.917872  13.634270
    42  C    7.776822  10.221187   9.765138  11.299899  11.897586
    43  H    8.172675  10.542965  10.052680  11.811383  12.282137
    44  N    6.684073   9.160964   8.665817  10.094481  10.727050
    45  H    8.811607  11.235669  11.036412  12.301565  13.090445
                   16         17         18         19         20
    16  H    0.000000
    17  H    1.692009   0.000000
    18  H    2.430153   3.089494   0.000000
    19  H    2.394276   2.537389   1.773627   0.000000
    20  H    3.740480   2.702983   3.059867   2.566650   0.000000
    21  H    5.264498   5.023504   3.171775   3.704549   2.888241
    22  N    6.565251   6.325922   4.544345   4.386145   4.100444
    23  C    7.350250   7.175383   5.118007   5.424818   4.876496
    24  C    8.466110   8.066598   6.351645   6.556417   5.534957
    25  H    7.981480   7.404046   6.038134   6.169438   4.780789
    26  H    9.205827   8.862797   7.018838   7.422438   6.369138
    27  H    6.755295   6.635737   4.482268   5.086517   4.453168
    28  H    7.810251   7.841984   5.475090   5.891345   5.734688
    29  C    7.584953   7.329393   5.708373   5.258817   5.176193
    30  H    7.451242   7.176259   5.824295   5.062149   5.233383
    31  H    8.161148   8.091298   6.147006   5.870151   6.056161
    32  C    8.641579   8.142677   6.846629   6.359534   5.728517
    33  H    8.366190   7.670355   6.781778   6.143221   5.198184
    34  H    9.535832   9.048437   7.792235   7.201817   6.705163
    35  C    9.270723   8.815533   7.261037   7.130620   6.274630
    36  H    9.909991   9.599385   7.792048   7.744097   7.147180
    37  C   10.389874   9.747650   8.497550   8.305851   7.098851
    38  C   11.679870  11.077473   9.717897   9.584502   8.430231
    39  H   12.168008  11.693467  10.093389  10.050243   9.093398
    40  N   12.398977  11.637605  10.562663  10.378891   8.947409
    41  H   13.142010  12.360734  11.344636  11.061346   9.689239
    42  C   11.579832  10.685941   9.912597   9.626347   8.001177
    43  H   12.116664  11.107139  10.577564  10.252756   8.448906
    44  N   10.310497   9.466272   8.627027   8.327331   6.782905
    45  H   12.823317  12.074318  10.938268  10.892360   9.373451
                   21         22         23         24         25
    21  H    0.000000
    22  N    2.336251   0.000000
    23  C    2.344323   1.539485   0.000000
    24  C    3.299676   2.520264   1.473839   0.000000
    25  H    2.914087   2.620321   1.952898   1.097330   0.000000
    26  H    3.948955   3.503530   2.175738   1.096240   1.837007
    27  H    1.629319   2.137553   1.097179   2.136094   2.257221
    28  H    3.103572   2.135379   1.097746   2.158809   2.933626
    29  C    3.782854   1.450766   2.492383   3.038028   3.360249
    30  H    4.392664   2.206548   3.510435   4.077647   4.263164
    31  H    4.322043   2.084850   2.662800   3.296940   3.911393
    32  C    4.471839   2.411472   2.967484   2.717832   2.959980
    33  H    4.444836   2.717405   3.441896   3.095128   2.936055
    34  H    5.545959   3.389280   3.927832   3.602048   3.949185
    35  C    4.448677   2.826982   2.483686   1.615087   2.226454
    36  H    5.095035   3.361603   2.863291   2.218344   3.110195
    37  C    5.552364   4.198236   3.822568   2.567223   2.830826
    38  C    6.743709   5.362079   4.831176   3.554682   3.992475
    39  H    7.166557   5.705771   5.051924   3.902096   4.567206
    40  N    7.531685   6.361824   5.871535   4.486409   4.651108
    41  H    8.377164   7.047906   6.673023   5.345309   5.538345
    42  C    6.942474   5.933880   5.629037   4.271530   4.120818
    43  H    7.641945   6.805590   6.539118   5.183023   4.884183
    44  N    5.701749   4.651545   4.452288   3.190931   2.964402
    45  H    7.826810   6.879547   6.195464   4.752442   4.918741
                   26         27         28         29         30
    26  H    0.000000
    27  H    2.572590   0.000000
    28  H    2.529043   1.726096   0.000000
    29  C    4.015323   3.399837   2.732787   0.000000
    30  H    5.085962   4.314815   3.745458   1.096333   0.000000
    31  H    4.080993   3.625757   2.444294   1.096644   1.764321
    32  C    3.661127   3.954589   3.413387   1.527389   2.081513
    33  H    4.095243   4.257614   4.131211   2.176400   2.437049
    34  H    4.411502   4.966060   4.188252   2.201306   2.432544
    35  C    2.283692   3.468808   2.870076   2.501822   3.416600
    36  H    2.539936   3.894334   2.826789   2.837992   3.753975
    37  C    2.879981   4.660062   4.298330   3.854320   4.599650
    38  C    3.526138   5.677700   5.099874   4.896358   5.632310
    39  H    3.705491   5.928385   5.090616   5.173895   5.951069
    40  N    4.421255   6.611589   6.288896   5.979505   6.639881
    41  H    5.332443   7.476329   7.040615   6.500130   7.057242
    42  C    4.430491   6.287208   6.258969   5.675067   6.253633
    43  H    5.318565   7.113708   7.236465   6.607159   7.124120
    44  N    3.590289   5.124287   5.161921   4.469539   5.072545
    45  H    4.467596   6.832365   6.591318   6.646454   7.393608
                   31         32         33         34         35
    31  H    0.000000
    32  C    2.149786   0.000000
    33  H    3.070210   1.097126   0.000000
    34  H    2.505153   1.096980   1.764138   0.000000
    35  C    2.712682   1.568303   2.226285   2.145742   0.000000
    36  H    2.606232   2.190770   3.102446   2.389037   1.096961
    37  C    4.153328   2.525348   2.734764   2.732899   1.537411
    38  C    4.974257   3.604222   3.953587   3.503243   2.546144
    39  H    5.018299   4.065907   4.639104   3.866175   2.923842
    40  N    6.210256   4.569432   4.628460   4.474779   3.665432
    41  H    6.697588   5.045069   5.104656   4.744610   4.333560
    42  C    6.139783   4.227738   3.972581   4.305190   3.581423
    43  H    7.144663   5.160570   4.754750   5.239860   4.614102
    44  N    5.027708   3.082354   2.773103   3.385218   2.535390
    45  H    6.835387   5.314941   5.397878   5.323840   4.214041
                   36         37         38         39         40
    36  H    0.000000
    37  C    2.084715   0.000000
    38  C    2.544872   1.344832   0.000000
    39  H    2.490849   2.195593   1.080951   0.000000
    40  N    3.886960   2.171388   1.401375   2.209832   0.000000
    41  H    4.454695   2.884067   1.983928   2.566466   0.999791
    42  C    4.162654   2.097056   2.196401   3.241781   1.365960
    43  H    5.240061   3.164956   3.208201   4.205106   2.088385
    44  N    3.345536   1.347855   2.247535   3.293828   2.230441
    45  H    4.384090   2.805559   1.984073   2.529047   1.000122
                   41         42         43         44         45
    41  H    0.000000
    42  C    1.953073   0.000000
    43  H    2.404644   1.082568   0.000000
    44  N    2.930552   1.311648   2.173492   0.000000
    45  H    1.642062   1.953456   2.399858   2.853606   0.000000
 Stoichiometry    C15H25N4S(1+)
 Framework group  C1[X(C15H25N4S)]
 Deg. of freedom   129
 Full point group                 C1      NOp   1
 Largest Abelian subgroup         C1      NOp   1
 Largest concise Abelian subgroup C1      NOp   1
                         Standard orientation:                         
 ---------------------------------------------------------------------
 Center     Atomic      Atomic             Coordinates (Angstroms)
 Number     Number       Type             X           Y           Z
 ---------------------------------------------------------------------
      1         16           0        1.277773    2.021955   -1.269915
      2          6           0        0.903514    1.005779   -0.015169
      3          7           0        1.718493    0.026503    0.403587
      4          6           0        2.981774   -0.350562   -0.171121
      5          6           0        4.177707    0.640505    0.140178
      6          6           0        5.496700    0.114860   -0.423578
      7          6           0        5.926146   -1.271038    0.044357
      8          6           0        4.780674   -2.251468   -0.271579
      9          6           0        3.384721   -1.781063    0.250529
     10          1           0        3.468556   -1.866973    1.341322
     11          1           0        2.601573   -2.497065   -0.026773
     12          1           0        4.975905   -3.279464    0.059934
     13          1           0        4.749505   -2.264892   -1.367773
     14          1           0        6.005259   -1.189874    1.135778
     15          1           0        6.865390   -1.547599   -0.450394
     16          1           0        6.256998    0.864573   -0.172033
     17          1           0        5.559216    0.114710   -1.518770
     18          1           0        4.279049    0.703698    1.230638
     19          1           0        3.997240    1.652801   -0.240940
     20          1           0        2.927130   -0.444464   -1.262718
     21          1           0        1.362151   -0.540194    1.162897
     22          7           0       -0.226179    1.139547    0.825629
     23          6           0       -0.768296    0.141343    1.864721
     24          6           0       -1.928611   -0.631900    1.387263
     25          1           0       -1.421161   -1.179797    0.583251
     26          1           0       -2.391724   -1.280884    2.139651
     27          1           0        0.064206   -0.515006    2.147471
     28          1           0       -0.972181    0.711767    2.780196
     29          6           0       -1.186221    2.170617    0.479311
     30          1           0       -0.888629    2.976476   -0.201846
     31          1           0       -1.551474    2.643378    1.398939
     32          6           0       -2.360576    1.505104   -0.235461
     33          1           0       -2.044020    1.073414   -1.193125
     34          1           0       -3.180592    2.200845   -0.451989
     35          6           0       -2.959239    0.423341    0.729405
     36          1           0       -3.503765    0.922616    1.540293
     37          6           0       -4.060523   -0.349313   -0.014781
     38          6           0       -5.337348   -0.424817    0.400658
     39          1           0       -5.785997   -0.048103    1.309093
     40          7           0       -5.944099   -1.318396   -0.492216
     41          1           0       -6.745354   -0.895792   -0.915274
     42          6           0       -4.991291   -1.579169   -1.435615
     43          1           0       -5.266559   -2.266966   -2.224991
     44          7           0       -3.827687   -1.049344   -1.142813
     45          1           0       -6.203580   -2.159964   -0.018215
 ---------------------------------------------------------------------
 Rotational constants (GHZ):           0.6694462           0.1238802           0.1157199
 Leave Link  202 at Sun Jul 18 13:35:46 2021, MaxMem=   104857600 cpu:               0.1 elap:               0.0
 (Enter /prod/apps/gaussian/g16b1/l301.exe)
 Standard basis: 6-31G(d) (6D, 7F)
 Ernie: Thresh=  0.10000D-02 Tol=  0.10000D-05 Strict=F.
 There are   354 symmetry adapted cartesian basis functions of A   symmetry.
 There are   354 symmetry adapted basis functions of A   symmetry.
   354 basis functions,   684 primitive gaussians,   354 cartesian basis functions
    79 alpha electrons       79 beta electrons
       nuclear repulsion energy      1713.0919566816 Hartrees.
 IExCor=  402 DFT=T Ex+Corr=B3LYP ExCW=0 ScaHFX=  0.200000
 ScaDFX=  0.800000  0.720000  1.000000  0.810000 ScalE2=  1.000000  1.000000
 IRadAn=      5 IRanWt=     -1 IRanGd=            0 ICorTp=0 IEmpDi=  4
 NAtoms=   45 NActive=   45 NUniq=   45 SFac= 1.00D+00 NAtFMM=   60 NAOKFM=F Big=F
 Integral buffers will be    131072 words long.
 Raffenetti 2 integral format.
 Two-electron integral symmetry is turned on.
 Using the following non-standard input for PCM:
 MSTModel=DFT cav MSTCharged
 --- end of non-standard input.
 MST model for solvation energy: B3LYP parametrization.
 MST cavity parameters:
 ISph   IAn     Re0     Alpha   Atom Type   QCorr
 ------------------------------------------------
   1     16     1.75     1.25      S          F
   2      6     1.50     1.25      C          F
   3      7     1.50     1.25      NH         F
   4      6     1.50     1.25      CH         F
   5      6     1.50     1.25      CH2        F
   6      6     1.50     1.25      CH2        F
   7      6     1.50     1.25      CH2        F
   8      6     1.50     1.25      CH2        F
   9      6     1.50     1.25      CH2        F
  10      1     1.20     1.25      CH2        F
  11      1     1.20     1.25      CH2        F
  12      1     1.20     1.25      CH2        F
  13      1     1.20     1.25      CH2        F
  14      1     1.20     1.25      CH2        F
  15      1     1.20     1.25      CH2        F
  16      1     1.20     1.25      CH2        F
  17      1     1.20     1.25      CH2        F
  18      1     1.20     1.25      CH2        F
  19      1     1.20     1.25      CH2        F
  20      1     1.20     1.25      CH         F
  21      1     0.90     1.25      NH         F
  22      7     1.40     1.25      N          F
  23      6     1.50     1.25      CH2        F
  24      6     1.50     1.25      CH2        F
  25      1     1.20     1.25      CH2        F
  26      1     1.20     1.25      CH2        F
  27      1     1.20     1.25      CH2        F
  28      1     1.20     1.25      CH2        F
  29      6     1.50     1.25      CH2        F
  30      1     1.20     1.25      CH2        F
  31      1     1.20     1.25      CH2        F
  32      6     1.50     1.25      CH2        F
  33      1     1.20     1.25      CH2        F
  34      1     1.20     1.25      CH2        F
  35      6     1.50     1.25      CH         F
  36      1     1.20     1.25      CH         F
  37      6     1.50     1.25      C          F
  38      6     1.50     1.25      CH         F
  39      1     1.20     1.25      CH         F
  40      7     1.55     1.15      NH         T
  41      1     0.90     1.15      NH         T
  42      6     1.50     1.25      CH         F
  43      1     1.20     1.25      CH         F
  44      7     1.40     1.25      N          F
  45      1     0.90     1.15      NH         T
 ------------------------------------------------------------------------------
 Polarizable Continuum Model (PCM)
 =================================
 Model                : PCM.
 Atomic radii         : MST.
 Polarization charges : Total charges.
 Charge compensation  : None.
 Solution method      : On-the-fly selection.
 Cavity type          : Scaled VdW (van der Waals Surface) (Alpha=1.250).
 Cavity algorithm     : GePol (No added spheres)
                        Default sphere list used, NSphG=   45.
                        Lebedev-Laikov grids with approx.  5.0 points / Ang**2.
                        Smoothing algorithm: York/Karplus (Gamma=1.0000).
                        Polarization charges: spherical gaussians, with
                                              point-specific exponents (IZeta= 3).
                        Self-potential: point-specific (ISelfS= 7).
                        Self-field    : sphere-specific E.n sum rule (ISelfD= 2).
 1st derivatives      : Analytical E(r).r(x)/FMM algorithm (CHGder, D1EAlg=3).
                        Cavity 1st derivative terms included.
 Solvent              : Water, Eps=  78.355300 Eps(inf)=   1.777849
 ------------------------------------------------------------------------------
 GePol: Number of generator spheres                  =      45
 GePol: Total number of spheres                      =      45
 GePol: Number of exposed spheres                    =      45 (100.00%)
 GePol: Number of points                             =    2852
 GePol: Average weight of points                     =       0.13
 GePol: Minimum weight of points                     =   0.15D-10
 GePol: Maximum weight of points                     =    0.22001
 GePol: Number of points with low weight             =     218
 GePol: Fraction of low-weight points (<1% of avg)   =       7.64%
 GePol: Cavity surface area                          =    382.339 Ang**2
 GePol: Cavity volume                                =    373.772 Ang**3
 PCM non-electrostatic energy =         0.0027869423 Hartrees.
 Nuclear repulsion after PCM non-electrostatic terms =     1713.0947436239 Hartrees.
 Leave Link  301 at Sun Jul 18 13:35:46 2021, MaxMem=   104857600 cpu:               0.3 elap:               0.1
 (Enter /prod/apps/gaussian/g16b1/l302.exe)
 NPDir=0 NMtPBC=     1 NCelOv=     1 NCel=       1 NClECP=     1 NCelD=      1
         NCelK=      1 NCelE2=     1 NClLst=     1 CellRange=     0.0.
 One-electron integrals computed using PRISM.
 One-electron integral symmetry used in STVInt
 NBasis=   354 RedAO= T EigKep=  1.41D-03  NBF=   354
 NBsUse=   354 1.00D-06 EigRej= -1.00D+00 NBFU=   354
 Precomputing XC quadrature grid using
 IXCGrd= 4 IRadAn=           5 IRanWt=          -1 IRanGd=           0 AccXCQ= 0.00D+00.
 Generated NRdTot=       0 NPtTot=           0 NUsed=           0 NTot=          32
 NSgBfM=   348   348   348   348   348 MxSgAt=    45 MxSgA2=    45.
 Leave Link  302 at Sun Jul 18 13:35:47 2021, MaxMem=   104857600 cpu:               2.8 elap:               0.7
 (Enter /prod/apps/gaussian/g16b1/l303.exe)
 DipDrv:  MaxL=1.
 Leave Link  303 at Sun Jul 18 13:35:47 2021, MaxMem=   104857600 cpu:               0.2 elap:               0.1
 (Enter /prod/apps/gaussian/g16b1/l401.exe)
 ExpMin= 1.17D-01 ExpMax= 2.19D+04 ExpMxC= 3.30D+03 IAcc=3 IRadAn=         5 AccDes= 0.00D+00
 Harris functional with IExCor=  402 and IRadAn=       5 diagonalized for initial guess.
 HarFok:  IExCor=  402 AccDes= 0.00D+00 IRadAn=         5 IDoV= 1 UseB2=F ITyADJ=14
 ICtDFT=  3500011 ScaDFX=  1.000000  1.000000  1.000000  1.000000
 FoFCou: FMM=F IPFlag=           0 FMFlag=      100000 FMFlg1=           0
         NFxFlg=           0 DoJE=T BraDBF=F KetDBF=T FulRan=T
         wScrn=  0.000000 ICntrl=       500 IOpCl=  0 I1Cent=   200000004 NGrid=           0
         NMat0=    1 NMatS0=      1 NMatT0=    0 NMatD0=    1 NMtDS0=    0 NMtDT0=    0
 Petite list used in FoFCou.
 Harris En= -1203.45594006646    
 JPrj=0 DoOrth=F DoCkMO=F.
 Leave Link  401 at Sun Jul 18 13:35:50 2021, MaxMem=   104857600 cpu:              12.5 elap:               3.1
 (Enter /prod/apps/gaussian/g16b1/l502.exe)
 Integral symmetry usage will be decided dynamically.
 Closed shell SCF:
 Using DIIS extrapolation, IDIIS=  1040.
 NGot=   104857600 LenX=   104600674 LenY=   104474917
 Requested convergence on RMS density matrix=1.00D-08 within 128 cycles.
 Requested convergence on MAX density matrix=1.00D-06.
 Requested convergence on             energy=1.00D-06.
 No special actions if energy rises.
 Fock matrices will be formed incrementally for  20 cycles.

 Cycle   1  Pass 1  IDiag  1:
 FoFJK:  IHMeth= 1 ICntrl=       0 DoSepK=F KAlg= 0 I1Cent=           0 FoldK=F
 IRaf= 740000000 NMat=       1 IRICut=       1 DoRegI=T DoRafI=F ISym2E= 0 IDoP0=0 IntGTp=1.
 FoFCou: FMM=F IPFlag=           0 FMFlag=      100000 FMFlg1=           0
         NFxFlg=           0 DoJE=F BraDBF=F KetDBF=F FulRan=T
         wScrn=  0.000000 ICntrl=         0 IOpCl=  0 I1Cent=           0 NGrid=           0
         NMat0=    1 NMatS0=      1 NMatT0=    0 NMatD0=    1 NMtDS0=    0 NMtDT0=    0
 Symmetry not used in FoFCou.
 Inv3:  Mode=1 IEnd=    24401712.
 Iteration    1 A*A^-1 deviation from unit magnitude is 3.33D-15 for    249.
 Iteration    1 A*A^-1 deviation from orthogonality  is 1.80D-15 for   2191    437.
 Iteration    1 A^-1*A deviation from unit magnitude is 3.55D-15 for    249.
 Iteration    1 A^-1*A deviation from orthogonality  is 1.58D-15 for   2231   1785.
 E= -1203.22229674531    
 DIIS: error= 2.72D-02 at cycle   1 NSaved=   1.
 NSaved= 1 IEnMin= 1 EnMin= -1203.22229674531     IErMin= 1 ErrMin= 2.72D-02
 ErrMax= 2.72D-02  0.00D+00 EMaxC= 1.00D-01 BMatC= 3.95D-01 BMatP= 3.95D-01
 IDIUse=3 WtCom= 7.28D-01 WtEn= 2.72D-01
 Coeff-Com:  0.100D+01
 Coeff-En:   0.100D+01
 Coeff:      0.100D+01
 Gap=     0.139 Goal=   None    Shift=    0.000
 GapD=    0.139 DampG=1.000 DampE=0.500 DampFc=0.5000 IDamp=-1.
 Damping current iteration by 5.00D-01
 RMSDP=4.16D-03 MaxDP=1.46D-01              OVMax= 1.64D-01

 Cycle   2  Pass 1  IDiag  1:
 RMSU=  2.05D-03    CP:  9.79D-01
 E= -1203.40018677913     Delta-E=       -0.177890033829 Rises=F Damp=T
 DIIS: error= 8.80D-03 at cycle   2 NSaved=   2.
 NSaved= 2 IEnMin= 2 EnMin= -1203.40018677913     IErMin= 2 ErrMin= 8.80D-03
 ErrMax= 8.80D-03  0.00D+00 EMaxC= 1.00D-01 BMatC= 3.19D-02 BMatP= 3.95D-01
 IDIUse=3 WtCom= 9.12D-01 WtEn= 8.80D-02
 Coeff-Com:  0.713D-01 0.929D+00
 Coeff-En:   0.129D+00 0.871D+00
 Coeff:      0.764D-01 0.924D+00
 Gap=     0.166 Goal=   None    Shift=    0.000
 RMSDP=9.75D-04 MaxDP=4.12D-02 DE=-1.78D-01 OVMax= 1.34D-01

 Cycle   3  Pass 1  IDiag  1:
 RMSU=  9.53D-04    CP:  9.76D-01  9.04D-01
 E= -1203.62153467766     Delta-E=       -0.221347898525 Rises=F Damp=F
 DIIS: error= 5.60D-03 at cycle   3 NSaved=   3.
 NSaved= 3 IEnMin= 3 EnMin= -1203.62153467766     IErMin= 3 ErrMin= 5.60D-03
 ErrMax= 5.60D-03  0.00D+00 EMaxC= 1.00D-01 BMatC= 1.60D-02 BMatP= 3.19D-02
 IDIUse=3 WtCom= 9.44D-01 WtEn= 5.60D-02
 Coeff-Com: -0.259D-01 0.399D+00 0.627D+00
 Coeff-En:   0.000D+00 0.000D+00 0.100D+01
 Coeff:     -0.245D-01 0.377D+00 0.648D+00
 Gap=     0.136 Goal=   None    Shift=    0.000
 RMSDP=4.88D-04 MaxDP=3.68D-02 DE=-2.21D-01 OVMax= 5.20D-02

 Cycle   4  Pass 1  IDiag  1:
 RMSU=  3.66D-04    CP:  9.77D-01  9.54D-01  6.79D-01
 E= -1203.63086802031     Delta-E=       -0.009333342648 Rises=F Damp=F
 DIIS: error= 4.21D-03 at cycle   4 NSaved=   4.
 NSaved= 4 IEnMin= 4 EnMin= -1203.63086802031     IErMin= 4 ErrMin= 4.21D-03
 ErrMax= 4.21D-03  0.00D+00 EMaxC= 1.00D-01 BMatC= 6.43D-03 BMatP= 1.60D-02
 IDIUse=3 WtCom= 9.58D-01 WtEn= 4.21D-02
 Coeff-Com: -0.210D-01 0.121D+00 0.409D+00 0.491D+00
 Coeff-En:   0.000D+00 0.000D+00 0.293D+00 0.707D+00
 Coeff:     -0.201D-01 0.116D+00 0.404D+00 0.500D+00
 Gap=     0.136 Goal=   None    Shift=    0.000
 RMSDP=2.13D-04 MaxDP=1.66D-02 DE=-9.33D-03 OVMax= 2.38D-02

 Cycle   5  Pass 1  IDiag  1:
 RMSU=  1.22D-04    CP:  9.77D-01  9.56D-01  7.41D-01  5.54D-01
 E= -1203.63634901553     Delta-E=       -0.005480995219 Rises=F Damp=F
 DIIS: error= 5.73D-04 at cycle   5 NSaved=   5.
 NSaved= 5 IEnMin= 5 EnMin= -1203.63634901553     IErMin= 5 ErrMin= 5.73D-04
 ErrMax= 5.73D-04  0.00D+00 EMaxC= 1.00D-01 BMatC= 3.22D-04 BMatP= 6.43D-03
 IDIUse=3 WtCom= 9.94D-01 WtEn= 5.73D-03
 Coeff-Com: -0.715D-02 0.215D-01 0.142D+00 0.255D+00 0.589D+00
 Coeff-En:   0.000D+00 0.000D+00 0.000D+00 0.000D+00 0.100D+01
 Coeff:     -0.711D-02 0.214D-01 0.141D+00 0.254D+00 0.591D+00
 Gap=     0.135 Goal=   None    Shift=    0.000
 RMSDP=6.42D-05 MaxDP=4.62D-03 DE=-5.48D-03 OVMax= 4.49D-03

 Cycle   6  Pass 1  IDiag  1:
 RMSU=  2.96D-05    CP:  9.77D-01  9.55D-01  7.59D-01  5.85D-01  5.63D-01
 E= -1203.63663946961     Delta-E=       -0.000290454080 Rises=F Damp=F
 DIIS: error= 1.39D-04 at cycle   6 NSaved=   6.
 NSaved= 6 IEnMin= 6 EnMin= -1203.63663946961     IErMin= 6 ErrMin= 1.39D-04
 ErrMax= 1.39D-04  0.00D+00 EMaxC= 1.00D-01 BMatC= 1.89D-05 BMatP= 3.22D-04
 IDIUse=3 WtCom= 9.99D-01 WtEn= 1.39D-03
 Coeff-Com: -0.266D-02 0.468D-02 0.516D-01 0.104D+00 0.306D+00 0.536D+00
 Coeff-En:   0.000D+00 0.000D+00 0.000D+00 0.000D+00 0.000D+00 0.100D+01
 Coeff:     -0.266D-02 0.467D-02 0.516D-01 0.104D+00 0.306D+00 0.537D+00
 Gap=     0.136 Goal=   None    Shift=    0.000
 RMSDP=1.45D-05 MaxDP=8.81D-04 DE=-2.90D-04 OVMax= 7.69D-04

 Cycle   7  Pass 1  IDiag  1:
 RMSU=  7.02D-06    CP:  9.77D-01  9.55D-01  7.59D-01  5.91D-01  6.08D-01
                    CP:  6.25D-01
 E= -1203.63665692035     Delta-E=       -0.000017450742 Rises=F Damp=F
 DIIS: error= 2.90D-05 at cycle   7 NSaved=   7.
 NSaved= 7 IEnMin= 7 EnMin= -1203.63665692035     IErMin= 7 ErrMin= 2.90D-05
 ErrMax= 2.90D-05  0.00D+00 EMaxC= 1.00D-01 BMatC= 1.13D-06 BMatP= 1.89D-05
 IDIUse=1 WtCom= 1.00D+00 WtEn= 0.00D+00
 Coeff-Com: -0.807D-03 0.831D-03 0.157D-01 0.329D-01 0.111D+00 0.262D+00
 Coeff-Com:  0.578D+00
 Coeff:     -0.807D-03 0.831D-03 0.157D-01 0.329D-01 0.111D+00 0.262D+00
 Coeff:      0.578D+00
 Gap=     0.136 Goal=   None    Shift=    0.000
 RMSDP=3.36D-06 MaxDP=2.23D-04 DE=-1.75D-05 OVMax= 2.16D-04

 Cycle   8  Pass 1  IDiag  1:
 RMSU=  2.28D-06    CP:  9.77D-01  9.55D-01  7.59D-01  5.92D-01  6.17D-01
                    CP:  6.41D-01  7.02D-01
 E= -1203.63665786692     Delta-E=       -0.000000946568 Rises=F Damp=F
 DIIS: error= 1.09D-05 at cycle   8 NSaved=   8.
 NSaved= 8 IEnMin= 8 EnMin= -1203.63665786692     IErMin= 8 ErrMin= 1.09D-05
 ErrMax= 1.09D-05  0.00D+00 EMaxC= 1.00D-01 BMatC= 8.35D-08 BMatP= 1.13D-06
 IDIUse=1 WtCom= 1.00D+00 WtEn= 0.00D+00
 Coeff-Com: -0.401D-04-0.206D-03 0.912D-03 0.208D-02 0.136D-01 0.505D-01
 Coeff-Com:  0.255D+00 0.679D+00
 Coeff:     -0.401D-04-0.206D-03 0.912D-03 0.208D-02 0.136D-01 0.505D-01
 Coeff:      0.255D+00 0.679D+00
 Gap=     0.136 Goal=   None    Shift=    0.000
 RMSDP=8.79D-07 MaxDP=6.93D-05 DE=-9.47D-07 OVMax= 4.16D-05

 Cycle   9  Pass 1  IDiag  1:
 RMSU=  4.76D-07    CP:  9.77D-01  9.55D-01  7.59D-01  5.91D-01  6.16D-01
                    CP:  6.51D-01  7.54D-01  7.59D-01
 E= -1203.63665794091     Delta-E=       -0.000000073997 Rises=F Damp=F
 DIIS: error= 1.27D-06 at cycle   9 NSaved=   9.
 NSaved= 9 IEnMin= 9 EnMin= -1203.63665794091     IErMin= 9 ErrMin= 1.27D-06
 ErrMax= 1.27D-06  0.00D+00 EMaxC= 1.00D-01 BMatC= 2.84D-09 BMatP= 8.35D-08
 IDIUse=1 WtCom= 1.00D+00 WtEn= 0.00D+00
 Coeff-Com:  0.228D-04-0.108D-03-0.349D-03-0.784D-03 0.361D-04 0.517D-02
 Coeff-Com:  0.662D-01 0.233D+00 0.697D+00
 Coeff:      0.228D-04-0.108D-03-0.349D-03-0.784D-03 0.361D-04 0.517D-02
 Coeff:      0.662D-01 0.233D+00 0.697D+00
 Gap=     0.136 Goal=   None    Shift=    0.000
 RMSDP=1.95D-07 MaxDP=8.53D-06 DE=-7.40D-08 OVMax= 1.04D-05

 Cycle  10  Pass 1  IDiag  1:
 RMSU=  1.66D-07    CP:  9.77D-01  9.55D-01  7.59D-01  5.91D-01  6.17D-01
                    CP:  6.51D-01  7.60D-01  7.81D-01  8.71D-01
 E= -1203.63665794297     Delta-E=       -0.000000002058 Rises=F Damp=F
 DIIS: error= 6.76D-07 at cycle  10 NSaved=  10.
 NSaved=10 IEnMin=10 EnMin= -1203.63665794297     IErMin=10 ErrMin= 6.76D-07
 ErrMax= 6.76D-07  0.00D+00 EMaxC= 1.00D-01 BMatC= 6.97D-10 BMatP= 2.84D-09
 IDIUse=1 WtCom= 1.00D+00 WtEn= 0.00D+00
 Coeff-Com:  0.140D-04-0.318D-04-0.238D-03-0.576D-03-0.114D-02-0.246D-02
 Coeff-Com:  0.888D-02 0.487D-01 0.368D+00 0.579D+00
 Coeff:      0.140D-04-0.318D-04-0.238D-03-0.576D-03-0.114D-02-0.246D-02
 Coeff:      0.888D-02 0.487D-01 0.368D+00 0.579D+00
 Gap=     0.136 Goal=   None    Shift=    0.000
 RMSDP=8.86D-08 MaxDP=2.99D-06 DE=-2.06D-09 OVMax= 8.99D-06

 Cycle  11  Pass 1  IDiag  1:
 RMSU=  4.35D-08    CP:  9.77D-01  9.55D-01  7.59D-01  5.91D-01  6.17D-01
                    CP:  6.51D-01  7.63D-01  7.89D-01  9.27D-01  6.21D-01
 E= -1203.63665794359     Delta-E=       -0.000000000615 Rises=F Damp=F
 DIIS: error= 2.48D-07 at cycle  11 NSaved=  11.
 NSaved=11 IEnMin=11 EnMin= -1203.63665794359     IErMin=11 ErrMin= 2.48D-07
 ErrMax= 2.48D-07  0.00D+00 EMaxC= 1.00D-01 BMatC= 5.55D-11 BMatP= 6.97D-10
 IDIUse=1 WtCom= 1.00D+00 WtEn= 0.00D+00
 Coeff-Com:  0.699D-05-0.127D-04-0.118D-03-0.293D-03-0.657D-03-0.178D-02
 Coeff-Com:  0.118D-02 0.137D-01 0.165D+00 0.322D+00 0.501D+00
 Coeff:      0.699D-05-0.127D-04-0.118D-03-0.293D-03-0.657D-03-0.178D-02
 Coeff:      0.118D-02 0.137D-01 0.165D+00 0.322D+00 0.501D+00
 Gap=     0.136 Goal=   None    Shift=    0.000
 RMSDP=2.43D-08 MaxDP=1.51D-06 DE=-6.15D-10 OVMax= 2.77D-06

 Cycle  12  Pass 1  IDiag  1:
 RMSU=  1.70D-08    CP:  9.77D-01  9.55D-01  7.59D-01  5.91D-01  6.17D-01
                    CP:  6.51D-01  7.63D-01  7.90D-01  9.33D-01  6.69D-01
                    CP:  6.57D-01
 E= -1203.63665794365     Delta-E=       -0.000000000060 Rises=F Damp=F
 DIIS: error= 7.62D-08 at cycle  12 NSaved=  12.
 NSaved=12 IEnMin=12 EnMin= -1203.63665794365     IErMin=12 ErrMin= 7.62D-08
 ErrMax= 7.62D-08  0.00D+00 EMaxC= 1.00D-01 BMatC= 6.20D-12 BMatP= 5.55D-11
 IDIUse=1 WtCom= 1.00D+00 WtEn= 0.00D+00
 Coeff-Com:  0.522D-06 0.533D-06-0.556D-05-0.246D-04-0.653D-04-0.375D-03
 Coeff-Com: -0.125D-02-0.370D-02 0.277D-02 0.421D-01 0.261D+00 0.700D+00
 Coeff:      0.522D-06 0.533D-06-0.556D-05-0.246D-04-0.653D-04-0.375D-03
 Coeff:     -0.125D-02-0.370D-02 0.277D-02 0.421D-01 0.261D+00 0.700D+00
 Gap=     0.136 Goal=   None    Shift=    0.000
 RMSDP=7.84D-09 MaxDP=4.26D-07 DE=-6.05D-11 OVMax= 8.57D-07

 Error on total polarization charges =  0.02189
 SCF Done:  E(RB3LYP) =  -1203.63665794     A.U. after   12 cycles
            NFock= 12  Conv=0.78D-08     -V/T= 2.0074
 KE= 1.194761051220D+03 PE=-6.221191152076D+03 EE= 2.109698699289D+03
 Leave Link  502 at Sun Jul 18 13:37:19 2021, MaxMem=   104857600 cpu:             356.3 elap:              89.1
 (Enter /prod/apps/gaussian/g16b1/l601.exe)
 Copying SCF densities to generalized density rwf, IOpCl= 0 IROHF=0.

 **********************************************************************

            Population analysis using the SCF Density.

 **********************************************************************

 Orbital symmetries:
       Occupied  (A) (A) (A) (A) (A) (A) (A) (A) (A) (A) (A) (A)
                 (A) (A) (A) (A) (A) (A) (A) (A) (A) (A) (A) (A)
                 (A) (A) (A) (A) (A) (A) (A) (A) (A) (A) (A) (A)
                 (A) (A) (A) (A) (A) (A) (A) (A) (A) (A) (A) (A)
                 (A) (A) (A) (A) (A) (A) (A) (A) (A) (A) (A) (A)
                 (A) (A) (A) (A) (A) (A) (A) (A) (A) (A) (A) (A)
                 (A) (A) (A) (A) (A) (A) (A)
       Virtual   (A) (A) (A) (A) (A) (A) (A) (A) (A) (A) (A) (A)
                 (A) (A) (A) (A) (A) (A) (A) (A) (A) (A) (A) (A)
                 (A) (A) (A) (A) (A) (A) (A) (A) (A) (A) (A) (A)
                 (A) (A) (A) (A) (A) (A) (A) (A) (A) (A) (A) (A)
                 (A) (A) (A) (A) (A) (A) (A) (A) (A) (A) (A) (A)
                 (A) (A) (A) (A) (A) (A) (A) (A) (A) (A) (A) (A)
                 (A) (A) (A) (A) (A) (A) (A) (A) (A) (A) (A) (A)
                 (A) (A) (A) (A) (A) (A) (A) (A) (A) (A) (A) (A)
                 (A) (A) (A) (A) (A) (A) (A) (A) (A) (A) (A) (A)
                 (A) (A) (A) (A) (A) (A) (A) (A) (A) (A) (A) (A)
                 (A) (A) (A) (A) (A) (A) (A) (A) (A) (A) (A) (A)
                 (A) (A) (A) (A) (A) (A) (A) (A) (A) (A) (A) (A)
                 (A) (A) (A) (A) (A) (A) (A) (A) (A) (A) (A) (A)
                 (A) (A) (A) (A) (A) (A) (A) (A) (A) (A) (A) (A)
                 (A) (A) (A) (A) (A) (A) (A) (A) (A) (A) (A) (A)
                 (A) (A) (A) (A) (A) (A) (A) (A) (A) (A) (A) (A)
                 (A) (A) (A) (A) (A) (A) (A) (A) (A) (A) (A) (A)
                 (A) (A) (A) (A) (A) (A) (A) (A) (A) (A) (A) (A)
                 (A) (A) (A) (A) (A) (A) (A) (A) (A) (A) (A) (A)
                 (A) (A) (A) (A) (A) (A) (A) (A) (A) (A) (A) (A)
                 (A) (A) (A) (A) (A) (A) (A) (A) (A) (A) (A) (A)
                 (A) (A) (A) (A) (A) (A) (A) (A) (A) (A) (A) (A)
                 (A) (A) (A) (A) (A) (A) (A) (A) (A) (A) (A)
 The electronic state is 1-A.
 Alpha  occ. eigenvalues --  -88.82303 -14.47240 -14.37978 -14.37088 -14.36522
 Alpha  occ. eigenvalues --  -10.30167 -10.30118 -10.24643 -10.24538 -10.23554
 Alpha  occ. eigenvalues --  -10.22480 -10.21415 -10.21288 -10.20011 -10.18919
 Alpha  occ. eigenvalues --  -10.18393 -10.17981 -10.17769 -10.17560 -10.17274
 Alpha  occ. eigenvalues --   -7.88691  -5.85243  -5.84606  -5.84316  -1.10927
 Alpha  occ. eigenvalues --   -0.98762  -0.96124  -0.91907  -0.82778  -0.81639
 Alpha  occ. eigenvalues --   -0.79107  -0.77262  -0.75158  -0.73364  -0.72296
 Alpha  occ. eigenvalues --   -0.68467  -0.67476  -0.63777  -0.63171  -0.62722
 Alpha  occ. eigenvalues --   -0.61349  -0.60890  -0.59866  -0.56916  -0.56542
 Alpha  occ. eigenvalues --   -0.54924  -0.53008  -0.49715  -0.48970  -0.47416
 Alpha  occ. eigenvalues --   -0.47015  -0.45933  -0.45681  -0.44991  -0.44448
 Alpha  occ. eigenvalues --   -0.43725  -0.42786  -0.41587  -0.41075  -0.40149
[...]
    29  C    0.005413  -0.017749   0.015866   0.225540  -0.137233   0.065739
    30  H    0.000206   0.002230   0.007076  -0.126133  -0.086278   0.011580
    31  H   -0.000828   0.001529  -0.007136  -0.131064   0.183860  -0.053426
    32  C    0.001406   0.006766   0.000419  -0.035149  -0.118254   0.146726
    33  H   -0.000152   0.000953  -0.008458  -0.006620   0.056441  -0.139342
    34  H    0.000043  -0.000155   0.000357   0.050023   0.026004   0.121508
    35  C    0.000077  -0.004680   0.029493  -0.263723   0.165403  -0.977378
    36  H    0.000167   0.000325  -0.003662  -0.047478  -0.066499   0.203195
    37  C   -0.000423  -0.002458  -0.014851   0.240212  -0.339951   0.408459
    38  C   -0.000067  -0.000644  -0.004377  -0.021653   0.107652  -0.405475
    39  H   -0.000006  -0.000000   0.000001   0.003645  -0.001035   0.062268
    40  N    0.000002   0.000004   0.000772   0.002660   0.006934   0.009555
    41  H    0.000000  -0.000008  -0.000028  -0.000124   0.001693  -0.004544
    42  C   -0.000023  -0.000435  -0.000754   0.003060  -0.017020  -0.087076
    43  H   -0.000002  -0.000004  -0.000285   0.000489  -0.002847  -0.005728
    44  N   -0.000041   0.000566  -0.000038   0.016449   0.045172   0.037798
    45  H   -0.000000  -0.000006   0.000078  -0.000053  -0.000802  -0.003685
              25         26         27         28         29         30
     1  S    0.004961  -0.000976  -0.003451  -0.000702  -0.047858   0.021823
     2  C    0.002096   0.030642   0.053345   0.013705  -0.204394   0.089622
     3  N    0.059204  -0.009937  -0.139332   0.112420  -0.116322   0.022519
     4  C    0.060959  -0.018279   0.058208   0.027167  -0.154591  -0.005449
     5  C   -0.003017   0.000851  -0.035345  -0.003380   0.029452   0.000076
     6  C   -0.000377  -0.000393   0.006841  -0.000420   0.004307   0.000071
     7  C   -0.001508   0.000000   0.005512  -0.000021   0.000275  -0.000184
     8  C   -0.004914   0.000041  -0.003624   0.001191  -0.000952  -0.000206
     9  C    0.007416   0.001337  -0.022489   0.007283   0.008216   0.001304
    10  H   -0.002213  -0.002079   0.006035  -0.000066  -0.003684  -0.000662
    11  H   -0.005079   0.000670   0.000705  -0.001547   0.001599   0.000605
    12  H    0.000716  -0.000038   0.000668   0.000059  -0.000033   0.000057
    13  H   -0.000399   0.000005  -0.001224   0.000178   0.000412  -0.000033
    14  H    0.000169   0.000049  -0.000854  -0.000005   0.000308   0.000033
    15  H   -0.000180   0.000013  -0.000013  -0.000036  -0.000051  -0.000037
    16  H    0.000057  -0.000079   0.000821   0.000052  -0.000285  -0.000077
    17  H    0.000140   0.000019  -0.000960  -0.000011   0.001220   0.000303
    18  H    0.001012   0.000138  -0.011076   0.001942   0.002333   0.000560
    19  H   -0.000378   0.000132   0.005896  -0.000587   0.005413   0.000206
    20  H    0.000922  -0.001616   0.013974  -0.002327  -0.017749   0.002230
    21  H   -0.031445   0.021934   0.008965  -0.013551   0.015866   0.007076
    22  N   -0.032831   0.094818  -0.012800  -0.112173   0.225540  -0.126133
    23  C   -0.126802  -0.123607   0.159796   0.236897  -0.137233  -0.086278
    24  C    0.245684  -0.142196   0.095694  -0.135146   0.065739   0.011580
    25  H    1.433427  -0.263668  -0.085711   0.104506  -0.020116   0.004883
    26  H   -0.263668   1.677416  -0.122783  -0.044004   0.031223  -0.001443
    27  H   -0.085711  -0.122783   1.809048  -0.518983  -0.038271  -0.009445
    28  H    0.104506  -0.044004  -0.518983   1.591618  -0.041135   0.009831
    29  C   -0.020116   0.031223  -0.038271  -0.041135   5.484618   0.296322
    30  H    0.004883  -0.001443  -0.009445   0.009831   0.296322   1.454096
    31  H   -0.008602   0.005953   0.020186  -0.046477   0.195756  -0.398824
    32  C   -0.076846   0.100940   0.006918  -0.011366  -0.015207   0.029442
    33  H   -0.011275   0.011205   0.013486  -0.013634  -0.197802  -0.125361
    34  H    0.011405  -0.003569  -0.000304   0.006027   0.049216  -0.041855
    35  C   -0.282444  -0.093699   0.044710   0.046786   0.047216   0.064433
    36  H    0.073669  -0.106041   0.032029  -0.026097  -0.102199   0.012357
    37  C    0.131545   0.092420  -0.072102   0.032508  -0.232884  -0.073161
    38  C   -0.059342   0.039614  -0.003759   0.017706   0.086500  -0.003297
    39  H    0.005400   0.007591  -0.001045   0.001628   0.002173  -0.000222
    40  N    0.000098  -0.005471   0.000622  -0.000965   0.008080   0.000613
    41  H   -0.001836  -0.000796   0.000089   0.000151  -0.000606  -0.000015
    42  C   -0.009409   0.021146  -0.005976   0.002476  -0.005920  -0.005096
    43  H   -0.001257   0.001481  -0.000190  -0.000017  -0.002731  -0.000389
    44  N   -0.021286   0.031949  -0.004120   0.005793   0.030473  -0.002287
    45  H    0.000194   0.000214  -0.000081  -0.000162   0.001340   0.000014
              31         32         33         34         35         36
     1  S    0.000508   0.043279   0.002381   0.001082   0.016231  -0.000719
     2  C   -0.097194  -0.360889   0.087757   0.028240   0.252401  -0.016421
     3  N   -0.003102   0.017096  -0.000888  -0.007301   0.000225   0.008589
     4  C   -0.002536  -0.011347  -0.009404   0.003500  -0.024385  -0.000628
     5  C    0.000534  -0.012014   0.000403  -0.000151   0.014008  -0.000055
     6  C    0.000093   0.000593  -0.000621   0.000130  -0.001500  -0.000028
     7  C    0.000133   0.000018   0.000018  -0.000001  -0.000501  -0.000024
     8  C   -0.000212  -0.001627  -0.000576  -0.000003   0.001407  -0.000051
     9  C   -0.001473  -0.017570  -0.001097  -0.000320   0.006829  -0.000450
    10  H    0.000292   0.002317   0.000742   0.000048  -0.002597   0.000016
    11  H   -0.000270  -0.002651  -0.000544  -0.000078   0.006162   0.000150
    12  H    0.000010  -0.000204   0.000021  -0.000009   0.000095  -0.000008
    13  H   -0.000061  -0.000093  -0.000095   0.000017   0.000049  -0.000014
    14  H   -0.000025   0.000027  -0.000005   0.000002  -0.000040   0.000007
    15  H    0.000016   0.000008  -0.000005   0.000001  -0.000024  -0.000001
    16  H    0.000014  -0.000106  -0.000025   0.000002  -0.000066  -0.000008
    17  H   -0.000018   0.000023  -0.000030   0.000007   0.000061   0.000006
    18  H    0.000287  -0.000499   0.000201  -0.000086   0.001915  -0.000035
    19  H   -0.000828   0.001406  -0.000152   0.000043   0.000077   0.000167
    20  H    0.001529   0.006766   0.000953  -0.000155  -0.004680   0.000325
    21  H   -0.007136   0.000419  -0.008458   0.000357   0.029493  -0.003662
    22  N   -0.131064  -0.035149  -0.006620   0.050023  -0.263723  -0.047478
    23  C    0.183860  -0.118254   0.056441   0.026004   0.165403  -0.066499
    24  C   -0.053426   0.146726  -0.139342   0.121508  -0.977378   0.203195
    25  H   -0.008602  -0.076846  -0.011275   0.011405  -0.282444   0.073669
    26  H    0.005953   0.100940   0.011205  -0.003569  -0.093699  -0.106041
    27  H    0.020186   0.006918   0.013486  -0.000304   0.044710   0.032029
    28  H   -0.046477  -0.011366  -0.013634   0.006027   0.046786  -0.026097
    29  C    0.195756  -0.015207  -0.197802   0.049216   0.047216  -0.102199
    30  H   -0.398824   0.029442  -0.125361  -0.041855   0.064433   0.012357
    31  H    1.497631  -0.129495   0.110655  -0.075487   0.039209  -0.000320
    32  C   -0.129495   6.514979   0.259391  -0.283772  -0.968053   0.257972
    33  H    0.110655   0.259391   1.392676  -0.254559  -0.278828   0.067695
    34  H   -0.075487  -0.283772  -0.254559   1.643541  -0.045335  -0.098140
    35  C    0.039209  -0.968053  -0.278828  -0.045335  13.299713  -0.871153
    36  H   -0.000320   0.257972   0.067695  -0.098140  -0.871153   1.819094
    37  C    0.050357   0.350264   0.154233   0.037522  -3.894999   0.323515
    38  C    0.015430  -0.298148  -0.041266   0.030077   0.249053  -0.159413
    39  H    0.000537   0.045426   0.001756   0.007031  -0.195843  -0.016463
    40  N   -0.000578  -0.007140   0.001768  -0.002657   0.290041   0.012712
    41  H   -0.000085  -0.004120   0.000497   0.000255   0.033014   0.000174
    42  C    0.004536  -0.067618   0.013521   0.010023  -0.641151   0.020034
    43  H    0.000129  -0.006088   0.000585   0.001243  -0.048438  -0.003562
    44  N    0.003514   0.019870  -0.030603   0.035301  -0.096248  -0.013631
    45  H    0.000172  -0.002902  -0.000948  -0.000673   0.026619   0.000513
              37         38         39         40         41         42
     1  S   -0.010215  -0.002407  -0.000114   0.000016  -0.000006  -0.001354
     2  C   -0.039410  -0.030353   0.001024   0.004093  -0.000026  -0.005255
     3  N   -0.007240   0.001629   0.000040  -0.000472  -0.000007   0.003047
     4  C   -0.026491  -0.002068   0.000163   0.000105  -0.000030  -0.000623
     5  C    0.000985   0.000402  -0.000004  -0.000001   0.000004   0.000213
     6  C    0.000245   0.000052   0.000004  -0.000000   0.000000   0.000009
     7  C   -0.000001   0.000005   0.000000   0.000000  -0.000000   0.000003
     8  C    0.000528   0.000175   0.000006  -0.000000   0.000002   0.000130
     9  C    0.003812   0.001766   0.000036   0.000001   0.000016   0.000818
    10  H    0.001069   0.000176   0.000005  -0.000027   0.000000   0.000127
    11  H   -0.001531   0.000421  -0.000001   0.000052   0.000005  -0.000114
    12  H   -0.000071  -0.000004   0.000000   0.000001   0.000000   0.000002
    13  H    0.000163   0.000025   0.000001  -0.000001   0.000000   0.000028
    14  H   -0.000008   0.000000  -0.000000   0.000000   0.000000  -0.000000
    15  H   -0.000002   0.000001   0.000000   0.000000   0.000000  -0.000000
    16  H   -0.000005   0.000001   0.000000   0.000000  -0.000000   0.000001
    17  H    0.000058   0.000006  -0.000000  -0.000000   0.000000   0.000003
    18  H    0.000966   0.000039   0.000007  -0.000006   0.000000   0.000065
    19  H   -0.000423  -0.000067  -0.000006   0.000002   0.000000  -0.000023
    20  H   -0.002458  -0.000644  -0.000000   0.000004  -0.000008  -0.000435
    21  H   -0.014851  -0.004377   0.000001   0.000772  -0.000028  -0.000754
    22  N    0.240212  -0.021653   0.003645   0.002660  -0.000124   0.003060
    23  C   -0.339951   0.107652  -0.001035   0.006934   0.001693  -0.017020
    24  C    0.408459  -0.405475   0.062268   0.009555  -0.004544  -0.087076
    25  H    0.131545  -0.059342   0.005400   0.000098  -0.001836  -0.009409
    26  H    0.092420   0.039614   0.007591  -0.005471  -0.000796   0.021146
    27  H   -0.072102  -0.003759  -0.001045   0.000622   0.000089  -0.005976
    28  H    0.032508   0.017706   0.001628  -0.000965   0.000151   0.002476
    29  C   -0.232884   0.086500   0.002173   0.008080  -0.000606  -0.005920
    30  H   -0.073161  -0.003297  -0.000222   0.000613  -0.000015  -0.005096
    31  H    0.050357   0.015430   0.000537  -0.000578  -0.000085   0.004536
    32  C    0.350264  -0.298148   0.045426  -0.007140  -0.004120  -0.067618
    33  H    0.154233  -0.041266   0.001756   0.001768   0.000497   0.013521
    34  H    0.037522   0.030077   0.007031  -0.002657   0.000255   0.010023
    35  C   -3.894999   0.249053  -0.195843   0.290041   0.033014  -0.641151
    36  H    0.323515  -0.159413  -0.016463   0.012712   0.000174   0.020034
    37  C   11.128899  -3.033243   0.590866   0.071226  -0.109052   0.293972
    38  C   -3.033243   9.575144  -0.344237  -0.480155   0.046771  -0.260877
    39  H    0.590866  -0.344237   1.275686  -0.092580  -0.023892  -0.048636
    40  N    0.071226  -0.480155  -0.092580   7.248076   0.416458  -0.021717
    41  H   -0.109052   0.046771  -0.023892   0.416458   0.510033  -0.034522
    42  C    0.293972  -0.260877  -0.048636  -0.021717  -0.034522   5.460855
    43  H    0.271247   0.009805   0.001353  -0.145813  -0.009917   0.361073
    44  N   -0.450957  -0.053039   0.041868   0.069308   0.000445   0.171360
    45  H   -0.091189   0.025653  -0.025210   0.418119  -0.069468  -0.030386
              43         44         45
     1  S   -0.000046  -0.001242  -0.000013
     2  C   -0.000760   0.021340   0.000034
     3  N    0.000125   0.005102  -0.000004
     4  C   -0.000043   0.007689  -0.000040
     5  C    0.000014  -0.000161   0.000003
     6  C    0.000001   0.000009  -0.000000
     7  C   -0.000001   0.000019   0.000000
     8  C   -0.000005   0.000102   0.000003
     9  C   -0.000003  -0.000473   0.000022
    10  H    0.000033  -0.000022  -0.000003
    11  H   -0.000087   0.000029   0.000008
    12  H   -0.000002   0.000017   0.000000
    13  H    0.000001  -0.000004   0.000000
    14  H   -0.000000  -0.000003   0.000000
    15  H   -0.000000   0.000000   0.000000
    16  H   -0.000000   0.000006   0.000000
    17  H    0.000000  -0.000009  -0.000000
    18  H    0.000006   0.000019  -0.000001
    19  H   -0.000002  -0.000041  -0.000000
    20  H   -0.000004   0.000566  -0.000006
    21  H   -0.000285  -0.000038   0.000078
    22  N    0.000489   0.016449  -0.000053
    23  C   -0.002847   0.045172  -0.000802
    24  C   -0.005728   0.037798  -0.003685
    25  H   -0.001257  -0.021286   0.000194
    26  H    0.001481   0.031949   0.000214
    27  H   -0.000190  -0.004120  -0.000081
    28  H   -0.000017   0.005793  -0.000162
    29  C   -0.002731   0.030473   0.001340
    30  H   -0.000389  -0.002287   0.000014
    31  H    0.000129   0.003514   0.000172
    32  C   -0.006088   0.019870  -0.002902
    33  H    0.000585  -0.030603  -0.000948
    34  H    0.001243   0.035301  -0.000673
    35  C   -0.048438  -0.096248   0.026619
    36  H   -0.003562  -0.013631   0.000513
    37  C    0.271247  -0.450957  -0.091189
    38  C    0.009805  -0.053039   0.025653
    39  H    0.001353   0.041868  -0.025210
    40  N   -0.145813   0.069308   0.418119
    41  H   -0.009917   0.000445  -0.069468
    42  C    0.361073   0.171360  -0.030386
    43  H    1.027561  -0.241975  -0.010577
    44  N   -0.241975   7.961081   0.002940
    45  H   -0.010577   0.002940   0.511499
 Mulliken charges:
               1
     1  S   -0.279055
     2  C   -0.064583
     3  N   -0.136438
     4  C   -1.031783
     5  C    0.606665
     6  C    0.374799
     7  C    0.431190
     8  C    0.421005
     9  C    0.821675
    10  H   -0.232093
    11  H   -0.220756
    12  H   -0.103418
    13  H   -0.101252
    14  H   -0.115747
    15  H   -0.135076
    16  H   -0.111332
    17  H   -0.098847
    18  H   -0.124738
    19  H   -0.147750
    20  H   -0.400653
    21  H   -0.104336
    22  N   -0.154722
    23  C    0.933211
    24  C    0.597834
    25  H   -0.097527
    26  H   -0.231128
    27  H   -0.249612
    28  H   -0.247112
    29  C    0.746430
    30  H   -0.149604
    31  H   -0.174127
    32  C    0.627279
    33  H   -0.054248
    34  H   -0.248152
    35  C    0.055933
    36  H   -0.299117
    37  C    0.215172
    38  C    0.995718
    39  H   -0.299226
    40  N   -0.803733
    41  H    0.249472
    42  C    0.877459
    43  H   -0.194379
    44  N   -0.592079
    45  H    0.248782
 Sum of Mulliken charges =   1.00000
 Mulliken charges with hydrogens summed into heavy atoms:
               1
     1  S   -0.279055
     2  C   -0.064583
     3  N   -0.240774
     4  C   -1.432435
     5  C    0.334177
     6  C    0.164620
     7  C    0.180367
     8  C    0.216336
     9  C    0.368825
    22  N   -0.154722
    23  C    0.436487
    24  C    0.269179
    29  C    0.422698
    32  C    0.324879
    35  C   -0.243184
    37  C    0.215172
    38  C    0.696492
    40  N   -0.305480
    42  C    0.683081
    44  N   -0.592079
 Electronic spatial extent (au):  <R**2>=           9350.0975
 Charge=              1.0000 electrons
 Dipole moment (field-independent basis, Debye):
    X=            -26.8655    Y=             -9.1571    Z=              3.5575  Tot=             28.6053
 Quadrupole moment (field-independent basis, Debye-Ang):
   XX=             44.7440   YY=           -118.8921   ZZ=           -125.0714
   XY=             28.9847   XZ=              8.6258   YZ=              9.8739
 Traceless Quadrupole moment (field-independent basis, Debye-Ang):
   XX=            111.1505   YY=            -52.4856   ZZ=            -58.6649
   XY=             28.9847   XZ=              8.6258   YZ=              9.8739
 Octapole moment (field-independent basis, Debye-Ang**2):
  XXX=          -1002.0818  YYY=            -63.2208  ZZZ=             14.5689  XYY=           -123.8429
  XXY=           -271.5639  XXZ=            -37.8377  XZZ=            -45.9924  YZZ=            -17.6564
  YYZ=              1.2130  XYZ=            -19.0061
 Hexadecapole moment (field-independent basis, Debye-Ang**3):
 XXXX=          -3349.8321 YYYY=          -1717.6362 ZZZZ=           -783.8095 XXXY=           1574.1920
 XXXZ=            265.2318 YYYX=            204.8414 YYYZ=             68.0283 ZZZX=             38.0307
 ZZZY=             41.6654 XXYY=          -1433.6416 XXZZ=          -1650.0828 YYZZ=           -405.6288
 XXYZ=            165.6919 YYXZ=             70.0808 ZZXY=             48.9514
 N-N= 1.706199326265D+03 E-N=-6.206377078207D+03  KE= 1.196653877147D+03
 Leave Link  601 at Sun Jul 18 15:45:14 2021, MaxMem=   262144000 cpu:               3.3 elap:               1.2
 (Enter /prod/apps/gaussian/g16b1/l9999.exe)
 1\1\GINC-PIRINEUS27\SP\RMP2-FC\Aug-CC-pVDZ\C15H25N4S1(1+)\UBATOR02\18-
 Jul-2021\0\\#p mp2/aug-cc-pVDZ scf=tight maxdisk=180GB geom=allcheck\\
 SET_328_BBB227_conf1.geo_075_180_060 geometry\\1,1\S,0,-1.0150540467,-
 1.2885696099,-2.6564461296\C,0,-0.553021066,-1.0430644622,-1.012453791
 3\N,0,-1.3548865445,-0.378310023,-0.1550503983\C,0,-2.7348257875,0.055
 4989083,-0.3925417383\C,0,-3.7406991599,-0.9258259208,0.2323065121\C,0
 ,-5.18543364,-0.4471433086,0.0317828094\C,0,-5.3865436769,0.9740834905
 ,0.5726758459\C,0,-4.3801170496,1.9515792768,-0.0474711747\C,0,-2.9322
 424976,1.4787700456,0.1494173765\H,0,-2.6877230801,1.4934299598,1.2209
 941724\H,0,-2.2331954873,2.1600561205,-0.3476113396\H,0,-4.5026484886,
 2.9510301197,0.3837527647\H,0,-4.5846871949,2.0474919728,-1.1219746768
 \H,0,-5.2596805136,0.9674969127,1.6636793668\H,0,-6.4101923296,1.31263
 83383,0.3772025284\H,0,-5.8772979334,-1.1435094269,0.518115309\H,0,-5.
 4261026098,-0.4638701864,-1.0396149797\H,0,-3.5279708497,-1.0163771716
 ,1.3058682274\H,0,-3.5978525275,-1.9188113844,-0.2073220253\H,0,-2.870
 9795395,0.0600497034,-1.4756819721\H,0,-1.0037687705,-0.1641706042,0.7
 704443265\N,0,0.6241659616,-1.5221483504,-0.5236823547\C,0,1.047392406
 7,-1.4491268449,0.8810693785\C,0,2.1406317588,-0.3934631606,1.07382625
 73\H,0,1.7368846702,0.5975700989,0.8426586623\H,0,2.4579638843,-0.3853
 450645,2.1209995535\H,0,0.1986453356,-1.2749571486,1.5394136113\H,0,1.
 4391266339,-2.4391194283,1.1435385948\C,0,1.7337305008,-1.930407648,-1
 .3918636334\H,0,1.3585325754,-2.0101069437,-2.4083582351\H,0,2.0728400
 618,-2.9209633882,-1.0642026319\C,0,2.8811813049,-0.9145637462,-1.3048
 684927\H,0,2.5445686759,0.0392931017,-1.7269560527\H,0,3.7188267721,-1
 .2657985708,-1.9155336947\C,0,3.3486437834,-0.7018073663,0.15617975\H,
 0,3.8146131345,-1.629546418,0.5078258723\C,0,4.3821017544,0.3756545565
 ,0.2400068438\C,0,5.651547658,0.3064295222,0.6644662802\H,0,6.25991064
 23,-0.4961214069,1.0470292691\N,0,6.225484759,1.6434866596,0.532427229
 6\H,0,7.0490606113,1.6708626976,-0.1042179798\C,0,5.098338231,2.422648
 1966,-0.012087892\H,0,5.2363415153,3.4732816309,-0.2155269812\N,0,4.06
 12260648,1.7110369569,-0.1760779757\H,0,6.5551640973,2.0367393141,1.43
 7863608\\Version=ES64L-G16RevB.01\State=1-A\HF=-1197.7473469\MP2=-1200
 .717111\RMSD=4.844e-09\PG=C01 [X(C15H25N4S1)]\\@


 "I COULD HAVE DONE IT IN A MUCH MORE COMPLICATED WAY"
 SAID THE RED QUEEN, IMMENSELY PROUD.

                                      -- LEWIS CARROLL
 Job cpu time:       0 days  4 hours 18 minutes 59.5 seconds.
 Elapsed time:       0 days  1 hours 11 minutes  3.6 seconds.
 File lengths (MBytes):  RWF= 174986 Int=      0 D2E=      0 Chk=     37 Scr=      1
 Normal termination of Gaussian 16 at Sun Jul 18 15:45:19 2021.
