 Entering Gaussian System, Link 0=g16
 Initial command:
 /prod/apps/gaussian/g16b1/l1.exe "/tmp/ubator02/1839533/Gau-74551.inp" -scrdir="/tmp/ubator02/1839533/"
 Entering Link 1 = /prod/apps/gaussian/g16b1/l1.exe PID=     74556.
  
 Copyright (c) 1988-2017, Gaussian, Inc.  All Rights Reserved.
  
 This is part of the Gaussian(R) 16 program.  It is based on
 the Gaussian(R) 09 system (copyright 2009, Gaussian, Inc.),
 the Gaussian(R) 03 system (copyright 2003, Gaussian, Inc.),
 the Gaussian(R) 98 system (copyright 1998, Gaussian, Inc.),
 the Gaussian(R) 94 system (copyright 1995, Gaussian, Inc.),
 the Gaussian 92(TM) system (copyright 1992, Gaussian, Inc.),
 the Gaussian 90(TM) system (copyright 1990, Gaussian, Inc.),
 the Gaussian 88(TM) system (copyright 1988, Gaussian, Inc.),
 the Gaussian 86(TM) system (copyright 1986, Carnegie Mellon
 University), and the Gaussian 82(TM) system (copyright 1983,
 Carnegie Mellon University). Gaussian is a federally registered
 trademark of Gaussian, Inc.
  
 This software contains proprietary and confidential information,
 including trade secrets, belonging to Gaussian, Inc.
  
 This software is provided under written license and may be
 used, copied, transmitted, or stored only in accord with that
 written license.
  
 The following legend is applicable only to US Government
 contracts under FAR:
  
                    RESTRICTED RIGHTS LEGEND
  
 Use, reproduction and disclosure by the US Government is
 subject to restrictions as set forth in subparagraphs (a)
 and (c) of the Commercial Computer Software - Restricted
 Rights clause in FAR 52.227-19.
  
 Gaussian, Inc.
 340 Quinnipiac St., Bldg. 40, Wallingford CT 06492
  
  
 ---------------------------------------------------------------
 Warning -- This program may not be used in any manner that
 competes with the business of Gaussian, Inc. or will provide
 assistance to any competitor of Gaussian, Inc.  The licensee
 of this program is prohibited from giving any competitor of
 Gaussian, Inc. access to this program.  By using this program,
 the user acknowledges that Gaussian, Inc. is engaged in the
 business of creating and licensing software in the field of
 computational chemistry and represents and warrants to the
 licensee that it is not a competitor of Gaussian, Inc. and that
 it will not use this program in any manner prohibited above.
 ---------------------------------------------------------------
  

 Cite this work as:
 Gaussian 16, Revision B.01,
 M. J. Frisch, G. W. Trucks, H. B. Schlegel, G. E. Scuseria, 
 M. A. Robb, J. R. Cheeseman, G. Scalmani, V. Barone, 
 G. A. Petersson, H. Nakatsuji, X. Li, M. Caricato, A. V. Marenich, 
 J. Bloino, B. G. Janesko, R. Gomperts, B. Mennucci, H. P. Hratchian, 
 J. V. Ortiz, A. F. Izmaylov, J. L. Sonnenberg, D. Williams-Young, 
 F. Ding, F. Lipparini, F. Egidi, J. Goings, B. Peng, A. Petrone, 
 T. Henderson, D. Ranasinghe, V. G. Zakrzewski, J. Gao, N. Rega, 
 G. Zheng, W. Liang, M. Hada, M. Ehara, K. Toyota, R. Fukuda, 
 J. Hasegawa, M. Ishida, T. Nakajima, Y. Honda, O. Kitao, H. Nakai, 
 T. Vreven, K. Throssell, J. A. Montgomery, Jr., J. E. Peralta, 
 F. Ogliaro, M. J. Bearpark, J. J. Heyd, E. N. Brothers, K. N. Kudin, 
 V. N. Staroverov, T. A. Keith, R. Kobayashi, J. Normand, 
 K. Raghavachari, A. P. Rendell, J. C. Burant, S. S. Iyengar, 
 J. Tomasi, M. Cossi, J. M. Millam, M. Klene, C. Adamo, R. Cammi, 
 J. W. Ochterski, R. L. Martin, K. Morokuma, O. Farkas, 
 J. B. Foresman, and D. J. Fox, Gaussian, Inc., Wallingford CT, 2016.
 
 ******************************************
 Gaussian 16:  ES64L-G16RevB.01 20-Dec-2017
                18-Jul-2021 
 ******************************************
 %mem=800MB
 %nproc=4
 Will use up to    4 processors via shared memory.
 %chk=SET_328_BBB256_conf1.geo_285_180_105.chk
 -----------------------------------------------------------
 #p b3lyp/6-31G(d) opt freq scrf=(iefpcm,read,solvent=water)
 -----------------------------------------------------------
 1/18=20,19=15,26=3,38=1,40=2/1,3;
 2/9=110,12=2,17=6,18=5,40=1/2;
 3/5=1,6=6,7=1,11=2,25=1,30=1,70=2203,71=1,72=1,74=-5/1,2,3;
 4//1;
 5/5=2,38=5,53=1/2;
 6/7=2,8=2,9=2,10=2,28=1/1;
 7//1,2,3,16;
 1/18=20,19=15,26=3/3(2);
 2/9=110/2;
 99//99;
 2/9=110/2;
 3/5=1,6=6,7=1,11=2,25=1,30=1,70=2205,71=1,72=1,74=-5/1,2,3;
 4/5=5,16=3,69=1/1;
 5/5=2,38=5,53=1/2;
 7//1,2,3,16;
 1/18=20,19=15,26=3/3(-5);
 2/9=110/2;
 6/7=2,8=2,9=2,10=2,19=2,28=1/1;
 99/9=1/99;
 Leave Link    1 at Sun Jul 18 13:37:05 2021, MaxMem=   104857600 cpu:               0.1 elap:               0.0
 (Enter /prod/apps/gaussian/g16b1/l101.exe)
 ---------------------------------------------
 SET_328_BBB256_conf1.geo_285_180_105 geometry
 ---------------------------------------------
 Symbolic Z-matrix:
 Charge =  1 Multiplicity = 1
 C                    -3.226     0.746     1.349 
 H                    -3.99      1.22      1.97 
 H                    -3.023    -0.232     1.793 
 H                    -3.65      0.568     0.357 
 N                    -2.011     1.587     1.237 
 H                    -1.614     1.678     2.15 
 C                    -0.946     1.101     0.32 
 H                    -0.172     1.859     0.176 
 H                    -1.409     0.764    -0.611 
 C                    -0.144    -0.05      0.85 
 H                    -0.642    -1.021     0.889 
 H                     0.353     0.125     1.806 
 C                     0.833    -0.316    -0.165 
 N                     2.051     0.138     0.247 
 C                     3.065    -0.043    -0.627 
 H                     3.954     0.369    -0.154 
 C                     2.98     -0.921    -1.707 
 H                     3.876    -1.241    -2.231 
 C                     1.772    -1.463    -2.058 
 H                     1.657    -2.165    -2.879 
 C                     0.616    -1.09     -1.33 
 H                    -0.362    -1.561    -1.39 
 H                    -2.292     2.496     0.929 
 
 ITRead=  0  0  0  0  0  0  0  0  0  0  0  0  0  0  0  0  0  0  0  0
 ITRead=  0  0  0
 MicOpt= -1 -1 -1 -1 -1 -1 -1 -1 -1 -1 -1 -1 -1 -1 -1 -1 -1 -1 -1 -1
 MicOpt= -1 -1 -1
 NAtoms=     23 NQM=       23 NQMF=       0 NMMI=      0 NMMIF=      0
                NMic=       0 NMicF=      0.
                    Isotopes and Nuclear Properties:
 (Nuclear quadrupole moments (NQMom) in fm**2, nuclear magnetic moments (NMagM)
  in nuclear magnetons)

  Atom         1           2           3           4           5           6           7           8           9          10
 IAtWgt=          12           1           1           1          14           1          12           1           1          12
 AtmWgt=  12.0000000   1.0078250   1.0078250   1.0078250  14.0030740   1.0078250  12.0000000   1.0078250   1.0078250  12.0000000
 NucSpn=           0           1           1           1           2           1           0           1           1           0
 AtZEff=  -0.0000000  -0.0000000  -0.0000000  -0.0000000  -0.0000000  -0.0000000  -0.0000000  -0.0000000  -0.0000000  -0.0000000
 NQMom=    0.0000000   0.0000000   0.0000000   0.0000000   2.0440000   0.0000000   0.0000000   0.0000000   0.0000000   0.0000000
 NMagM=    0.0000000   2.7928460   2.7928460   2.7928460   0.4037610   2.7928460   0.0000000   2.7928460   2.7928460   0.0000000
 AtZNuc=   6.0000000   1.0000000   1.0000000   1.0000000   7.0000000   1.0000000   6.0000000   1.0000000   1.0000000   6.0000000

  Atom        11          12          13          14          15          16          17          18          19          20
 IAtWgt=           1           1          12          14          12           1          12           1          12           1
 AtmWgt=   1.0078250   1.0078250  12.0000000  14.0030740  12.0000000   1.0078250  12.0000000   1.0078250  12.0000000   1.0078250
 NucSpn=           1           1           0           2           0           1           0           1           0           1
 AtZEff=  -0.0000000  -0.0000000  -0.0000000  -0.0000000  -0.0000000  -0.0000000  -0.0000000  -0.0000000  -0.0000000  -0.0000000
 NQMom=    0.0000000   0.0000000   0.0000000   2.0440000   0.0000000   0.0000000   0.0000000   0.0000000   0.0000000   0.0000000
 NMagM=    2.7928460   2.7928460   0.0000000   0.4037610   0.0000000   2.7928460   0.0000000   2.7928460   0.0000000   2.7928460
 AtZNuc=   1.0000000   1.0000000   6.0000000   7.0000000   6.0000000   1.0000000   6.0000000   1.0000000   6.0000000   1.0000000

  Atom        21          22          23
 IAtWgt=          12           1           1
 AtmWgt=  12.0000000   1.0078250   1.0078250
 NucSpn=           0           1           1
 AtZEff=  -0.0000000  -0.0000000  -0.0000000
 NQMom=    0.0000000   0.0000000   0.0000000
 NMagM=    0.0000000   2.7928460   2.7928460
 AtZNuc=   6.0000000   1.0000000   1.0000000
 Leave Link  101 at Sun Jul 18 13:37:05 2021, MaxMem=   104857600 cpu:               0.4 elap:               0.1
 (Enter /prod/apps/gaussian/g16b1/l103.exe)

 GradGradGradGradGradGradGradGradGradGradGradGradGradGradGradGradGradGrad
 Berny optimization.
 Initialization pass.
                           ----------------------------
                           !    Initial Parameters    !
                           ! (Angstroms and Degrees)  !
 --------------------------                            --------------------------
 ! Name  Definition              Value          Derivative Info.                !
 --------------------------------------------------------------------------------
 ! R1    R(1,2)                  1.0927         estimate D2E/DX2                !
 ! R2    R(1,3)                  1.0931         estimate D2E/DX2                !
 ! R3    R(1,4)                  1.0934         estimate D2E/DX2                !
 ! R4    R(1,5)                  1.4819         estimate D2E/DX2                !
 ! R5    R(5,6)                  0.9997         estimate D2E/DX2                !
 ! R6    R(5,7)                  1.487          estimate D2E/DX2                !
 ! R7    R(5,23)                 1.0001         estimate D2E/DX2                !
 ! R8    R(7,8)                  1.0929         estimate D2E/DX2                !
 ! R9    R(7,9)                  1.093          estimate D2E/DX2                !
 ! R10   R(7,10)                 1.4996         estimate D2E/DX2                !
 ! R11   R(10,11)                1.092          estimate D2E/DX2                !
 ! R12   R(10,12)                1.0916         estimate D2E/DX2                !
 ! R13   R(10,13)                1.4337         estimate D2E/DX2                !
 ! R14   R(13,14)                1.3636         estimate D2E/DX2                !
 ! R15   R(13,21)                1.4154         estimate D2E/DX2                !
 ! R16   R(14,15)                1.3509         estimate D2E/DX2                !
 ! R17   R(15,16)                1.088          estimate D2E/DX2                !
 ! R18   R(15,17)                1.3945         estimate D2E/DX2                !
 ! R19   R(17,18)                1.0862         estimate D2E/DX2                !
 ! R20   R(17,19)                1.3698         estimate D2E/DX2                !
 ! R21   R(19,20)                1.0863         estimate D2E/DX2                !
 ! R22   R(19,21)                1.4161         estimate D2E/DX2                !
 ! R23   R(21,22)                1.0872         estimate D2E/DX2                !
 ! A1    A(2,1,3)              106.6855         estimate D2E/DX2                !
 ! A2    A(2,1,4)              108.3667         estimate D2E/DX2                !
 ! A3    A(2,1,5)              111.7171         estimate D2E/DX2                !
 ! A4    A(3,1,4)              107.1505         estimate D2E/DX2                !
 ! A5    A(3,1,5)              112.7181         estimate D2E/DX2                !
 ! A6    A(4,1,5)              109.9839         estimate D2E/DX2                !
 ! A7    A(1,5,6)              107.952          estimate D2E/DX2                !
 ! A8    A(1,5,7)              116.6361         estimate D2E/DX2                !
 ! A9    A(1,5,23)             107.9834         estimate D2E/DX2                !
 ! A10   A(6,5,7)              107.9693         estimate D2E/DX2                !
 ! A11   A(6,5,23)             108.0658         estimate D2E/DX2                !
 ! A12   A(7,5,23)             107.9618         estimate D2E/DX2                !
 ! A13   A(5,7,8)              111.2103         estimate D2E/DX2                !
 ! A14   A(5,7,9)              108.8227         estimate D2E/DX2                !
 ! A15   A(5,7,10)             114.5771         estimate D2E/DX2                !
 ! A16   A(8,7,9)              113.6792         estimate D2E/DX2                !
 ! A17   A(8,7,10)             101.5458         estimate D2E/DX2                !
 ! A18   A(9,7,10)             106.9135         estimate D2E/DX2                !
 ! A19   A(7,10,11)            116.8223         estimate D2E/DX2                !
 ! A20   A(7,10,12)            115.4654         estimate D2E/DX2                !
 ! A21   A(7,10,13)            104.8704         estimate D2E/DX2                !
 ! A22   A(11,10,12)           108.5979         estimate D2E/DX2                !
 ! A23   A(11,10,13)            99.8511         estimate D2E/DX2                !
 ! A24   A(12,10,13)           109.8463         estimate D2E/DX2                !
 ! A25   A(10,13,14)           109.4519         estimate D2E/DX2                !
 ! A26   A(10,13,21)           125.4286         estimate D2E/DX2                !
 ! A27   A(14,13,21)           124.5898         estimate D2E/DX2                !
 ! A28   A(13,14,15)           115.4923         estimate D2E/DX2                !
 ! A29   A(14,15,16)           106.3388         estimate D2E/DX2                !
 ! A30   A(14,15,17)           122.6634         estimate D2E/DX2                !
 ! A31   A(16,15,17)           128.6769         estimate D2E/DX2                !
 ! A32   A(15,17,18)           120.5872         estimate D2E/DX2                !
 ! A33   A(15,17,19)           120.0902         estimate D2E/DX2                !
 ! A34   A(18,17,19)           119.1632         estimate D2E/DX2                !
 ! A35   A(17,19,20)           122.8699         estimate D2E/DX2                !
 ! A36   A(17,19,21)           118.9439         estimate D2E/DX2                !
 ! A37   A(20,19,21)           118.1847         estimate D2E/DX2                !
 ! A38   A(13,21,19)           116.2321         estimate D2E/DX2                !
 ! A39   A(13,21,22)           114.8506         estimate D2E/DX2                !
 ! A40   A(19,21,22)           126.2888         estimate D2E/DX2                !
 ! D1    D(2,1,5,6)             63.4603         estimate D2E/DX2                !
 ! D2    D(2,1,5,7)           -174.8513         estimate D2E/DX2                !
 ! D3    D(2,1,5,23)           -53.1481         estimate D2E/DX2                !
 ! D4    D(3,1,5,6)            -56.6593         estimate D2E/DX2                !
 ! D5    D(3,1,5,7)             65.0291         estimate D2E/DX2                !
 ! D6    D(3,1,5,23)          -173.2677         estimate D2E/DX2                !
 ! D7    D(4,1,5,6)           -176.1591         estimate D2E/DX2                !
 ! D8    D(4,1,5,7)            -54.4707         estimate D2E/DX2                !
 ! D9    D(4,1,5,23)            67.2325         estimate D2E/DX2                !
 ! D10   D(1,5,7,8)            170.5623         estimate D2E/DX2                !
 ! D11   D(1,5,7,9)             44.5879         estimate D2E/DX2                !
 ! D12   D(1,5,7,10)           -75.0083         estimate D2E/DX2                !
 ! D13   D(6,5,7,8)            -67.7585         estimate D2E/DX2                !
 ! D14   D(6,5,7,9)            166.2671         estimate D2E/DX2                !
 ! D15   D(6,5,7,10)            46.671          estimate D2E/DX2                !
 ! D16   D(23,5,7,8)            48.8477         estimate D2E/DX2                !
 ! D17   D(23,5,7,9)           -77.1267         estimate D2E/DX2                !
 ! D18   D(23,5,7,10)          163.2772         estimate D2E/DX2                !
 ! D19   D(5,7,10,11)           72.3771         estimate D2E/DX2                !
 ! D20   D(5,7,10,12)          -57.1636         estimate D2E/DX2                !
 ! D21   D(5,7,10,13)         -178.1954         estimate D2E/DX2                !
 ! D22   D(8,7,10,11)         -167.6572         estimate D2E/DX2                !
 ! D23   D(8,7,10,12)           62.8021         estimate D2E/DX2                !
 ! D24   D(8,7,10,13)          -58.2297         estimate D2E/DX2                !
 ! D25   D(9,7,10,11)          -48.2798         estimate D2E/DX2                !
 ! D26   D(9,7,10,12)         -177.8204         estimate D2E/DX2                !
 ! D27   D(9,7,10,13)           61.1477         estimate D2E/DX2                !
 ! D28   D(7,10,13,14)         105.4954         estimate D2E/DX2                !
 ! D29   D(7,10,13,21)         -82.5626         estimate D2E/DX2                !
 ! D30   D(11,10,13,14)       -133.1754         estimate D2E/DX2                !
 ! D31   D(11,10,13,21)         38.7666         estimate D2E/DX2                !
 ! D32   D(12,10,13,14)        -19.1707         estimate D2E/DX2                !
 ! D33   D(12,10,13,21)        152.7713         estimate D2E/DX2                !
 ! D34   D(10,13,14,15)       -179.5392         estimate D2E/DX2                !
 ! D35   D(21,13,14,15)          8.4361         estimate D2E/DX2                !
 ! D36   D(10,13,21,19)       -167.2351         estimate D2E/DX2                !
 ! D37   D(10,13,21,22)         -4.4211         estimate D2E/DX2                !
 ! D38   D(14,13,21,19)          3.5258         estimate D2E/DX2                !
 ! D39   D(14,13,21,22)        166.3398         estimate D2E/DX2                !
 ! D40   D(13,14,15,16)        179.9265         estimate D2E/DX2                !
 ! D41   D(13,14,15,17)        -16.0238         estimate D2E/DX2                !
 ! D42   D(14,15,17,18)       -163.866          estimate D2E/DX2                !
 ! D43   D(14,15,17,19)         11.5067         estimate D2E/DX2                !
 ! D44   D(16,15,17,18)         -3.6082         estimate D2E/DX2                !
 ! D45   D(16,15,17,19)        171.7645         estimate D2E/DX2                !
 ! D46   D(15,17,19,20)       -178.8566         estimate D2E/DX2                !
 ! D47   D(15,17,19,21)          1.604          estimate D2E/DX2                !
 ! D48   D(18,17,19,20)         -3.4182         estimate D2E/DX2                !
 ! D49   D(18,17,19,21)        177.0425         estimate D2E/DX2                !
 ! D50   D(17,19,21,13)         -8.4675         estimate D2E/DX2                !
 ! D51   D(17,19,21,22)       -169.0388         estimate D2E/DX2                !
 ! D52   D(20,19,21,13)        171.9715         estimate D2E/DX2                !
 ! D53   D(20,19,21,22)         11.4001         estimate D2E/DX2                !
 --------------------------------------------------------------------------------
 Trust Radius=3.00D-01 FncErr=1.00D-07 GrdErr=1.00D-06 EigMax=2.50D+02 EigMin=1.00D-04
 Number of steps in this run=    126 maximum allowed number of steps=    138.
 GradGradGradGradGradGradGradGradGradGradGradGradGradGradGradGradGradGrad

 Leave Link  103 at Sun Jul 18 13:37:05 2021, MaxMem=   104857600 cpu:               0.1 elap:               0.0
 (Enter /prod/apps/gaussian/g16b1/l202.exe)
                          Input orientation:                          
 ---------------------------------------------------------------------
 Center     Atomic      Atomic             Coordinates (Angstroms)
 Number     Number       Type             X           Y           Z
 ---------------------------------------------------------------------
      1          6           0       -3.226000    0.746000    1.349000
      2          1           0       -3.990000    1.220000    1.970000
      3          1           0       -3.023000   -0.232000    1.793000
      4          1           0       -3.650000    0.568000    0.357000
      5          7           0       -2.011000    1.587000    1.237000
      6          1           0       -1.614000    1.678000    2.150000
      7          6           0       -0.946000    1.101000    0.320000
      8          1           0       -0.172000    1.859000    0.176000
      9          1           0       -1.409000    0.764000   -0.611000
     10          6           0       -0.144000   -0.050000    0.850000
     11          1           0       -0.642000   -1.021000    0.889000
     12          1           0        0.353000    0.125000    1.806000
     13          6           0        0.833000   -0.316000   -0.165000
     14          7           0        2.051000    0.138000    0.247000
     15          6           0        3.065000   -0.043000   -0.627000
     16          1           0        3.954000    0.369000   -0.154000
     17          6           0        2.980000   -0.921000   -1.707000
     18          1           0        3.876000   -1.241000   -2.231000
     19          6           0        1.772000   -1.463000   -2.058000
     20          1           0        1.657000   -2.165000   -2.879000
     21          6           0        0.616000   -1.090000   -1.330000
     22          1           0       -0.362000   -1.561000   -1.390000
     23          1           0       -2.292000    2.496000    0.929000
 ---------------------------------------------------------------------
                    Distance matrix (angstroms):
                    1          2          3          4          5
     1  C    0.000000
     2  H    1.092709   0.000000
     3  H    1.093082   1.753489   0.000000
     4  H    1.093400   1.772702   1.759325   0.000000
     5  N    1.481908   2.142060   2.154540   2.121104   0.000000
     6  H    2.027010   2.426425   2.400173   2.931253   0.999729
     7  C    2.526513   3.464476   2.874117   2.756279   1.487047
     8  H    3.455664   4.266601   3.887823   3.714287   2.140473
     9  H    2.672716   3.678459   3.062063   2.448984   2.110648
    10  C    3.222009   4.202263   3.034965   3.594024   2.513012
    11  H    3.164008   4.171300   2.666252   3.443256   2.965962
    12  H    3.661111   4.481916   3.394848   4.280170   2.837199
    13  C    4.460440   5.493528   4.325454   4.599047   3.698020
    14  N    5.425016   6.374412   5.317188   5.718252   4.424878
    15  C    6.641068   7.623162   6.554072   6.814162   5.647758
    16  H    7.345307   8.266965   7.268462   7.623748   6.244968
    17  C    7.115649   8.166095   6.982888   7.101698   6.314054
    18  H    8.197742   9.250885   8.050271   8.161550   7.394686
    19  C    6.439513   7.524887   6.271968   6.273378   5.871168
    20  H    7.084744   8.176774   6.889592   6.790084   6.668822
    21  C    5.030795   6.118933   4.871510   4.877878   4.544991
    22  H    4.585506   5.673266   4.356449   4.289009   4.419302
    23  H    2.027623   2.365388   2.953446   2.426630   1.000053
                    6          7          8          9         10
     6  H    0.000000
     7  C    2.031761   0.000000
     8  H    2.451286   1.092875   0.000000
     9  H    2.915569   1.093023   1.829908   0.000000
    10  C    2.614744   1.499635   2.024683   2.096984   0.000000
    11  H    3.133609   2.217896   3.003942   2.454489   1.091955
    12  H    2.529671   2.201857   2.437064   3.058571   1.091591
    13  C    3.914469   2.325501   2.420110   2.528217   1.433705
    14  N    4.407407   3.148763   2.812225   3.619342   2.284070
    15  C    5.706716   4.277110   3.839347   4.546227   3.532599
    16  H    6.166403   4.976997   4.399190   5.396911   4.239951
    17  C    6.537284   4.859083   4.605344   4.827397   4.129923
    18  H    7.606170   5.936687   5.638258   5.880106   5.203022
    19  C    6.248051   4.429052   4.450346   4.143923   3.758203
    20  H    7.124530   5.260795   5.373159   4.808661   4.649975
    21  C    4.974447   3.156394   3.403760   2.838116   2.532114
    22  H    4.958853   3.217359   3.766279   2.666210   2.710765
    23  H    1.618533   2.031901   2.338200   2.480144   3.332006
                   11         12         13         14         15
    11  H    0.000000
    12  H    1.773198   0.000000
    13  C    1.945139   2.075987   0.000000
    14  N    3.001282   2.305180   1.363592   0.000000
    15  C    4.122692   3.647281   2.295604   1.350864   0.000000
    16  H    4.913569   4.107108   3.195307   1.958461   1.088023
    17  C    4.457365   4.509591   2.711715   2.408867   1.394457
    18  H    5.495009   5.529453   3.792602   3.372351   2.160033
    19  C    3.835045   4.412006   2.404325   2.820296   2.394997
    20  H    4.559820   5.375290   3.385790   3.902681   3.399537
    21  C    2.551722   3.373409   1.415412   2.460516   2.754636
    22  H    2.358780   3.683509   2.116288   3.374750   3.825026
    23  H    3.885021   3.658797   4.343939   4.988681   6.129038
                   16         17         18         19         20
    16  H    0.000000
    17  C    2.241559   0.000000
    18  H    2.629090   1.086182   0.000000
    19  C    3.426742   1.369755   2.122741   0.000000
    20  H    4.372984   2.161354   2.489506   1.086310   0.000000
    21  C    3.828041   2.399830   3.385587   1.416139   2.153766
    22  H    4.886763   3.417463   4.332473   2.238255   2.580368
    23  H    6.686519   6.813103   7.873690   6.411860   7.198638
                   21         22         23
    21  C    0.000000
    22  H    1.087164   0.000000
    23  H    5.139936   5.055879   0.000000
 Stoichiometry    C8H13N2(1+)
 Framework group  C1[X(C8H13N2)]
 Deg. of freedom    63
 Full point group                 C1      NOp   1
 Largest Abelian subgroup         C1      NOp   1
 Largest concise Abelian subgroup C1      NOp   1
                         Standard orientation:                         
 ---------------------------------------------------------------------
 Center     Atomic      Atomic             Coordinates (Angstroms)
 Number     Number       Type             X           Y           Z
 ---------------------------------------------------------------------
      1          6           0        3.822974    0.610595    0.212128
      2          1           0        4.888049    0.367355    0.233631
      3          1           0        3.529750    0.827629    1.242538
      4          1           0        3.691554    1.532170   -0.361415
      5          7           0        3.023387   -0.480703   -0.392670
      6          1           0        3.115175   -1.288681    0.188884
      7          6           0        1.572730   -0.216425   -0.585185
      8          1           0        1.103458   -1.002394   -1.182187
      9          1           0        1.449351    0.785657   -1.003883
     10          6           0        0.757213   -0.267302    0.672292
     11          1           0        0.880073    0.561045    1.373087
     12          1           0        0.810628   -1.204902    1.228730
     13          6           0       -0.591056   -0.030260    0.246276
     14          7           0       -1.290398   -1.200365    0.280300
     15          6           0       -2.581174   -1.117772   -0.109455
     16          1           0       -2.990820   -2.122316   -0.026531
     17          6           0       -3.261594    0.095465   -0.207397
     18          1           0       -4.345951    0.117835   -0.266230
     19          6           0       -2.572544    1.277073   -0.134994
     20          1           0       -3.058546    2.247170   -0.187755
     21          6           0       -1.163823    1.241457    0.005309
     22          1           0       -0.519013    2.084792    0.239687
     23          1           0        3.419030   -0.694881   -1.285810
 ---------------------------------------------------------------------
 Rotational constants (GHZ):           3.8986671           0.6250396           0.5682090
 Leave Link  202 at Sun Jul 18 13:37:05 2021, MaxMem=   104857600 cpu:               0.1 elap:               0.0
 (Enter /prod/apps/gaussian/g16b1/l301.exe)
 Standard basis: 6-31G(d) (6D, 7F)
 Ernie: Thresh=  0.10000D-02 Tol=  0.10000D-05 Strict=F.
 There are   176 symmetry adapted cartesian basis functions of A   symmetry.
 There are   176 symmetry adapted basis functions of A   symmetry.
   176 basis functions,   332 primitive gaussians,   176 cartesian basis functions
    37 alpha electrons       37 beta electrons
       nuclear repulsion energy       514.4024665591 Hartrees.
 IExCor=  402 DFT=T Ex+Corr=B3LYP ExCW=0 ScaHFX=  0.200000
 ScaDFX=  0.800000  0.720000  1.000000  0.810000 ScalE2=  1.000000  1.000000
 IRadAn=      5 IRanWt=     -1 IRanGd=            0 ICorTp=0 IEmpDi=  4
 NAtoms=   23 NActive=   23 NUniq=   23 SFac= 1.00D+00 NAtFMM=   60 NAOKFM=F Big=F
 Integral buffers will be    131072 words long.
 Raffenetti 2 integral format.
 Two-electron integral symmetry is turned on.
 Using the following non-standard input for PCM:
 MSTModel=DFT cav MSTCharged
 --- end of non-standard input.
 MST model for solvation energy: B3LYP parametrization.
 MST cavity parameters:
 ISph   IAn     Re0     Alpha   Atom Type   QCorr
 ------------------------------------------------
   1      6     1.50     1.25      CH3        F
   2      1     1.20     1.25      CH3        F
   3      1     1.20     1.25      CH3        F
   4      1     1.20     1.25      CH3        F
   5      7     1.55     1.15      NH         T
   6      1     0.90     1.15      NH         T
   7      6     1.50     1.25      CH2        F
   8      1     1.20     1.25      CH2        F
   9      1     1.20     1.25      CH2        F
  10      6     1.50     1.25      CH2        F
  11      1     1.20     1.25      CH2        F
  12      1     1.20     1.25      CH2        F
  13      6     1.50     1.25      C          F
  14      7     1.40     1.25      N          F
  15      6     1.50     1.25      CH         F
  16      1     1.20     1.25      CH         F
  17      6     1.50     1.25      CH         F
  18      1     1.20     1.25      CH         F
  19      6     1.50     1.25      CH         F
  20      1     1.20     1.25      CH         F
  21      6     1.50     1.25      CH         F
  22      1     1.20     1.25      CH         F
  23      1     0.90     1.15      NH         T
 ------------------------------------------------------------------------------
 Polarizable Continuum Model (PCM)
 =================================
 Model                : PCM.
 Atomic radii         : MST.
 Polarization charges : Total charges.
 Charge compensation  : None.
 Solution method      : On-the-fly selection.
 Cavity type          : Scaled VdW (van der Waals Surface) (Alpha=1.250).
 Cavity algorithm     : GePol (No added spheres)
                        Default sphere list used, NSphG=   23.
                        Lebedev-Laikov grids with approx.  5.0 points / Ang**2.
                        Smoothing algorithm: York/Karplus (Gamma=1.0000).
                        Polarization charges: spherical gaussians, with
                                              point-specific exponents (IZeta= 3).
                        Self-potential: point-specific (ISelfS= 7).
                        Self-field    : sphere-specific E.n sum rule (ISelfD= 2).
 1st derivatives      : Analytical E(r).r(x)/FMM algorithm (CHGder, D1EAlg=3).
                        Cavity 1st derivative terms included.
 Solvent              : Water, Eps=  78.355300 Eps(inf)=   1.777849
 ------------------------------------------------------------------------------
 GePol: Number of generator spheres                  =      23
 GePol: Total number of spheres                      =      23
 GePol: Number of exposed spheres                    =      23 (100.00%)
 GePol: Number of points                             =    1676
 GePol: Average weight of points                     =       0.13
 GePol: Minimum weight of points                     =   0.47D-09
 GePol: Maximum weight of points                     =    0.22001
 GePol: Number of points with low weight             =     118
 GePol: Fraction of low-weight points (<1% of avg)   =       7.04%
 GePol: Cavity surface area                          =    211.068 Ang**2
 GePol: Cavity volume                                =    187.889 Ang**3
 PCM non-electrostatic energy =         0.0012453810 Hartrees.
 Nuclear repulsion after PCM non-electrostatic terms =      514.4037119402 Hartrees.
 Leave Link  301 at Sun Jul 18 13:37:05 2021, MaxMem=   104857600 cpu:               0.3 elap:               0.1
 (Enter /prod/apps/gaussian/g16b1/l302.exe)
 NPDir=0 NMtPBC=     1 NCelOv=     1 NCel=       1 NClECP=     1 NCelD=      1
         NCelK=      1 NCelE2=     1 NClLst=     1 CellRange=     0.0.
 One-electron integrals computed using PRISM.
 One-electron integral symmetry used in STVInt
 NBasis=   176 RedAO= T EigKep=  1.02D-03  NBF=   176
 NBsUse=   176 1.00D-06 EigRej= -1.00D+00 NBFU=   176
 Precomputing XC quadrature grid using
 IXCGrd= 4 IRadAn=           5 IRanWt=          -1 IRanGd=           0 AccXCQ= 0.00D+00.
 Generated NRdTot=       0 NPtTot=           0 NUsed=           0 NTot=          32
 NSgBfM=   176   176   176   176   176 MxSgAt=    23 MxSgA2=    23.
 Leave Link  302 at Sun Jul 18 13:37:05 2021, MaxMem=   104857600 cpu:               0.9 elap:               0.2
 (Enter /prod/apps/gaussian/g16b1/l303.exe)
 DipDrv:  MaxL=1.
 Leave Link  303 at Sun Jul 18 13:37:06 2021, MaxMem=   104857600 cpu:               0.1 elap:               0.0
 (Enter /prod/apps/gaussian/g16b1/l401.exe)
 ExpMin= 1.61D-01 ExpMax= 4.17D+03 ExpMxC= 6.27D+02 IAcc=3 IRadAn=         5 AccDes= 0.00D+00
 Harris functional with IExCor=  402 and IRadAn=       5 diagonalized for initial guess.
 HarFok:  IExCor=  402 AccDes= 0.00D+00 IRadAn=         5 IDoV= 1 UseB2=F ITyADJ=14
 ICtDFT=  3500011 ScaDFX=  1.000000  1.000000  1.000000  1.000000
 FoFCou: FMM=F IPFlag=           0 FMFlag=      100000 FMFlg1=           0
         NFxFlg=           0 DoJE=T BraDBF=F KetDBF=T FulRan=T
         wScrn=  0.000000 ICntrl=       500 IOpCl=  0 I1Cent=   200000004 NGrid=           0
         NMat0=    1 NMatS0=      1 NMatT0=    0 NMatD0=    1 NMtDS0=    0 NMtDT0=    0
 Petite list used in FoFCou.
 Harris En= -421.936215285311    
 JPrj=0 DoOrth=F DoCkMO=F.
 Leave Link  401 at Sun Jul 18 13:37:07 2021, MaxMem=   104857600 cpu:               4.1 elap:               1.0
 (Enter /prod/apps/gaussian/g16b1/l502.exe)
 Integral symmetry usage will be decided dynamically.
 Closed shell SCF:
 Using DIIS extrapolation, IDIIS=  1040.
 NGot=   104857600 LenX=   104792415 LenY=   104760998
 Requested convergence on RMS density matrix=1.00D-08 within 128 cycles.
 Requested convergence on MAX density matrix=1.00D-06.
 Requested convergence on             energy=1.00D-06.
 No special actions if energy rises.
 Fock matrices will be formed incrementally for  20 cycles.

 Cycle   1  Pass 1  IDiag  1:
 FoFJK:  IHMeth= 1 ICntrl=       0 DoSepK=F KAlg= 0 I1Cent=           0 FoldK=F
 IRaf= 900000000 NMat=       1 IRICut=       1 DoRegI=T DoRafI=F ISym2E= 0 IDoP0=0 IntGTp=1.
 FoFCou: FMM=F IPFlag=           0 FMFlag=      100000 FMFlg1=           0
         NFxFlg=           0 DoJE=F BraDBF=F KetDBF=F FulRan=T
         wScrn=  0.000000 ICntrl=         0 IOpCl=  0 I1Cent=           0 NGrid=           0
         NMat0=    1 NMatS0=      1 NMatT0=    0 NMatD0=    1 NMtDS0=    0 NMtDT0=    0
 Symmetry not used in FoFCou.
 Inv3:  Mode=1 IEnd=     8426928.
 Iteration    1 A*A^-1 deviation from unit magnitude is 3.11D-15 for    800.
 Iteration    1 A*A^-1 deviation from orthogonality  is 3.55D-15 for   1547    847.
 Iteration    1 A^-1*A deviation from unit magnitude is 2.89D-15 for    800.
 Iteration    1 A^-1*A deviation from orthogonality  is 2.22D-15 for   1470    122.
 E= -421.830440000225    
 DIIS: error= 2.04D-02 at cycle   1 NSaved=   1.
 NSaved= 1 IEnMin= 1 EnMin= -421.830440000225     IErMin= 1 ErrMin= 2.04D-02
 ErrMax= 2.04D-02  0.00D+00 EMaxC= 1.00D-01 BMatC= 1.79D-01 BMatP= 1.79D-01
 IDIUse=3 WtCom= 7.96D-01 WtEn= 2.04D-01
 Coeff-Com:  0.100D+01
 Coeff-En:   0.100D+01
 Coeff:      0.100D+01
 Gap=     0.224 Goal=   None    Shift=    0.000
 GapD=    0.224 DampG=1.000 DampE=0.500 DampFc=0.5000 IDamp=-1.
 Damping current iteration by 5.00D-01
 RMSDP=4.97D-03 MaxDP=1.18D-01              OVMax= 1.39D-01

 Cycle   2  Pass 1  IDiag  1:
 RMSU=  2.42D-03    CP:  9.77D-01
 E= -421.924112674859     Delta-E=       -0.093672674634 Rises=F Damp=T
 DIIS: error= 5.90D-03 at cycle   2 NSaved=   2.
 NSaved= 2 IEnMin= 2 EnMin= -421.924112674859     IErMin= 2 ErrMin= 5.90D-03
 ErrMax= 5.90D-03  0.00D+00 EMaxC= 1.00D-01 BMatC= 1.04D-02 BMatP= 1.79D-01
 IDIUse=3 WtCom= 9.41D-01 WtEn= 5.90D-02
 Coeff-Com: -0.464D-01 0.105D+01
 Coeff-En:   0.000D+00 0.100D+01
 Coeff:     -0.436D-01 0.104D+01
 Gap=     0.226 Goal=   None    Shift=    0.000
 RMSDP=1.03D-03 MaxDP=1.91D-02 DE=-9.37D-02 OVMax= 8.06D-02

 Cycle   3  Pass 1  IDiag  1:
 RMSU=  1.01D-03    CP:  9.71D-01  1.06D+00
 E= -422.015343319561     Delta-E=       -0.091230644702 Rises=F Damp=F
 DIIS: error= 2.19D-03 at cycle   3 NSaved=   3.
 NSaved= 3 IEnMin= 3 EnMin= -422.015343319561     IErMin= 3 ErrMin= 2.19D-03
 ErrMax= 2.19D-03  0.00D+00 EMaxC= 1.00D-01 BMatC= 2.46D-03 BMatP= 1.04D-02
 IDIUse=3 WtCom= 9.78D-01 WtEn= 2.19D-02
 Coeff-Com: -0.544D-01 0.317D+00 0.738D+00
 Coeff-En:   0.000D+00 0.000D+00 0.100D+01
 Coeff:     -0.532D-01 0.310D+00 0.743D+00
 Gap=     0.224 Goal=   None    Shift=    0.000
 RMSDP=3.71D-04 MaxDP=1.49D-02 DE=-9.12D-02 OVMax= 2.91D-02

 Cycle   4  Pass 1  IDiag  1:
 RMSU=  3.24D-04    CP:  9.71D-01  1.07D+00  8.26D-01
 E= -422.016827193195     Delta-E=       -0.001483873634 Rises=F Damp=F
 DIIS: error= 1.43D-03 at cycle   4 NSaved=   4.
 NSaved= 4 IEnMin= 4 EnMin= -422.016827193195     IErMin= 4 ErrMin= 1.43D-03
 ErrMax= 1.43D-03  0.00D+00 EMaxC= 1.00D-01 BMatC= 8.38D-04 BMatP= 2.46D-03
 IDIUse=3 WtCom= 9.86D-01 WtEn= 1.43D-02
 Coeff-Com: -0.236D-01 0.842D-01 0.405D+00 0.534D+00
 Coeff-En:   0.000D+00 0.000D+00 0.260D+00 0.740D+00
 Coeff:     -0.232D-01 0.830D-01 0.403D+00 0.537D+00
 Gap=     0.223 Goal=   None    Shift=    0.000
 RMSDP=1.82D-04 MaxDP=7.30D-03 DE=-1.48D-03 OVMax= 1.48D-02

 Cycle   5  Pass 1  IDiag  1:
 RMSU=  8.70D-05    CP:  9.70D-01  1.08D+00  8.66D-01  5.30D-01
 E= -422.017636698851     Delta-E=       -0.000809505656 Rises=F Damp=F
 DIIS: error= 4.42D-04 at cycle   5 NSaved=   5.
 NSaved= 5 IEnMin= 5 EnMin= -422.017636698851     IErMin= 5 ErrMin= 4.42D-04
 ErrMax= 4.42D-04  0.00D+00 EMaxC= 1.00D-01 BMatC= 3.91D-05 BMatP= 8.38D-04
 IDIUse=3 WtCom= 9.96D-01 WtEn= 4.42D-03
 Coeff-Com: -0.689D-02 0.164D-01 0.136D+00 0.253D+00 0.602D+00
 Coeff-En:   0.000D+00 0.000D+00 0.000D+00 0.000D+00 0.100D+01
 Coeff:     -0.686D-02 0.163D-01 0.135D+00 0.252D+00 0.604D+00
 Gap=     0.223 Goal=   None    Shift=    0.000
 RMSDP=4.48D-05 MaxDP=1.22D-03 DE=-8.10D-04 OVMax= 3.12D-03

 Cycle   6  Pass 1  IDiag  1:
 RMSU=  2.48D-05    CP:  9.70D-01  1.08D+00  8.67D-01  5.95D-01  6.46D-01
 E= -422.017671979169     Delta-E=       -0.000035280318 Rises=F Damp=F
 DIIS: error= 1.13D-04 at cycle   6 NSaved=   6.
 NSaved= 6 IEnMin= 6 EnMin= -422.017671979169     IErMin= 6 ErrMin= 1.13D-04
 ErrMax= 1.13D-04  0.00D+00 EMaxC= 1.00D-01 BMatC= 6.30D-06 BMatP= 3.91D-05
 IDIUse=3 WtCom= 9.99D-01 WtEn= 1.13D-03
 Coeff-Com: -0.274D-02 0.478D-02 0.565D-01 0.118D+00 0.363D+00 0.460D+00
 Coeff-En:   0.000D+00 0.000D+00 0.000D+00 0.000D+00 0.718D-01 0.928D+00
 Coeff:     -0.274D-02 0.477D-02 0.564D-01 0.118D+00 0.363D+00 0.461D+00
 Gap=     0.223 Goal=   None    Shift=    0.000
 RMSDP=1.43D-05 MaxDP=5.60D-04 DE=-3.53D-05 OVMax= 9.77D-04

 Cycle   7  Pass 1  IDiag  1:
 RMSU=  6.19D-06    CP:  9.70D-01  1.08D+00  8.70D-01  5.88D-01  7.02D-01
                    CP:  5.45D-01
 E= -422.017677887666     Delta-E=       -0.000005908497 Rises=F Damp=F
 DIIS: error= 1.74D-05 at cycle   7 NSaved=   7.
 NSaved= 7 IEnMin= 7 EnMin= -422.017677887666     IErMin= 7 ErrMin= 1.74D-05
 ErrMax= 1.74D-05  0.00D+00 EMaxC= 1.00D-01 BMatC= 1.80D-07 BMatP= 6.30D-06
 IDIUse=1 WtCom= 1.00D+00 WtEn= 0.00D+00
 Coeff-Com: -0.872D-03 0.125D-02 0.183D-01 0.396D-01 0.134D+00 0.219D+00
 Coeff-Com:  0.589D+00
 Coeff:     -0.872D-03 0.125D-02 0.183D-01 0.396D-01 0.134D+00 0.219D+00
 Coeff:      0.589D+00
 Gap=     0.223 Goal=   None    Shift=    0.000
 RMSDP=2.98D-06 MaxDP=1.15D-04 DE=-5.91D-06 OVMax= 1.38D-04

 Cycle   8  Pass 1  IDiag  1:
 RMSU=  1.97D-06    CP:  9.70D-01  1.08D+00  8.70D-01  5.90D-01  7.02D-01
                    CP:  5.61D-01  6.86D-01
 E= -422.017678027016     Delta-E=       -0.000000139350 Rises=F Damp=F
 DIIS: error= 6.16D-06 at cycle   8 NSaved=   8.
 NSaved= 8 IEnMin= 8 EnMin= -422.017678027016     IErMin= 8 ErrMin= 6.16D-06
 ErrMax= 6.16D-06  0.00D+00 EMaxC= 1.00D-01 BMatC= 2.22D-08 BMatP= 1.80D-07
 IDIUse=1 WtCom= 1.00D+00 WtEn= 0.00D+00
 Coeff-Com: -0.910D-04-0.242D-04 0.207D-02 0.486D-02 0.214D-01 0.543D-01
 Coeff-Com:  0.299D+00 0.619D+00
 Coeff:     -0.910D-04-0.242D-04 0.207D-02 0.486D-02 0.214D-01 0.543D-01
 Coeff:      0.299D+00 0.619D+00
 Gap=     0.223 Goal=   None    Shift=    0.000
 RMSDP=9.15D-07 MaxDP=3.24D-05 DE=-1.39D-07 OVMax= 4.55D-05

 Cycle   9  Pass 1  IDiag  1:
 RMSU=  4.73D-07    CP:  9.70D-01  1.08D+00  8.70D-01  5.90D-01  7.03D-01
                    CP:  5.70D-01  7.47D-01  6.91D-01
 E= -422.017678046350     Delta-E=       -0.000000019334 Rises=F Damp=F
 DIIS: error= 1.41D-06 at cycle   9 NSaved=   9.
 NSaved= 9 IEnMin= 9 EnMin= -422.017678046350     IErMin= 9 ErrMin= 1.41D-06
 ErrMax= 1.41D-06  0.00D+00 EMaxC= 1.00D-01 BMatC= 1.32D-09 BMatP= 2.22D-08
 IDIUse=1 WtCom= 1.00D+00 WtEn= 0.00D+00
 Coeff-Com:  0.116D-04-0.902D-04-0.145D-03-0.198D-03 0.197D-02 0.128D-01
 Coeff-Com:  0.103D+00 0.286D+00 0.596D+00
 Coeff:      0.116D-04-0.902D-04-0.145D-03-0.198D-03 0.197D-02 0.128D-01
 Coeff:      0.103D+00 0.286D+00 0.596D+00
 Gap=     0.223 Goal=   None    Shift=    0.000
 RMSDP=2.30D-07 MaxDP=7.03D-06 DE=-1.93D-08 OVMax= 1.49D-05

 Cycle  10  Pass 1  IDiag  1:
 RMSU=  1.72D-07    CP:  9.70D-01  1.08D+00  8.70D-01  5.90D-01  7.04D-01
                    CP:  5.71D-01  7.53D-01  7.23D-01  7.34D-01
 E= -422.017678047455     Delta-E=       -0.000000001105 Rises=F Damp=F
 DIIS: error= 5.14D-07 at cycle  10 NSaved=  10.
 NSaved=10 IEnMin=10 EnMin= -422.017678047455     IErMin=10 ErrMin= 5.14D-07
 ErrMax= 5.14D-07  0.00D+00 EMaxC= 1.00D-01 BMatC= 1.56D-10 BMatP= 1.32D-09
 IDIUse=1 WtCom= 1.00D+00 WtEn= 0.00D+00
 Coeff-Com:  0.162D-04-0.363D-04-0.324D-03-0.742D-03-0.185D-02-0.814D-03
 Coeff-Com:  0.953D-02 0.561D-01 0.291D+00 0.647D+00
 Coeff:      0.162D-04-0.363D-04-0.324D-03-0.742D-03-0.185D-02-0.814D-03
 Coeff:      0.953D-02 0.561D-01 0.291D+00 0.647D+00
 Gap=     0.223 Goal=   None    Shift=    0.000
 RMSDP=7.62D-08 MaxDP=2.60D-06 DE=-1.10D-09 OVMax= 4.58D-06

 Cycle  11  Pass 1  IDiag  1:
 RMSU=  3.31D-08    CP:  9.70D-01  1.08D+00  8.70D-01  5.90D-01  7.04D-01
                    CP:  5.71D-01  7.54D-01  7.32D-01  8.13D-01  7.07D-01
 E= -422.017678047608     Delta-E=       -0.000000000154 Rises=F Damp=F
 DIIS: error= 9.21D-08 at cycle  11 NSaved=  11.
 NSaved=11 IEnMin=11 EnMin= -422.017678047608     IErMin=11 ErrMin= 9.21D-08
 ErrMax= 9.21D-08  0.00D+00 EMaxC= 1.00D-01 BMatC= 3.44D-12 BMatP= 1.56D-10
 IDIUse=1 WtCom= 1.00D+00 WtEn= 0.00D+00
 Coeff-Com:  0.549D-05-0.100D-04-0.110D-03-0.263D-03-0.703D-03-0.618D-03
 Coeff-Com:  0.133D-03 0.118D-01 0.813D-01 0.228D+00 0.680D+00
 Coeff:      0.549D-05-0.100D-04-0.110D-03-0.263D-03-0.703D-03-0.618D-03
 Coeff:      0.133D-03 0.118D-01 0.813D-01 0.228D+00 0.680D+00
 Gap=     0.223 Goal=   None    Shift=    0.000
 RMSDP=1.62D-08 MaxDP=4.40D-07 DE=-1.54D-10 OVMax= 1.46D-06

 Cycle  12  Pass 1  IDiag  1:
 RMSU=  1.38D-08    CP:  9.70D-01  1.08D+00  8.70D-01  5.90D-01  7.04D-01
                    CP:  5.71D-01  7.54D-01  7.33D-01  8.14D-01  7.44D-01
                    CP:  8.58D-01
 E= -422.017678047609     Delta-E=       -0.000000000001 Rises=F Damp=F
 DIIS: error= 7.74D-08 at cycle  12 NSaved=  12.
 NSaved=12 IEnMin=12 EnMin= -422.017678047609     IErMin=12 ErrMin= 7.74D-08
 ErrMax= 7.74D-08  0.00D+00 EMaxC= 1.00D-01 BMatC= 1.44D-12 BMatP= 3.44D-12
 IDIUse=1 WtCom= 1.00D+00 WtEn= 0.00D+00
 Coeff-Com:  0.602D-06 0.594D-07-0.116D-04-0.346D-04-0.110D-03-0.224D-03
 Coeff-Com: -0.164D-02-0.218D-02-0.772D-03 0.317D-01 0.418D+00 0.556D+00
 Coeff:      0.602D-06 0.594D-07-0.116D-04-0.346D-04-0.110D-03-0.224D-03
 Coeff:     -0.164D-02-0.218D-02-0.772D-03 0.317D-01 0.418D+00 0.556D+00
 Gap=     0.223 Goal=   None    Shift=    0.000
 RMSDP=7.46D-09 MaxDP=1.93D-07 DE=-1.02D-12 OVMax= 5.68D-07

 Error on total polarization charges =  0.01629
 SCF Done:  E(RB3LYP) =  -422.017678048     A.U. after   12 cycles
            NFock= 12  Conv=0.75D-08     -V/T= 2.0093
 KE= 4.181269262595D+02 PE=-1.994321043773D+03 EE= 6.397727275260D+02
 Leave Link  502 at Sun Jul 18 13:37:29 2021, MaxMem=   104857600 cpu:              87.7 elap:              22.0
 (Enter /prod/apps/gaussian/g16b1/l601.exe)
 Copying SCF densities to generalized density rwf, IOpCl= 0 IROHF=0.

 **********************************************************************

            Population analysis using the SCF Density.

 **********************************************************************

 Orbital symmetries:
       Occupied  (A) (A) (A) (A) (A) (A) (A) (A) (A) (A) (A) (A)
                 (A) (A) (A) (A) (A) (A) (A) (A) (A) (A) (A) (A)
                 (A) (A) (A) (A) (A) (A) (A) (A) (A) (A) (A) (A)
                 (A)
       Virtual   (A) (A) (A) (A) (A) (A) (A) (A) (A) (A) (A) (A)
                 (A) (A) (A) (A) (A) (A) (A) (A) (A) (A) (A) (A)
                 (A) (A) (A) (A) (A) (A) (A) (A) (A) (A) (A) (A)
                 (A) (A) (A) (A) (A) (A) (A) (A) (A) (A) (A) (A)
                 (A) (A) (A) (A) (A) (A) (A) (A) (A) (A) (A) (A)
                 (A) (A) (A) (A) (A) (A) (A) (A) (A) (A) (A) (A)
                 (A) (A) (A) (A) (A) (A) (A) (A) (A) (A) (A) (A)
                 (A) (A) (A) (A) (A) (A) (A) (A) (A) (A) (A) (A)
                 (A) (A) (A) (A) (A) (A) (A) (A) (A) (A) (A) (A)
                 (A) (A) (A) (A) (A) (A) (A) (A) (A) (A) (A) (A)
                 (A) (A) (A) (A) (A) (A) (A) (A) (A) (A) (A) (A)
                 (A) (A) (A) (A) (A) (A) (A)
 The electronic state is 1-A.
 Alpha  occ. eigenvalues --  -14.44935 -14.33507 -10.24977 -10.24046 -10.22955
 Alpha  occ. eigenvalues --  -10.22651 -10.21293 -10.20579 -10.20026 -10.19178
 Alpha  occ. eigenvalues --   -1.01343  -0.94618  -0.82783  -0.80624  -0.75237
 Alpha  occ. eigenvalues --   -0.71866  -0.66541  -0.63695  -0.60736  -0.58230
 Alpha  occ. eigenvalues --   -0.54706  -0.51619  -0.50844  -0.49156  -0.46140
 Alpha  occ. eigenvalues --   -0.45100  -0.42323  -0.41862  -0.41120  -0.40859
 Alpha  occ. eigenvalues --   -0.39909  -0.38034  -0.37063  -0.34636  -0.29181
 Alpha  occ. eigenvalues --   -0.26971  -0.25686
 Alpha virt. eigenvalues --   -0.03353  -0.01886   0.06259   0.08977   0.10364
 Alpha virt. eigenvalues --    0.11177   0.11557   0.12405   0.13266   0.14720
 Alpha virt. eigenvalues --    0.15724   0.16057   0.16836   0.17466   0.17540
 Alpha virt. eigenvalues --    0.18515   0.19403   0.21489   0.23734   0.25896
 Alpha virt. eigenvalues --    0.26674   0.30476   0.31922   0.33614   0.43595
 Alpha virt. eigenvalues --    0.46887   0.49407   0.50103   0.51632   0.51838
 Alpha virt. eigenvalues --    0.52360   0.54396   0.55825   0.57519   0.57951
 Alpha virt. eigenvalues --    0.58938   0.60151   0.61380   0.63500   0.64456
 Alpha virt. eigenvalues --    0.65949   0.67362   0.68798   0.69741   0.72513
 Alpha virt. eigenvalues --    0.74026   0.78030   0.79885   0.80765   0.82202
 Alpha virt. eigenvalues --    0.83901   0.84576   0.85072   0.85697   0.87195
 Alpha virt. eigenvalues --    0.87372   0.89159   0.90058   0.90444   0.91930
 Alpha virt. eigenvalues --    0.94209   0.95245   0.95898   0.96674   0.97543
 Alpha virt. eigenvalues --    1.00619   1.02494   1.05982   1.07219   1.12784
 Alpha virt. eigenvalues --    1.16084   1.17641   1.22396   1.25262   1.32869
 Alpha virt. eigenvalues --    1.34186   1.38613   1.41088   1.45225   1.47590
 Alpha virt. eigenvalues --    1.50749   1.53035   1.53755   1.59653   1.63986
 Alpha virt. eigenvalues --    1.68382   1.71136   1.73994   1.80516   1.82596
 Alpha virt. eigenvalues --    1.85902   1.88060   1.90601   1.92809   1.95055
 Alpha virt. eigenvalues --    1.95876   1.98822   2.00003   2.02774   2.05133
 Alpha virt. eigenvalues --    2.06745   2.07562   2.15290   2.15957   2.18949
 Alpha virt. eigenvalues --    2.21489   2.21680   2.25053   2.27476   2.30057
 Alpha virt. eigenvalues --    2.31996   2.37602   2.38656   2.43095   2.47749
 Alpha virt. eigenvalues --    2.51296   2.52851   2.55582   2.61788   2.62129
 Alpha virt. eigenvalues --    2.63934   2.67278   2.70068   2.75397   2.76816
 Alpha virt. eigenvalues --    2.84846   2.90918   3.10686   3.33401   3.88772
 Alpha virt. eigenvalues --    4.02620   4.09796   4.12310   4.21629   4.24252
 Alpha virt. eigenvalues --    4.25860   4.37576   4.49109   4.61528
          Condensed to atoms (all electrons):
               1          2          3          4          5          6
     1  C    5.019560   0.380566   0.382436   0.382254   0.258232  -0.021425
     2  H    0.380566   0.476641  -0.025989  -0.024009  -0.023990  -0.001572
     3  H    0.382436  -0.025989   0.478414  -0.026858  -0.028283  -0.003009
     4  H    0.382254  -0.024009  -0.026858   0.484356  -0.032863   0.003301
     5  N    0.258232  -0.023990  -0.028283  -0.032863   6.673992   0.303109
     6  H   -0.021425  -0.001572  -0.003009   0.003301   0.303109   0.283718
     7  C   -0.037387   0.003143  -0.002563  -0.002085   0.214349  -0.021109
     8  H    0.003172  -0.000109  -0.000029   0.000062  -0.027426  -0.000819
     9  H   -0.002439  -0.000004  -0.000257   0.004760  -0.034769   0.003680
    10  C   -0.000660  -0.000043   0.003287  -0.000517  -0.038133  -0.003167
    11  H    0.001319  -0.000020   0.000793   0.000086  -0.001767  -0.000272
    12  H   -0.000080  -0.000011   0.000152   0.000018  -0.002713   0.003427
    13  C   -0.000062   0.000001  -0.000028  -0.000003   0.003691  -0.000047
    14  N   -0.000004   0.000000   0.000000   0.000000   0.000037  -0.000013
    15  C   -0.000000   0.000000  -0.000000  -0.000000   0.000003   0.000001
    16  H    0.000000   0.000000   0.000000  -0.000000  -0.000000  -0.000000
    17  C    0.000000  -0.000000  -0.000000   0.000000   0.000000  -0.000000
    18  H    0.000000  -0.000000  -0.000000   0.000000  -0.000000   0.000000
    19  C   -0.000000   0.000000  -0.000000  -0.000000   0.000001  -0.000000
    20  H   -0.000000  -0.000000   0.000000  -0.000000  -0.000000   0.000000
    21  C    0.000007  -0.000000   0.000016  -0.000014  -0.000007  -0.000006
    22  H    0.000016  -0.000000   0.000006   0.000006  -0.000048  -0.000000
    23  H   -0.020766  -0.002662   0.002982  -0.002230   0.306094  -0.012198
               7          8          9         10         11         12
     1  C   -0.037387   0.003172  -0.002439  -0.000660   0.001319  -0.000080
     2  H    0.003143  -0.000109  -0.000004  -0.000043  -0.000020  -0.000011
     3  H   -0.002563  -0.000029  -0.000257   0.003287   0.000793   0.000152
     4  H   -0.002085   0.000062   0.004760  -0.000517   0.000086   0.000018
     5  N    0.214349  -0.027426  -0.034769  -0.038133  -0.001767  -0.002713
     6  H   -0.021109  -0.000819   0.003680  -0.003167  -0.000272   0.003427
     7  C    5.033878   0.377119   0.384757   0.349773  -0.031419  -0.028038
     8  H    0.377119   0.501596  -0.020341  -0.057786   0.006076  -0.002481
     9  H    0.384757  -0.020341   0.493274  -0.043866  -0.004565   0.004298
    10  C    0.349773  -0.057786  -0.043866   5.215098   0.359640   0.362903
    11  H   -0.031419   0.006076  -0.004565   0.359640   0.557405  -0.026426
    12  H   -0.028038  -0.002481   0.004298   0.362903  -0.026426   0.519050
    13  C   -0.042494   0.000629  -0.001086   0.353084  -0.047237  -0.031633
    14  N   -0.008639   0.007234   0.000213  -0.099946   0.004493   0.007813
    15  C   -0.000324  -0.000197   0.000031   0.008848  -0.000391   0.000916
    16  H    0.000007   0.000002   0.000000  -0.000663   0.000015  -0.000095
    17  C   -0.000057   0.000002  -0.000018   0.001392   0.000034   0.000019
    18  H    0.000001  -0.000001  -0.000000   0.000018  -0.000002  -0.000002
    19  C    0.000194  -0.000018  -0.000066   0.004158   0.000382  -0.000103
    20  H   -0.000002   0.000001   0.000005  -0.000177  -0.000004   0.000005
    21  C   -0.004217   0.001771   0.003805  -0.078714  -0.000307   0.005123
    22  H   -0.000264  -0.000014   0.000979  -0.004394   0.003387  -0.000227
    23  H   -0.018867  -0.003081  -0.001175   0.003481  -0.000031   0.000010
              13         14         15         16         17         18
     1  C   -0.000062  -0.000004  -0.000000   0.000000   0.000000   0.000000
     2  H    0.000001   0.000000   0.000000   0.000000  -0.000000  -0.000000
     3  H   -0.000028   0.000000  -0.000000   0.000000  -0.000000  -0.000000
     4  H   -0.000003   0.000000  -0.000000  -0.000000   0.000000   0.000000
     5  N    0.003691   0.000037   0.000003  -0.000000   0.000000  -0.000000
     6  H   -0.000047  -0.000013   0.000001  -0.000000  -0.000000   0.000000
     7  C   -0.042494  -0.008639  -0.000324   0.000007  -0.000057   0.000001
     8  H    0.000629   0.007234  -0.000197   0.000002   0.000002  -0.000001
     9  H   -0.001086   0.000213   0.000031   0.000000  -0.000018  -0.000000
    10  C    0.353084  -0.099946   0.008848  -0.000663   0.001392   0.000018
    11  H   -0.047237   0.004493  -0.000391   0.000015   0.000034  -0.000002
    12  H   -0.031633   0.007813   0.000916  -0.000095   0.000019  -0.000002
    13  C    4.706795   0.453005  -0.065747   0.007398  -0.036292   0.000270
    14  N    0.453005   6.854063   0.446159  -0.062020  -0.035865   0.004398
    15  C   -0.065747   0.446159   4.811495   0.373993   0.500962  -0.038358
    16  H    0.007398  -0.062020   0.373993   0.569914  -0.049281  -0.002566
    17  C   -0.036292  -0.035865   0.500962  -0.049281   4.934141   0.361527
    18  H    0.000270   0.004398  -0.038358  -0.002566   0.361527   0.552535
    19  C   -0.024865  -0.037659  -0.028181   0.003142   0.548774  -0.042764
    20  H    0.003938   0.000003   0.004847  -0.000107  -0.040897  -0.005856
    21  C    0.508974  -0.045367  -0.041768   0.000733  -0.037670   0.005486
    22  H   -0.041308   0.004633   0.000079   0.000023   0.004320  -0.000102
    23  H   -0.000092  -0.000001  -0.000000   0.000000   0.000000  -0.000000
              19         20         21         22         23
     1  C   -0.000000  -0.000000   0.000007   0.000016  -0.020766
     2  H    0.000000  -0.000000  -0.000000  -0.000000  -0.002662
     3  H   -0.000000   0.000000   0.000016   0.000006   0.002982
     4  H   -0.000000  -0.000000  -0.000014   0.000006  -0.002230
     5  N    0.000001  -0.000000  -0.000007  -0.000048   0.306094
     6  H   -0.000000   0.000000  -0.000006  -0.000000  -0.012198
     7  C    0.000194  -0.000002  -0.004217  -0.000264  -0.018867
     8  H   -0.000018   0.000001   0.001771  -0.000014  -0.003081
     9  H   -0.000066   0.000005   0.003805   0.000979  -0.001175
    10  C    0.004158  -0.000177  -0.078714  -0.004394   0.003481
    11  H    0.000382  -0.000004  -0.000307   0.003387  -0.000031
    12  H   -0.000103   0.000005   0.005123  -0.000227   0.000010
    13  C   -0.024865   0.003938   0.508974  -0.041308  -0.000092
    14  N   -0.037659   0.000003  -0.045367   0.004633  -0.000001
    15  C   -0.028181   0.004847  -0.041768   0.000079  -0.000000
    16  H    0.003142  -0.000107   0.000733   0.000023   0.000000
    17  C    0.548774  -0.040897  -0.037670   0.004320   0.000000
    18  H   -0.042764  -0.005856   0.005486  -0.000102  -0.000000
    19  C    4.840957   0.367920   0.514163  -0.034729  -0.000000
    20  H    0.367920   0.541943  -0.042243  -0.003857   0.000000
    21  C    0.514163  -0.042243   5.015269   0.357179   0.000005
    22  H   -0.034729  -0.003857   0.357179   0.545125   0.000001
    23  H   -0.000000   0.000000   0.000005   0.000001   0.278528
 Mulliken charges:
               1
     1  C   -0.344737
     2  H    0.218057
     3  H    0.218928
     4  H    0.213735
     5  N   -0.569507
     6  H    0.466398
     7  C   -0.165754
     8  H    0.214639
     9  H    0.212785
    10  C   -0.333617
    11  H    0.178810
    12  H    0.188075
    13  C    0.253112
    14  N   -0.492537
    15  C    0.027633
    16  H    0.159505
    17  C   -0.151090
    18  H    0.165417
    19  C   -0.111305
    20  H    0.174480
    21  C   -0.162217
    22  H    0.169188
    23  H    0.470002
 Sum of Mulliken charges =   1.00000
 Mulliken charges with hydrogens summed into heavy atoms:
               1
     1  C    0.305983
     5  N    0.366893
     7  C    0.261670
    10  C    0.033268
    13  C    0.253112
    14  N   -0.492537
    15  C    0.187138
    17  C    0.014327
    19  C    0.063175
    21  C    0.006971
 Electronic spatial extent (au):  <R**2>=           1973.8511
 Charge=              1.0000 electrons
 Dipole moment (field-independent basis, Debye):
    X=             12.7894    Y=              0.4509    Z=             -1.7160  Tot=             12.9119
 Quadrupole moment (field-independent basis, Debye-Ang):
   XX=             -1.7827   YY=            -52.3813   ZZ=            -56.7965
   XY=             -7.9109   XZ=             -3.6262   YZ=              2.0836
 Traceless Quadrupole moment (field-independent basis, Debye-Ang):
   XX=             35.2041   YY=            -15.3945   ZZ=            -19.8096
   XY=             -7.9109   XZ=             -3.6262   YZ=              2.0836
 Octapole moment (field-independent basis, Debye-Ang**2):
  XXX=            153.1407  YYY=              4.3873  ZZZ=             -3.6008  XYY=             14.0291
  XXY=            -13.8050  XXZ=            -17.8927  XZZ=             24.7250  YZZ=             -3.3157
  YYZ=             -2.1735  XYZ=              3.2468
 Hexadecapole moment (field-independent basis, Debye-Ang**3):
 XXXX=          -1298.6967 YYYY=           -325.0472 ZZZZ=           -125.2006 XXXY=            -61.1780
 XXXZ=            -41.9187 YYYX=            -24.7852 YYYZ=              2.9249 ZZZX=            -19.2255
 ZZZY=              6.1520 XXYY=           -330.7542 XXZZ=           -349.1303 YYZZ=            -79.5507
 XXYZ=             12.7144 YYXZ=             -1.5582 ZZXY=             -6.5429
 N-N= 5.144037119402D+02 E-N=-1.994321039880D+03  KE= 4.181269262595D+02
 No NMR shielding tensors so no spin-rotation constants.
 Leave Link  601 at Sun Jul 18 13:37:29 2021, MaxMem=   104857600 cpu:               0.3 elap:               0.1
 (Enter /prod/apps/gaussian/g16b1/l701.exe)
 ... and contract with generalized density number  0.
 Compute integral first derivatives.
 D1PCM: PCM CHGder 1st derivatives, ID1Alg=3 FixD1E=F DoIter=F DoCFld=F I1PDM=0.
 GePol: Maximum number of non-zero 1st derivatives   =     200
 Leave Link  701 at Sun Jul 18 13:37:30 2021, MaxMem=   104857600 cpu:               3.9 elap:               1.0
 (Enter /prod/apps/gaussian/g16b1/l702.exe)
 L702 exits ... SP integral derivatives will be done elsewhere.
 Leave Link  702 at Sun Jul 18 13:37:30 2021, MaxMem=   104857600 cpu:               0.1 elap:               0.0
 (Enter /prod/apps/gaussian/g16b1/l703.exe)
 Integral derivatives from FoFJK, PRISM(SPDF).
 Compute integral first derivatives, UseDBF=F ICtDFT=           0.
 Calling FoFJK, ICntrl=      2127 FMM=F ISym2X=0 I1Cent= 0 IOpClX= 0 NMat=1 NMatS=1 NMatT=0.
 FoFJK:  IHMeth= 1 ICntrl=    2127 DoSepK=F KAlg= 0 I1Cent=           0 FoldK=F
 IRaf=         0 NMat=       1 IRICut=       1 DoRegI=T DoRafI=F ISym2E= 0 IDoP0=0 IntGTp=1.
 FoFCou: FMM=F IPFlag=           0 FMFlag=      100000 FMFlg1=         800
         NFxFlg=           0 DoJE=F BraDBF=F KetDBF=F FulRan=T
         wScrn=  0.000000 ICntrl=      2127 IOpCl=  0 I1Cent=           0 NGrid=           0
         NMat0=    1 NMatS0=      1 NMatT0=    0 NMatD0=    1 NMtDS0=    0 NMtDT0=    0
 Symmetry not used in FoFCou.
 Leave Link  703 at Sun Jul 18 13:37:34 2021, MaxMem=   104857600 cpu:              17.8 elap:               4.5
 (Enter /prod/apps/gaussian/g16b1/l716.exe)
 Dipole        = 5.03173853D+00 1.77396970D-01-6.75126143D-01
 ***** Axes restored to original set *****
 -------------------------------------------------------------------
 Center     Atomic                   Forces (Hartrees/Bohr)
 Number     Number              X              Y              Z
 -------------------------------------------------------------------
      1        6          -0.017264422   -0.017551275   -0.004383147
      2        1           0.006524943    0.005931779   -0.001295841
      3        1           0.008094747    0.004361401   -0.000729557
      4        1           0.003760474    0.004166733    0.000946491
      5        7          -0.005019415   -0.021349038   -0.009950231
      6        1           0.010266776    0.007911827    0.024375809
      7        6           0.000414093   -0.010320588    0.000440509
      8        1          -0.014627735    0.011423031   -0.004029404
      9        1          -0.000633819    0.011732063    0.000072595
     10        6          -0.035267790   -0.029750924    0.017126412
     11        1          -0.020075018    0.005539845    0.012154694
     12        1          -0.003026364    0.004788258   -0.001339873
     13        6           0.060348979   -0.010522481   -0.011517857
     14        7          -0.006995802    0.005935759   -0.042760971
     15        6          -0.002488536   -0.011556846    0.038550328
     16        1           0.011751933   -0.003389168   -0.019948283
     17        6           0.027865275    0.007783308   -0.004766346
     18        1           0.000128643    0.005481944   -0.001064274
     19        6          -0.043132965   -0.000083472   -0.000275660
     20        1           0.004645895    0.000145685    0.000744241
     21        6           0.019848518    0.001557767    0.025863976
     22        1           0.002200095    0.001610816   -0.013041771
     23        1          -0.007318503    0.026153577   -0.005171840
 -------------------------------------------------------------------
 Cartesian Forces:  Max     0.060348979 RMS     0.016400733
 Leave Link  716 at Sun Jul 18 13:37:34 2021, MaxMem=   104857600 cpu:               0.1 elap:               0.0
 (Enter /prod/apps/gaussian/g16b1/l103.exe)

 GradGradGradGradGradGradGradGradGradGradGradGradGradGradGradGradGradGrad
 Berny optimization.
 FormGI is forming the generalized inverse of G from B-inverse, IUseBI=4.
 Internal  Forces:  Max     0.071068092 RMS     0.011320729
 Search for a local minimum.
 Step number   1 out of a maximum of  126
 All quantities printed in internal units (Hartrees-Bohrs-Radians)
 RMS Force = .11321D-01 SwitMx=.10000D-02 MixMth= 1
 Mixed Optimization -- RFO/linear search
 Second derivative matrix not updated -- first step.
 ITU=  0
     Eigenvalues ---    0.00540   0.00608   0.00771   0.01643   0.01874
     Eigenvalues ---    0.01927   0.02105   0.02182   0.02238   0.02291
     Eigenvalues ---    0.02380   0.02436   0.03416   0.03856   0.04837
     Eigenvalues ---    0.04954   0.05062   0.05421   0.05498   0.05700
     Eigenvalues ---    0.08604   0.09016   0.09514   0.12151   0.12282
     Eigenvalues ---    0.12666   0.15154   0.15562   0.15957   0.16000
     Eigenvalues ---    0.16000   0.16000   0.16000   0.21764   0.21903
     Eigenvalues ---    0.22062   0.22229   0.22399   0.24093   0.24844
     Eigenvalues ---    0.32416   0.33775   0.34352   0.34423   0.34459
     Eigenvalues ---    0.34466   0.34482   0.34501   0.34588   0.34629
     Eigenvalues ---    0.35042   0.35142   0.35243   0.35258   0.40462
     Eigenvalues ---    0.40481   0.42041   0.45439   0.47679   0.47736
     Eigenvalues ---    0.48723   0.51710   0.53448
 RFO step:  Lambda=-5.41141152D-02 EMin= 5.40310032D-03
 Linear search not attempted -- first point.
 Maximum step size (   0.300) exceeded in Quadratic search.
    -- Step size scaled by   0.775
 Iteration  1 RMS(Cart)=  0.07939680 RMS(Int)=  0.00224586
 Iteration  2 RMS(Cart)=  0.00286249 RMS(Int)=  0.00116673
 Iteration  3 RMS(Cart)=  0.00001206 RMS(Int)=  0.00116672
 Iteration  4 RMS(Cart)=  0.00000004 RMS(Int)=  0.00116672
 ITry= 1 IFail=0 DXMaxC= 2.88D-01 DCOld= 1.00D+10 DXMaxT= 3.00D-01 DXLimC= 3.00D+00 Rises=F
 Variable       Old X    -DE/DX   Delta X   Delta X   Delta X     New X
                                 (Linear)    (Quad)   (Total)
    R1        2.06492  -0.00272   0.00000  -0.00529  -0.00529   2.05963
    R2        2.06563  -0.00271   0.00000  -0.00526  -0.00526   2.06037
    R3        2.06623  -0.00299   0.00000  -0.00582  -0.00582   2.06041
    R4        2.80040   0.00041   0.00000   0.00079   0.00079   2.80119
    R5        1.88921   0.02706   0.00000   0.03946   0.03946   1.92868
    R6        2.81011   0.00616   0.00000   0.01219   0.01219   2.82230
    R7        1.88983   0.02743   0.00000   0.04004   0.04004   1.92987
    R8        2.06523  -0.00190   0.00000  -0.00370  -0.00370   2.06154
    R9        2.06551  -0.00341   0.00000  -0.00663  -0.00663   2.05888
   R10        2.83390   0.02564   0.00000   0.05254   0.05254   2.88644
   R11        2.06350   0.00467   0.00000   0.00904   0.00904   2.07254
   R12        2.06281  -0.00179   0.00000  -0.00346  -0.00346   2.05935
   R13        2.70931   0.07107   0.00000   0.12008   0.12008   2.82939
   R14        2.57682   0.00176   0.00000   0.00179   0.00189   2.57870
   R15        2.67474  -0.01188   0.00000  -0.02095  -0.02079   2.65395
   R16        2.55276   0.00309   0.00000   0.00526   0.00522   2.55798
   R17        2.05607  -0.00035   0.00000  -0.00068  -0.00068   2.05539
   R18        2.63514  -0.00525   0.00000  -0.00606  -0.00625   2.62889
   R19        2.05259  -0.00100   0.00000  -0.00190  -0.00190   2.05069
   R20        2.58846   0.01776   0.00000   0.02489   0.02476   2.61323
   R21        2.05283  -0.00115   0.00000  -0.00219  -0.00219   2.05064
   R22        2.67611  -0.01441   0.00000  -0.02436  -0.02427   2.65184
   R23        2.05444  -0.00196   0.00000  -0.00374  -0.00374   2.05070
    A1        1.86201   0.00964   0.00000   0.03380   0.03320   1.89521
    A2        1.89136   0.00579   0.00000   0.02011   0.01990   1.91126
    A3        1.94983  -0.00902   0.00000  -0.03370  -0.03412   1.91571
    A4        1.87013   0.00702   0.00000   0.02741   0.02730   1.89743
    A5        1.96730  -0.00931   0.00000  -0.03328  -0.03365   1.93366
    A6        1.91958  -0.00268   0.00000  -0.00908  -0.00925   1.91034
    A7        1.88412   0.00371   0.00000   0.01226   0.01231   1.89643
    A8        2.03568  -0.00961   0.00000  -0.02562  -0.02554   2.01015
    A9        1.88467   0.00272   0.00000   0.00710   0.00715   1.89182
   A10        1.88442   0.00311   0.00000   0.00986   0.00993   1.89435
   A11        1.88610  -0.00353   0.00000  -0.01543  -0.01550   1.87061
   A12        1.88429   0.00370   0.00000   0.01149   0.01150   1.89579
   A13        1.94099  -0.00906   0.00000  -0.04981  -0.05003   1.89096
   A14        1.89932  -0.00077   0.00000  -0.01571  -0.01602   1.88329
   A15        1.99975  -0.00700   0.00000  -0.01273  -0.01216   1.98758
   A16        1.98408  -0.00372   0.00000  -0.02420  -0.02738   1.95670
   A17        1.77231   0.01504   0.00000   0.07448   0.07418   1.84649
   A18        1.86599   0.00651   0.00000   0.03474   0.03434   1.90033
   A19        2.03893  -0.01382   0.00000  -0.05950  -0.06397   1.97496
   A20        2.01525  -0.00741   0.00000  -0.04259  -0.04411   1.97114
   A21        1.83033   0.01765   0.00000   0.06089   0.06156   1.89189
   A22        1.89539   0.00469   0.00000   0.00290  -0.00022   1.89517
   A23        1.74273   0.01009   0.00000   0.08291   0.08469   1.82742
   A24        1.91718  -0.00817   0.00000  -0.02207  -0.02078   1.89640
   A25        1.91030   0.03643   0.00000   0.09657   0.09643   2.00673
   A26        2.18914  -0.01978   0.00000  -0.04746  -0.04783   2.14131
   A27        2.17450  -0.01623   0.00000  -0.04350  -0.04374   2.13077
   A28        2.01572   0.01469   0.00000   0.04001   0.03954   2.05526
   A29        1.85596   0.02485   0.00000   0.09370   0.09284   1.94881
   A30        2.14088  -0.00301   0.00000   0.00292   0.00113   2.14200
   A31        2.24584  -0.01936   0.00000  -0.06853  -0.07036   2.17548
   A32        2.10464   0.00211   0.00000   0.00147   0.00156   2.10620
   A33        2.09597  -0.00937   0.00000  -0.02111  -0.02148   2.07449
   A34        2.07979   0.00741   0.00000   0.02095   0.02103   2.10082
   A35        2.14448  -0.00602   0.00000  -0.02047  -0.02048   2.12400
   A36        2.07596   0.00292   0.00000   0.00795   0.00801   2.08397
   A37        2.06271   0.00310   0.00000   0.01249   0.01245   2.07516
   A38        2.02863   0.01318   0.00000   0.03616   0.03540   2.06403
   A39        2.00452   0.00399   0.00000   0.02994   0.02934   2.03386
   A40        2.20415  -0.01469   0.00000  -0.04218  -0.04400   2.16016
    D1        1.10759  -0.00057   0.00000  -0.00650  -0.00637   1.10122
    D2       -3.05173  -0.00018   0.00000  -0.00154  -0.00145  -3.05318
    D3       -0.92761   0.00020   0.00000   0.00147   0.00157  -0.92604
    D4       -0.98889  -0.00004   0.00000  -0.00267  -0.00278  -0.99167
    D5        1.13497   0.00035   0.00000   0.00228   0.00213   1.13711
    D6       -3.02409   0.00074   0.00000   0.00529   0.00515  -3.01894
    D7       -3.07456  -0.00099   0.00000  -0.00936  -0.00931  -3.08386
    D8       -0.95069  -0.00060   0.00000  -0.00440  -0.00439  -0.95508
    D9        1.17343  -0.00022   0.00000  -0.00139  -0.00137   1.17206
   D10        2.97687  -0.00665   0.00000  -0.04048  -0.03999   2.93689
   D11        0.77820   0.00506   0.00000   0.03698   0.03652   0.81472
   D12       -1.30914   0.00185   0.00000   0.01218   0.01212  -1.29702
   D13       -1.18261  -0.00595   0.00000  -0.03428  -0.03379  -1.21640
   D14        2.90191   0.00576   0.00000   0.04319   0.04271   2.94462
   D15        0.81456   0.00256   0.00000   0.01838   0.01832   0.83288
   D16        0.85255  -0.00652   0.00000  -0.04120  -0.04067   0.81189
   D17       -1.34611   0.00519   0.00000   0.03627   0.03584  -1.31028
   D18        2.84972   0.00198   0.00000   0.01146   0.01144   2.86117
   D19        1.26322  -0.00953   0.00000  -0.06888  -0.06706   1.19616
   D20       -0.99769   0.00539   0.00000   0.03294   0.03178  -0.96592
   D21       -3.11010   0.00746   0.00000   0.04253   0.04189  -3.06820
   D22       -2.92617  -0.01426   0.00000  -0.08730  -0.08605  -3.01222
   D23        1.09610   0.00066   0.00000   0.01452   0.01279   1.10889
   D24       -1.01630   0.00273   0.00000   0.02411   0.02290  -0.99340
   D25       -0.84264  -0.00881   0.00000  -0.06579  -0.06341  -0.90605
   D26       -3.10355   0.00610   0.00000   0.03604   0.03543  -3.06812
   D27        1.06723   0.00817   0.00000   0.04563   0.04554   1.11277
   D28        1.84124  -0.00140   0.00000  -0.03466  -0.03717   1.80407
   D29       -1.44099   0.00109   0.00000   0.00576   0.00485  -1.43614
   D30       -2.32435  -0.00591   0.00000  -0.04318  -0.04209  -2.36644
   D31        0.67660  -0.00342   0.00000  -0.00276  -0.00007   0.67653
   D32       -0.33459   0.00124   0.00000  -0.00851  -0.00948  -0.34407
   D33        2.66636   0.00373   0.00000   0.03192   0.03253   2.69890
   D34       -3.13355  -0.00231   0.00000  -0.00972  -0.00852   3.14111
   D35        0.14724  -0.00437   0.00000  -0.04920  -0.04975   0.09748
   D36       -2.91880  -0.00730   0.00000  -0.06929  -0.06885  -2.98766
   D37       -0.07716  -0.00224   0.00000  -0.00159   0.00129  -0.07587
   D38        0.06154  -0.00053   0.00000  -0.01242  -0.01314   0.04839
   D39        2.90318   0.00453   0.00000   0.05529   0.05700   2.96018
   D40        3.14031   0.00244   0.00000   0.00622   0.00147  -3.14140
   D41       -0.27967   0.00786   0.00000   0.08961   0.09157  -0.18810
   D42       -2.86000  -0.01044   0.00000  -0.09341  -0.09212  -2.95212
   D43        0.20083  -0.00792   0.00000  -0.07351  -0.07328   0.12754
   D44       -0.06298   0.00453   0.00000   0.04084   0.03938  -0.02360
   D45        2.99786   0.00705   0.00000   0.06074   0.05821   3.05607
   D46       -3.12164  -0.00146   0.00000  -0.00508  -0.00386  -3.12550
   D47        0.02800  -0.00077   0.00000  -0.00130  -0.00096   0.02703
   D48       -0.05966   0.00079   0.00000   0.01367   0.01402  -0.04564
   D49        3.08997   0.00148   0.00000   0.01745   0.01692   3.10690
   D50       -0.14779   0.00308   0.00000   0.03723   0.03801  -0.10978
   D51       -2.95028  -0.00715   0.00000  -0.05580  -0.05340  -3.00368
   D52        3.00147   0.00378   0.00000   0.04098   0.04098   3.04244
   D53        0.19897  -0.00645   0.00000  -0.05205  -0.05043   0.14854
         Item               Value     Threshold  Converged?
 Maximum Force            0.071068     0.000450     NO 
 RMS     Force            0.011321     0.000300     NO 
 Maximum Displacement     0.288389     0.001800     NO 
 RMS     Displacement     0.079562     0.001200     NO 
 Predicted change in Energy=-3.026178D-02
 Lowest energy point so far.  Saving SCF results.
 GradGradGradGradGradGradGradGradGradGradGradGradGradGradGradGradGradGrad

 Leave Link  103 at Sun Jul 18 13:37:34 2021, MaxMem=   104857600 cpu:               0.1 elap:               0.0
 (Enter /prod/apps/gaussian/g16b1/l202.exe)
                          Input orientation:                          
 ---------------------------------------------------------------------
 Center     Atomic      Atomic             Coordinates (Angstroms)
 Number     Number       Type             X           Y           Z
 ---------------------------------------------------------------------
      1          6           0       -3.254656    0.719054    1.361082
      2          1           0       -4.008098    1.180967    1.998941
      3          1           0       -2.982579   -0.246621    1.787928
      4          1           0       -3.669701    0.557217    0.365921
      5          7           0       -2.069471    1.604017    1.263768
      6          1           0       -1.658501    1.702679    2.192756
      7          6           0       -1.007162    1.141751    0.321246
      8          1           0       -0.298543    1.958266    0.175417
      9          1           0       -1.490449    0.847011   -0.609668
     10          6           0       -0.184739   -0.033979    0.845023
     11          1           0       -0.759061   -0.965860    0.912749
     12          1           0        0.270431    0.164765    1.815024
     13          6           0        0.901547   -0.327974   -0.142554
     14          7           0        2.142178    0.111563    0.217654
     15          6           0        3.166875   -0.125081   -0.634579
     16          1           0        4.106609    0.265528   -0.250732
     17          6           0        3.051859   -0.971775   -1.732381
     18          1           0        3.930853   -1.276390   -2.291123
     19          6           0        1.806965   -1.479325   -2.056314
     20          1           0        1.667054   -2.155128   -2.893733
     21          6           0        0.690260   -1.104035   -1.293839
     22          1           0       -0.292888   -1.550002   -1.404114
     23          1           0       -2.382784    2.531351    0.972525
 ---------------------------------------------------------------------
                    Distance matrix (angstroms):
                    1          2          3          4          5
     1  C    0.000000
     2  H    1.089909   0.000000
     3  H    1.090299   1.770373   0.000000
     4  H    1.090320   1.780542   1.772117   0.000000
     5  N    1.482327   2.116063   2.129171   2.112500   0.000000
     6  H    2.051076   2.414612   2.390990   2.948616   1.020612
     7  C    2.512202   3.438286   2.825067   2.726314   1.493498
     8  H    3.417609   4.205975   3.829591   3.655672   2.108598
     9  H    2.648141   3.640730   3.028357   2.405180   2.101925
    10  C    3.202775   4.174409   2.960101   3.567074   2.531915
    11  H    3.044328   4.042885   2.495451   3.330257   2.905970
    12  H    3.597157   4.401397   3.279031   4.216463   2.801869
    13  C    4.542159   5.564846   4.338181   4.683847   3.812779
    14  N    5.549980   6.491725   5.371888   5.830825   4.589091
    15  C    6.777262   7.753800   6.610529   6.943004   5.832051
    16  H    7.549295   8.470391   7.394255   7.806173   6.498402
    17  C    7.224995   8.270433   7.023736   7.205558   6.468357
    18  H    8.303730   9.352550   8.092875   8.257749   7.545720
    19  C    6.490875   7.572132   6.263983   6.325235   5.962944
    20  H    7.112496   8.202142   6.868729   6.816386   6.736291
    21  C    5.092604   6.175613   4.870544   4.952154   4.635841
    22  H    4.644027   5.730772   4.372913   4.356175   4.496852
    23  H    2.048306   2.349193   2.956647   2.433378   1.021242
                    6          7          8          9         10
     6  H    0.000000
     7  C    2.059474   0.000000
     8  H    2.446317   1.090919   0.000000
     9  H    2.934960   1.089513   1.808836   0.000000
    10  C    2.646571   1.527437   2.104843   2.144096   0.000000
    11  H    3.093301   2.203056   3.050615   2.477738   1.096739
    12  H    2.495724   2.195022   2.495734   3.073319   1.089762
    13  C    4.016351   2.453238   2.601580   2.705630   1.497250
    14  N    4.569227   3.315171   3.060917   3.797542   2.414397
    15  C    5.883773   4.465541   4.123779   4.757757   3.664810
    16  H    6.424370   5.219730   4.738389   5.638619   4.439149
    17  C    6.689313   5.015978   4.842524   5.020064   4.242410
    18  H    7.760213   6.087354   5.868101   6.060251   5.321381
    19  C    6.339495   4.521299   4.607691   4.286906   3.804427
    20  H    7.198220   5.325123   5.495750   4.919311   4.680460
    21  C    5.054767   3.245504   3.537533   3.005023   2.546640
    22  H    5.038085   3.276063   3.847453   2.794811   2.714524
    23  H    1.643243   2.060943   2.303881   2.477216   3.380618
                   11         12         13         14         15
    11  H    0.000000
    12  H    1.775463   0.000000
    13  C    2.068377   2.114997   0.000000
    14  N    3.171937   2.461272   1.364590   0.000000
    15  C    4.302802   3.804465   2.327007   1.353627   0.000000
    16  H    5.152160   4.358183   3.261344   2.025359   1.087665
    17  C    4.638951   4.648887   2.750613   2.409104   1.391147
    18  H    5.688279   5.686481   3.833084   3.379310   2.157154
    19  C    3.957710   4.477859   2.409951   2.795393   2.388443
    20  H    4.667944   5.431837   3.390203   3.878706   3.387378
    21  C    2.643607   3.383954   1.404411   2.422881   2.743464
    22  H    2.434418   3.690610   2.124043   3.364591   3.820018
    23  H    3.856233   3.653777   4.495106   5.186568   6.359098
                   16         17         18         19         20
    16  H    0.000000
    17  C    2.199705   0.000000
    18  H    2.563512   1.085178   0.000000
    19  C    3.404850   1.382860   2.146444   0.000000
    20  H    4.335488   2.160265   2.502020   1.085153   0.000000
    21  C    3.825600   2.405611   3.394956   1.403296   2.149089
    22  H    4.897143   3.410196   4.324539   2.199941   2.535057
    23  H    6.981586   7.008835   8.063021   6.543194   7.301523
                   21         22         23
    21  C    0.000000
[...]
 Estimated scratch disk usage=  1556574852 words.
 IMap=   1   2   3   4   5   6   7   8   9  10  11  12  13  14  15  16  17  18  19  20
 IMap=  21  22  23  24  25  26  27
 Actual    scratch disk usage=  1364208772 words.
 JobTyp=1 Pass  1:  I=   1 to  27 NPSUse=  4 ParTrn=T ParDer=T DoDerP=F.
 Spin components of T(2) and E(2):
     alpha-alpha T2 =       0.6928432156D-01 E2=     -0.1859285627D+00
     alpha-beta  T2 =       0.3763847839D+00 E2=     -0.1085992729D+01
     beta-beta   T2 =       0.6928432156D-01 E2=     -0.1859285627D+00
 The integrals were generated   1 times.
 ANorm=    0.1230834443D+01
 E2 =    -0.1457849854D+01 EUMP2 =    -0.42070904924908D+03
 Leave Link  906 at Sun Jul 18 13:52:44 2021, MaxMem=   262144000 cpu:             270.7 elap:              67.9
 (Enter /prod/apps/gaussian/g16b1/l601.exe)
 Copying SCF densities to generalized density rwf, IOpCl= 0 IROHF=0.

 **********************************************************************

            Population analysis using the SCF Density.

 **********************************************************************

 Orbital symmetries:
       Occupied  (A) (A) (A) (A) (A) (A) (A) (A) (A) (A) (A) (A)
                 (A) (A) (A) (A) (A) (A) (A) (A) (A) (A) (A) (A)
                 (A) (A) (A) (A) (A) (A) (A) (A) (A) (A) (A) (A)
                 (A)
       Virtual   (A) (A) (A) (A) (A) (A) (A) (A) (A) (A) (A) (A)
                 (A) (A) (A) (A) (A) (A) (A) (A) (A) (A) (A) (A)
                 (A) (A) (A) (A) (A) (A) (A) (A) (A) (A) (A) (A)
                 (A) (A) (A) (A) (A) (A) (A) (A) (A) (A) (A) (A)
                 (A) (A) (A) (A) (A) (A) (A) (A) (A) (A) (A) (A)
                 (A) (A) (A) (A) (A) (A) (A) (A) (A) (A) (A) (A)
                 (A) (A) (A) (A) (A) (A) (A) (A) (A) (A) (A) (A)
                 (A) (A) (A) (A) (A) (A) (A) (A) (A) (A) (A) (A)
                 (A) (A) (A) (A) (A) (A) (A) (A) (A) (A) (A) (A)
                 (A) (A) (A) (A) (A) (A) (A) (A) (A) (A) (A) (A)
                 (A) (A) (A) (A) (A) (A) (A) (A) (A) (A) (A) (A)
                 (A) (A) (A) (A) (A) (A) (A) (A) (A) (A) (A) (A)
                 (A) (A) (A) (A) (A) (A) (A) (A) (A) (A) (A) (A)
                 (A) (A) (A) (A) (A) (A) (A) (A) (A) (A) (A) (A)
                 (A) (A) (A) (A) (A) (A) (A) (A) (A) (A) (A) (A)
                 (A) (A) (A) (A) (A) (A) (A) (A) (A) (A) (A) (A)
                 (A) (A) (A) (A) (A) (A) (A) (A) (A) (A) (A) (A)
                 (A) (A) (A) (A) (A) (A) (A) (A) (A) (A) (A) (A)
                 (A) (A) (A) (A) (A) (A) (A) (A) (A) (A) (A) (A)
                 (A) (A) (A) (A) (A) (A) (A) (A) (A) (A) (A) (A)
                 (A) (A) (A) (A) (A) (A) (A) (A) (A) (A) (A) (A)
                 (A) (A) (A) (A) (A) (A) (A) (A) (A) (A) (A) (A)
                 (A) (A) (A) (A) (A) (A) (A) (A) (A) (A) (A) (A)
                 (A) (A) (A) (A) (A) (A) (A) (A) (A) (A) (A) (A)
                 (A) (A) (A) (A) (A) (A) (A) (A) (A) (A) (A) (A)
                 (A) (A) (A) (A) (A) (A) (A) (A) (A) (A)
 The electronic state is 1-A.
 Alpha  occ. eigenvalues --  -15.88021 -15.68671 -11.46769 -11.46022 -11.40833
 Alpha  occ. eigenvalues --  -11.39834 -11.38887 -11.37081 -11.35886 -11.35082
 Alpha  occ. eigenvalues --   -1.50131  -1.37602  -1.22832  -1.19700  -1.16001
 Alpha  occ. eigenvalues --   -1.12386  -1.04144  -0.97178  -0.96427  -0.92816
 Alpha  occ. eigenvalues --   -0.88966  -0.83294  -0.81196  -0.79610  -0.75992
 Alpha  occ. eigenvalues --   -0.75594  -0.75230  -0.73713  -0.70758  -0.69658
 Alpha  occ. eigenvalues --   -0.67950  -0.66559  -0.63913  -0.62691  -0.53144
 Alpha  occ. eigenvalues --   -0.48920  -0.45289
 Alpha virt. eigenvalues --   -0.09695  -0.07178  -0.07000  -0.05508  -0.03843
 Alpha virt. eigenvalues --   -0.03648  -0.03468  -0.03147  -0.02575  -0.01762
 Alpha virt. eigenvalues --   -0.01473  -0.01432  -0.00548   0.00184   0.00424
 Alpha virt. eigenvalues --    0.01025   0.01692   0.02050   0.02670   0.03051
 Alpha virt. eigenvalues --    0.03584   0.04123   0.04660   0.05031   0.05443
 Alpha virt. eigenvalues --    0.06297   0.06554   0.06719   0.06906   0.07358
 Alpha virt. eigenvalues --    0.07651   0.08065   0.08205   0.08539   0.09064
 Alpha virt. eigenvalues --    0.10092   0.10247   0.10423   0.10852   0.10969
 Alpha virt. eigenvalues --    0.11711   0.12401   0.13327   0.13667   0.13995
 Alpha virt. eigenvalues --    0.14691   0.15800   0.16658   0.17439   0.18443
 Alpha virt. eigenvalues --    0.19172   0.19357   0.20126   0.20858   0.21255
 Alpha virt. eigenvalues --    0.21392   0.22163   0.22917   0.23624   0.23939
 Alpha virt. eigenvalues --    0.24594   0.25159   0.25610   0.26071   0.27052
 Alpha virt. eigenvalues --    0.27499   0.28790   0.29362   0.29722   0.30236
 Alpha virt. eigenvalues --    0.30518   0.30932   0.31344   0.31502   0.32238
 Alpha virt. eigenvalues --    0.32623   0.33462   0.33805   0.34690   0.34941
 Alpha virt. eigenvalues --    0.35505   0.35956   0.36421   0.37198   0.38081
 Alpha virt. eigenvalues --    0.38600   0.39347   0.39721   0.41035   0.41566
 Alpha virt. eigenvalues --    0.42521   0.42618   0.43643   0.44356   0.45289
 Alpha virt. eigenvalues --    0.45553   0.46071   0.46875   0.47173   0.47410
 Alpha virt. eigenvalues --    0.48558   0.48818   0.49607   0.50161   0.50927
 Alpha virt. eigenvalues --    0.50973   0.52179   0.53313   0.54016   0.54870
 Alpha virt. eigenvalues --    0.55051   0.55349   0.55907   0.56742   0.57364
 Alpha virt. eigenvalues --    0.58763   0.59217   0.59871   0.60490   0.60886
 Alpha virt. eigenvalues --    0.61189   0.62010   0.62121   0.62496   0.63456
 Alpha virt. eigenvalues --    0.64209   0.65200   0.65546   0.66747   0.66861
 Alpha virt. eigenvalues --    0.67492   0.67660   0.69375   0.70192   0.71440
 Alpha virt. eigenvalues --    0.72504   0.74258   0.74727   0.75429   0.75632
 Alpha virt. eigenvalues --    0.75858   0.76745   0.78348   0.78857   0.79146
 Alpha virt. eigenvalues --    0.80529   0.81078   0.82318   0.83489   0.83599
 Alpha virt. eigenvalues --    0.84208   0.84829   0.86201   0.86525   0.87427
 Alpha virt. eigenvalues --    0.88669   0.89446   0.90062   0.91307   0.92246
 Alpha virt. eigenvalues --    0.92918   0.93842   0.96044   0.96256   0.97606
 Alpha virt. eigenvalues --    0.98991   0.99886   1.00988   1.02525   1.03034
 Alpha virt. eigenvalues --    1.05275   1.06257   1.07741   1.10072   1.10635
 Alpha virt. eigenvalues --    1.12915   1.14816   1.15979   1.18333   1.19951
 Alpha virt. eigenvalues --    1.23863   1.25503   1.28731   1.31217   1.31945
 Alpha virt. eigenvalues --    1.33390   1.34131   1.35417   1.37581   1.39154
 Alpha virt. eigenvalues --    1.42470   1.43396   1.45379   1.47310   1.48116
 Alpha virt. eigenvalues --    1.50063   1.50816   1.51469   1.52960   1.53942
 Alpha virt. eigenvalues --    1.54966   1.55512   1.57680   1.59514   1.60636
 Alpha virt. eigenvalues --    1.61447   1.62852   1.64501   1.65747   1.66818
 Alpha virt. eigenvalues --    1.67705   1.69391   1.70660   1.72623   1.72942
 Alpha virt. eigenvalues --    1.75516   1.76631   1.77624   1.78289   1.78923
 Alpha virt. eigenvalues --    1.80763   1.81402   1.83025   1.83327   1.84927
 Alpha virt. eigenvalues --    1.85466   1.89317   1.90197   1.91706   1.91712
 Alpha virt. eigenvalues --    1.92780   1.94524   1.96113   1.97659   1.99891
 Alpha virt. eigenvalues --    2.00089   2.01385   2.02414   2.03266   2.06524
 Alpha virt. eigenvalues --    2.07239   2.08570   2.09736   2.10296   2.10651
 Alpha virt. eigenvalues --    2.11804   2.13074   2.16189   2.16933   2.18342
 Alpha virt. eigenvalues --    2.19414   2.20537   2.21707   2.22146   2.24321
 Alpha virt. eigenvalues --    2.25324   2.26913   2.28300   2.30566   2.32631
 Alpha virt. eigenvalues --    2.34837   2.36412   2.37318   2.38146   2.40957
 Alpha virt. eigenvalues --    2.42991   2.44788   2.46657   2.46923   2.49873
 Alpha virt. eigenvalues --    2.53551   2.54964   2.56243   2.58683   2.59589
 Alpha virt. eigenvalues --    2.61934   2.64649   2.65470   2.68857   2.68989
 Alpha virt. eigenvalues --    2.71044   2.72939   2.73158   2.74022   2.75756
 Alpha virt. eigenvalues --    2.78579   2.80230   2.80697   2.82787   2.88234
 Alpha virt. eigenvalues --    2.90882   2.91714   2.94429   2.94883   2.96740
 Alpha virt. eigenvalues --    3.02586   3.03723   3.05533   3.09239   3.13706
 Alpha virt. eigenvalues --    3.19069   3.25383   3.25910   3.34329   3.42627
 Alpha virt. eigenvalues --    3.46461   3.52925   3.69955   3.89985   4.39506
          Condensed to atoms (all electrons):
               1          2          3          4          5          6
     1  C    3.949484   0.436699   0.375371   0.334881   0.121026  -0.030470
     2  H    0.436699   1.163040  -0.189389  -0.200907  -0.122284  -0.005294
     3  H    0.375371  -0.189389   1.023538  -0.079513  -0.010974  -0.010388
     4  H    0.334881  -0.200907  -0.079513   1.014563   0.021876   0.017158
     5  N    0.121026  -0.122284  -0.010974   0.021876   7.021735   0.425103
     6  H   -0.030470  -0.005294  -0.010388   0.017158   0.425103   0.560277
     7  C    0.017413   0.046233   0.007170  -0.044257  -0.182063  -0.037080
     8  H   -0.009226   0.003231   0.001944  -0.005629  -0.115178  -0.012590
     9  H    0.019719   0.003963  -0.016843   0.010554  -0.108790   0.029034
    10  C    0.023967  -0.007424  -0.022040   0.037815  -0.047383  -0.050673
    11  H   -0.001159  -0.005285  -0.017443   0.004524  -0.003410  -0.014733
    12  H    0.009036   0.000484  -0.008499  -0.002414   0.007664   0.010163
    13  C   -0.042379  -0.011130   0.013068  -0.005290   0.031959   0.007870
    14  N    0.003219   0.000147   0.002847  -0.001032   0.023289   0.001472
    15  C   -0.004270  -0.000027  -0.000808  -0.000392  -0.011470  -0.001045
    16  H   -0.000194   0.000006  -0.000043  -0.000044  -0.000626   0.000110
    17  C    0.002498  -0.000178   0.001363   0.000214   0.010414   0.001008
    18  H   -0.000004  -0.000003  -0.000021   0.000002   0.000144  -0.000012
    19  C   -0.003100   0.000590  -0.002850  -0.000917  -0.010236  -0.001236
    20  H    0.000007  -0.000001  -0.000053   0.000071   0.000007  -0.000013
    21  C    0.008035   0.002790   0.000458  -0.003946   0.044753   0.009650
    22  H    0.001819   0.001084  -0.001796  -0.001415  -0.003817   0.000027
    23  H   -0.041269  -0.005148   0.015372  -0.027547   0.516252  -0.081870
               7          8          9         10         11         12
     1  C    0.017413  -0.009226   0.019719   0.023967  -0.001159   0.009036
     2  H    0.046233   0.003231   0.003963  -0.007424  -0.005285   0.000484
     3  H    0.007170   0.001944  -0.016843  -0.022040  -0.017443  -0.008499
     4  H   -0.044257  -0.005629   0.010554   0.037815   0.004524  -0.002414
     5  N   -0.182063  -0.115178  -0.108790  -0.047383  -0.003410   0.007664
     6  H   -0.037080  -0.012590   0.029034  -0.050673  -0.014733   0.010163
     7  C    4.757490   0.345406   0.145309   0.370135  -0.047378  -0.125782
     8  H    0.345406   1.281647  -0.217342  -0.187554   0.089457  -0.058759
     9  H    0.145309  -0.217342   1.479516   0.019708  -0.117366   0.077433
    10  C    0.370135  -0.187554   0.019708   6.282279  -0.126728   0.289563
    11  H   -0.047378   0.089457  -0.117366  -0.126728   1.564579  -0.111939
    12  H   -0.125782  -0.058759   0.077433   0.289563  -0.111939   1.040884
    13  C    0.046341   0.087068  -0.160880  -0.653771   0.337700  -0.257687
    14  N   -0.043385  -0.031001   0.017577   0.077063  -0.047773   0.032994
    15  C    0.011194   0.003432  -0.009325  -0.340044   0.012911  -0.016705
    16  H    0.010269  -0.000691   0.000720   0.012517  -0.000079  -0.001138
    17  C   -0.012655  -0.016076   0.005553   0.289200  -0.027055   0.015732
    18  H   -0.002385  -0.000083   0.000426  -0.014164   0.000469   0.000199
    19  C    0.049349   0.022100  -0.000900  -0.460857   0.055202  -0.018436
    20  H   -0.003161   0.000421  -0.001558   0.056634   0.005717   0.001703
    21  C   -0.192379  -0.021323   0.100994   0.116301  -0.270199   0.156848
    22  H    0.028848  -0.001688   0.014349  -0.090222  -0.064370   0.008324
    23  H   -0.085578  -0.026625  -0.057342   0.038954   0.006418  -0.004687
              13         14         15         16         17         18
     1  C   -0.042379   0.003219  -0.004270  -0.000194   0.002498  -0.000004
     2  H   -0.011130   0.000147  -0.000027   0.000006  -0.000178  -0.000003
     3  H    0.013068   0.002847  -0.000808  -0.000043   0.001363  -0.000021
     4  H   -0.005290  -0.001032  -0.000392  -0.000044   0.000214   0.000002
     5  N    0.031959   0.023289  -0.011470  -0.000626   0.010414   0.000144
     6  H    0.007870   0.001472  -0.001045   0.000110   0.001008  -0.000012
     7  C    0.046341  -0.043385   0.011194   0.010269  -0.012655  -0.002385
     8  H    0.087068  -0.031001   0.003432  -0.000691  -0.016076  -0.000083
     9  H   -0.160880   0.017577  -0.009325   0.000720   0.005553   0.000426
    10  C   -0.653771   0.077063  -0.340044   0.012517   0.289200  -0.014164
    11  H    0.337700  -0.047773   0.012911  -0.000079  -0.027055   0.000469
    12  H   -0.257687   0.032994  -0.016705  -0.001138   0.015732   0.000199
    13  C    8.123067  -0.204925   0.396168   0.180037  -0.977269  -0.024381
    14  N   -0.204925   7.704753   0.232085  -0.173808   0.193177  -0.033330
    15  C    0.396168   0.232085   6.184183   0.088004  -0.886198   0.101488
    16  H    0.180037  -0.173808   0.088004   1.346630  -0.018122  -0.047213
    17  C   -0.977269   0.193177  -0.886198  -0.018122   6.477184  -0.299089
    18  H   -0.024381  -0.033330   0.101488  -0.047213  -0.299089   1.498513
    19  C    1.128525  -0.375438   1.032043   0.042302  -1.056398   0.321420
    20  H   -0.134198   0.032118  -0.149710  -0.007802   0.250222  -0.059901
    21  C   -2.452120   0.364061  -1.116743  -0.080722   1.158514  -0.035642
    22  H    0.273729  -0.015200   0.029857   0.000306  -0.050841  -0.008439
    23  H   -0.003154   0.001457   0.000758   0.000037   0.000175  -0.000015
              19         20         21         22         23
     1  C   -0.003100   0.000007   0.008035   0.001819  -0.041269
     2  H    0.000590  -0.000001   0.002790   0.001084  -0.005148
     3  H   -0.002850  -0.000053   0.000458  -0.001796   0.015372
     4  H   -0.000917   0.000071  -0.003946  -0.001415  -0.027547
     5  N   -0.010236   0.000007   0.044753  -0.003817   0.516252
     6  H   -0.001236  -0.000013   0.009650   0.000027  -0.081870
     7  C    0.049349  -0.003161  -0.192379   0.028848  -0.085578
     8  H    0.022100   0.000421  -0.021323  -0.001688  -0.026625
     9  H   -0.000900  -0.001558   0.100994   0.014349  -0.057342
    10  C   -0.460857   0.056634   0.116301  -0.090222   0.038954
    11  H    0.055202   0.005717  -0.270199  -0.064370   0.006418
    12  H   -0.018436   0.001703   0.156848   0.008324  -0.004687
    13  C    1.128525  -0.134198  -2.452120   0.273729  -0.003154
    14  N   -0.375438   0.032118   0.364061  -0.015200   0.001457
    15  C    1.032043  -0.149710  -1.116743   0.029857   0.000758
    16  H    0.042302  -0.007802  -0.080722   0.000306   0.000037
    17  C   -1.056398   0.250222   1.158514  -0.050841   0.000175
    18  H    0.321420  -0.059901  -0.035642  -0.008439  -0.000015
    19  C    7.658190  -0.453518  -2.032377   0.295045  -0.000173
    20  H   -0.453518   1.558298   0.388941  -0.091412  -0.000006
    21  C   -2.032377   0.388941   9.613763  -0.711186  -0.003916
    22  H    0.295045  -0.091412  -0.711186   1.949835  -0.000490
    23  H   -0.000173  -0.000006  -0.003916  -0.000490   0.586064
 Mulliken charges:
               1
     1  C    0.828898
     2  H   -0.111197
     3  H   -0.080471
     4  H   -0.068352
     5  N   -0.607989
     6  H    0.183533
     7  C    0.940946
     8  H   -0.130941
     9  H   -0.234509
    10  C    0.386725
    11  H   -0.222058
    12  H   -0.044980
    13  C    0.301652
    14  N   -0.760366
    15  C    0.444614
    16  H   -0.350457
    17  C    0.938627
    18  H   -0.397976
    19  C   -0.188331
    20  H   -0.392803
    21  C    0.955446
    22  H   -0.562346
    23  H    0.172334
 Sum of Mulliken charges =   1.00000
 Mulliken charges with hydrogens summed into heavy atoms:
               1
     1  C    0.568877
     5  N   -0.252122
     7  C    0.575496
    10  C    0.119687
    13  C    0.301652
    14  N   -0.760366
    15  C    0.094158
    17  C    0.540651
    19  C   -0.581133
    21  C    0.393101
 Electronic spatial extent (au):  <R**2>=           2032.2287
 Charge=              1.0000 electrons
 Dipole moment (field-independent basis, Debye):
    X=             10.7272    Y=              0.1321    Z=             -1.0835  Tot=             10.7826
 Quadrupole moment (field-independent basis, Debye-Ang):
   XX=              1.6626   YY=            -51.4732   ZZ=            -58.9108
   XY=             -5.5710   XZ=              0.4174   YZ=              0.7871
 Traceless Quadrupole moment (field-independent basis, Debye-Ang):
   XX=             37.9031   YY=            -15.2328   ZZ=            -22.6703
   XY=             -5.5710   XZ=              0.4174   YZ=              0.7871
 Octapole moment (field-independent basis, Debye-Ang**2):
  XXX=            140.3208  YYY=              1.8110  ZZZ=             -1.1782  XYY=             12.5521
  XXY=            -15.7863  XXZ=            -16.1592  XZZ=             24.9691  YZZ=             -3.2355
  YYZ=             -3.5173  XYZ=              1.9592
 Hexadecapole moment (field-independent basis, Debye-Ang**3):
 XXXX=          -1305.6746 YYYY=           -335.0714 ZZZZ=           -127.0490 XXXY=            -39.9720
 XXXZ=             12.3560 YYYX=            -17.4711 YYYZ=              3.8699 ZZZX=             -9.2594
 ZZZY=             -1.6553 XXYY=           -322.7585 XXZZ=           -373.6577 YYZZ=            -83.2275
 XXYZ=             -2.0275 YYXZ=              2.0162 ZZXY=             -6.5074
 N-N= 5.091477236230D+02 E-N=-1.983300816423D+03  KE= 4.186785802040D+02
 Leave Link  601 at Sun Jul 18 13:52:44 2021, MaxMem=   262144000 cpu:               0.3 elap:               0.1
 (Enter /prod/apps/gaussian/g16b1/l9999.exe)
 1\1\GINC-PIRINEUS28\SP\RMP2-FC\Aug-CC-pVDZ\C8H13N2(1+)\UBATOR02\18-Jul
 -2021\0\\#p mp2/aug-cc-pVDZ scf=tight maxdisk=180GB geom=allcheck\\SET
 _328_BBB256_conf1.geo_285_180_105 geometry\\1,1\C,0,-3.2442285946,0.80
 2846027,1.2552739782\H,0,-3.9717239879,1.1829556554,1.9693976761\H,0,-
 3.0211971585,-0.240382729,1.4652371709\H,0,-3.6161632884,0.9146850151,
 0.2394182015\N,0,-1.9930546991,1.606082975,1.3876896183\H,0,-1.6522567
 861,1.5518595989,2.3584703533\C,0,-0.885967264,1.2181945784,0.44987860
 71\H,0,-0.1123198437,1.9776286515,0.5496831864\H,0,-1.298389158,1.2661
 491897,-0.5580315105\C,0,-0.3127108062,-0.162531647,0.7613653302\H,0,-
 1.0748972621,-0.9339493785,0.6377276971\H,0,0.0263710266,-0.1866959951
 ,1.80407645\C,0,0.8581691183,-0.4588411764,-0.1503226314\N,0,1.9451987
 473,0.319091227,0.0008436881\C,0,2.9967363022,0.0896275772,-0.79673701
 05\H,0,3.8587860062,0.7348356699,-0.6478335005\C,0,3.0258064582,-0.908
 704858,-1.7703594659\H,0,3.9063395084,-1.0480558978,-2.3856297044\C,0,
 1.8969530822,-1.7109017599,-1.9225322749\H,0,1.8730597402,-2.500236634
 2,-2.6661946189\C,0,0.7948935696,-1.4815824208,-1.1006088349\H,0,-0.10
 26579333,-2.0839680669,-1.188059173\H,0,-2.2207467775,2.5998943984,1.2
 282467679\\Version=ES64L-G16RevB.01\State=1-A\HF=-419.2511994\MP2=-420
 .7090492\RMSD=9.174e-09\PG=C01 [X(C8H13N2)]\\@


 "A LITTLE BIT GOES A LONG WAY"
 R.S. MULLIKEN AS QUOTED BY K. RUEDENBERG
 Job cpu time:       0 days  0 hours 12 minutes 55.2 seconds.
 Elapsed time:       0 days  0 hours  3 minutes 14.2 seconds.
 File lengths (MBytes):  RWF=  10476 Int=      0 D2E=      0 Chk=     11 Scr=      1
 Normal termination of Gaussian 16 at Sun Jul 18 13:52:45 2021.
