 Entering Gaussian System, Link 0=g16
 Initial command:
 /prod/apps/gaussian/g16b1/l1.exe "/tmp/ubator02/1839488/Gau-113080.inp" -scrdir="/tmp/ubator02/1839488/"
 Entering Link 1 = /prod/apps/gaussian/g16b1/l1.exe PID=    113083.
  
 Copyright (c) 1988-2017, Gaussian, Inc.  All Rights Reserved.
  
 This is part of the Gaussian(R) 16 program.  It is based on
 the Gaussian(R) 09 system (copyright 2009, Gaussian, Inc.),
 the Gaussian(R) 03 system (copyright 2003, Gaussian, Inc.),
 the Gaussian(R) 98 system (copyright 1998, Gaussian, Inc.),
 the Gaussian(R) 94 system (copyright 1995, Gaussian, Inc.),
 the Gaussian 92(TM) system (copyright 1992, Gaussian, Inc.),
 the Gaussian 90(TM) system (copyright 1990, Gaussian, Inc.),
 the Gaussian 88(TM) system (copyright 1988, Gaussian, Inc.),
 the Gaussian 86(TM) system (copyright 1986, Carnegie Mellon
 University), and the Gaussian 82(TM) system (copyright 1983,
 Carnegie Mellon University). Gaussian is a federally registered
 trademark of Gaussian, Inc.
  
 This software contains proprietary and confidential information,
 including trade secrets, belonging to Gaussian, Inc.
  
 This software is provided under written license and may be
 used, copied, transmitted, or stored only in accord with that
 written license.
  
 The following legend is applicable only to US Government
 contracts under FAR:
  
                    RESTRICTED RIGHTS LEGEND
  
 Use, reproduction and disclosure by the US Government is
 subject to restrictions as set forth in subparagraphs (a)
 and (c) of the Commercial Computer Software - Restricted
 Rights clause in FAR 52.227-19.
  
 Gaussian, Inc.
 340 Quinnipiac St., Bldg. 40, Wallingford CT 06492
  
  
 ---------------------------------------------------------------
 Warning -- This program may not be used in any manner that
 competes with the business of Gaussian, Inc. or will provide
 assistance to any competitor of Gaussian, Inc.  The licensee
 of this program is prohibited from giving any competitor of
 Gaussian, Inc. access to this program.  By using this program,
 the user acknowledges that Gaussian, Inc. is engaged in the
 business of creating and licensing software in the field of
 computational chemistry and represents and warrants to the
 licensee that it is not a competitor of Gaussian, Inc. and that
 it will not use this program in any manner prohibited above.
 ---------------------------------------------------------------
  

 Cite this work as:
 Gaussian 16, Revision B.01,
 M. J. Frisch, G. W. Trucks, H. B. Schlegel, G. E. Scuseria, 
 M. A. Robb, J. R. Cheeseman, G. Scalmani, V. Barone, 
 G. A. Petersson, H. Nakatsuji, X. Li, M. Caricato, A. V. Marenich, 
 J. Bloino, B. G. Janesko, R. Gomperts, B. Mennucci, H. P. Hratchian, 
 J. V. Ortiz, A. F. Izmaylov, J. L. Sonnenberg, D. Williams-Young, 
 F. Ding, F. Lipparini, F. Egidi, J. Goings, B. Peng, A. Petrone, 
 T. Henderson, D. Ranasinghe, V. G. Zakrzewski, J. Gao, N. Rega, 
 G. Zheng, W. Liang, M. Hada, M. Ehara, K. Toyota, R. Fukuda, 
 J. Hasegawa, M. Ishida, T. Nakajima, Y. Honda, O. Kitao, H. Nakai, 
 T. Vreven, K. Throssell, J. A. Montgomery, Jr., J. E. Peralta, 
 F. Ogliaro, M. J. Bearpark, J. J. Heyd, E. N. Brothers, K. N. Kudin, 
 V. N. Staroverov, T. A. Keith, R. Kobayashi, J. Normand, 
 K. Raghavachari, A. P. Rendell, J. C. Burant, S. S. Iyengar, 
 J. Tomasi, M. Cossi, J. M. Millam, M. Klene, C. Adamo, R. Cammi, 
 J. W. Ochterski, R. L. Martin, K. Morokuma, O. Farkas, 
 J. B. Foresman, and D. J. Fox, Gaussian, Inc., Wallingford CT, 2016.
 
 ******************************************
 Gaussian 16:  ES64L-G16RevB.01 20-Dec-2017
                18-Jul-2021 
 ******************************************
 %mem=800MB
 %nproc=4
 Will use up to    4 processors via shared memory.
 %chk=SET_328_BBB20_conf1.geo_090_075_060.chk
 -----------------------------------------------------------
 #p b3lyp/6-31G(d) opt freq scrf=(iefpcm,read,solvent=water)
 -----------------------------------------------------------
 1/18=20,19=15,26=3,38=1,40=2/1,3;
 2/9=110,12=2,17=6,18=5,40=1/2;
 3/5=1,6=6,7=1,11=2,25=1,30=1,70=2203,71=1,72=1,74=-5/1,2,3;
 4//1;
 5/5=2,38=5,53=1/2;
 6/7=2,8=2,9=2,10=2,28=1/1;
 7//1,2,3,16;
 1/18=20,19=15,26=3/3(2);
 2/9=110/2;
 99//99;
 2/9=110/2;
 3/5=1,6=6,7=1,11=2,25=1,30=1,70=2205,71=1,72=1,74=-5/1,2,3;
 4/5=5,16=3,69=1/1;
 5/5=2,38=5,53=1/2;
 7//1,2,3,16;
 1/18=20,19=15,26=3/3(-5);
 2/9=110/2;
 6/7=2,8=2,9=2,10=2,19=2,28=1/1;
 99/9=1/99;
 Leave Link    1 at Sun Jul 18 13:28:51 2021, MaxMem=   104857600 cpu:               0.1 elap:               0.0
 (Enter /prod/apps/gaussian/g16b1/l101.exe)
 --------------------------------------------
 SET_328_BBB20_conf1.geo_090_075_060 geometry
 --------------------------------------------
 Symbolic Z-matrix:
 Charge =  1 Multiplicity = 1
 N                    -1.404     0.205     3.658 
 H                    -0.902    -0.652     3.542 
 H                    -2.383     0.036     3.547 
 C                    -0.957     1.175     2.647 
 H                    -1.242     2.154     3.041 
 H                    -1.5       0.965     1.722 
 C                     0.565     1.182     2.28 
 H                     1.226     1.35      3.133 
 H                     0.854     1.984     1.596 
 C                     1.026    -0.135     1.697 
 H                     0.77     -0.926     2.407 
 H                     2.111    -0.005     1.723 
 N                     0.682    -0.427     0.277 
 C                     1.474    -0.064    -0.715 
 C                     2.809    -0.597    -0.831 
 H                     3.063    -1.331    -0.07 
 C                     3.603    -0.183    -1.915 
 H                     4.59     -0.635    -1.975 
 C                     3.176     0.77     -2.846 
 H                     3.752     1.05     -3.725 
 C                     1.935     1.383    -2.647 
 H                     1.576     2.049    -3.428 
 C                     1.134     1.007    -1.583 
 C                    -0.198     1.745    -1.475 
 H                    -0.189     2.596    -2.159 
 H                    -0.348     2.086    -0.449 
 C                    -1.279     0.756    -1.864 
 H                    -1.122     0.362    -2.87 
 H                    -2.155     1.408    -1.887 
 C                    -1.496    -0.409    -0.887 
 C                    -2.653    -1.15     -1.124 
 H                    -3.27     -0.755    -1.927 
 C                    -3.03     -2.255    -0.336 
 H                    -4.038    -2.647    -0.441 
 C                    -2.16     -2.747     0.625 
 H                    -2.379    -3.539     1.336 
 C                    -0.875    -2.136     0.76 
 H                    -0.177    -2.621     1.438 
 C                    -0.566    -0.938     0.065 
 H                    -1.23      0.572     4.572 
 
 ITRead=  0  0  0  0  0  0  0  0  0  0  0  0  0  0  0  0  0  0  0  0
 ITRead=  0  0  0  0  0  0  0  0  0  0  0  0  0  0  0  0  0  0  0  0
 MicOpt= -1 -1 -1 -1 -1 -1 -1 -1 -1 -1 -1 -1 -1 -1 -1 -1 -1 -1 -1 -1
 MicOpt= -1 -1 -1 -1 -1 -1 -1 -1 -1 -1 -1 -1 -1 -1 -1 -1 -1 -1 -1 -1
 NAtoms=     40 NQM=       40 NQMF=       0 NMMI=      0 NMMIF=      0
                NMic=       0 NMicF=      0.
                    Isotopes and Nuclear Properties:
 (Nuclear quadrupole moments (NQMom) in fm**2, nuclear magnetic moments (NMagM)
  in nuclear magnetons)

  Atom         1           2           3           4           5           6           7           8           9          10
 IAtWgt=          14           1           1          12           1           1          12           1           1          12
 AtmWgt=  14.0030740   1.0078250   1.0078250  12.0000000   1.0078250   1.0078250  12.0000000   1.0078250   1.0078250  12.0000000
 NucSpn=           2           1           1           0           1           1           0           1           1           0
 AtZEff=  -0.0000000  -0.0000000  -0.0000000  -0.0000000  -0.0000000  -0.0000000  -0.0000000  -0.0000000  -0.0000000  -0.0000000
 NQMom=    2.0440000   0.0000000   0.0000000   0.0000000   0.0000000   0.0000000   0.0000000   0.0000000   0.0000000   0.0000000
 NMagM=    0.4037610   2.7928460   2.7928460   0.0000000   2.7928460   2.7928460   0.0000000   2.7928460   2.7928460   0.0000000
 AtZNuc=   7.0000000   1.0000000   1.0000000   6.0000000   1.0000000   1.0000000   6.0000000   1.0000000   1.0000000   6.0000000

  Atom        11          12          13          14          15          16          17          18          19          20
 IAtWgt=           1           1          14          12          12           1          12           1          12           1
 AtmWgt=   1.0078250   1.0078250  14.0030740  12.0000000  12.0000000   1.0078250  12.0000000   1.0078250  12.0000000   1.0078250
 NucSpn=           1           1           2           0           0           1           0           1           0           1
 AtZEff=  -0.0000000  -0.0000000  -0.0000000  -0.0000000  -0.0000000  -0.0000000  -0.0000000  -0.0000000  -0.0000000  -0.0000000
 NQMom=    0.0000000   0.0000000   2.0440000   0.0000000   0.0000000   0.0000000   0.0000000   0.0000000   0.0000000   0.0000000
 NMagM=    2.7928460   2.7928460   0.4037610   0.0000000   0.0000000   2.7928460   0.0000000   2.7928460   0.0000000   2.7928460
 AtZNuc=   1.0000000   1.0000000   7.0000000   6.0000000   6.0000000   1.0000000   6.0000000   1.0000000   6.0000000   1.0000000

  Atom        21          22          23          24          25          26          27          28          29          30
 IAtWgt=          12           1          12          12           1           1          12           1           1          12
 AtmWgt=  12.0000000   1.0078250  12.0000000  12.0000000   1.0078250   1.0078250  12.0000000   1.0078250   1.0078250  12.0000000
 NucSpn=           0           1           0           0           1           1           0           1           1           0
 AtZEff=  -0.0000000  -0.0000000  -0.0000000  -0.0000000  -0.0000000  -0.0000000  -0.0000000  -0.0000000  -0.0000000  -0.0000000
 NQMom=    0.0000000   0.0000000   0.0000000   0.0000000   0.0000000   0.0000000   0.0000000   0.0000000   0.0000000   0.0000000
 NMagM=    0.0000000   2.7928460   0.0000000   0.0000000   2.7928460   2.7928460   0.0000000   2.7928460   2.7928460   0.0000000
 AtZNuc=   6.0000000   1.0000000   6.0000000   6.0000000   1.0000000   1.0000000   6.0000000   1.0000000   1.0000000   6.0000000

  Atom        31          32          33          34          35          36          37          38          39          40
 IAtWgt=          12           1          12           1          12           1          12           1          12           1
 AtmWgt=  12.0000000   1.0078250  12.0000000   1.0078250  12.0000000   1.0078250  12.0000000   1.0078250  12.0000000   1.0078250
 NucSpn=           0           1           0           1           0           1           0           1           0           1
 AtZEff=  -0.0000000  -0.0000000  -0.0000000  -0.0000000  -0.0000000  -0.0000000  -0.0000000  -0.0000000  -0.0000000  -0.0000000
 NQMom=    0.0000000   0.0000000   0.0000000   0.0000000   0.0000000   0.0000000   0.0000000   0.0000000   0.0000000   0.0000000
 NMagM=    0.0000000   2.7928460   0.0000000   2.7928460   0.0000000   2.7928460   0.0000000   2.7928460   0.0000000   2.7928460
 AtZNuc=   6.0000000   1.0000000   6.0000000   1.0000000   6.0000000   1.0000000   6.0000000   1.0000000   6.0000000   1.0000000
 Leave Link  101 at Sun Jul 18 13:28:51 2021, MaxMem=   104857600 cpu:               0.5 elap:               0.1
 (Enter /prod/apps/gaussian/g16b1/l103.exe)

 GradGradGradGradGradGradGradGradGradGradGradGradGradGradGradGradGradGrad
 Berny optimization.
 Initialization pass.
                           ----------------------------
                           !    Initial Parameters    !
                           ! (Angstroms and Degrees)  !
 --------------------------                            --------------------------
 ! Name  Definition              Value          Derivative Info.                !
 --------------------------------------------------------------------------------
 ! R1    R(1,2)                  1.0            estimate D2E/DX2                !
 ! R2    R(1,3)                  0.9997         estimate D2E/DX2                !
 ! R3    R(1,4)                  1.4707         estimate D2E/DX2                !
 ! R4    R(1,40)                 1.0002         estimate D2E/DX2                !
 ! R5    R(4,5)                  1.0931         estimate D2E/DX2                !
 ! R6    R(4,6)                  1.093          estimate D2E/DX2                !
 ! R7    R(4,7)                  1.5656         estimate D2E/DX2                !
 ! R8    R(7,8)                  1.0921         estimate D2E/DX2                !
 ! R9    R(7,9)                  1.093          estimate D2E/DX2                !
 ! R10   R(7,10)                 1.5122         estimate D2E/DX2                !
 ! R11   R(10,11)                1.0933         estimate D2E/DX2                !
 ! R12   R(10,12)                1.0931         estimate D2E/DX2                !
 ! R13   R(10,13)                1.49           estimate D2E/DX2                !
 ! R14   R(13,14)                1.3203         estimate D2E/DX2                !
 ! R15   R(13,39)                1.3651         estimate D2E/DX2                !
 ! R16   R(14,15)                1.4421         estimate D2E/DX2                !
 ! R17   R(14,23)                1.4199         estimate D2E/DX2                !
 ! R18   R(15,16)                1.0874         estimate D2E/DX2                !
 ! R19   R(15,17)                1.406          estimate D2E/DX2                !
 ! R20   R(17,18)                1.0872         estimate D2E/DX2                !
 ! R21   R(17,19)                1.399          estimate D2E/DX2                !
 ! R22   R(19,20)                1.0876         estimate D2E/DX2                !
 ! R23   R(19,21)                1.3984         estimate D2E/DX2                !
 ! R24   R(21,22)                1.0874         estimate D2E/DX2                !
 ! R25   R(21,23)                1.3839         estimate D2E/DX2                !
 ! R26   R(23,24)                1.5266         estimate D2E/DX2                !
 ! R27   R(24,25)                1.0919         estimate D2E/DX2                !
 ! R28   R(24,26)                1.0915         estimate D2E/DX2                !
 ! R29   R(24,27)                1.5159         estimate D2E/DX2                !
 ! R30   R(27,28)                1.0918         estimate D2E/DX2                !
 ! R31   R(27,29)                1.0922         estimate D2E/DX2                !
 ! R32   R(27,30)                1.5359         estimate D2E/DX2                !
 ! R33   R(30,31)                1.3942         estimate D2E/DX2                !
 ! R34   R(30,39)                1.4321         estimate D2E/DX2                !
 ! R35   R(31,32)                1.087          estimate D2E/DX2                !
 ! R36   R(31,33)                1.4086         estimate D2E/DX2                !
 ! R37   R(33,34)                1.0866         estimate D2E/DX2                !
 ! R38   R(33,35)                1.3865         estimate D2E/DX2                !
 ! R39   R(35,36)                1.0866         estimate D2E/DX2                !
 ! R40   R(35,37)                1.4293         estimate D2E/DX2                !
 ! R41   R(37,38)                1.0873         estimate D2E/DX2                !
 ! R42   R(37,39)                1.4191         estimate D2E/DX2                !
 ! A1    A(2,1,3)              109.5043         estimate D2E/DX2                !
 ! A2    A(2,1,4)              109.4474         estimate D2E/DX2                !
 ! A3    A(2,1,40)             109.4601         estimate D2E/DX2                !
 ! A4    A(3,1,4)              109.441          estimate D2E/DX2                !
 ! A5    A(3,1,40)             109.5042         estimate D2E/DX2                !
 ! A6    A(4,1,40)             109.4703         estimate D2E/DX2                !
 ! A7    A(1,4,5)              105.2889         estimate D2E/DX2                !
 ! A8    A(1,4,6)              107.7022         estimate D2E/DX2                !
 ! A9    A(1,4,7)              117.3592         estimate D2E/DX2                !
 ! A10   A(5,4,6)              110.3403         estimate D2E/DX2                !
 ! A11   A(5,4,7)              109.5082         estimate D2E/DX2                !
 ! A12   A(6,4,7)              106.5851         estimate D2E/DX2                !
 ! A13   A(4,7,8)              113.9521         estimate D2E/DX2                !
 ! A14   A(4,7,9)              114.0181         estimate D2E/DX2                !
 ! A15   A(4,7,10)             112.5086         estimate D2E/DX2                !
 ! A16   A(8,7,9)              102.4671         estimate D2E/DX2                !
 ! A17   A(8,7,10)             104.5112         estimate D2E/DX2                !
 ! A18   A(9,7,10)             108.4919         estimate D2E/DX2                !
 ! A19   A(7,10,11)            107.9595         estimate D2E/DX2                !
 ! A20   A(7,10,12)            100.9439         estimate D2E/DX2                !
 ! A21   A(7,10,13)            117.8856         estimate D2E/DX2                !
 ! A22   A(11,10,12)           107.6392         estimate D2E/DX2                !
 ! A23   A(11,10,13)           115.0281         estimate D2E/DX2                !
 ! A24   A(12,10,13)           105.971          estimate D2E/DX2                !
 ! A25   A(10,13,14)           121.5808         estimate D2E/DX2                !
 ! A26   A(10,13,39)           115.622          estimate D2E/DX2                !
 ! A27   A(14,13,39)           122.3198         estimate D2E/DX2                !
 ! A28   A(13,14,15)           120.9395         estimate D2E/DX2                !
 ! A29   A(13,14,23)           121.5381         estimate D2E/DX2                !
 ! A30   A(15,14,23)           116.8253         estimate D2E/DX2                !
 ! A31   A(14,15,16)           114.1685         estimate D2E/DX2                !
 ! A32   A(14,15,17)           118.4212         estimate D2E/DX2                !
 ! A33   A(16,15,17)           127.3303         estimate D2E/DX2                !
 ! A34   A(15,17,18)           115.6447         estimate D2E/DX2                !
 ! A35   A(15,17,19)           122.7699         estimate D2E/DX2                !
 ! A36   A(18,17,19)           121.5701         estimate D2E/DX2                !
 ! A37   A(17,19,20)           123.4745         estimate D2E/DX2                !
 ! A38   A(17,19,21)           118.3443         estimate D2E/DX2                !
 ! A39   A(20,19,21)           118.1754         estimate D2E/DX2                !
 ! A40   A(19,21,22)           117.3403         estimate D2E/DX2                !
 ! A41   A(19,21,23)           120.264          estimate D2E/DX2                !
 ! A42   A(22,21,23)           121.8397         estimate D2E/DX2                !
 ! A43   A(14,23,21)           122.4363         estimate D2E/DX2                !
 ! A44   A(14,23,24)           122.0274         estimate D2E/DX2                !
 ! A45   A(21,23,24)           115.3454         estimate D2E/DX2                !
 ! A46   A(23,24,25)           108.9823         estimate D2E/DX2                !
 ! A47   A(23,24,26)           109.72           estimate D2E/DX2                !
 ! A48   A(23,24,27)           106.7772         estimate D2E/DX2                !
 ! A49   A(25,24,26)           110.2726         estimate D2E/DX2                !
 ! A50   A(25,24,27)           110.7088         estimate D2E/DX2                !
 ! A51   A(26,24,27)           110.3053         estimate D2E/DX2                !
 ! A52   A(24,27,28)           111.6758         estimate D2E/DX2                !
 ! A53   A(24,27,29)           100.8288         estimate D2E/DX2                !
 ! A54   A(24,27,30)           115.6196         estimate D2E/DX2                !
 ! A55   A(28,27,29)           108.141          estimate D2E/DX2                !
 ! A56   A(28,27,30)           109.4349         estimate D2E/DX2                !
 ! A57   A(29,27,30)           110.6632         estimate D2E/DX2                !
 ! A58   A(27,30,31)           114.3467         estimate D2E/DX2                !
 ! A59   A(27,30,39)           127.683          estimate D2E/DX2                !
 ! A60   A(31,30,39)           117.1011         estimate D2E/DX2                !
 ! A61   A(30,31,32)           113.7963         estimate D2E/DX2                !
 ! A62   A(30,31,33)           122.9521         estimate D2E/DX2                !
 ! A63   A(32,31,33)           123.1221         estimate D2E/DX2                !
 ! A64   A(31,33,34)           118.5042         estimate D2E/DX2                !
 ! A65   A(31,33,35)           119.8786         estimate D2E/DX2                !
 ! A66   A(34,33,35)           121.4011         estimate D2E/DX2                !
 ! A67   A(33,35,36)           125.8508         estimate D2E/DX2                !
 ! A68   A(33,35,37)           118.5487         estimate D2E/DX2                !
 ! A69   A(36,35,37)           115.53           estimate D2E/DX2                !
 ! A70   A(35,37,38)           116.4486         estimate D2E/DX2                !
 ! A71   A(35,37,39)           120.6915         estimate D2E/DX2                !
 ! A72   A(38,37,39)           122.8343         estimate D2E/DX2                !
 ! A73   A(13,39,30)           123.9607         estimate D2E/DX2                !
 ! A74   A(13,39,37)           116.0416         estimate D2E/DX2                !
 ! A75   A(30,39,37)           119.7356         estimate D2E/DX2                !
 ! D1    D(2,1,4,5)           -159.5908         estimate D2E/DX2                !
 ! D2    D(2,1,4,6)             82.6659         estimate D2E/DX2                !
 ! D3    D(2,1,4,7)            -37.5013         estimate D2E/DX2                !
 ! D4    D(3,1,4,5)             80.4017         estimate D2E/DX2                !
 ! D5    D(3,1,4,6)            -37.3416         estimate D2E/DX2                !
 ! D6    D(3,1,4,7)           -157.5087         estimate D2E/DX2                !
 ! D7    D(40,1,4,5)           -39.6196         estimate D2E/DX2                !
 ! D8    D(40,1,4,6)          -157.3629         estimate D2E/DX2                !
 ! D9    D(40,1,4,7)            82.47           estimate D2E/DX2                !
 ! D10   D(1,4,7,8)            -57.3347         estimate D2E/DX2                !
 ! D11   D(1,4,7,9)           -174.5003         estimate D2E/DX2                !
 ! D12   D(1,4,7,10)            61.4076         estimate D2E/DX2                !
 ! D13   D(5,4,7,8)             62.5527         estimate D2E/DX2                !
 ! D14   D(5,4,7,9)            -54.6128         estimate D2E/DX2                !
 ! D15   D(5,4,7,10)          -178.7049         estimate D2E/DX2                !
 ! D16   D(6,4,7,8)           -178.0878         estimate D2E/DX2                !
 ! D17   D(6,4,7,9)             64.7466         estimate D2E/DX2                !
 ! D18   D(6,4,7,10)           -59.3454         estimate D2E/DX2                !
 ! D19   D(4,7,10,11)          -55.2333         estimate D2E/DX2                !
 ! D20   D(4,7,10,12)         -168.0088         estimate D2E/DX2                !
 ! D21   D(4,7,10,13)           77.1956         estimate D2E/DX2                !
 ! D22   D(8,7,10,11)           68.9045         estimate D2E/DX2                !
 ! D23   D(8,7,10,12)          -43.871          estimate D2E/DX2                !
 ! D24   D(8,7,10,13)         -158.6666         estimate D2E/DX2                !
 ! D25   D(9,7,10,11)          177.6699         estimate D2E/DX2                !
 ! D26   D(9,7,10,12)           64.8944         estimate D2E/DX2                !
 ! D27   D(9,7,10,13)          -49.9012         estimate D2E/DX2                !
 ! D28   D(7,10,13,14)          89.0983         estimate D2E/DX2                !
 ! D29   D(7,10,13,39)         -83.1484         estimate D2E/DX2                !
 ! D30   D(11,10,13,14)       -141.699          estimate D2E/DX2                !
 ! D31   D(11,10,13,39)         46.0543         estimate D2E/DX2                !
 ! D32   D(12,10,13,14)        -22.917          estimate D2E/DX2                !
 ! D33   D(12,10,13,39)        164.8363         estimate D2E/DX2                !
 ! D34   D(10,13,14,15)         62.8096         estimate D2E/DX2                !
 ! D35   D(10,13,14,23)       -107.3189         estimate D2E/DX2                !
 ! D36   D(39,13,14,15)       -125.4665         estimate D2E/DX2                !
 ! D37   D(39,13,14,23)         64.4051         estimate D2E/DX2                !
 ! D38   D(10,13,39,30)        128.8864         estimate D2E/DX2                !
 ! D39   D(10,13,39,37)        -57.0283         estimate D2E/DX2                !
 ! D40   D(14,13,39,30)        -43.2973         estimate D2E/DX2                !
 ! D41   D(14,13,39,37)        130.788          estimate D2E/DX2                !
 ! D42   D(13,14,15,16)          2.4619         estimate D2E/DX2                !
 ! D43   D(13,14,15,17)        179.4489         estimate D2E/DX2                !
 ! D44   D(23,14,15,16)        173.038          estimate D2E/DX2                !
 ! D45   D(23,14,15,17)         -9.975          estimate D2E/DX2                !
 ! D46   D(13,14,23,21)       -178.4674         estimate D2E/DX2                !
 ! D47   D(13,14,23,24)         -3.7231         estimate D2E/DX2                !
 ! D48   D(15,14,23,21)         11.017          estimate D2E/DX2                !
 ! D49   D(15,14,23,24)       -174.2387         estimate D2E/DX2                !
 ! D50   D(14,15,17,18)       -178.2503         estimate D2E/DX2                !
 ! D51   D(14,15,17,19)          3.1583         estimate D2E/DX2                !
 ! D52   D(16,15,17,18)         -1.7078         estimate D2E/DX2                !
 ! D53   D(16,15,17,19)        179.7007         estimate D2E/DX2                !
 ! D54   D(15,17,19,20)       -175.7614         estimate D2E/DX2                !
 ! D55   D(15,17,19,21)          3.3497         estimate D2E/DX2                !
 ! D56   D(18,17,19,20)          5.729          estimate D2E/DX2                !
 ! D57   D(18,17,19,21)       -175.1599         estimate D2E/DX2                !
 ! D58   D(17,19,21,22)       -174.267          estimate D2E/DX2                !
 ! D59   D(17,19,21,23)         -2.661          estimate D2E/DX2                !
 ! D60   D(20,19,21,22)          4.8919         estimate D2E/DX2                !
 ! D61   D(20,19,21,23)        176.4978         estimate D2E/DX2                !
 ! D62   D(19,21,23,14)         -4.7263         estimate D2E/DX2                !
 ! D63   D(19,21,23,24)       -179.7968         estimate D2E/DX2                !
 ! D64   D(22,21,23,14)        166.4936         estimate D2E/DX2                !
 ! D65   D(22,21,23,24)         -8.5769         estimate D2E/DX2                !
 ! D66   D(14,23,24,25)        173.408          estimate D2E/DX2                !
 ! D67   D(14,23,24,26)         52.5748         estimate D2E/DX2                !
 ! D68   D(14,23,24,27)        -66.9695         estimate D2E/DX2                !
 ! D69   D(21,23,24,25)        -11.4993         estimate D2E/DX2                !
 ! D70   D(21,23,24,26)       -132.3325         estimate D2E/DX2                !
 ! D71   D(21,23,24,27)        108.1232         estimate D2E/DX2                !
 ! D72   D(23,24,27,28)        -57.9809         estimate D2E/DX2                !
 ! D73   D(23,24,27,29)       -172.6356         estimate D2E/DX2                !
 ! D74   D(23,24,27,30)         68.0125         estimate D2E/DX2                !
 ! D75   D(25,24,27,28)         60.5203         estimate D2E/DX2                !
 ! D76   D(25,24,27,29)        -54.1344         estimate D2E/DX2                !
 ! D77   D(25,24,27,30)       -173.4863         estimate D2E/DX2                !
 ! D78   D(26,24,27,28)       -177.1461         estimate D2E/DX2                !
 ! D79   D(26,24,27,29)         68.1991         estimate D2E/DX2                !
 ! D80   D(26,24,27,30)        -51.1527         estimate D2E/DX2                !
 ! D81   D(24,27,30,31)        168.1075         estimate D2E/DX2                !
 ! D82   D(24,27,30,39)        -22.977          estimate D2E/DX2                !
 ! D83   D(28,27,30,31)        -64.7659         estimate D2E/DX2                !
 ! D84   D(28,27,30,39)        104.1496         estimate D2E/DX2                !
 ! D85   D(29,27,30,31)         54.3081         estimate D2E/DX2                !
 ! D86   D(29,27,30,39)       -136.7764         estimate D2E/DX2                !
 ! D87   D(27,30,31,32)         -3.8597         estimate D2E/DX2                !
 ! D88   D(27,30,31,33)       -179.8371         estimate D2E/DX2                !
 ! D89   D(39,30,31,32)       -174.0184         estimate D2E/DX2                !
 ! D90   D(39,30,31,33)         10.0041         estimate D2E/DX2                !
 ! D91   D(27,30,39,13)          2.4649         estimate D2E/DX2                !
 ! D92   D(27,30,39,37)       -171.4142         estimate D2E/DX2                !
 ! D93   D(31,30,39,13)        171.1172         estimate D2E/DX2                !
 ! D94   D(31,30,39,37)         -2.7619         estimate D2E/DX2                !
 ! D95   D(30,31,33,34)        166.9536         estimate D2E/DX2                !
 ! D96   D(30,31,33,35)         -7.7801         estimate D2E/DX2                !
 ! D97   D(32,31,33,34)         -8.651          estimate D2E/DX2                !
 ! D98   D(32,31,33,35)        176.6153         estimate D2E/DX2                !
 ! D99   D(31,33,35,36)        174.8784         estimate D2E/DX2                !
 ! D100  D(31,33,35,37)         -1.9217         estimate D2E/DX2                !
 ! D101  D(34,33,35,36)          0.3009         estimate D2E/DX2                !
 ! D102  D(34,33,35,37)       -176.4992         estimate D2E/DX2                !
 ! D103  D(33,35,37,38)       -172.9114         estimate D2E/DX2                !
 ! D104  D(33,35,37,39)          8.8796         estimate D2E/DX2                !
 ! D105  D(36,35,37,38)          9.9626         estimate D2E/DX2                !
 ! D106  D(36,35,37,39)       -168.2463         estimate D2E/DX2                !
 ! D107  D(35,37,39,13)        179.1371         estimate D2E/DX2                !
 ! D108  D(35,37,39,30)         -6.5117         estimate D2E/DX2                !
 ! D109  D(38,37,39,13)          1.0457         estimate D2E/DX2                !
 ! D110  D(38,37,39,30)        175.3968         estimate D2E/DX2                !
 --------------------------------------------------------------------------------
 Trust Radius=3.00D-01 FncErr=1.00D-07 GrdErr=1.00D-06 EigMax=2.50D+02 EigMin=1.00D-04
 Number of steps in this run=    237 maximum allowed number of steps=    240.
 GradGradGradGradGradGradGradGradGradGradGradGradGradGradGradGradGradGrad

 Leave Link  103 at Sun Jul 18 13:28:51 2021, MaxMem=   104857600 cpu:               0.1 elap:               0.0
 (Enter /prod/apps/gaussian/g16b1/l202.exe)
                          Input orientation:                          
 ---------------------------------------------------------------------
 Center     Atomic      Atomic             Coordinates (Angstroms)
 Number     Number       Type             X           Y           Z
 ---------------------------------------------------------------------
      1          7           0       -1.404000    0.205000    3.658000
      2          1           0       -0.902000   -0.652000    3.542000
      3          1           0       -2.383000    0.036000    3.547000
      4          6           0       -0.957000    1.175000    2.647000
      5          1           0       -1.242000    2.154000    3.041000
      6          1           0       -1.500000    0.965000    1.722000
      7          6           0        0.565000    1.182000    2.280000
      8          1           0        1.226000    1.350000    3.133000
      9          1           0        0.854000    1.984000    1.596000
     10          6           0        1.026000   -0.135000    1.697000
     11          1           0        0.770000   -0.926000    2.407000
     12          1           0        2.111000   -0.005000    1.723000
     13          7           0        0.682000   -0.427000    0.277000
     14          6           0        1.474000   -0.064000   -0.715000
     15          6           0        2.809000   -0.597000   -0.831000
     16          1           0        3.063000   -1.331000   -0.070000
     17          6           0        3.603000   -0.183000   -1.915000
     18          1           0        4.590000   -0.635000   -1.975000
     19          6           0        3.176000    0.770000   -2.846000
     20          1           0        3.752000    1.050000   -3.725000
     21          6           0        1.935000    1.383000   -2.647000
     22          1           0        1.576000    2.049000   -3.428000
     23          6           0        1.134000    1.007000   -1.583000
     24          6           0       -0.198000    1.745000   -1.475000
     25          1           0       -0.189000    2.596000   -2.159000
     26          1           0       -0.348000    2.086000   -0.449000
     27          6           0       -1.279000    0.756000   -1.864000
     28          1           0       -1.122000    0.362000   -2.870000
     29          1           0       -2.155000    1.408000   -1.887000
     30          6           0       -1.496000   -0.409000   -0.887000
     31          6           0       -2.653000   -1.150000   -1.124000
     32          1           0       -3.270000   -0.755000   -1.927000
     33          6           0       -3.030000   -2.255000   -0.336000
     34          1           0       -4.038000   -2.647000   -0.441000
     35          6           0       -2.160000   -2.747000    0.625000
     36          1           0       -2.379000   -3.539000    1.336000
     37          6           0       -0.875000   -2.136000    0.760000
     38          1           0       -0.177000   -2.621000    1.438000
     39          6           0       -0.566000   -0.938000    0.065000
     40          1           0       -1.230000    0.572000    4.572000
 ---------------------------------------------------------------------
                    Distance matrix (angstroms):
                    1          2          3          4          5
     1  N    0.000000
     2  H    0.999954   0.000000
     3  H    0.999661   1.633013   0.000000
     4  C    1.470656   2.035185   2.034895   0.000000
     5  H    2.050740   2.870581   2.458422   1.093116   0.000000
     6  H    2.082045   2.506929   2.230102   1.092966   1.794449
     7  C    2.594296   2.666137   3.407244   1.565638   2.188414
     8  H    2.916085   2.950198   3.863013   2.243281   2.597288
     9  H    3.537690   3.717385   4.251973   2.244728   2.551498
    10  C    3.141022   2.718179   3.882399   2.559470   3.491372
    11  H    2.751443   2.039334   3.488044   2.730262   3.733162
    12  H    4.017904   3.578483   4.850226   3.414498   4.200121
    13  N    4.022683   3.635919   4.505718   3.296911   4.242998
    14  C    5.241982   4.910516   5.749008   4.329888   5.138455
    15  C    6.208357   5.735649   6.820882   5.423949   6.242675
    16  H    6.017588   5.406368   6.679094   5.461000   6.352682
    17  C    7.501928   7.091815   8.106393   6.591632   7.314201
    18  H    8.268272   7.784577   8.919947   7.443668   8.182359
    19  C    7.974813   7.710948   8.503628   6.886128   7.489389
    20  H    9.044725   8.795784   9.568093   7.924184   8.481604
    21  C    7.231157   7.105879   7.669757   6.036006   6.560573
    22  H    7.905197   7.875074   8.269007   6.639698   7.056919
    23  C    5.878157   5.758750   6.295159   4.721589   5.323754
    24  C    5.493062   5.604598   5.737194   4.229878   4.653114
    25  H    6.405513   6.599945   6.627645   5.070178   5.323925
    26  H    4.639046   4.871513   4.930694   3.284207   3.603326
    27  C    5.550830   5.599056   5.569213   4.541846   5.100470
    28  H    6.535974   6.495409   6.547846   5.579022   6.177830
    29  H    5.723481   5.940341   5.609164   4.695386   5.067077
    30  C    4.587209   4.475257   4.543693   3.910081   4.697092
    31  C    5.124798   5.008549   4.826773   4.743678   5.500415
    32  H    5.966220   5.960536   5.601529   5.476892   6.103777
    33  C    4.964626   4.704984   4.554666   4.996050   5.834411
    34  H    5.645676   5.447826   5.083469   5.799654   6.556793
    35  C    4.299410   3.805322   4.041399   4.573596   5.540720
    36  H    4.512188   3.922083   4.203470   5.095351   6.050623
    37  C    3.762782   3.153174   3.841747   3.811852   4.872551
    38  H    3.797395   2.971431   4.046476   4.059519   5.148248
    39  C    3.862427   3.504885   4.046540   3.359222   4.344424
    40  H    1.000180   1.632991   1.633196   2.035623   2.201551
                    6          7          8          9         10
     6  H    0.000000
     7  C    2.150041   0.000000
     8  H    3.093578   1.092133   0.000000
     9  H    2.568181   1.092969   1.703734   0.000000
    10  C    2.755232   1.512250   2.075409   2.128367   0.000000
    11  H    3.032821   2.121749   2.432116   3.022065   1.093306
    12  H    3.739014   2.027149   2.146474   2.356332   1.093070
    13  N    2.964256   2.571882   3.407404   2.753591   1.489966
    14  C    3.980262   3.368801   4.107068   3.149512   2.454280
    15  C    5.246440   4.228321   4.691481   4.046469   3.127829
    16  H    5.413303   4.251785   4.563062   4.317923   2.949928
    17  C    6.370736   5.356369   5.786408   4.957823   4.437316
    18  H    7.301774   6.132466   6.430271   5.793867   5.141564
    19  C    6.539849   5.767403   6.315643   5.157213   5.106895
    20  H    7.567069   6.799590   7.314564   6.130563   6.183315
    21  C    5.573339   5.117874   5.823416   4.419594   4.690516
    22  H    6.095845   5.861320   6.607407   5.076030   5.598034
    23  C    4.226434   3.908600   4.729352   3.337510   3.474799
    24  C    3.538985   3.872875   4.839160   3.254976   3.885120
    25  H    4.409200   4.719389   5.617829   3.944923   4.878865
    26  H    2.701293   3.016327   3.981193   2.374286   3.380242
    27  C    3.598877   4.555716   5.621198   4.246089   4.334470
    28  H    4.646822   5.480955   6.521139   5.145932   5.071331
    29  H    3.694612   4.981302   6.052679   4.638658   5.034349
    30  C    2.948690   4.099865   5.163697   4.173037   3.621135
    31  C    3.728586   5.232682   6.278431   5.433176   4.745873
    32  H    4.405281   6.013156   7.088628   6.076267   5.654502
    33  C    4.116390   5.619649   6.568373   6.065245   5.007856
    34  H    4.915949   6.576678   7.513932   7.037556   6.043615
    35  C    3.926570   5.059811   5.877114   5.692925   4.257032
    36  H    4.605177   5.643236   6.334631   6.404953   4.828205
    37  C    3.306398   3.923407   4.711425   4.545628   2.914751
    38  H    3.832803   3.965140   4.539854   4.721647   2.773894
    39  C    2.690616   3.267994   4.225971   3.591441   2.417167
    40  H    2.889611   2.974456   2.950922   3.897868   3.722232
                   11         12         13         14         15
    11  H    0.000000
    12  H    1.764760   0.000000
    13  N    2.189439   2.076305   0.000000
    14  C    3.314445   2.520534   1.320264   0.000000
    15  C    3.840626   2.713040   2.404307   1.442141   0.000000
    16  H    3.399618   2.424753   2.570367   2.132190   1.087379
    17  C    5.220883   3.936088   3.660142   2.446794   1.406018
    18  H    5.820567   4.496392   4.515222   3.409266   2.117107
    19  C    6.021566   4.755062   4.172047   2.851933   2.462438
    20  H    7.099178   5.786762   5.255705   3.935782   3.460794
    21  C    5.677290   4.588510   3.660039   2.457428   2.825267
    22  H    6.599052   5.571171   4.544979   3.440282   3.907175
    23  C    4.448492   3.592814   2.391707   1.419882   2.438021
    24  C    4.810529   4.315227   2.926002   2.577919   3.865456
    25  H    5.845727   5.208179   3.978852   3.453448   4.576771
    26  H    4.298698   3.890571   2.811253   2.830714   4.160656
    27  C    5.026825   4.993775   3.135106   3.093802   4.428255
    28  H    5.751985   5.628732   3.712216   3.400694   4.531000
    29  H    5.695754   5.764323   4.012317   4.087788   5.456781
    30  C    4.031437   4.470544   2.469596   2.994914   4.309467
    31  C    4.922912   5.666757   3.688869   4.287051   5.497736
    32  H    5.927428   6.545240   4.536905   4.944892   6.179031
    33  C    4.871375   5.977613   4.182858   5.022961   6.089984
    34  H    5.847205   7.033723   5.265199   6.093366   7.157933
    35  C    3.882842   5.192842   3.685169   4.711692   5.606549
    36  H    4.229777   5.727043   4.491742   5.579232   6.345597
    37  C    2.623497   3.792720   2.361825   3.462168   4.297867
    38  H    2.169976   3.487065   2.626678   3.728198   4.261588
    39  C    2.696294   3.284171   1.365126   2.352419   3.508521
    40  H    3.306241   4.428545   4.806326   5.972310   6.846349
                   16         17         18         19         20
    16  H    0.000000
    17  C    2.239091   0.000000
    18  H    2.538734   1.087232   0.000000
    19  C    3.483267   1.399035   2.175330   0.000000
    20  H    4.416210   2.195129   2.569819   1.087574   0.000000
    21  C    3.908850   2.402167   3.401901   1.398374   2.138799
    22  H    4.991165   3.373384   4.289436   2.129452   2.412713
    23  C    3.387692   2.760849   3.846266   2.412696   3.382889
    24  C    4.697864   4.284669   5.370228   3.770165   4.598698
    25  H    5.510059   4.707615   5.771660   3.889662   4.513752
    26  H    4.842980   4.786222   5.840921   4.460498   5.349343
    27  C    5.140717   4.971745   6.032608   4.561967   5.372217
    28  H    5.312295   4.851255   5.867025   4.317389   4.996023
    29  H    6.166939   5.973829   7.048164   5.454016   6.196697
    30  C    4.722505   5.206502   6.186616   5.201472   6.142022
    31  C    5.815181   6.379522   7.310983   6.374082   7.254600
    32  H    6.624735   6.896771   7.861063   6.687384   7.469894
    33  C    6.168402   7.126227   7.960849   7.346098   8.270663
    34  H    7.231438   8.162650   8.991312   8.336769   9.226948
    35  C    5.455988   6.799843   7.535452   7.272553   8.263864
    36  H    6.038830   7.590524   8.243961   8.180136   9.179423
    37  C    4.104238   5.569768   6.292809   6.152940   7.188529
    38  H    3.799443   5.610245   6.190077   6.410472   7.454519
    39  C    3.652713   4.676643   5.553174   5.039221   6.079586
    40  H    6.602986   8.124597   8.842650   8.630108   9.689635
                   21         22         23         24         25
    21  C    0.000000
    22  H    1.087381   0.000000
    23  C    1.383862   2.164521   0.000000
    24  C    2.460552   2.655880   1.526608   0.000000
    25  H    2.494171   2.241605   2.146398   1.091851   0.000000
    26  H    3.246152   3.546489   2.155579   1.091539   1.791502
    27  C    3.366900   3.502709   2.442239   1.515917   2.158871
    28  H    3.230699   3.230563   2.676178   2.170827   2.523245
    29  H    4.160087   4.087288   3.327272   2.028093   2.313111
    30  C    4.252132   4.683549   3.066981   2.582685   3.515147
    31  C    5.457597   5.781562   4.382317   3.811988   4.601634
    32  H    5.672871   5.796476   4.755859   3.986413   4.558024
    33  C    6.574724   7.021404   5.434570   5.031654   5.909891
    34  H    7.535520   7.905162   6.434708   5.924898   6.727211
    35  C    6.673223   7.306581   5.460606   5.332683   6.339018
    36  H    7.661656   8.340472   6.444210   6.370176   7.392520
    37  C    5.646867   6.407883   4.405017   4.529428   5.602051
    38  H    6.097523   6.968491   4.899750   5.248616   6.336848
    39  C    4.358553   5.070639   3.064136   3.115367   4.192548
    40  H    7.923945   8.605531   6.607704   6.245571   7.105394
                   26         27         28         29         30
    26  H    0.000000
    27  C    2.153575   0.000000
    28  H    3.071236   1.091751   0.000000
    29  H    2.406819   1.092250   1.768472   0.000000
    30  C    2.781146   1.535853   2.160233   2.176182   0.000000
    31  C    4.029931   2.463394   2.771032   2.715426   1.394238
    32  H    4.335187   2.500234   2.598238   2.433802   2.085280
    33  C    5.103937   3.803539   4.112215   4.072934   2.462615
    34  H    6.001454   4.606237   4.843261   4.698897   3.416039
    35  C    5.272069   4.386604   4.791487   4.855326   2.862391
    36  H    6.241139   5.467817   5.872673   5.908529   3.939330
    37  C    4.423200   3.925845   4.413379   4.604883   2.465924
    38  H    5.074038   4.849921   5.324489   5.585781   3.469630
    39  C    3.075109   2.664403   3.257815   3.440776   1.432147
    40  H    5.317947   6.438816   7.445746   6.578237   5.552819
                   31         32         33         34         35
    31  C    0.000000
    32  H    1.086979   0.000000
    33  C    1.408580   2.199746   0.000000
    34  H    2.150749   2.525408   1.086625   0.000000
    35  C    2.419186   3.422407   1.386537   2.161768   0.000000
    36  H    3.440058   4.380834   2.206364   2.589532   1.086621
    37  C    2.771811   3.855276   2.420620   3.421709   1.429255
    38  H    3.854641   4.936783   3.379444   4.294024   2.146889
    39  C    2.411272   3.363505   2.822514   3.902756   2.475261
    40  H    6.118385   6.939707   5.943096   6.586121   5.240178
                   36         37         38         39         40
    36  H    0.000000
    37  C    2.135931   0.000000
    38  H    2.387872   1.087250   0.000000
    39  C    3.415788   1.419053   2.206567   0.000000
    40  H    5.356512   4.689417   4.596304   4.799380   0.000000
 Stoichiometry    C17H21N2(1+)
 Framework group  C1[X(C17H21N2)]
 Deg. of freedom   114
 Full point group                 C1      NOp   1
 Largest Abelian subgroup         C1      NOp   1
 Largest concise Abelian subgroup C1      NOp   1
                         Standard orientation:                         
 ---------------------------------------------------------------------
 Center     Atomic      Atomic             Coordinates (Angstroms)
 Number     Number       Type             X           Y           Z
 ---------------------------------------------------------------------
      1          7           0       -3.365877   -2.170983    0.457588
      2          1           0       -3.151829   -2.050260   -0.511700
      3          1           0       -4.048271   -1.495336    0.735369
      4          6           0       -2.143832   -1.988912    1.255263
      5          1           0       -2.346273   -2.482319    2.209447
      6          1           0       -2.001647   -0.915654    1.405184
      7          6           0       -0.805345   -2.537697    0.656506
      8          1           0       -0.827068   -3.605229    0.427036
      9          1           0        0.049743   -2.459059    1.332688
     10          6           0       -0.442994   -1.875720   -0.653985
     11          1           0       -1.287900   -1.995959   -1.337354
     12          1           0        0.360249   -2.530305   -1.002009
     13          7           0        0.137830   -0.504504   -0.604893
     14          6           0        1.439277   -0.308194   -0.500996
     15          6           0        2.341242   -0.754554   -1.533949
     16          1           0        1.848078   -1.210533   -2.389090
     17          6           0        3.716154   -0.507442   -1.374456
     18          1           0        4.351443   -0.836452   -2.193134
     19          6           0        4.249632    0.093895   -0.229425
     20          1           0        5.300853    0.350886   -0.121222
     21          6           0        3.383662    0.397644    0.825697
     22          1           0        3.795790    0.949984    1.666809
     23          6           0        2.026357    0.156039    0.705607
     24          6           0        1.185157    0.533963    1.922197
     25          1           0        1.850212    0.747065    2.761498
     26          1           0        0.510725   -0.286826    2.173004
     27          6           0        0.392341    1.768120    1.539704
     28          1           0        1.045252    2.588736    1.236031
     29          1           0       -0.057396    2.028969    2.500279
     30          6           0       -0.692285    1.556503    0.473098
     31          6           0       -1.572446    2.628010    0.327882
     32          1           0       -1.403867    3.433416    1.038110
     33          6           0       -2.636701    2.625700   -0.594861
     34          1           0       -3.402113    3.391810   -0.505576
     35          6           0       -2.748157    1.597289   -1.518135
     36          1           0       -3.567162    1.456573   -2.218261
     37          6           0       -1.744106    0.580208   -1.532220
     38          1           0       -1.797725   -0.141995   -2.343182
     39          6           0       -0.764191    0.515552   -0.507868
     40          1           0       -3.727364   -3.091529    0.606861
 ---------------------------------------------------------------------
 Rotational constants (GHZ):           0.5493003           0.3134280           0.2626268
 Leave Link  202 at Sun Jul 18 13:28:51 2021, MaxMem=   104857600 cpu:               0.1 elap:               0.0
 (Enter /prod/apps/gaussian/g16b1/l301.exe)
 Standard basis: 6-31G(d) (6D, 7F)
 Ernie: Thresh=  0.10000D-02 Tol=  0.10000D-05 Strict=F.
 There are   327 symmetry adapted cartesian basis functions of A   symmetry.
 There are   327 symmetry adapted basis functions of A   symmetry.
   327 basis functions,   616 primitive gaussians,   327 cartesian basis functions
    68 alpha electrons       68 beta electrons
       nuclear repulsion energy      1459.0230307157 Hartrees.
 IExCor=  402 DFT=T Ex+Corr=B3LYP ExCW=0 ScaHFX=  0.200000
 ScaDFX=  0.800000  0.720000  1.000000  0.810000 ScalE2=  1.000000  1.000000
 IRadAn=      5 IRanWt=     -1 IRanGd=            0 ICorTp=0 IEmpDi=  4
 NAtoms=   40 NActive=   40 NUniq=   40 SFac= 1.00D+00 NAtFMM=   60 NAOKFM=F Big=F
 Integral buffers will be    131072 words long.
 Raffenetti 2 integral format.
 Two-electron integral symmetry is turned on.
 Using the following non-standard input for PCM:
 MSTModel=DFT cav MSTCharged
 --- end of non-standard input.
 MST model for solvation energy: B3LYP parametrization.
 MST cavity parameters:
 ISph   IAn     Re0     Alpha   Atom Type   QCorr
 ------------------------------------------------
   1      7     1.70     1.15      NH         T
   2      1     0.90     1.15      NH         T
   3      1     0.90     1.15      NH         T
   4      6     1.50     1.25      CH2        F
   5      1     1.20     1.25      CH2        F
   6      1     1.20     1.25      CH2        F
   7      6     1.50     1.25      CH2        F
   8      1     1.20     1.25      CH2        F
   9      1     1.20     1.25      CH2        F
  10      6     1.50     1.25      CH2        F
  11      1     1.20     1.25      CH2        F
  12      1     1.20     1.25      CH2        F
  13      7     1.40     1.25      N          F
  14      6     1.50     1.25      C          F
  15      6     1.50     1.25      CH         F
  16      1     1.20     1.25      CH         F
  17      6     1.50     1.25      CH         F
  18      1     1.20     1.25      CH         F
  19      6     1.50     1.25      CH         F
  20      1     1.20     1.25      CH         F
  21      6     1.50     1.25      CH         F
  22      1     1.20     1.25      CH         F
  23      6     1.50     1.25      C          F
  24      6     1.50     1.25      CH2        F
  25      1     1.20     1.25      CH2        F
  26      1     1.20     1.25      CH2        F
  27      6     1.50     1.25      CH2        F
  28      1     1.20     1.25      CH2        F
  29      1     1.20     1.25      CH2        F
  30      6     1.50     1.25      C          F
  31      6     1.50     1.25      CH         F
  32      1     1.20     1.25      CH         F
  33      6     1.50     1.25      CH         F
  34      1     1.20     1.25      CH         F
  35      6     1.50     1.25      CH         F
  36      1     1.20     1.25      CH         F
  37      6     1.50     1.25      CH         F
  38      1     1.20     1.25      CH         F
  39      6     1.50     1.25      C          F
  40      1     0.90     1.15      NH         T
 ------------------------------------------------------------------------------
 Polarizable Continuum Model (PCM)
 =================================
 Model                : PCM.
 Atomic radii         : MST.
 Polarization charges : Total charges.
 Charge compensation  : None.
 Solution method      : On-the-fly selection.
 Cavity type          : Scaled VdW (van der Waals Surface) (Alpha=1.250).
 Cavity algorithm     : GePol (No added spheres)
                        Default sphere list used, NSphG=   40.
                        Lebedev-Laikov grids with approx.  5.0 points / Ang**2.
                        Smoothing algorithm: York/Karplus (Gamma=1.0000).
                        Polarization charges: spherical gaussians, with
                                              point-specific exponents (IZeta= 3).
                        Self-potential: point-specific (ISelfS= 7).
                        Self-field    : sphere-specific E.n sum rule (ISelfD= 2).
 1st derivatives      : Analytical E(r).r(x)/FMM algorithm (CHGder, D1EAlg=3).
                        Cavity 1st derivative terms included.
 Solvent              : Water, Eps=  78.355300 Eps(inf)=   1.777849
 ------------------------------------------------------------------------------
 GePol: Number of generator spheres                  =      40
 GePol: Total number of spheres                      =      40
 GePol: Number of exposed spheres                    =      40 (100.00%)
 GePol: Number of points                             =    2654
 GePol: Average weight of points                     =       0.12
 GePol: Minimum weight of points                     =   0.36D-10
 GePol: Maximum weight of points                     =    0.21416
 GePol: Number of points with low weight             =     212
 GePol: Fraction of low-weight points (<1% of avg)   =       7.99%
 GePol: Cavity surface area                          =    326.966 Ang**2
 GePol: Cavity volume                                =    328.065 Ang**3
 PCM non-electrostatic energy =         0.0015640583 Hartrees.
 Nuclear repulsion after PCM non-electrostatic terms =     1459.0245947740 Hartrees.
 Leave Link  301 at Sun Jul 18 13:28:51 2021, MaxMem=   104857600 cpu:               0.3 elap:               0.1
 (Enter /prod/apps/gaussian/g16b1/l302.exe)
 NPDir=0 NMtPBC=     1 NCelOv=     1 NCel=       1 NClECP=     1 NCelD=      1
         NCelK=      1 NCelE2=     1 NClLst=     1 CellRange=     0.0.
 One-electron integrals computed using PRISM.
 One-electron integral symmetry used in STVInt
 NBasis=   327 RedAO= T EigKep=  4.64D-04  NBF=   327
 NBsUse=   327 1.00D-06 EigRej= -1.00D+00 NBFU=   327
 Precomputing XC quadrature grid using
 IXCGrd= 4 IRadAn=           5 IRanWt=          -1 IRanGd=           0 AccXCQ= 0.00D+00.
 Generated NRdTot=       0 NPtTot=           0 NUsed=           0 NTot=          32
 NSgBfM=   326   326   326   326   326 MxSgAt=    40 MxSgA2=    40.
 Leave Link  302 at Sun Jul 18 13:28:52 2021, MaxMem=   104857600 cpu:               2.2 elap:               0.6
 (Enter /prod/apps/gaussian/g16b1/l303.exe)
 DipDrv:  MaxL=1.
 Leave Link  303 at Sun Jul 18 13:28:52 2021, MaxMem=   104857600 cpu:               0.2 elap:               0.1
 (Enter /prod/apps/gaussian/g16b1/l401.exe)
 ExpMin= 1.61D-01 ExpMax= 4.17D+03 ExpMxC= 6.27D+02 IAcc=3 IRadAn=         5 AccDes= 0.00D+00
 Harris functional with IExCor=  402 and IRadAn=       5 diagonalized for initial guess.
 HarFok:  IExCor=  402 AccDes= 0.00D+00 IRadAn=         5 IDoV= 1 UseB2=F ITyADJ=14
 ICtDFT=  3500011 ScaDFX=  1.000000  1.000000  1.000000  1.000000
 FoFCou: FMM=F IPFlag=           0 FMFlag=      100000 FMFlg1=           0
         NFxFlg=           0 DoJE=T BraDBF=F KetDBF=T FulRan=T
         wScrn=  0.000000 ICntrl=       500 IOpCl=  0 I1Cent=   200000004 NGrid=           0
         NMat0=    1 NMatS0=      1 NMatT0=    0 NMatD0=    1 NMtDS0=    0 NMtDT0=    0
 Petite list used in FoFCou.
 Harris En= -769.715621227038    
 JPrj=0 DoOrth=F DoCkMO=F.
 Leave Link  401 at Sun Jul 18 13:28:55 2021, MaxMem=   104857600 cpu:              12.3 elap:               3.1
 (Enter /prod/apps/gaussian/g16b1/l502.exe)
 Integral symmetry usage will be decided dynamically.
 Closed shell SCF:
 Using DIIS extrapolation, IDIIS=  1040.
 NGot=   104857600 LenX=   104637967 LenY=   104530597
 Requested convergence on RMS density matrix=1.00D-08 within 128 cycles.
 Requested convergence on MAX density matrix=1.00D-06.
 Requested convergence on             energy=1.00D-06.
 No special actions if energy rises.
 Fock matrices will be formed incrementally for  20 cycles.

 Cycle   1  Pass 1  IDiag  1:
 FoFJK:  IHMeth= 1 ICntrl=       0 DoSepK=F KAlg= 0 I1Cent=           0 FoldK=F
 IRaf= 860000000 NMat=       1 IRICut=       1 DoRegI=T DoRafI=F ISym2E= 0 IDoP0=0 IntGTp=1.
 FoFCou: FMM=F IPFlag=           0 FMFlag=      100000 FMFlg1=           0
         NFxFlg=           0 DoJE=F BraDBF=F KetDBF=F FulRan=T
         wScrn=  0.000000 ICntrl=         0 IOpCl=  0 I1Cent=           0 NGrid=           0
         NMat0=    1 NMatS0=      1 NMatT0=    0 NMatD0=    1 NMtDS0=    0 NMtDT0=    0
 Symmetry not used in FoFCou.
 Inv3:  Mode=1 IEnd=    21131148.
 Iteration    1 A*A^-1 deviation from unit magnitude is 3.55D-15 for    367.
 Iteration    1 A*A^-1 deviation from orthogonality  is 2.97D-15 for   2198   1080.
 Iteration    1 A^-1*A deviation from unit magnitude is 3.11D-15 for    367.
 Iteration    1 A^-1*A deviation from orthogonality  is 3.24D-15 for   1684   1525.
 E= -769.382795333464    
 DIIS: error= 2.74D-02 at cycle   1 NSaved=   1.
 NSaved= 1 IEnMin= 1 EnMin= -769.382795333464     IErMin= 1 ErrMin= 2.74D-02
 ErrMax= 2.74D-02  0.00D+00 EMaxC= 1.00D-01 BMatC= 3.65D-01 BMatP= 3.65D-01
 IDIUse=3 WtCom= 7.26D-01 WtEn= 2.74D-01
 Coeff-Com:  0.100D+01
 Coeff-En:   0.100D+01
 Coeff:      0.100D+01
 Gap=     0.199 Goal=   None    Shift=    0.000
 GapD=    0.199 DampG=1.000 DampE=0.500 DampFc=0.5000 IDamp=-1.
 Damping current iteration by 5.00D-01
 RMSDP=4.03D-03 MaxDP=1.01D-01              OVMax= 1.53D-01

 Cycle   2  Pass 1  IDiag  1:
 RMSU=  1.97D-03    CP:  9.76D-01
 E= -769.576490007894     Delta-E=       -0.193694674430 Rises=F Damp=T
 DIIS: error= 6.42D-03 at cycle   2 NSaved=   2.
 NSaved= 2 IEnMin= 2 EnMin= -769.576490007894     IErMin= 2 ErrMin= 6.42D-03
 ErrMax= 6.42D-03  0.00D+00 EMaxC= 1.00D-01 BMatC= 2.28D-02 BMatP= 3.65D-01
 IDIUse=3 WtCom= 9.36D-01 WtEn= 6.42D-02
 Coeff-Com: -0.304D-01 0.103D+01
 Coeff-En:   0.000D+00 0.100D+01
 Coeff:     -0.285D-01 0.103D+01
 Gap=     0.182 Goal=   None    Shift=    0.000
 RMSDP=1.06D-03 MaxDP=3.96D-02 DE=-1.94D-01 OVMax= 1.25D-01

 Cycle   3  Pass 1  IDiag  1:
 RMSU=  1.04D-03    CP:  9.66D-01  1.02D+00
 E= -769.761319446339     Delta-E=       -0.184829438445 Rises=F Damp=F
 DIIS: error= 4.32D-03 at cycle   3 NSaved=   3.
 NSaved= 3 IEnMin= 3 EnMin= -769.761319446339     IErMin= 3 ErrMin= 4.32D-03
 ErrMax= 4.32D-03  0.00D+00 EMaxC= 1.00D-01 BMatC= 1.59D-02 BMatP= 2.28D-02
 IDIUse=3 WtCom= 9.57D-01 WtEn= 4.32D-02
 Coeff-Com: -0.596D-01 0.483D+00 0.576D+00
 Coeff-En:   0.000D+00 0.000D+00 0.100D+01
 Coeff:     -0.571D-01 0.462D+00 0.595D+00
 Gap=     0.190 Goal=   None    Shift=    0.000
 RMSDP=6.93D-04 MaxDP=3.15D-02 DE=-1.85D-01 OVMax= 7.50D-02

 Cycle   4  Pass 1  IDiag  1:
 RMSU=  5.64D-04    CP:  9.66D-01  1.07D+00  6.24D-01
 E= -769.771370786398     Delta-E=       -0.010051340058 Rises=F Damp=F
 DIIS: error= 2.93D-03 at cycle   4 NSaved=   4.
 NSaved= 4 IEnMin= 4 EnMin= -769.771370786398     IErMin= 4 ErrMin= 2.93D-03
 ErrMax= 2.93D-03  0.00D+00 EMaxC= 1.00D-01 BMatC= 6.18D-03 BMatP= 1.59D-02
 IDIUse=3 WtCom= 9.71D-01 WtEn= 2.93D-02
 Coeff-Com: -0.283D-01 0.115D+00 0.398D+00 0.516D+00
 Coeff-En:   0.000D+00 0.000D+00 0.319D+00 0.681D+00
 Coeff:     -0.275D-01 0.111D+00 0.395D+00 0.521D+00
 Gap=     0.179 Goal=   None    Shift=    0.000
 RMSDP=3.26D-04 MaxDP=1.44D-02 DE=-1.01D-02 OVMax= 3.18D-02

 Cycle   5  Pass 1  IDiag  1:
 RMSU=  1.06D-04    CP:  9.66D-01  1.06D+00  7.42D-01  4.98D-01
 E= -769.777946749052     Delta-E=       -0.006575962654 Rises=F Damp=F
 DIIS: error= 3.64D-04 at cycle   5 NSaved=   5.
 NSaved= 5 IEnMin= 5 EnMin= -769.777946749052     IErMin= 5 ErrMin= 3.64D-04
 ErrMax= 3.64D-04  0.00D+00 EMaxC= 1.00D-01 BMatC= 1.33D-04 BMatP= 6.18D-03
 IDIUse=3 WtCom= 9.96D-01 WtEn= 3.64D-03
 Coeff-Com: -0.853D-02 0.223D-01 0.141D+00 0.230D+00 0.615D+00
 Coeff-En:   0.000D+00 0.000D+00 0.000D+00 0.000D+00 0.100D+01
 Coeff:     -0.849D-02 0.222D-01 0.140D+00 0.229D+00 0.617D+00
 Gap=     0.179 Goal=   None    Shift=    0.000
 RMSDP=5.27D-05 MaxDP=1.50D-03 DE=-6.58D-03 OVMax= 3.81D-03

 Cycle   6  Pass 1  IDiag  1:
 RMSU=  3.29D-05    CP:  9.66D-01  1.06D+00  7.47D-01  5.41D-01  6.93D-01
 E= -769.778063602227     Delta-E=       -0.000116853175 Rises=F Damp=F
 DIIS: error= 1.30D-04 at cycle   6 NSaved=   6.
 NSaved= 6 IEnMin= 6 EnMin= -769.778063602227     IErMin= 6 ErrMin= 1.30D-04
 ErrMax= 1.30D-04  0.00D+00 EMaxC= 1.00D-01 BMatC= 1.62D-05 BMatP= 1.33D-04
 IDIUse=3 WtCom= 9.99D-01 WtEn= 1.30D-03
 Coeff-Com: -0.251D-02 0.381D-02 0.454D-01 0.825D-01 0.327D+00 0.543D+00
 Coeff-En:   0.000D+00 0.000D+00 0.000D+00 0.000D+00 0.312D-01 0.969D+00
 Coeff:     -0.250D-02 0.381D-02 0.453D-01 0.824D-01 0.327D+00 0.544D+00
 Gap=     0.179 Goal=   None    Shift=    0.000
 RMSDP=1.49D-05 MaxDP=6.97D-04 DE=-1.17D-04 OVMax= 1.17D-03

 Cycle   7  Pass 1  IDiag  1:
 RMSU=  7.31D-06    CP:  9.66D-01  1.06D+00  7.47D-01  5.41D-01  7.37D-01
                    CP:  6.32D-01
 E= -769.778079394152     Delta-E=       -0.000015791925 Rises=F Damp=F
 DIIS: error= 2.40D-05 at cycle   7 NSaved=   7.
 NSaved= 7 IEnMin= 7 EnMin= -769.778079394152     IErMin= 7 ErrMin= 2.40D-05
 ErrMax= 2.40D-05  0.00D+00 EMaxC= 1.00D-01 BMatC= 6.48D-07 BMatP= 1.62D-05
 IDIUse=1 WtCom= 1.00D+00 WtEn= 0.00D+00
 Coeff-Com: -0.838D-03 0.919D-03 0.155D-01 0.286D-01 0.130D+00 0.259D+00
 Coeff-Com:  0.566D+00
 Coeff:     -0.838D-03 0.919D-03 0.155D-01 0.286D-01 0.130D+00 0.259D+00
 Coeff:      0.566D+00
 Gap=     0.179 Goal=   None    Shift=    0.000
 RMSDP=3.84D-06 MaxDP=2.06D-04 DE=-1.58D-05 OVMax= 3.36D-04

 Cycle   8  Pass 1  IDiag  1:
 RMSU=  2.61D-06    CP:  9.66D-01  1.06D+00  7.48D-01  5.42D-01  7.38D-01
                    CP:  6.51D-01  6.51D-01
 E= -769.778079984604     Delta-E=       -0.000000590452 Rises=F Damp=F
 DIIS: error= 1.04D-05 at cycle   8 NSaved=   8.
 NSaved= 8 IEnMin= 8 EnMin= -769.778079984604     IErMin= 8 ErrMin= 1.04D-05
 ErrMax= 1.04D-05  0.00D+00 EMaxC= 1.00D-01 BMatC= 1.06D-07 BMatP= 6.48D-07
 IDIUse=1 WtCom= 1.00D+00 WtEn= 0.00D+00
 Coeff-Com: -0.620D-05-0.220D-03 0.454D-03 0.588D-03 0.136D-01 0.434D-01
 Coeff-Com:  0.304D+00 0.638D+00
 Coeff:     -0.620D-05-0.220D-03 0.454D-03 0.588D-03 0.136D-01 0.434D-01
 Coeff:      0.304D+00 0.638D+00
 Gap=     0.179 Goal=   None    Shift=    0.000
 RMSDP=1.28D-06 MaxDP=5.86D-05 DE=-5.90D-07 OVMax= 1.10D-04

 Cycle   9  Pass 1  IDiag  1:
 RMSU=  6.48D-07    CP:  9.66D-01  1.06D+00  7.48D-01  5.42D-01  7.41D-01
                    CP:  6.57D-01  7.37D-01  7.06D-01
 E= -769.778080096561     Delta-E=       -0.000000111957 Rises=F Damp=F
 DIIS: error= 1.83D-06 at cycle   9 NSaved=   9.
 NSaved= 9 IEnMin= 9 EnMin= -769.778080096561     IErMin= 9 ErrMin= 1.83D-06
 ErrMax= 1.83D-06  0.00D+00 EMaxC= 1.00D-01 BMatC= 4.54D-09 BMatP= 1.06D-07
 IDIUse=1 WtCom= 1.00D+00 WtEn= 0.00D+00
 Coeff-Com:  0.435D-04-0.144D-03-0.640D-03-0.147D-02-0.973D-03 0.442D-02
 Coeff-Com:  0.101D+00 0.274D+00 0.624D+00
 Coeff:      0.435D-04-0.144D-03-0.640D-03-0.147D-02-0.973D-03 0.442D-02
 Coeff:      0.101D+00 0.274D+00 0.624D+00
 Gap=     0.179 Goal=   None    Shift=    0.000
 RMSDP=2.70D-07 MaxDP=9.96D-06 DE=-1.12D-07 OVMax= 1.67D-05

 Cycle  10  Pass 1  IDiag  1:
 RMSU=  1.96D-07    CP:  9.66D-01  1.06D+00  7.48D-01  5.42D-01  7.42D-01
                    CP:  6.57D-01  7.43D-01  7.52D-01  8.38D-01
 E= -769.778080100482     Delta-E=       -0.000000003921 Rises=F Damp=F
 DIIS: error= 6.25D-07 at cycle  10 NSaved=  10.
 NSaved=10 IEnMin=10 EnMin= -769.778080100482     IErMin=10 ErrMin= 6.25D-07
 ErrMax= 6.25D-07  0.00D+00 EMaxC= 1.00D-01 BMatC= 6.04D-10 BMatP= 4.54D-09
 IDIUse=1 WtCom= 1.00D+00 WtEn= 0.00D+00
 Coeff-Com:  0.214D-04-0.470D-04-0.332D-03-0.807D-03-0.162D-02-0.197D-02
 Coeff-Com:  0.202D-01 0.729D-01 0.308D+00 0.603D+00
 Coeff:      0.214D-04-0.470D-04-0.332D-03-0.807D-03-0.162D-02-0.197D-02
 Coeff:      0.202D-01 0.729D-01 0.308D+00 0.603D+00
 Gap=     0.179 Goal=   None    Shift=    0.000
 RMSDP=8.94D-08 MaxDP=3.22D-06 DE=-3.92D-09 OVMax= 7.66D-06

 Cycle  11  Pass 1  IDiag  1:
 RMSU=  5.82D-08    CP:  9.66D-01  1.06D+00  7.48D-01  5.42D-01  7.42D-01
                    CP:  6.57D-01  7.47D-01  7.60D-01  8.81D-01  7.60D-01
 E= -769.778080101103     Delta-E=       -0.000000000621 Rises=F Damp=F
 DIIS: error= 1.75D-07 at cycle  11 NSaved=  11.
 NSaved=11 IEnMin=11 EnMin= -769.778080101103     IErMin=11 ErrMin= 1.75D-07
 ErrMax= 1.75D-07  0.00D+00 EMaxC= 1.00D-01 BMatC= 3.57D-11 BMatP= 6.04D-10
 IDIUse=1 WtCom= 1.00D+00 WtEn= 0.00D+00
 Coeff-Com:  0.511D-05-0.676D-05-0.755D-04-0.212D-03-0.541D-03-0.121D-02
 Coeff-Com: -0.978D-03 0.471D-02 0.609D-01 0.228D+00 0.710D+00
 Coeff:      0.511D-05-0.676D-05-0.755D-04-0.212D-03-0.541D-03-0.121D-02
 Coeff:     -0.978D-03 0.471D-02 0.609D-01 0.228D+00 0.710D+00
 Gap=     0.179 Goal=   None    Shift=    0.000
 RMSDP=3.09D-08 MaxDP=8.65D-07 DE=-6.21D-10 OVMax= 3.09D-06

 Cycle  12  Pass 1  IDiag  1:
 RMSU=  2.05D-08    CP:  9.66D-01  1.06D+00  7.48D-01  5.42D-01  7.42D-01
                    CP:  6.57D-01  7.47D-01  7.62D-01  8.96D-01  8.35D-01
                    CP:  8.40D-01
 E= -769.778080101130     Delta-E=       -0.000000000027 Rises=F Damp=F
 DIIS: error= 9.67D-08 at cycle  12 NSaved=  12.
 NSaved=12 IEnMin=12 EnMin= -769.778080101130     IErMin=12 ErrMin= 9.67D-08
 ErrMax= 9.67D-08  0.00D+00 EMaxC= 1.00D-01 BMatC= 8.95D-12 BMatP= 3.57D-11
 IDIUse=1 WtCom= 1.00D+00 WtEn= 0.00D+00
 Coeff-Com:  0.323D-06 0.186D-05 0.479D-06-0.222D-04-0.881D-04-0.424D-03
 Coeff-Com: -0.295D-02-0.600D-02-0.366D-02 0.556D-01 0.409D+00 0.548D+00
 Coeff:      0.323D-06 0.186D-05 0.479D-06-0.222D-04-0.881D-04-0.424D-03
 Coeff:     -0.295D-02-0.600D-02-0.366D-02 0.556D-01 0.409D+00 0.548D+00
 Gap=     0.179 Goal=   None    Shift=    0.000
 RMSDP=1.24D-08 MaxDP=4.28D-07 DE=-2.73D-11 OVMax= 1.38D-06

 Cycle  13  Pass 1  IDiag  1:
 RMSU=  7.29D-09    CP:  9.66D-01  1.06D+00  7.48D-01  5.42D-01  7.42D-01
                    CP:  6.57D-01  7.47D-01  7.62D-01  9.01D-01  8.40D-01
                    CP:  9.23D-01  6.73D-01
 E= -769.778080101125     Delta-E=        0.000000000005 Rises=F Damp=F
 DIIS: error= 1.74D-08 at cycle  13 NSaved=  13.
 NSaved=13 IEnMin=12 EnMin= -769.778080101130     IErMin=13 ErrMin= 1.74D-08
 ErrMax= 1.74D-08  0.00D+00 EMaxC= 1.00D-01 BMatC= 3.99D-13 BMatP= 8.95D-12
 IDIUse=1 WtCom= 1.00D+00 WtEn= 0.00D+00
 Coeff-Com: -0.349D-06 0.131D-05 0.822D-05 0.128D-04 0.218D-04-0.502D-04
 Coeff-Com: -0.110D-02-0.288D-02-0.859D-02-0.408D-02 0.790D-01 0.212D+00
 Coeff-Com:  0.725D+00
 Coeff:     -0.349D-06 0.131D-05 0.822D-05 0.128D-04 0.218D-04-0.502D-04
 Coeff:     -0.110D-02-0.288D-02-0.859D-02-0.408D-02 0.790D-01 0.212D+00
 Coeff:      0.725D+00
 Gap=     0.179 Goal=   None    Shift=    0.000
 RMSDP=3.40D-09 MaxDP=1.07D-07 DE= 5.46D-12 OVMax= 3.41D-07

 Error on total polarization charges =  0.01972
 SCF Done:  E(RB3LYP) =  -769.778080101     A.U. after   13 cycles
            NFock= 13  Conv=0.34D-08     -V/T= 2.0095
 KE= 7.625419181053D+02 PE=-4.683305758955D+03 EE= 1.691961165974D+03
 Leave Link  502 at Sun Jul 18 13:30:33 2021, MaxMem=   104857600 cpu:             394.0 elap:              98.6
 (Enter /prod/apps/gaussian/g16b1/l601.exe)
 Copying SCF densities to generalized density rwf, IOpCl= 0 IROHF=0.

 **********************************************************************

            Population analysis using the SCF Density.

 **********************************************************************

 Orbital symmetries:
       Occupied  (A) (A) (A) (A) (A) (A) (A) (A) (A) (A) (A) (A)
                 (A) (A) (A) (A) (A) (A) (A) (A) (A) (A) (A) (A)
                 (A) (A) (A) (A) (A) (A) (A) (A) (A) (A) (A) (A)
                 (A) (A) (A) (A) (A) (A) (A) (A) (A) (A) (A) (A)
                 (A) (A) (A) (A) (A) (A) (A) (A) (A) (A) (A) (A)
                 (A) (A) (A) (A) (A) (A) (A) (A)
       Virtual   (A) (A) (A) (A) (A) (A) (A) (A) (A) (A) (A) (A)
                 (A) (A) (A) (A) (A) (A) (A) (A) (A) (A) (A) (A)
                 (A) (A) (A) (A) (A) (A) (A) (A) (A) (A) (A) (A)
                 (A) (A) (A) (A) (A) (A) (A) (A) (A) (A) (A) (A)
                 (A) (A) (A) (A) (A) (A) (A) (A) (A) (A) (A) (A)
                 (A) (A) (A) (A) (A) (A) (A) (A) (A) (A) (A) (A)
                 (A) (A) (A) (A) (A) (A) (A) (A) (A) (A) (A) (A)
                 (A) (A) (A) (A) (A) (A) (A) (A) (A) (A) (A) (A)
                 (A) (A) (A) (A) (A) (A) (A) (A) (A) (A) (A) (A)
                 (A) (A) (A) (A) (A) (A) (A) (A) (A) (A) (A) (A)
                 (A) (A) (A) (A) (A) (A) (A) (A) (A) (A) (A) (A)
                 (A) (A) (A) (A) (A) (A) (A) (A) (A) (A) (A) (A)
                 (A) (A) (A) (A) (A) (A) (A) (A) (A) (A) (A) (A)
                 (A) (A) (A) (A) (A) (A) (A) (A) (A) (A) (A) (A)
                 (A) (A) (A) (A) (A) (A) (A) (A) (A) (A) (A) (A)
                 (A) (A) (A) (A) (A) (A) (A) (A) (A) (A) (A) (A)
                 (A) (A) (A) (A) (A) (A) (A) (A) (A) (A) (A) (A)
                 (A) (A) (A) (A) (A) (A) (A) (A) (A) (A) (A) (A)
                 (A) (A) (A) (A) (A) (A) (A) (A) (A) (A) (A) (A)
                 (A) (A) (A) (A) (A) (A) (A) (A) (A) (A) (A) (A)
                 (A) (A) (A) (A) (A) (A) (A) (A) (A) (A) (A) (A)
                 (A) (A) (A) (A) (A) (A) (A)
 The electronic state is 1-A.
 Alpha  occ. eigenvalues --  -14.45025 -14.34571 -10.24996 -10.22977 -10.22587
 Alpha  occ. eigenvalues --  -10.22115 -10.20288 -10.19767 -10.19220 -10.19160
 Alpha  occ. eigenvalues --  -10.19035 -10.18925 -10.18812 -10.18804 -10.18792
 Alpha  occ. eigenvalues --  -10.18743 -10.18734 -10.18314 -10.18275  -1.01669
 Alpha  occ. eigenvalues --   -0.97832  -0.85170  -0.84468  -0.80055  -0.79708
 Alpha  occ. eigenvalues --   -0.75632  -0.75190  -0.72545  -0.71779  -0.68558
 Alpha  occ. eigenvalues --   -0.64794  -0.63493  -0.60374  -0.59974  -0.59653
 Alpha  occ. eigenvalues --   -0.58790  -0.58059  -0.56440  -0.52456  -0.51641
 Alpha  occ. eigenvalues --   -0.49512  -0.48273  -0.47671  -0.47394  -0.45465
 Alpha  occ. eigenvalues --   -0.45250  -0.44625  -0.43441  -0.43225  -0.42012
 Alpha  occ. eigenvalues --   -0.41321  -0.39762  -0.38861  -0.37931  -0.37624
 Alpha  occ. eigenvalues --   -0.37273  -0.36979  -0.36034  -0.35390  -0.34616
 Alpha  occ. eigenvalues --   -0.34108  -0.33065  -0.31469  -0.27830  -0.24610
 Alpha  occ. eigenvalues --   -0.24197  -0.23925  -0.19646
 Alpha virt. eigenvalues --   -0.01735  -0.00635  -0.00006   0.00344   0.04991
 Alpha virt. eigenvalues --    0.08350   0.09493   0.10115   0.10679   0.11259
 Alpha virt. eigenvalues --    0.11589   0.12552   0.13148   0.13867   0.14373
 Alpha virt. eigenvalues --    0.15110   0.15730   0.16280   0.16837   0.16970
 Alpha virt. eigenvalues --    0.17445   0.17799   0.17998   0.19210   0.19734
 Alpha virt. eigenvalues --    0.20109   0.21043   0.21365   0.22356   0.24074
 Alpha virt. eigenvalues --    0.24773   0.25206   0.25943   0.27067   0.28178
 Alpha virt. eigenvalues --    0.29889   0.30493   0.31453   0.33342   0.34057
 Alpha virt. eigenvalues --    0.34870   0.37230   0.38693   0.42415   0.47137
 Alpha virt. eigenvalues --    0.47900   0.48911   0.49273   0.50130   0.50713
 Alpha virt. eigenvalues --    0.51290   0.52477   0.53535   0.53758   0.54054
 Alpha virt. eigenvalues --    0.54416   0.55105   0.55373   0.57411   0.57727
 Alpha virt. eigenvalues --    0.58743   0.59278   0.59976   0.60467   0.60823
 Alpha virt. eigenvalues --    0.61266   0.61470   0.61847   0.62494   0.63265
 Alpha virt. eigenvalues --    0.63399   0.64038   0.65625   0.66842   0.67157
 Alpha virt. eigenvalues --    0.68354   0.68421   0.70075   0.70764   0.72064
 Alpha virt. eigenvalues --    0.73203   0.73723   0.74898   0.76057   0.77865
 Alpha virt. eigenvalues --    0.80069   0.81309   0.82437   0.82625   0.83166
 Alpha virt. eigenvalues --    0.83988   0.84376   0.84914   0.85072   0.85368
 Alpha virt. eigenvalues --    0.85865   0.86079   0.88031   0.89202   0.89822
 Alpha virt. eigenvalues --    0.90415   0.90875   0.91917   0.91962   0.93212
 Alpha virt. eigenvalues --    0.93505   0.93915   0.95078   0.95438   0.96720
 Alpha virt. eigenvalues --    0.97328   0.98167   0.99490   1.00668   1.01942
 Alpha virt. eigenvalues --    1.02596   1.03887   1.04905   1.06194   1.08167
 Alpha virt. eigenvalues --    1.09463   1.10141   1.12575   1.13736   1.15264
 Alpha virt. eigenvalues --    1.16511   1.18767   1.19618   1.22128   1.23874
 Alpha virt. eigenvalues --    1.25594   1.27938   1.30322   1.31244   1.31863
 Alpha virt. eigenvalues --    1.33584   1.36551   1.39693   1.41998   1.42728
 Alpha virt. eigenvalues --    1.43580   1.44745   1.46168   1.47241   1.48043
 Alpha virt. eigenvalues --    1.49652   1.50425   1.53157   1.54323   1.55192
 Alpha virt. eigenvalues --    1.57492   1.60477   1.64691   1.66588   1.70144
 Alpha virt. eigenvalues --    1.73005   1.73555   1.74051   1.76250   1.78285
 Alpha virt. eigenvalues --    1.79371   1.80184   1.81899   1.82748   1.83251
 Alpha virt. eigenvalues --    1.85889   1.86991   1.87843   1.89320   1.89873
 Alpha virt. eigenvalues --    1.91697   1.92883   1.94701   1.96325   1.96791
 Alpha virt. eigenvalues --    1.97630   1.98503   1.99393   2.00249   2.01945
 Alpha virt. eigenvalues --    2.03216   2.05732   2.06273   2.07635   2.09039
 Alpha virt. eigenvalues --    2.10795   2.12420   2.13879   2.14188   2.15319
 Alpha virt. eigenvalues --    2.17566   2.18674   2.20230   2.21583   2.21848
 Alpha virt. eigenvalues --    2.23558   2.25325   2.26771   2.27988   2.28575
 Alpha virt. eigenvalues --    2.30708   2.32445   2.33783   2.35382   2.36067
 Alpha virt. eigenvalues --    2.37170   2.37816   2.40470   2.42097   2.43581
 Alpha virt. eigenvalues --    2.44389   2.48367   2.51116   2.56406   2.58800
 Alpha virt. eigenvalues --    2.58942   2.60466   2.60874   2.62061   2.63981
 Alpha virt. eigenvalues --    2.64322   2.64805   2.68697   2.69092   2.71587
 Alpha virt. eigenvalues --    2.73379   2.75483   2.77082   2.77380   2.78714
 Alpha virt. eigenvalues --    2.80625   2.81792   2.86962   2.90661   2.97146
 Alpha virt. eigenvalues --    3.03958   3.15539   3.23895   3.38279   3.39229
 Alpha virt. eigenvalues --    3.77307   4.08890   4.09062   4.11273   4.12910
 Alpha virt. eigenvalues --    4.14041   4.17609   4.19611   4.25261   4.30562
 Alpha virt. eigenvalues --    4.35202   4.37950   4.42846   4.44460   4.48032
 Alpha virt. eigenvalues --    4.53756   4.56406   4.73352   4.78796
          Condensed to atoms (all electrons):
               1          2          3          4          5          6
     1  N    6.692347   0.293035   0.307977   0.230550  -0.039575  -0.038792
     2  H    0.293035   0.279563  -0.010093  -0.023433   0.004385  -0.000705
     3  H    0.307977  -0.010093   0.263171  -0.017874  -0.000550  -0.004454
     4  C    0.230550  -0.023433  -0.017874   5.013236   0.383923   0.380750
     5  H   -0.039575   0.004385  -0.000550   0.383923   0.500977  -0.023029
     6  H   -0.038792  -0.000705  -0.004454   0.380750  -0.023029   0.495890
     7  C   -0.035994  -0.004785   0.002733   0.362694  -0.030291  -0.037498
     8  H   -0.001548  -0.000200  -0.000029  -0.032618  -0.002833   0.004067
     9  H    0.002514   0.000051  -0.000059  -0.023945  -0.001707  -0.002510
    10  C   -0.004841   0.006964  -0.000095  -0.046727   0.004059  -0.006732
    11  H    0.002673   0.006614  -0.000094  -0.008573  -0.000047  -0.000014
    12  H    0.000109  -0.000343   0.000005   0.006038  -0.000166   0.000019
    13  N   -0.000029  -0.000237  -0.000006  -0.001526  -0.000098   0.001034
    14  C   -0.000008  -0.000001  -0.000000  -0.000133   0.000001  -0.000058
    15  C    0.000000   0.000001   0.000000  -0.000001  -0.000000  -0.000003
    16  H    0.000000  -0.000000  -0.000000  -0.000001  -0.000000  -0.000000
    17  C   -0.000000   0.000000   0.000000   0.000000   0.000000   0.000000
    18  H    0.000000  -0.000000  -0.000000   0.000000  -0.000000  -0.000000
    19  C   -0.000000  -0.000000  -0.000000  -0.000000  -0.000000   0.000000
    20  H    0.000000   0.000000   0.000000   0.000000  -0.000000   0.000000
    21  C    0.000000   0.000000   0.000000   0.000000  -0.000000   0.000000
    22  H   -0.000000  -0.000000   0.000000  -0.000000   0.000000  -0.000000
    23  C   -0.000000  -0.000000   0.000000   0.000029   0.000001  -0.000067
    24  C    0.000003   0.000000   0.000000  -0.000276  -0.000001   0.000246
    25  H   -0.000000  -0.000000  -0.000000   0.000002  -0.000000   0.000001
    26  H    0.000012  -0.000001  -0.000001  -0.000304   0.000020   0.001826
    27  C   -0.000001  -0.000000   0.000000   0.000050  -0.000002  -0.000104
    28  H    0.000000  -0.000000  -0.000000  -0.000003   0.000000   0.000021
    29  H   -0.000000   0.000000   0.000000   0.000025  -0.000002  -0.000025
    30  C    0.000008   0.000005  -0.000021  -0.002349   0.000061   0.005130
    31  C    0.000008  -0.000015  -0.000002  -0.000175  -0.000001   0.000275
    32  H    0.000000   0.000000  -0.000000  -0.000002   0.000000   0.000005
    33  C   -0.000015  -0.000016   0.000034   0.000042  -0.000002  -0.000017
    34  H   -0.000000  -0.000000  -0.000000   0.000000  -0.000000  -0.000002
    35  C   -0.000149   0.000437   0.000222   0.000147   0.000001  -0.000316
    36  H    0.000003   0.000005   0.000004  -0.000002  -0.000000  -0.000000
    37  C   -0.000598   0.003097   0.000224   0.000465   0.000037  -0.000161
    38  H   -0.000119   0.000187  -0.000001  -0.000013  -0.000001   0.000054
    39  C    0.000071   0.000371   0.000015  -0.000388   0.000082   0.007255
    40  H    0.304521  -0.010001  -0.010067  -0.017763  -0.005458   0.003423
               7          8          9         10         11         12
     1  N   -0.035994  -0.001548   0.002514  -0.004841   0.002673   0.000109
     2  H   -0.004785  -0.000200   0.000051   0.006964   0.006614  -0.000343
     3  H    0.002733  -0.000029  -0.000059  -0.000095  -0.000094   0.000005
     4  C    0.362694  -0.032618  -0.023945  -0.046727  -0.008573   0.006038
     5  H   -0.030291  -0.002833  -0.001707   0.004059  -0.000047  -0.000166
     6  H   -0.037498   0.004067  -0.002510  -0.006732  -0.000014   0.000019
     7  C    5.106279   0.361929   0.371830   0.357633  -0.061960  -0.049976
     8  H    0.361929   0.558612  -0.032475  -0.034538   0.000752  -0.005810
     9  H    0.371830  -0.032475   0.525140  -0.034295   0.005473  -0.002700
    10  C    0.357633  -0.034538  -0.034295   4.970884   0.373311   0.372001
[...]
     6  H   -0.047563   0.017952  -0.016780   0.001574   0.004153  -0.000102
     7  C    0.162360   0.425955  -0.165997  -0.011904  -0.113129   0.001217
     8  H    0.154768  -0.008817  -0.024646  -0.003348   0.002077   0.000679
     9  H   -0.214344   0.258179   0.006656   0.016141  -0.022256  -0.000196
    10  C    0.390126  -1.558630   0.731091   0.127918   0.040697  -0.010194
    11  H   -0.433022  -0.445833   0.128004   0.047472   0.036193  -0.001353
    12  H   -0.335599   0.563999  -0.083977  -0.040471  -0.014518  -0.001982
    13  N   14.449995  -4.064228   0.752204  -0.468455  -0.036430  -0.003515
    14  C   -4.064228  31.694779  -6.955762   1.110462  -2.550820   0.391521
    15  C    0.752204  -6.955762  16.938546  -1.544175  -0.938684   0.095335
    16  H   -0.468455   1.110462  -1.544175   2.386949   0.114441  -0.092441
    17  C   -0.036430  -2.550820  -0.938684   0.114441  10.124729  -0.740068
    18  H   -0.003515   0.391521   0.095335  -0.092441  -0.740068   1.698670
    19  C    0.010513   0.280060   1.096009  -0.208568  -2.260212   0.392867
    20  H   -0.013394  -0.174767   0.006176  -0.005194   0.443373  -0.057818
    21  C   -0.107174  -5.689394  -2.348063  -0.012378   1.882932  -0.017065
    22  H   -0.001271   0.557048   0.031426  -0.001903  -0.217371  -0.009742
    23  C   -0.854003   0.810171  -2.765017   0.404281  -0.812952  -0.192092
    24  C    0.038625  -0.913364  -0.646003   0.020534   0.603222  -0.009288
    25  H   -0.082255  -0.073339  -0.108820  -0.000264   0.032123   0.001648
    26  H    0.142811  -0.343468   0.154357  -0.013430  -0.023489  -0.000498
    27  C   -0.630368   0.722359  -0.439882   0.041385   0.295564  -0.001832
    28  H    0.049128  -0.058380   0.072755   0.000838  -0.015718  -0.001075
    29  H    0.023338   0.004107  -0.027485   0.000974   0.006667  -0.000152
    30  C    0.974447   0.933177  -0.531656  -0.020684   0.126492  -0.003576
    31  C   -0.943301  -0.738680   0.257955   0.049525   0.015040  -0.004583
    32  H   -0.012801  -0.009339   0.009884   0.000200  -0.003135  -0.000066
    33  C    0.576514   0.786545  -0.241053  -0.022221   0.044207   0.002156
    34  H   -0.000073  -0.001589  -0.004606  -0.000144   0.000899   0.000049
    35  C   -0.983123  -1.786683   0.478635  -0.007432  -0.056624  -0.001940
    36  H    0.018542  -0.012229   0.009006   0.000533  -0.001472  -0.000112
    37  C    1.811497   1.255766  -0.722390  -0.272728   0.009289   0.017039
    38  H   -0.566766  -0.080211  -0.081881  -0.001754   0.006161   0.000957
    39  C   -3.187631  -7.019441   1.974173   0.117584  -0.259124   0.009395
    40  H    0.009010   0.010032  -0.001596  -0.000076  -0.000277   0.000022
              19         20         21         22         23         24
     1  N   -0.000194  -0.000024   0.001649   0.000039  -0.005153   0.010307
     2  H   -0.000252  -0.000011   0.000699   0.000024   0.005106   0.002895
     3  H   -0.000136  -0.000002   0.000400   0.000002  -0.000414   0.000665
     4  C   -0.012362  -0.000138   0.011538   0.001332   0.036207  -0.053604
     5  H    0.000392   0.000049  -0.003027  -0.000133   0.001660   0.000284
     6  H   -0.000077   0.000095  -0.011445   0.002230   0.016551  -0.054884
     7  C    0.032945   0.001480  -0.088379  -0.003361   0.124597  -0.078403
     8  H   -0.001866   0.000067   0.000153  -0.000150   0.002343   0.009407
     9  H    0.017382  -0.000734  -0.005363  -0.001378   0.016139  -0.021194
    10  C    0.128803  -0.001127  -0.229605  -0.002015  -0.180015   0.174300
    11  H    0.004680  -0.000195  -0.009980  -0.000352  -0.008497   0.042237
    12  H    0.033321  -0.000186  -0.047807  -0.000785   0.000239  -0.011772
    13  N    0.010513  -0.013394  -0.107174  -0.001271  -0.854003   0.038625
    14  C    0.280060  -0.174767  -5.689394   0.557048   0.810171  -0.913364
    15  C    1.096009   0.006176  -2.348063   0.031426  -2.765017  -0.646003
    16  H   -0.208568  -0.005194  -0.012378  -0.001903   0.404281   0.020534
    17  C   -2.260212   0.443373   1.882932  -0.217371  -0.812952   0.603222
    18  H    0.392867  -0.057818  -0.017065  -0.009742  -0.192092  -0.009288
    19  C    9.471323  -0.613297  -1.522723  -0.130074  -0.863187  -0.684147
    20  H   -0.613297   1.651348   0.075670  -0.075648   0.179900   0.044043
    21  C   -1.522723   0.075670  18.369250  -1.380394  -4.870551   0.627182
    22  H   -0.130074  -0.075648  -1.380394   1.987864   1.012472  -0.118626
    23  C   -0.863187   0.179900  -4.870551   1.012472  14.868656  -0.948498
    24  C   -0.684147   0.044043   0.627182  -0.118626  -0.948498   8.144257
    25  H    0.101096   0.001685   0.344618  -0.059908  -0.167300  -0.447987
    26  H   -0.055833   0.000663  -0.152878   0.002966   0.109842   0.472208
    27  C   -0.068414   0.003900   0.598159   0.001064  -1.025691   0.359219
    28  H   -0.002238  -0.000016  -0.148119  -0.005099   0.034857  -0.148687
    29  H    0.001596   0.000064   0.037501   0.003765   0.106291  -0.175862
    30  C   -0.163256   0.005477   0.317280  -0.028333  -0.283436  -0.002719
    31  C   -0.004912   0.004881  -0.024353  -0.026127   0.304625  -0.642551
    32  H    0.003530   0.000118  -0.011542  -0.000038   0.001235   0.024110
    33  C   -0.037801  -0.000813   0.096090   0.003193  -0.160821  -0.205550
    34  H   -0.000807  -0.000028   0.002617   0.000108  -0.001191   0.002686
    35  C    0.048709   0.000726  -0.094356  -0.003624   0.125547   0.037138
    36  H    0.001195   0.000027  -0.002320  -0.000096   0.004361  -0.000999
    37  C   -0.011783  -0.006501   0.141948   0.019893  -0.291892   0.084362
    38  H   -0.010952  -0.000076   0.013133   0.000484   0.028944   0.012087
    39  C    0.303812  -0.016780  -0.403571   0.061212   0.823625  -0.413865
    40  H    0.000029  -0.000005   0.000378   0.000038   0.000783  -0.001055
              25         26         27         28         29         30
     1  N    0.000983  -0.006448  -0.016797  -0.000851  -0.001835   0.009341
     2  H   -0.000447   0.007713  -0.006341   0.000789  -0.001081   0.024486
     3  H   -0.000261   0.001800   0.001042  -0.000037   0.000160  -0.006656
     4  C    0.004526   0.011339  -0.045735   0.004022  -0.004899   0.002715
     5  H    0.001762   0.007843  -0.011196   0.000766  -0.002406   0.010548
     6  H    0.017698  -0.019693  -0.015014  -0.002305   0.007476   0.078498
     7  C   -0.001458   0.023129  -0.060931  -0.001017   0.003929   0.245734
     8  H   -0.000509   0.005377  -0.005637   0.000010   0.000469   0.027152
     9  H    0.007547  -0.019018   0.018625  -0.001042   0.000487  -0.003246
    10  C   -0.008524   0.051786  -0.077069   0.008204  -0.000182  -0.074943
    11  H   -0.000446   0.016155  -0.039198   0.000555  -0.000968  -0.250416
    12  H    0.000565  -0.010388   0.030789   0.002563  -0.000371   0.072673
    13  N   -0.082255   0.142811  -0.630368   0.049128   0.023338   0.974447
    14  C   -0.073339  -0.343468   0.722359  -0.058380   0.004107   0.933177
    15  C   -0.108820   0.154357  -0.439882   0.072755  -0.027485  -0.531656
    16  H   -0.000264  -0.013430   0.041385   0.000838   0.000974  -0.020684
    17  C    0.032123  -0.023489   0.295564  -0.015718   0.006667   0.126492
    18  H    0.001648  -0.000498  -0.001832  -0.001075  -0.000152  -0.003576
    19  C    0.101096  -0.055833  -0.068414  -0.002238   0.001596  -0.163256
    20  H    0.001685   0.000663   0.003900  -0.000016   0.000064   0.005477
    21  C    0.344618  -0.152878   0.598159  -0.148119   0.037501   0.317280
    22  H   -0.059908   0.002966   0.001064  -0.005099   0.003765  -0.028333
    23  C   -0.167300   0.109842  -1.025691   0.034857   0.106291  -0.283436
    24  C   -0.447987   0.472208   0.359219  -0.148687  -0.175862  -0.002719
    25  H    1.654092  -0.419783   0.291437  -0.040752  -0.034434   0.012254
    26  H   -0.419783   1.596650  -0.358055   0.051816  -0.006375   0.347115
    27  C    0.291437  -0.358055   9.503246   0.201897  -0.176622  -0.988695
    28  H   -0.040752   0.051816   0.201897   1.076591  -0.233654   0.128078
    29  H   -0.034434  -0.006375  -0.176622  -0.233654   1.235629   0.274257
    30  C    0.012254   0.347115  -0.988695   0.128078   0.274257  22.867499
    31  C    0.081498  -0.221459  -0.381380   0.005940  -0.007027 -10.979712
    32  H    0.004673   0.002945  -0.064654  -0.027312  -0.021295   1.283442
    33  C   -0.006927  -0.010272  -0.737555  -0.023858   0.063879   2.411001
    34  H   -0.000273   0.001741   0.067430   0.000389   0.000485   0.066400
    35  C    0.010243  -0.015281   0.612637   0.019724  -0.013531  -4.359603
    36  H    0.000278  -0.001511  -0.016664   0.000650  -0.000592  -0.150875
    37  C   -0.031631   0.120598  -0.151498  -0.028306  -0.025168   5.819299
    38  H    0.001191  -0.000909   0.022965  -0.004075  -0.000731  -0.562054
    39  C    0.049578  -0.189635  -1.434068   0.026051   0.011812 -11.027681
    40  H    0.000115  -0.002874   0.001317  -0.000091   0.000245   0.003478
              31         32         33         34         35         36
     1  N    0.017818   0.001120  -0.010703  -0.000322   0.068535  -0.001893
     2  H   -0.042448   0.001094   0.041436  -0.001870  -0.029790  -0.003107
     3  H    0.004401  -0.000337  -0.005167   0.000180  -0.004891  -0.000531
     4  C    0.013668   0.001289   0.016023   0.000238  -0.006005   0.005758
     5  H   -0.002882   0.000093   0.002899   0.000038  -0.003688  -0.000014
     6  H    0.030512  -0.003258   0.005072  -0.001452   0.013760   0.002790
     7  C   -0.054860  -0.002717   0.018501   0.000424  -0.122876  -0.002676
     8  H   -0.006255  -0.000308   0.001503   0.000100  -0.002423  -0.000581
     9  H    0.005634   0.000022   0.001034  -0.000093  -0.009770   0.000301
    10  C    0.104727   0.002486   0.038210  -0.002542  -0.089929   0.020613
    11  H    0.051075   0.000358  -0.038029  -0.000598   0.106350   0.013736
    12  H   -0.007532  -0.000209   0.009487   0.000121  -0.001474  -0.000996
    13  N   -0.943301  -0.012801   0.576514  -0.000073  -0.983123   0.018542
    14  C   -0.738680  -0.009339   0.786545  -0.001589  -1.786683  -0.012229
    15  C    0.257955   0.009884  -0.241053  -0.004606   0.478635   0.009006
    16  H    0.049525   0.000200  -0.022221  -0.000144  -0.007432   0.000533
    17  C    0.015040  -0.003135   0.044207   0.000899  -0.056624  -0.001472
    18  H   -0.004583  -0.000066   0.002156   0.000049  -0.001940  -0.000112
    19  C   -0.004912   0.003530  -0.037801  -0.000807   0.048709   0.001195
    20  H    0.004881   0.000118  -0.000813  -0.000028   0.000726   0.000027
    21  C   -0.024353  -0.011542   0.096090   0.002617  -0.094356  -0.002320
    22  H   -0.026127  -0.000038   0.003193   0.000108  -0.003624  -0.000096
    23  C    0.304625   0.001235  -0.160821  -0.001191   0.125547   0.004361
    24  C   -0.642551   0.024110  -0.205550   0.002686   0.037138  -0.000999
    25  H    0.081498   0.004673  -0.006927  -0.000273   0.010243   0.000278
    26  H   -0.221459   0.002945  -0.010272   0.001741  -0.015281  -0.001511
    27  C   -0.381380  -0.064654  -0.737555   0.067430   0.612637  -0.016664
    28  H    0.005940  -0.027312  -0.023858   0.000389   0.019724   0.000650
    29  H   -0.007027  -0.021295   0.063879   0.000485  -0.013531  -0.000592
    30  C  -10.979712   1.283442   2.411001   0.066400  -4.359603  -0.150875
    31  C   23.891378  -1.800661  -5.662043   0.576901   5.316147  -0.186511
    32  H   -1.800661   2.098286   0.485334  -0.067851  -0.327551  -0.020701
    33  C   -5.662043   0.485334  13.908766  -0.966801  -5.363076   0.378406
    34  H    0.576901  -0.067851  -0.966801   1.693503   0.457729  -0.047803
    35  C    5.316147  -0.327551  -5.363076   0.457729  15.013854  -1.074839
    36  H   -0.186511  -0.020701   0.378406  -0.047803  -1.074839   1.827124
    37  C   -7.749981   0.198320   5.284111  -0.097659  -6.932114   0.342658
    38  H    0.215101   0.016871  -0.275071  -0.019787   0.915767  -0.095861
    39  C    3.754418  -0.036294  -4.683353  -0.185123   3.755164   0.534227
    40  H    0.001631  -0.000021  -0.000977   0.000052   0.003121   0.000085
              37         38         39         40
     1  N    0.182351   0.018933  -0.107230   0.432809
     2  H    0.126193   0.004764  -0.102020  -0.053862
     3  H   -0.014484  -0.000487   0.027375  -0.070954
     4  C   -0.354430   0.006039   0.403898  -0.080907
     5  H    0.027164   0.005312  -0.019883  -0.044047
     6  H   -0.047201   0.002690   0.028101   0.038060
     7  C    0.106905  -0.012428  -0.673181   0.006970
     8  H    0.046029   0.004283  -0.028140   0.006912
     9  H   -0.047432  -0.010463  -0.143564   0.006550
    10  C   -0.593323   0.069269  -0.382063  -0.049312
    11  H   -0.458140  -0.027511   0.891944  -0.015145
    12  H    0.132898   0.039435  -0.438326   0.000005
    13  N    1.811497  -0.566766  -3.187631   0.009010
    14  C    1.255766  -0.080211  -7.019441   0.010032
    15  C   -0.722390  -0.081881   1.974173  -0.001596
    16  H   -0.272728  -0.001754   0.117584  -0.000076
    17  C    0.009289   0.006161  -0.259124  -0.000277
    18  H    0.017039   0.000957   0.009395   0.000022
    19  C   -0.011783  -0.010952   0.303812   0.000029
    20  H   -0.006501  -0.000076  -0.016780  -0.000005
    21  C    0.141948   0.013133  -0.403571   0.000378
    22  H    0.019893   0.000484   0.061212   0.000038
    23  C   -0.291892   0.028944   0.823625   0.000783
    24  C    0.084362   0.012087  -0.413865  -0.001055
    25  H   -0.031631   0.001191   0.049578   0.000115
    26  H    0.120598  -0.000909  -0.189635  -0.002874
    27  C   -0.151498   0.022965  -1.434068   0.001317
    28  H   -0.028306  -0.004075   0.026051  -0.000091
    29  H   -0.025168  -0.000731   0.011812   0.000245
    30  C    5.819299  -0.562054 -11.027681   0.003478
    31  C   -7.749981   0.215101   3.754418   0.001631
    32  H    0.198320   0.016871  -0.036294  -0.000021
    33  C    5.284111  -0.275071  -4.683353  -0.000977
    34  H   -0.097659  -0.019787  -0.185123   0.000052
    35  C   -6.932114   0.915767   3.755164   0.003121
    36  H    0.342658  -0.095861   0.534227   0.000085
    37  C   28.039398  -2.661919 -18.361026   0.000791
    38  H   -2.661919   2.881003   2.035736   0.000374
    39  C  -18.361026   2.035736  40.154543  -0.000018
    40  H    0.000791   0.000374  -0.000018   0.545485
 Mulliken charges:
               1
     1  N   -0.546367
     2  H    0.242502
     3  H    0.193257
     4  C    1.106450
     5  H   -0.130692
     6  H   -0.190564
     7  C    0.502721
     8  H   -0.182935
     9  H   -0.084847
    10  C    0.285091
    11  H   -0.376554
    12  H   -0.192960
    13  N    0.507567
    14  C   -1.003986
    15  C    0.936805
    16  H   -0.712619
    17  C    0.280243
    18  H   -0.461826
    19  C    0.724829
    20  H   -0.452987
    21  C    0.659289
    22  H   -0.618729
    23  C    0.412275
    24  C    0.869291
    25  H   -0.134290
    26  H   -0.257555
    27  C   -0.019739
    28  H    0.057008
    29  H   -0.048456
    30  C   -0.603303
    31  C    0.784382
    32  H   -0.725320
    33  C    0.277730
    34  H   -0.471476
    35  C    0.306838
    36  H   -0.537907
    37  C    1.093097
    38  H   -0.888564
    39  C    0.149371
    40  H    0.252928
 Sum of Mulliken charges =   1.00000
 Mulliken charges with hydrogens summed into heavy atoms:
               1
     1  N    0.142320
     4  C    0.785194
     7  C    0.234939
    10  C   -0.284423
    13  N    0.507567
    14  C   -1.003986
    15  C    0.224186
    17  C   -0.181583
    19  C    0.271843
    21  C    0.040560
    23  C    0.412275
    24  C    0.477446
    27  C   -0.011186
    30  C   -0.603303
    31  C    0.059062
    33  C   -0.193746
    35  C   -0.231069
    37  C    0.204533
    39  C    0.149371
 Electronic spatial extent (au):  <R**2>=           4744.9111
 Charge=              1.0000 electrons
 Dipole moment (field-independent basis, Debye):
    X=             -9.4254    Y=             -9.7857    Z=              3.1364  Tot=             13.9440
 Quadrupole moment (field-independent basis, Debye-Ang):
   XX=            -66.7266   YY=            -76.8718   ZZ=           -100.1562
   XY=             26.3841   XZ=             -6.3251   YZ=             -1.2719
 Traceless Quadrupole moment (field-independent basis, Debye-Ang):
   XX=             14.5250   YY=              4.3797   ZZ=            -18.9047
   XY=             26.3841   XZ=             -6.3251   YZ=             -1.2719
 Octapole moment (field-independent basis, Debye-Ang**2):
  XXX=            -81.8918  YYY=           -105.1249  ZZZ=             11.9870  XYY=           -108.9225
  XXY=            -67.5709  XXZ=              9.1427  XZZ=            -12.9980  YZZ=            -23.4513
  YYZ=             35.0082  XYZ=             32.0580
 Hexadecapole moment (field-independent basis, Debye-Ang**3):
 XXXX=          -2857.1759 YYYY=          -1581.8617 ZZZZ=           -950.5412 XXXY=            323.7746
 XXXZ=            -89.8116 YYYX=            233.3442 YYYZ=            -31.7535 ZZZX=            -31.0385
 ZZZY=              0.3571 XXYY=           -639.3848 XXZZ=           -648.1585 YYZZ=           -445.0362
 XXYZ=            -58.9305 YYXZ=            -56.3155 ZZXY=             45.8456
 N-N= 1.450476551126D+03 E-N=-4.665031253210D+03  KE= 7.638884477734D+02
 Leave Link  601 at Sun Jul 18 15:32:27 2021, MaxMem=   262144000 cpu:               1.3 elap:               0.4
 (Enter /prod/apps/gaussian/g16b1/l9999.exe)
 1\1\GINC-PIRINEUS12\SP\RMP2-FC\Aug-CC-pVDZ\C17H21N2(1+)\UBATOR02\18-Ju
 l-2021\0\\#p mp2/aug-cc-pVDZ scf=tight maxdisk=180GB geom=allcheck\\SE
 T_328_BBB20_conf1.geo_090_075_060 geometry\\1,1\N,0,-1.3893542464,0.51
 9628883,3.4567943698\H,0,-1.4868027734,-0.4206087107,3.0396327277\H,0,
 -2.3413710366,0.8696599864,3.637637037\C,0,-0.6325456833,1.4595768879,
 2.5543525063\H,0,-0.7140191543,2.4454651448,3.0094982896\H,0,-1.165368
 2198,1.4680924171,1.6035064223\C,0,0.8282250348,1.0568421524,2.3889688
 32\H,0,1.319019678,1.0538832318,3.36957723\H,0,1.3064120609,1.84625740
 4,1.8014413147\C,0,1.0785838243,-0.3039243878,1.7102108919\H,0,0.65693
 63146,-1.1053612542,2.3151882018\H,0,2.1560474796,-0.4782328315,1.6980
 942\N,0,0.5660750537,-0.3759271885,0.3376177189\C,0,1.4481455105,0.064
 3087804,-0.6954827725\C,0,2.7330805831,-0.4879333333,-0.8035084949\H,0
 ,3.0352851677,-1.274893043,-0.1199148185\C,0,3.615919282,-0.047417232,
 -1.7871751274\H,0,4.6042970719,-0.4889150182,-1.8587747947\C,0,3.21962
 48636,0.9455316094,-2.6853675982\H,0,3.899992151,1.2909107115,-3.45683
 05729\C,0,1.9407335666,1.4918011109,-2.5831832551\H,0,1.6230924437,2.2
 687691376,-3.2726967387\C,0,1.0491283012,1.0738242815,-1.588151174\C,0
 ,-0.3360893867,1.648147316,-1.4811813098\H,0,-0.4265239691,2.501644037
 4,-2.1580767956\H,0,-0.5164138409,2.0204278436,-0.466202001\C,0,-1.409
 1207978,0.6178392504,-1.8522506371\H,0,-1.20329521,0.2702137668,-2.872
 9268767\H,0,-2.3804848434,1.1222071088,-1.9046225779\C,0,-1.5709632738
 ,-0.593113202,-0.9458523739\C,0,-2.7553866794,-1.3245601627,-1.1317653
 466\H,0,-3.4510226761,-0.9697739003,-1.8887521899\C,0,-3.0803141082,-2
 .4511941062,-0.3836091304\H,0,-4.0148656297,-2.9750740133,-0.555331118
 8\C,0,-2.1791543995,-2.8866248222,0.5891829761\H,0,-2.3866035656,-3.77
 17698747,1.1829632365\C,0,-0.9883951335,-2.1947252784,0.7842292545\H,0
 ,-0.2809558517,-2.5774156645,1.5098372288\C,0,-0.6586075758,-1.0359932
 042,0.0457939343\H,0,-0.9199403321,0.4114261659,4.3691293324\\Version=
 ES64L-G16RevB.01\State=1-A\HF=-764.7511229\MP2=-767.4674691\RMSD=5.872
 e-09\PG=C01 [X(C17H21N2)]\\@


 QUANTUM MECHANICS IS BOHRING -- M.S. GORDON
 Job cpu time:       0 days  4 hours 20 minutes 14.5 seconds.
 Elapsed time:       0 days  1 hours 13 minutes 10.7 seconds.
 File lengths (MBytes):  RWF= 131045 Int=      0 D2E=      0 Chk=     31 Scr=      1
 Normal termination of Gaussian 16 at Sun Jul 18 15:32:29 2021.
