 Entering Gaussian System, Link 0=g16
 Initial command:
 /prod/apps/gaussian/g16b1/l1.exe "/tmp/ubator02/1839614/Gau-205752.inp" -scrdir="/tmp/ubator02/1839614/"
 Entering Link 1 = /prod/apps/gaussian/g16b1/l1.exe PID=    205753.
  
 Copyright (c) 1988-2017, Gaussian, Inc.  All Rights Reserved.
  
 This is part of the Gaussian(R) 16 program.  It is based on
 the Gaussian(R) 09 system (copyright 2009, Gaussian, Inc.),
 the Gaussian(R) 03 system (copyright 2003, Gaussian, Inc.),
 the Gaussian(R) 98 system (copyright 1998, Gaussian, Inc.),
 the Gaussian(R) 94 system (copyright 1995, Gaussian, Inc.),
 the Gaussian 92(TM) system (copyright 1992, Gaussian, Inc.),
 the Gaussian 90(TM) system (copyright 1990, Gaussian, Inc.),
 the Gaussian 88(TM) system (copyright 1988, Gaussian, Inc.),
 the Gaussian 86(TM) system (copyright 1986, Carnegie Mellon
 University), and the Gaussian 82(TM) system (copyright 1983,
 Carnegie Mellon University). Gaussian is a federally registered
 trademark of Gaussian, Inc.
  
 This software contains proprietary and confidential information,
 including trade secrets, belonging to Gaussian, Inc.
  
 This software is provided under written license and may be
 used, copied, transmitted, or stored only in accord with that
 written license.
  
 The following legend is applicable only to US Government
 contracts under FAR:
  
                    RESTRICTED RIGHTS LEGEND
  
 Use, reproduction and disclosure by the US Government is
 subject to restrictions as set forth in subparagraphs (a)
 and (c) of the Commercial Computer Software - Restricted
 Rights clause in FAR 52.227-19.
  
 Gaussian, Inc.
 340 Quinnipiac St., Bldg. 40, Wallingford CT 06492
  
  
 ---------------------------------------------------------------
 Warning -- This program may not be used in any manner that
 competes with the business of Gaussian, Inc. or will provide
 assistance to any competitor of Gaussian, Inc.  The licensee
 of this program is prohibited from giving any competitor of
 Gaussian, Inc. access to this program.  By using this program,
 the user acknowledges that Gaussian, Inc. is engaged in the
 business of creating and licensing software in the field of
 computational chemistry and represents and warrants to the
 licensee that it is not a competitor of Gaussian, Inc. and that
 it will not use this program in any manner prohibited above.
 ---------------------------------------------------------------
  

 Cite this work as:
 Gaussian 16, Revision B.01,
 M. J. Frisch, G. W. Trucks, H. B. Schlegel, G. E. Scuseria, 
 M. A. Robb, J. R. Cheeseman, G. Scalmani, V. Barone, 
 G. A. Petersson, H. Nakatsuji, X. Li, M. Caricato, A. V. Marenich, 
 J. Bloino, B. G. Janesko, R. Gomperts, B. Mennucci, H. P. Hratchian, 
 J. V. Ortiz, A. F. Izmaylov, J. L. Sonnenberg, D. Williams-Young, 
 F. Ding, F. Lipparini, F. Egidi, J. Goings, B. Peng, A. Petrone, 
 T. Henderson, D. Ranasinghe, V. G. Zakrzewski, J. Gao, N. Rega, 
 G. Zheng, W. Liang, M. Hada, M. Ehara, K. Toyota, R. Fukuda, 
 J. Hasegawa, M. Ishida, T. Nakajima, Y. Honda, O. Kitao, H. Nakai, 
 T. Vreven, K. Throssell, J. A. Montgomery, Jr., J. E. Peralta, 
 F. Ogliaro, M. J. Bearpark, J. J. Heyd, E. N. Brothers, K. N. Kudin, 
 V. N. Staroverov, T. A. Keith, R. Kobayashi, J. Normand, 
 K. Raghavachari, A. P. Rendell, J. C. Burant, S. S. Iyengar, 
 J. Tomasi, M. Cossi, J. M. Millam, M. Klene, C. Adamo, R. Cammi, 
 J. W. Ochterski, R. L. Martin, K. Morokuma, O. Farkas, 
 J. B. Foresman, and D. J. Fox, Gaussian, Inc., Wallingford CT, 2016.
 
 ******************************************
 Gaussian 16:  ES64L-G16RevB.01 20-Dec-2017
                18-Jul-2021 
 ******************************************
 %mem=800MB
 %nproc=4
 Will use up to    4 processors via shared memory.
 %chk=SET_328_BBB30_conf1.geo_075_060_195.chk
 -----------------------------------------------------------
 #p b3lyp/6-31G(d) opt freq scrf=(iefpcm,read,solvent=water)
 -----------------------------------------------------------
 1/18=20,19=15,26=3,38=1,40=2/1,3;
 2/9=110,12=2,17=6,18=5,40=1/2;
 3/5=1,6=6,7=1,11=2,25=1,30=1,70=2203,71=1,72=1,74=-5/1,2,3;
 4//1;
 5/5=2,38=5,53=1/2;
 6/7=2,8=2,9=2,10=2,28=1/1;
 7//1,2,3,16;
 1/18=20,19=15,26=3/3(2);
 2/9=110/2;
 99//99;
 2/9=110/2;
 3/5=1,6=6,7=1,11=2,25=1,30=1,70=2205,71=1,72=1,74=-5/1,2,3;
 4/5=5,16=3,69=1/1;
 5/5=2,38=5,53=1/2;
 7//1,2,3,16;
 1/18=20,19=15,26=3/3(-5);
 2/9=110/2;
 6/7=2,8=2,9=2,10=2,19=2,28=1/1;
 99/9=1/99;
 Leave Link    1 at Sun Jul 18 14:19:35 2021, MaxMem=   104857600 cpu:               0.1 elap:               0.0
 (Enter /prod/apps/gaussian/g16b1/l101.exe)
 --------------------------------------------
 SET_328_BBB30_conf1.geo_075_060_195 geometry
 --------------------------------------------
 Symbolic Z-matrix:
 Charge =  1 Multiplicity = 1
 C                    -2.282    -1.629     0.589 
 H                    -2.301    -1.126     1.559 
 H                    -2.327    -2.687     0.86 
 H                    -3.148    -1.366    -0.023 
 N                    -1.05     -1.286    -0.138 
 H                    -1.124    -0.332    -0.428 
 C                     0.241    -1.442     0.575 
 C                     0.651    -2.886     0.673 
 H                    -0.115    -3.605     0.972 
 H                     1.506    -2.969     1.347 
 H                     1.012    -3.177    -0.315 
 H                     0.077    -1.163     1.619 
 C                     1.298    -0.651    -0.277 
 H                     1.385    -1.15     -1.244 
 H                     2.24     -0.679     0.275 
 C                     0.949     0.902    -0.432 
 C                     1.144     1.803     0.641 
 H                     1.661     1.524     1.556 
 C                     0.488     3.022     0.585 
 H                     0.572     3.888     1.237 
 C                    -0.091     3.392    -0.633 
 H                    -0.386     4.435    -0.714 
 C                    -0.267     2.529    -1.683 
 H                    -0.709     2.887    -2.609 
 C                     0.235     1.242    -1.547 
 H                     0.326     0.531    -2.364 
 H                    -1.014    -1.855    -0.96 
 
 ITRead=  0  0  0  0  0  0  0  0  0  0  0  0  0  0  0  0  0  0  0  0
 ITRead=  0  0  0  0  0  0  0
 MicOpt= -1 -1 -1 -1 -1 -1 -1 -1 -1 -1 -1 -1 -1 -1 -1 -1 -1 -1 -1 -1
 MicOpt= -1 -1 -1 -1 -1 -1 -1
 NAtoms=     27 NQM=       27 NQMF=       0 NMMI=      0 NMMIF=      0
                NMic=       0 NMicF=      0.
                    Isotopes and Nuclear Properties:
 (Nuclear quadrupole moments (NQMom) in fm**2, nuclear magnetic moments (NMagM)
  in nuclear magnetons)

  Atom         1           2           3           4           5           6           7           8           9          10
 IAtWgt=          12           1           1           1          14           1          12          12           1           1
 AtmWgt=  12.0000000   1.0078250   1.0078250   1.0078250  14.0030740   1.0078250  12.0000000  12.0000000   1.0078250   1.0078250
 NucSpn=           0           1           1           1           2           1           0           0           1           1
 AtZEff=  -0.0000000  -0.0000000  -0.0000000  -0.0000000  -0.0000000  -0.0000000  -0.0000000  -0.0000000  -0.0000000  -0.0000000
 NQMom=    0.0000000   0.0000000   0.0000000   0.0000000   2.0440000   0.0000000   0.0000000   0.0000000   0.0000000   0.0000000
 NMagM=    0.0000000   2.7928460   2.7928460   2.7928460   0.4037610   2.7928460   0.0000000   0.0000000   2.7928460   2.7928460
 AtZNuc=   6.0000000   1.0000000   1.0000000   1.0000000   7.0000000   1.0000000   6.0000000   6.0000000   1.0000000   1.0000000

  Atom        11          12          13          14          15          16          17          18          19          20
 IAtWgt=           1           1          12           1           1          12          12           1          12           1
 AtmWgt=   1.0078250   1.0078250  12.0000000   1.0078250   1.0078250  12.0000000  12.0000000   1.0078250  12.0000000   1.0078250
 NucSpn=           1           1           0           1           1           0           0           1           0           1
 AtZEff=  -0.0000000  -0.0000000  -0.0000000  -0.0000000  -0.0000000  -0.0000000  -0.0000000  -0.0000000  -0.0000000  -0.0000000
 NQMom=    0.0000000   0.0000000   0.0000000   0.0000000   0.0000000   0.0000000   0.0000000   0.0000000   0.0000000   0.0000000
 NMagM=    2.7928460   2.7928460   0.0000000   2.7928460   2.7928460   0.0000000   0.0000000   2.7928460   0.0000000   2.7928460
 AtZNuc=   1.0000000   1.0000000   6.0000000   1.0000000   1.0000000   6.0000000   6.0000000   1.0000000   6.0000000   1.0000000

  Atom        21          22          23          24          25          26          27
 IAtWgt=          12           1          12           1          12           1           1
 AtmWgt=  12.0000000   1.0078250  12.0000000   1.0078250  12.0000000   1.0078250   1.0078250
 NucSpn=           0           1           0           1           0           1           1
 AtZEff=  -0.0000000  -0.0000000  -0.0000000  -0.0000000  -0.0000000  -0.0000000  -0.0000000
 NQMom=    0.0000000   0.0000000   0.0000000   0.0000000   0.0000000   0.0000000   0.0000000
 NMagM=    0.0000000   2.7928460   0.0000000   2.7928460   0.0000000   2.7928460   2.7928460
 AtZNuc=   6.0000000   1.0000000   6.0000000   1.0000000   6.0000000   1.0000000   1.0000000
 Leave Link  101 at Sun Jul 18 14:19:35 2021, MaxMem=   104857600 cpu:               0.5 elap:               0.1
 (Enter /prod/apps/gaussian/g16b1/l103.exe)

 GradGradGradGradGradGradGradGradGradGradGradGradGradGradGradGradGradGrad
 Berny optimization.
 Initialization pass.
                           ----------------------------
                           !    Initial Parameters    !
                           ! (Angstroms and Degrees)  !
 --------------------------                            --------------------------
 ! Name  Definition              Value          Derivative Info.                !
 --------------------------------------------------------------------------------
 ! R1    R(1,2)                  1.0928         estimate D2E/DX2                !
 ! R2    R(1,3)                  1.0931         estimate D2E/DX2                !
 ! R3    R(1,4)                  1.0926         estimate D2E/DX2                !
 ! R4    R(1,5)                  1.4711         estimate D2E/DX2                !
 ! R5    R(5,6)                  0.9998         estimate D2E/DX2                !
 ! R6    R(5,7)                  1.483          estimate D2E/DX2                !
 ! R7    R(5,27)                 1.0004         estimate D2E/DX2                !
 ! R8    R(7,8)                  1.5043         estimate D2E/DX2                !
 ! R9    R(7,12)                 1.093          estimate D2E/DX2                !
 ! R10   R(7,13)                 1.5713         estimate D2E/DX2                !
 ! R11   R(8,9)                  1.0923         estimate D2E/DX2                !
 ! R12   R(8,10)                 1.0919         estimate D2E/DX2                !
 ! R13   R(8,11)                 1.0914         estimate D2E/DX2                !
 ! R14   R(13,14)                1.0916         estimate D2E/DX2                !
 ! R15   R(13,15)                1.0922         estimate D2E/DX2                !
 ! R16   R(13,16)                1.5993         estimate D2E/DX2                !
 ! R17   R(16,17)                1.4146         estimate D2E/DX2                !
 ! R18   R(16,25)                1.367          estimate D2E/DX2                !
 ! R19   R(17,18)                1.0874         estimate D2E/DX2                !
 ! R20   R(17,19)                1.3854         estimate D2E/DX2                !
 ! R21   R(19,20)                1.0873         estimate D2E/DX2                !
 ! R22   R(19,21)                1.3985         estimate D2E/DX2                !
 ! R23   R(21,22)                1.0869         estimate D2E/DX2                !
 ! R24   R(21,23)                1.3705         estimate D2E/DX2                !
 ! R25   R(23,24)                1.0867         estimate D2E/DX2                !
 ! R26   R(23,25)                1.3881         estimate D2E/DX2                !
 ! R27   R(25,26)                1.0869         estimate D2E/DX2                !
 ! A1    A(2,1,3)              102.9869         estimate D2E/DX2                !
 ! A2    A(2,1,4)              111.8773         estimate D2E/DX2                !
 ! A3    A(2,1,5)              110.2366         estimate D2E/DX2                !
 ! A4    A(3,1,4)              109.8305         estimate D2E/DX2                !
 ! A5    A(3,1,5)              112.5001         estimate D2E/DX2                !
 ! A6    A(4,1,5)              109.3217         estimate D2E/DX2                !
 ! A7    A(1,5,6)              107.6879         estimate D2E/DX2                !
 ! A8    A(1,5,7)              117.8348         estimate D2E/DX2                !
 ! A9    A(1,5,27)             107.674          estimate D2E/DX2                !
 ! A10   A(6,5,7)              107.7124         estimate D2E/DX2                !
 ! A11   A(6,5,27)             107.8812         estimate D2E/DX2                !
 ! A12   A(7,5,27)             107.6914         estimate D2E/DX2                !
 ! A13   A(5,7,8)              111.6885         estimate D2E/DX2                !
 ! A14   A(5,7,12)             107.5626         estimate D2E/DX2                !
 ! A15   A(5,7,13)             105.7806         estimate D2E/DX2                !
 ! A16   A(8,7,12)             102.9264         estimate D2E/DX2                !
 ! A17   A(8,7,13)             109.5861         estimate D2E/DX2                !
 ! A18   A(12,7,13)            119.3644         estimate D2E/DX2                !
 ! A19   A(7,8,9)              117.2946         estimate D2E/DX2                !
 ! A20   A(7,8,10)             109.0633         estimate D2E/DX2                !
 ! A21   A(7,8,11)             106.6859         estimate D2E/DX2                !
 ! A22   A(9,8,10)             109.2765         estimate D2E/DX2                !
 ! A23   A(9,8,11)             107.7132         estimate D2E/DX2                !
 ! A24   A(10,8,11)            106.232          estimate D2E/DX2                !
 ! A25   A(7,13,14)            107.6877         estimate D2E/DX2                !
 ! A26   A(7,13,15)            107.0526         estimate D2E/DX2                !
 ! A27   A(7,13,16)            113.2416         estimate D2E/DX2                !
 ! A28   A(14,13,15)           111.5462         estimate D2E/DX2                !
 ! A29   A(14,13,16)           112.0508         estimate D2E/DX2                !
 ! A30   A(15,13,16)           105.1946         estimate D2E/DX2                !
 ! A31   A(13,16,17)           120.9908         estimate D2E/DX2                !
 ! A32   A(13,16,25)           115.7578         estimate D2E/DX2                !
 ! A33   A(17,16,25)           122.1592         estimate D2E/DX2                !
 ! A34   A(16,17,18)           122.7102         estimate D2E/DX2                !
 ! A35   A(16,17,19)           117.6763         estimate D2E/DX2                !
 ! A36   A(18,17,19)           119.0062         estimate D2E/DX2                !
 ! A37   A(17,19,20)           129.7916         estimate D2E/DX2                !
 ! A38   A(17,19,21)           117.6481         estimate D2E/DX2                !
 ! A39   A(20,19,21)           110.0931         estimate D2E/DX2                !
 ! A40   A(19,21,22)           115.5411         estimate D2E/DX2                !
 ! A41   A(19,21,23)           123.6317         estimate D2E/DX2                !
 ! A42   A(22,21,23)           120.817          estimate D2E/DX2                !
 ! A43   A(21,23,24)           119.8426         estimate D2E/DX2                !
 ! A44   A(21,23,25)           117.5373         estimate D2E/DX2                !
 ! A45   A(24,23,25)           122.4117         estimate D2E/DX2                !
 ! A46   A(16,25,23)           119.9612         estimate D2E/DX2                !
 ! A47   A(16,25,26)           113.9975         estimate D2E/DX2                !
 ! A48   A(23,25,26)           124.2739         estimate D2E/DX2                !
 ! D1    D(2,1,5,6)            -71.1982         estimate D2E/DX2                !
 ! D2    D(2,1,5,7)             50.774          estimate D2E/DX2                !
 ! D3    D(2,1,5,27)           172.7068         estimate D2E/DX2                !
 ! D4    D(3,1,5,6)            174.4745         estimate D2E/DX2                !
 ! D5    D(3,1,5,7)            -63.5533         estimate D2E/DX2                !
 ! D6    D(3,1,5,27)            58.3794         estimate D2E/DX2                !
 ! D7    D(4,1,5,6)             52.1754         estimate D2E/DX2                !
 ! D8    D(4,1,5,7)            174.1476         estimate D2E/DX2                !
 ! D9    D(4,1,5,27)           -63.9196         estimate D2E/DX2                !
 ! D10   D(1,5,7,8)             75.8903         estimate D2E/DX2                !
 ! D11   D(1,5,7,12)           -36.3437         estimate D2E/DX2                !
 ! D12   D(1,5,7,13)          -164.9471         estimate D2E/DX2                !
 ! D13   D(6,5,7,8)           -162.1501         estimate D2E/DX2                !
 ! D14   D(6,5,7,12)            85.616          estimate D2E/DX2                !
 ! D15   D(6,5,7,13)           -42.9875         estimate D2E/DX2                !
 ! D16   D(27,5,7,8)           -46.0336         estimate D2E/DX2                !
 ! D17   D(27,5,7,12)         -158.2675         estimate D2E/DX2                !
 ! D18   D(27,5,7,13)           73.129          estimate D2E/DX2                !
 ! D19   D(5,7,8,9)            -45.4693         estimate D2E/DX2                !
 ! D20   D(5,7,8,10)          -170.3144         estimate D2E/DX2                !
 ! D21   D(5,7,8,11)            75.3344         estimate D2E/DX2                !
 ! D22   D(12,7,8,9)            69.6474         estimate D2E/DX2                !
 ! D23   D(12,7,8,10)          -55.1978         estimate D2E/DX2                !
 ! D24   D(12,7,8,11)         -169.549          estimate D2E/DX2                !
 ! D25   D(13,7,8,9)          -162.3516         estimate D2E/DX2                !
 ! D26   D(13,7,8,10)           72.8032         estimate D2E/DX2                !
 ! D27   D(13,7,8,11)          -41.548          estimate D2E/DX2                !
 ! D28   D(5,7,13,14)          -64.7526         estimate D2E/DX2                !
 ! D29   D(5,7,13,15)          175.1799         estimate D2E/DX2                !
 ! D30   D(5,7,13,16)           59.7063         estimate D2E/DX2                !
 ! D31   D(8,7,13,14)           55.7897         estimate D2E/DX2                !
 ! D32   D(8,7,13,15)          -64.2778         estimate D2E/DX2                !
 ! D33   D(8,7,13,16)         -179.7514         estimate D2E/DX2                !
 ! D34   D(12,7,13,14)         173.9954         estimate D2E/DX2                !
 ! D35   D(12,7,13,15)          53.928          estimate D2E/DX2                !
 ! D36   D(12,7,13,16)         -61.5456         estimate D2E/DX2                !
 ! D37   D(7,13,16,17)          75.2076         estimate D2E/DX2                !
 ! D38   D(7,13,16,25)         -93.0927         estimate D2E/DX2                !
 ! D39   D(14,13,16,17)       -162.7387         estimate D2E/DX2                !
 ! D40   D(14,13,16,25)         28.961          estimate D2E/DX2                !
 ! D41   D(15,13,16,17)        -41.3662         estimate D2E/DX2                !
 ! D42   D(15,13,16,25)        150.3336         estimate D2E/DX2                !
 ! D43   D(13,16,17,18)          8.8456         estimate D2E/DX2                !
 ! D44   D(13,16,17,19)       -162.1206         estimate D2E/DX2                !
 ! D45   D(25,16,17,18)        176.387          estimate D2E/DX2                !
 ! D46   D(25,16,17,19)          5.4209         estimate D2E/DX2                !
 ! D47   D(13,16,25,23)        171.5058         estimate D2E/DX2                !
 ! D48   D(13,16,25,26)        -22.9965         estimate D2E/DX2                !
 ! D49   D(17,16,25,23)          3.3552         estimate D2E/DX2                !
 ! D50   D(17,16,25,26)        168.853          estimate D2E/DX2                !
 ! D51   D(16,17,19,20)       -173.1131         estimate D2E/DX2                !
 ! D52   D(16,17,19,21)        -12.8807         estimate D2E/DX2                !
 ! D53   D(18,17,19,20)         15.5756         estimate D2E/DX2                !
 ! D54   D(18,17,19,21)        175.808          estimate D2E/DX2                !
 ! D55   D(17,19,21,22)       -166.0708         estimate D2E/DX2                !
 ! D56   D(17,19,21,23)         12.7736         estimate D2E/DX2                !
 ! D57   D(20,19,21,22)         -2.1349         estimate D2E/DX2                !
 ! D58   D(20,19,21,23)        176.7095         estimate D2E/DX2                !
 ! D59   D(19,21,23,24)       -178.9492         estimate D2E/DX2                !
 ! D60   D(19,21,23,25)         -4.0682         estimate D2E/DX2                !
 ! D61   D(22,21,23,24)         -0.1633         estimate D2E/DX2                !
 ! D62   D(22,21,23,25)        174.7177         estimate D2E/DX2                !
 ! D63   D(21,23,25,16)         -4.0754         estimate D2E/DX2                !
 ! D64   D(21,23,25,26)       -168.0034         estimate D2E/DX2                !
 ! D65   D(24,23,25,16)        170.6646         estimate D2E/DX2                !
 ! D66   D(24,23,25,26)          6.7367         estimate D2E/DX2                !
 --------------------------------------------------------------------------------
 Trust Radius=3.00D-01 FncErr=1.00D-07 GrdErr=1.00D-06 EigMax=2.50D+02 EigMin=1.00D-04
 Number of steps in this run=    151 maximum allowed number of steps=    162.
 GradGradGradGradGradGradGradGradGradGradGradGradGradGradGradGradGradGrad

 Leave Link  103 at Sun Jul 18 14:19:35 2021, MaxMem=   104857600 cpu:               0.1 elap:               0.0
 (Enter /prod/apps/gaussian/g16b1/l202.exe)
                          Input orientation:                          
 ---------------------------------------------------------------------
 Center     Atomic      Atomic             Coordinates (Angstroms)
 Number     Number       Type             X           Y           Z
 ---------------------------------------------------------------------
      1          6           0       -2.282000   -1.629000    0.589000
      2          1           0       -2.301000   -1.126000    1.559000
      3          1           0       -2.327000   -2.687000    0.860000
      4          1           0       -3.148000   -1.366000   -0.023000
      5          7           0       -1.050000   -1.286000   -0.138000
      6          1           0       -1.124000   -0.332000   -0.428000
      7          6           0        0.241000   -1.442000    0.575000
      8          6           0        0.651000   -2.886000    0.673000
      9          1           0       -0.115000   -3.605000    0.972000
     10          1           0        1.506000   -2.969000    1.347000
     11          1           0        1.012000   -3.177000   -0.315000
     12          1           0        0.077000   -1.163000    1.619000
     13          6           0        1.298000   -0.651000   -0.277000
     14          1           0        1.385000   -1.150000   -1.244000
     15          1           0        2.240000   -0.679000    0.275000
     16          6           0        0.949000    0.902000   -0.432000
     17          6           0        1.144000    1.803000    0.641000
     18          1           0        1.661000    1.524000    1.556000
     19          6           0        0.488000    3.022000    0.585000
     20          1           0        0.572000    3.888000    1.237000
     21          6           0       -0.091000    3.392000   -0.633000
     22          1           0       -0.386000    4.435000   -0.714000
     23          6           0       -0.267000    2.529000   -1.683000
     24          1           0       -0.709000    2.887000   -2.609000
     25          6           0        0.235000    1.242000   -1.547000
     26          1           0        0.326000    0.531000   -2.364000
     27          1           0       -1.014000   -1.855000   -0.960000
 ---------------------------------------------------------------------
                    Distance matrix (angstroms):
                    1          2          3          4          5
     1  C    0.000000
     2  H    1.092827   0.000000
     3  H    1.093083   1.710555   0.000000
     4  H    1.092552   1.810451   1.788511   0.000000
     5  N    1.471055   2.114334   2.142320   2.102672   0.000000
     6  H    2.014314   2.442117   2.941458   2.308627   0.999846
     7  C    2.529959   2.744062   2.868078   3.442194   1.483033
     8  C    3.192114   3.549211   2.990494   4.150568   2.472068
     9  H    2.957559   3.356874   2.397543   3.899004   2.735706
    10  H    4.088901   4.234955   3.874091   5.109425   3.401595
    11  H    3.750194   4.323707   3.573464   4.546492   2.803400
    12  H    2.615901   2.379045   2.945823   3.624638   2.091006
    13  C    3.810884   4.068086   4.310300   4.510283   2.436319
    14  H    4.127495   4.630765   4.535210   4.699530   2.677864
    15  H    4.631369   4.740163   5.023124   5.439790   3.370922
    16  C    4.229393   4.317333   5.028157   4.700693   2.978218
    17  C    4.849619   4.614086   5.679428   5.376311   3.868126
    18  H    5.140403   4.766545   5.841325   5.828535   4.256202
    19  C    5.413383   5.092455   6.371227   5.731030   4.631095
    20  H    6.245199   5.787746   7.195621   6.559765   5.593906
    21  C    5.612861   5.486464   6.647028   5.688226   4.800874
    22  H    6.485732   6.305432   7.547704   6.462022   5.788136
    23  C    5.148900   5.292140   6.157687   5.121209   4.189790
    24  H    5.752894   6.000905   6.761757   5.542935   4.861692
    25  C    4.374977   4.656818   5.272052   4.535298   3.166590
    26  H    4.493047   5.003669   5.271443   4.598648   3.185897
    27  H    2.014523   2.921159   2.393448   2.381396   1.000370
                    6          7          8          9         10
     6  H    0.000000
     7  C    2.025175   0.000000
     8  C    3.299355   1.504274   0.000000
     9  H    3.700082   2.227760   1.092299   0.000000
    10  H    4.125687   2.127895   1.091875   1.781225   0.000000
    11  H    3.559395   2.096847   1.091396   1.763429   1.746294
    12  H    2.514592   1.093011   2.047711   2.533542   2.318978
    13  C    2.447580   1.571252   2.513232   3.504666   2.837915
    14  H    2.762257   2.168585   2.688371   3.631485   3.168072
    15  H    3.454144   2.160595   2.748486   3.820119   2.632877
    16  C    2.412489   2.647574   3.957117   4.839045   4.296479
    17  C    3.293146   3.368945   4.714954   5.562473   4.837506
    18  H    3.890658   3.431606   4.609543   5.459109   4.500528
    19  C    3.856686   4.470839   5.910903   6.665621   6.124463
    20  H    4.843247   5.381143   6.797898   7.529093   6.921192
    21  C    3.870050   4.993700   6.455190   7.178761   6.850776
    22  H    4.832259   6.049279   7.523043   8.219345   7.914961
    23  C    3.239567   4.596245   5.976260   6.685663   6.523223
    24  H    3.910364   5.457160   6.778544   7.437907   7.406004
    25  C    2.361465   3.421517   4.705512   5.473689   5.265282
    26  H    2.568144   3.540858   4.583108   5.331967   5.235830
    27  H    1.616989   2.025295   2.549877   2.757413   3.593556
                   11         12         13         14         15
    11  H    0.000000
    12  H    2.944618   0.000000
    13  C    2.542423   2.312531   0.000000
    14  H    2.260730   3.147666   1.091631   0.000000
    15  H    2.845363   2.592134   1.092178   1.805610   0.000000
    16  C    4.081164   3.038291   1.599261   2.249476   2.160114
    17  C    5.072648   3.300323   2.624606   3.511626   2.737790
    18  H    5.101102   3.119775   2.867452   3.881553   2.613314
    19  C    6.285871   4.330393   3.858766   4.642783   4.106459
    20  H    7.246829   5.089553   4.839607   5.674308   4.956325
    21  C    6.668545   5.084069   4.289744   4.814734   4.778186
    22  H    7.749590   6.082340   5.375335   5.882990   5.833266
    23  C    6.005473   4.965119   3.812933   4.056706   4.517751
    24  H    6.707934   5.907307   4.688680   4.748203   5.452560
    25  C    4.652861   3.979013   2.515217   2.671324   3.321137
    26  H    4.291650   4.335427   2.587948   2.280711   3.477329
    27  H    2.503674   2.884508   2.694708   2.516522   3.673788
                   16         17         18         19         20
    16  C    0.000000
    17  C    1.414622   0.000000
    18  H    2.201357   1.087361   0.000000
    19  C    2.396082   1.385436   2.136065   0.000000
    20  H    3.441495   2.242683   2.622247   1.087252   0.000000
    21  C    2.705938   2.381853   3.369072   1.398451   2.045112
    22  H    3.787326   3.332319   4.221022   2.108992   2.241288
    23  C    2.385537   2.814067   3.901068   2.440676   3.328243
    24  H    3.380609   3.895018   4.982158   3.413601   4.175485
    25  C    1.366975   2.434820   3.426603   2.788877   3.855586
    26  H    2.063588   3.364095   4.258483   3.863667   4.929216
    27  H    3.425376   4.538847   4.990343   5.331806   6.350138
                   21         22         23         24         25
    21  C    0.000000
    22  H    1.086938   0.000000
    23  C    1.370491   2.141485   0.000000
    24  H    2.131085   2.468128   1.086740   0.000000
    25  C    2.358850   3.357794   1.388117   2.173708   0.000000
    26  H    3.369803   4.297751   2.192582   2.584954   1.086872
    27  H    5.337590   6.326057   4.505574   5.029790   3.390572
                   26         27
    26  H    0.000000
    27  H    3.075681   0.000000
 Stoichiometry    C10H16N(1+)
 Framework group  C1[X(C10H16N)]
 Deg. of freedom    75
 Full point group                 C1      NOp   1
 Largest Abelian subgroup         C1      NOp   1
 Largest concise Abelian subgroup C1      NOp   1
                         Standard orientation:                         
 ---------------------------------------------------------------------
 Center     Atomic      Atomic             Coordinates (Angstroms)
 Number     Number       Type             X           Y           Z
 ---------------------------------------------------------------------
      1          6           0        2.289578    1.938981   -0.726117
      2          1           0        1.997529    1.776637   -1.766608
      3          1           0        3.376673    1.828714   -0.756040
      4          1           0        2.028153    2.942329   -0.381705
      5          7           0        1.646422    0.942621    0.144295
      6          1           0        0.672428    1.163632    0.191010
      7          6           0        1.767202   -0.486706   -0.232299
      8          6           0        3.133469   -1.031234    0.083366
      9          1           0        3.993708   -0.420007   -0.198605
     10          1           0        3.234025   -2.022723   -0.362760
     11          1           0        3.170317   -1.177878    1.164238
     12          1           0        1.726784   -0.544951   -1.323008
     13          6           0        0.687682   -1.245948    0.620358
     14          1           0        0.967336   -1.149850    1.671176
     15          1           0        0.698839   -2.288813    0.296076
     16          6           0       -0.803940   -0.737963    0.347139
     17          6           0       -1.490426   -1.097168   -0.836442
     18          1           0       -1.106216   -1.833694   -1.538059
     19          6           0       -2.596946   -0.343352   -1.192544
     20          1           0       -3.318633   -0.500723   -1.990365
     21          6           0       -3.121669    0.531123   -0.235661
     22          1           0       -4.110715    0.925688   -0.453702
     23          6           0       -2.470023    0.869878    0.921424
     24          1           0       -2.943161    1.543077    1.631317
     25          6           0       -1.260891    0.240954    1.184719
     26          1           0       -0.746047    0.280228    2.141110
     27          1           0        2.029804    1.048599    1.062189
 ---------------------------------------------------------------------
 Rotational constants (GHZ):           1.9712584           0.6468184           0.5915721
 Leave Link  202 at Sun Jul 18 14:19:35 2021, MaxMem=   104857600 cpu:               0.0 elap:               0.0
 (Enter /prod/apps/gaussian/g16b1/l301.exe)
 Standard basis: 6-31G(d) (6D, 7F)
 Ernie: Thresh=  0.10000D-02 Tol=  0.10000D-05 Strict=F.
 There are   197 symmetry adapted cartesian basis functions of A   symmetry.
 There are   197 symmetry adapted basis functions of A   symmetry.
   197 basis functions,   372 primitive gaussians,   197 cartesian basis functions
    41 alpha electrons       41 beta electrons
       nuclear repulsion energy       615.3798545054 Hartrees.
 IExCor=  402 DFT=T Ex+Corr=B3LYP ExCW=0 ScaHFX=  0.200000
 ScaDFX=  0.800000  0.720000  1.000000  0.810000 ScalE2=  1.000000  1.000000
 IRadAn=      5 IRanWt=     -1 IRanGd=            0 ICorTp=0 IEmpDi=  4
 NAtoms=   27 NActive=   27 NUniq=   27 SFac= 1.00D+00 NAtFMM=   60 NAOKFM=F Big=F
 Integral buffers will be    131072 words long.
 Raffenetti 2 integral format.
 Two-electron integral symmetry is turned on.
 Using the following non-standard input for PCM:
 MSTModel=DFT cav MSTCharged
 --- end of non-standard input.
 MST model for solvation energy: B3LYP parametrization.
 MST cavity parameters:
 ISph   IAn     Re0     Alpha   Atom Type   QCorr
 ------------------------------------------------
   1      6     1.50     1.25      CH3        F
   2      1     1.20     1.25      CH3        F
   3      1     1.20     1.25      CH3        F
   4      1     1.20     1.25      CH3        F
   5      7     1.55     1.15      NH         T
   6      1     0.90     1.15      NH         T
   7      6     1.50     1.25      CH         F
   8      6     1.50     1.25      CH3        F
   9      1     1.20     1.25      CH3        F
  10      1     1.20     1.25      CH3        F
  11      1     1.20     1.25      CH3        F
  12      1     1.20     1.25      CH         F
  13      6     1.50     1.25      CH2        F
  14      1     1.20     1.25      CH2        F
  15      1     1.20     1.25      CH2        F
  16      6     1.50     1.25      C          F
  17      6     1.50     1.25      CH         F
  18      1     1.20     1.25      CH         F
  19      6     1.50     1.25      CH         F
  20      1     1.20     1.25      CH         F
  21      6     1.50     1.25      CH         F
  22      1     1.20     1.25      CH         F
  23      6     1.50     1.25      CH         F
  24      1     1.20     1.25      CH         F
  25      6     1.50     1.25      CH         F
  26      1     1.20     1.25      CH         F
  27      1     0.90     1.15      NH         T
 ------------------------------------------------------------------------------
 Polarizable Continuum Model (PCM)
 =================================
 Model                : PCM.
 Atomic radii         : MST.
 Polarization charges : Total charges.
 Charge compensation  : None.
 Solution method      : On-the-fly selection.
 Cavity type          : Scaled VdW (van der Waals Surface) (Alpha=1.250).
 Cavity algorithm     : GePol (No added spheres)
                        Default sphere list used, NSphG=   27.
                        Lebedev-Laikov grids with approx.  5.0 points / Ang**2.
                        Smoothing algorithm: York/Karplus (Gamma=1.0000).
                        Polarization charges: spherical gaussians, with
                                              point-specific exponents (IZeta= 3).
                        Self-potential: point-specific (ISelfS= 7).
                        Self-field    : sphere-specific E.n sum rule (ISelfD= 2).
 1st derivatives      : Analytical E(r).r(x)/FMM algorithm (CHGder, D1EAlg=3).
                        Cavity 1st derivative terms included.
 Solvent              : Water, Eps=  78.355300 Eps(inf)=   1.777849
 ------------------------------------------------------------------------------
 GePol: Number of generator spheres                  =      27
 GePol: Total number of spheres                      =      27
 GePol: Number of exposed spheres                    =      27 (100.00%)
 GePol: Number of points                             =    1873
 GePol: Average weight of points                     =       0.13
 GePol: Minimum weight of points                     =   0.13D-08
 GePol: Maximum weight of points                     =    0.21416
 GePol: Number of points with low weight             =     131
 GePol: Fraction of low-weight points (<1% of avg)   =       6.99%
 GePol: Cavity surface area                          =    241.129 Ang**2
 GePol: Cavity volume                                =    218.558 Ang**3
 PCM non-electrostatic energy =         0.0009934313 Hartrees.
 Nuclear repulsion after PCM non-electrostatic terms =      615.3808479368 Hartrees.
 Leave Link  301 at Sun Jul 18 14:19:35 2021, MaxMem=   104857600 cpu:               0.3 elap:               0.1
 (Enter /prod/apps/gaussian/g16b1/l302.exe)
 NPDir=0 NMtPBC=     1 NCelOv=     1 NCel=       1 NClECP=     1 NCelD=      1
         NCelK=      1 NCelE2=     1 NClLst=     1 CellRange=     0.0.
 One-electron integrals computed using PRISM.
 One-electron integral symmetry used in STVInt
 NBasis=   197 RedAO= T EigKep=  6.35D-04  NBF=   197
 NBsUse=   197 1.00D-06 EigRej= -1.00D+00 NBFU=   197
 Precomputing XC quadrature grid using
 IXCGrd= 4 IRadAn=           5 IRanWt=          -1 IRanGd=           0 AccXCQ= 0.00D+00.
 Generated NRdTot=       0 NPtTot=           0 NUsed=           0 NTot=          32
 NSgBfM=   197   197   197   197   197 MxSgAt=    27 MxSgA2=    27.
 Leave Link  302 at Sun Jul 18 14:19:35 2021, MaxMem=   104857600 cpu:               1.1 elap:               0.3
 (Enter /prod/apps/gaussian/g16b1/l303.exe)
 DipDrv:  MaxL=1.
 Leave Link  303 at Sun Jul 18 14:19:36 2021, MaxMem=   104857600 cpu:               0.1 elap:               0.0
 (Enter /prod/apps/gaussian/g16b1/l401.exe)
 ExpMin= 1.61D-01 ExpMax= 4.17D+03 ExpMxC= 6.27D+02 IAcc=3 IRadAn=         5 AccDes= 0.00D+00
 Harris functional with IExCor=  402 and IRadAn=       5 diagonalized for initial guess.
 HarFok:  IExCor=  402 AccDes= 0.00D+00 IRadAn=         5 IDoV= 1 UseB2=F ITyADJ=14
 ICtDFT=  3500011 ScaDFX=  1.000000  1.000000  1.000000  1.000000
 FoFCou: FMM=F IPFlag=           0 FMFlag=      100000 FMFlg1=           0
         NFxFlg=           0 DoJE=T BraDBF=F KetDBF=T FulRan=T
         wScrn=  0.000000 ICntrl=       500 IOpCl=  0 I1Cent=   200000004 NGrid=           0
         NMat0=    1 NMatS0=      1 NMatT0=    0 NMatD0=    1 NMtDS0=    0 NMtDT0=    0
 Petite list used in FoFCou.
 Harris En= -445.255769367459    
 JPrj=0 DoOrth=F DoCkMO=F.
 Leave Link  401 at Sun Jul 18 14:19:37 2021, MaxMem=   104857600 cpu:               5.4 elap:               1.4
 (Enter /prod/apps/gaussian/g16b1/l502.exe)
 Integral symmetry usage will be decided dynamically.
 Closed shell SCF:
 Using DIIS extrapolation, IDIIS=  1040.
 NGot=   104857600 LenX=   104776342 LenY=   104737092
 Requested convergence on RMS density matrix=1.00D-08 within 128 cycles.
 Requested convergence on MAX density matrix=1.00D-06.
 Requested convergence on             energy=1.00D-06.
 No special actions if energy rises.
 Fock matrices will be formed incrementally for  20 cycles.

 Cycle   1  Pass 1  IDiag  1:
 FoFJK:  IHMeth= 1 ICntrl=       0 DoSepK=F KAlg= 0 I1Cent=           0 FoldK=F
 IRaf= 920000000 NMat=       1 IRICut=       1 DoRegI=T DoRafI=F ISym2E= 0 IDoP0=0 IntGTp=1.
 FoFCou: FMM=F IPFlag=           0 FMFlag=      100000 FMFlg1=           0
         NFxFlg=           0 DoJE=F BraDBF=F KetDBF=F FulRan=T
         wScrn=  0.000000 ICntrl=         0 IOpCl=  0 I1Cent=           0 NGrid=           0
         NMat0=    1 NMatS0=      1 NMatT0=    0 NMatD0=    1 NMtDS0=    0 NMtDT0=    0
 Symmetry not used in FoFCou.
 Inv3:  Mode=1 IEnd=    10524387.
 Iteration    1 A*A^-1 deviation from unit magnitude is 2.66D-15 for    972.
 Iteration    1 A*A^-1 deviation from orthogonality  is 3.01D-15 for   1537    494.
 Iteration    1 A^-1*A deviation from unit magnitude is 2.66D-15 for    204.
 Iteration    1 A^-1*A deviation from orthogonality  is 2.17D-13 for   1628   1604.
 E= -445.036414779463    
 DIIS: error= 2.50D-02 at cycle   1 NSaved=   1.
 NSaved= 1 IEnMin= 1 EnMin= -445.036414779463     IErMin= 1 ErrMin= 2.50D-02
 ErrMax= 2.50D-02  0.00D+00 EMaxC= 1.00D-01 BMatC= 2.40D-01 BMatP= 2.40D-01
 IDIUse=3 WtCom= 7.50D-01 WtEn= 2.50D-01
 Coeff-Com:  0.100D+01
 Coeff-En:   0.100D+01
 Coeff:      0.100D+01
 Gap=     0.242 Goal=   None    Shift=    0.000
 GapD=    0.242 DampG=1.000 DampE=0.500 DampFc=0.5000 IDamp=-1.
 Damping current iteration by 5.00D-01
 RMSDP=5.04D-03 MaxDP=1.31D-01              OVMax= 1.42D-01

 Cycle   2  Pass 1  IDiag  1:
 RMSU=  2.46D-03    CP:  9.77D-01
 E= -445.164715037196     Delta-E=       -0.128300257734 Rises=F Damp=T
 DIIS: error= 6.25D-03 at cycle   2 NSaved=   2.
 NSaved= 2 IEnMin= 2 EnMin= -445.164715037196     IErMin= 2 ErrMin= 6.25D-03
 ErrMax= 6.25D-03  0.00D+00 EMaxC= 1.00D-01 BMatC= 1.16D-02 BMatP= 2.40D-01
 IDIUse=3 WtCom= 9.38D-01 WtEn= 6.25D-02
 Coeff-Com: -0.245D-01 0.102D+01
 Coeff-En:   0.000D+00 0.100D+01
 Coeff:     -0.230D-01 0.102D+01
 Gap=     0.245 Goal=   None    Shift=    0.000
 RMSDP=1.11D-03 MaxDP=1.52D-02 DE=-1.28D-01 OVMax= 7.30D-02

 Cycle   3  Pass 1  IDiag  1:
 RMSU=  1.09D-03    CP:  9.70D-01  9.72D-01
 E= -445.293726667404     Delta-E=       -0.129011630208 Rises=F Damp=F
 DIIS: error= 2.12D-03 at cycle   3 NSaved=   3.
 NSaved= 3 IEnMin= 3 EnMin= -445.293726667404     IErMin= 3 ErrMin= 2.12D-03
 ErrMax= 2.12D-03  0.00D+00 EMaxC= 1.00D-01 BMatC= 2.18D-03 BMatP= 1.16D-02
 IDIUse=3 WtCom= 9.79D-01 WtEn= 2.12D-02
 Coeff-Com: -0.408D-01 0.269D+00 0.772D+00
 Coeff-En:   0.000D+00 0.000D+00 0.100D+01
 Coeff:     -0.400D-01 0.264D+00 0.776D+00
 Gap=     0.237 Goal=   None    Shift=    0.000
 RMSDP=3.58D-04 MaxDP=1.06D-02 DE=-1.29D-01 OVMax= 2.68D-02

 Cycle   4  Pass 1  IDiag  1:
 RMSU=  3.20D-04    CP:  9.70D-01  1.00D+00  8.67D-01
 E= -445.294720831766     Delta-E=       -0.000994164362 Rises=F Damp=F
 DIIS: error= 1.51D-03 at cycle   4 NSaved=   4.
 NSaved= 4 IEnMin= 4 EnMin= -445.294720831766     IErMin= 4 ErrMin= 1.51D-03
 ErrMax= 1.51D-03  0.00D+00 EMaxC= 1.00D-01 BMatC= 1.03D-03 BMatP= 2.18D-03
 IDIUse=3 WtCom= 9.85D-01 WtEn= 1.51D-02
 Coeff-Com: -0.201D-01 0.794D-01 0.444D+00 0.497D+00
 Coeff-En:   0.000D+00 0.000D+00 0.345D+00 0.655D+00
 Coeff:     -0.198D-01 0.782D-01 0.442D+00 0.499D+00
 Gap=     0.236 Goal=   None    Shift=    0.000
 RMSDP=1.96D-04 MaxDP=6.12D-03 DE=-9.94D-04 OVMax= 1.59D-02

 Cycle   5  Pass 1  IDiag  1:
 RMSU=  9.64D-05    CP:  9.70D-01  1.01D+00  8.79D-01  4.69D-01
 E= -445.295777740560     Delta-E=       -0.001056908795 Rises=F Damp=F
 DIIS: error= 2.75D-04 at cycle   5 NSaved=   5.
 NSaved= 5 IEnMin= 5 EnMin= -445.295777740560     IErMin= 5 ErrMin= 2.75D-04
 ErrMax= 2.75D-04  0.00D+00 EMaxC= 1.00D-01 BMatC= 4.59D-05 BMatP= 1.03D-03
 IDIUse=3 WtCom= 9.97D-01 WtEn= 2.75D-03
 Coeff-Com: -0.533D-02 0.118D-01 0.129D+00 0.233D+00 0.631D+00
 Coeff-En:   0.000D+00 0.000D+00 0.000D+00 0.000D+00 0.100D+01
 Coeff:     -0.531D-02 0.117D-01 0.129D+00 0.232D+00 0.632D+00
 Gap=     0.236 Goal=   None    Shift=    0.000
 RMSDP=4.09D-05 MaxDP=1.04D-03 DE=-1.06D-03 OVMax= 3.14D-03

 Cycle   6  Pass 1  IDiag  1:
 RMSU=  1.85D-05    CP:  9.70D-01  1.01D+00  8.87D-01  5.43D-01  7.24D-01
 E= -445.295824434877     Delta-E=       -0.000046694316 Rises=F Damp=F
 DIIS: error= 6.88D-05 at cycle   6 NSaved=   6.
 NSaved= 6 IEnMin= 6 EnMin= -445.295824434877     IErMin= 6 ErrMin= 6.88D-05
 ErrMax= 6.88D-05  0.00D+00 EMaxC= 1.00D-01 BMatC= 3.57D-06 BMatP= 4.59D-05
 IDIUse=1 WtCom= 1.00D+00 WtEn= 0.00D+00
 Coeff-Com: -0.209D-02 0.335D-02 0.517D-01 0.105D+00 0.340D+00 0.502D+00
 Coeff:     -0.209D-02 0.335D-02 0.517D-01 0.105D+00 0.340D+00 0.502D+00
 Gap=     0.236 Goal=   None    Shift=    0.000
 RMSDP=8.99D-06 MaxDP=2.37D-04 DE=-4.67D-05 OVMax= 6.11D-04

 Cycle   7  Pass 1  IDiag  1:
 RMSU=  4.24D-06    CP:  9.70D-01  1.00D+00  8.89D-01  5.40D-01  7.43D-01
                    CP:  6.11D-01
 E= -445.295827854637     Delta-E=       -0.000003419760 Rises=F Damp=F
 DIIS: error= 1.06D-05 at cycle   7 NSaved=   7.
 NSaved= 7 IEnMin= 7 EnMin= -445.295827854637     IErMin= 7 ErrMin= 1.06D-05
 ErrMax= 1.06D-05  0.00D+00 EMaxC= 1.00D-01 BMatC= 5.82D-08 BMatP= 3.57D-06
 IDIUse=1 WtCom= 1.00D+00 WtEn= 0.00D+00
 Coeff-Com: -0.370D-03 0.316D-03 0.901D-02 0.199D-01 0.722D-01 0.164D+00
 Coeff-Com:  0.735D+00
 Coeff:     -0.370D-03 0.316D-03 0.901D-02 0.199D-01 0.722D-01 0.164D+00
 Coeff:      0.735D+00
 Gap=     0.236 Goal=   None    Shift=    0.000
 RMSDP=1.44D-06 MaxDP=5.39D-05 DE=-3.42D-06 OVMax= 8.41D-05

 Cycle   8  Pass 1  IDiag  1:
 RMSU=  1.11D-06    CP:  9.70D-01  1.00D+00  8.89D-01  5.41D-01  7.45D-01
                    CP:  6.27D-01  8.42D-01
 E= -445.295827895873     Delta-E=       -0.000000041236 Rises=F Damp=F
 DIIS: error= 4.78D-06 at cycle   8 NSaved=   8.
 NSaved= 8 IEnMin= 8 EnMin= -445.295827895873     IErMin= 8 ErrMin= 4.78D-06
 ErrMax= 4.78D-06  0.00D+00 EMaxC= 1.00D-01 BMatC= 1.12D-08 BMatP= 5.82D-08
 IDIUse=1 WtCom= 1.00D+00 WtEn= 0.00D+00
 Coeff-Com: -0.317D-04-0.989D-04 0.719D-03 0.219D-02 0.118D-01 0.467D-01
 Coeff-Com:  0.364D+00 0.574D+00
 Coeff:     -0.317D-04-0.989D-04 0.719D-03 0.219D-02 0.118D-01 0.467D-01
 Coeff:      0.364D+00 0.574D+00
 Gap=     0.236 Goal=   None    Shift=    0.000
 RMSDP=5.78D-07 MaxDP=1.60D-05 DE=-4.12D-08 OVMax= 3.42D-05

 Cycle   9  Pass 1  IDiag  1:
 RMSU=  3.35D-07    CP:  9.70D-01  1.00D+00  8.89D-01  5.41D-01  7.46D-01
                    CP:  6.34D-01  8.78D-01  6.54D-01
 E= -445.295827906294     Delta-E=       -0.000000010420 Rises=F Damp=F
 DIIS: error= 7.68D-07 at cycle   9 NSaved=   9.
 NSaved= 9 IEnMin= 9 EnMin= -445.295827906294     IErMin= 9 ErrMin= 7.68D-07
 ErrMax= 7.68D-07  0.00D+00 EMaxC= 1.00D-01 BMatC= 4.60D-10 BMatP= 1.12D-08
 IDIUse=1 WtCom= 1.00D+00 WtEn= 0.00D+00
 Coeff-Com:  0.188D-04-0.582D-04-0.519D-03-0.101D-02-0.192D-02 0.305D-02
 Coeff-Com:  0.657D-01 0.213D+00 0.722D+00
 Coeff:      0.188D-04-0.582D-04-0.519D-03-0.101D-02-0.192D-02 0.305D-02
 Coeff:      0.657D-01 0.213D+00 0.722D+00
 Gap=     0.236 Goal=   None    Shift=    0.000
 RMSDP=1.39D-07 MaxDP=3.58D-06 DE=-1.04D-08 OVMax= 9.25D-06

 Cycle  10  Pass 1  IDiag  1:
 RMSU=  8.98D-08    CP:  9.70D-01  1.00D+00  8.89D-01  5.41D-01  7.46D-01
                    CP:  6.35D-01  8.82D-01  7.16D-01  7.94D-01
 E= -445.295827906665     Delta-E=       -0.000000000372 Rises=F Damp=F
 DIIS: error= 5.05D-07 at cycle  10 NSaved=  10.
 NSaved=10 IEnMin=10 EnMin= -445.295827906665     IErMin=10 ErrMin= 5.05D-07
 ErrMax= 5.05D-07  0.00D+00 EMaxC= 1.00D-01 BMatC= 7.73D-11 BMatP= 4.60D-10
 IDIUse=1 WtCom= 1.00D+00 WtEn= 0.00D+00
 Coeff-Com:  0.119D-04-0.281D-04-0.327D-03-0.685D-03-0.160D-02-0.221D-03
 Coeff-Com:  0.218D-01 0.993D-01 0.413D+00 0.469D+00
 Coeff:      0.119D-04-0.281D-04-0.327D-03-0.685D-03-0.160D-02-0.221D-03
 Coeff:      0.218D-01 0.993D-01 0.413D+00 0.469D+00
 Gap=     0.236 Goal=   None    Shift=    0.000
 RMSDP=5.09D-08 MaxDP=1.21D-06 DE=-3.72D-10 OVMax= 4.03D-06

 Cycle  11  Pass 1  IDiag  1:
 RMSU=  2.67D-08    CP:  9.70D-01  1.00D+00  8.89D-01  5.41D-01  7.46D-01
                    CP:  6.35D-01  8.84D-01  7.13D-01  8.34D-01  5.53D-01
 E= -445.295827906751     Delta-E=       -0.000000000085 Rises=F Damp=F
 DIIS: error= 8.85D-08 at cycle  11 NSaved=  11.
 NSaved=11 IEnMin=11 EnMin= -445.295827906751     IErMin=11 ErrMin= 8.85D-08
 ErrMax= 8.85D-08  0.00D+00 EMaxC= 1.00D-01 BMatC= 2.10D-12 BMatP= 7.73D-11
 IDIUse=1 WtCom= 1.00D+00 WtEn= 0.00D+00
 Coeff-Com:  0.176D-05-0.234D-05-0.493D-04-0.116D-03-0.284D-03-0.345D-03
 Coeff-Com: -0.202D-03 0.993D-02 0.511D-01 0.157D+00 0.783D+00
 Coeff:      0.176D-05-0.234D-05-0.493D-04-0.116D-03-0.284D-03-0.345D-03
 Coeff:     -0.202D-03 0.993D-02 0.511D-01 0.157D+00 0.783D+00
 Gap=     0.236 Goal=   None    Shift=    0.000
 RMSDP=9.71D-09 MaxDP=2.40D-07 DE=-8.53D-11 OVMax= 8.18D-07

 Error on total polarization charges =  0.01710
 SCF Done:  E(RB3LYP) =  -445.295827907     A.U. after   11 cycles
            NFock= 11  Conv=0.97D-08     -V/T= 2.0096
 KE= 4.410679042089D+02 PE=-2.246641358407D+03 EE= 7.448967783549D+02
 Leave Link  502 at Sun Jul 18 14:20:05 2021, MaxMem=   104857600 cpu:             111.9 elap:              28.0
 (Enter /prod/apps/gaussian/g16b1/l601.exe)
 Copying SCF densities to generalized density rwf, IOpCl= 0 IROHF=0.

 **********************************************************************

            Population analysis using the SCF Density.

 **********************************************************************

 Orbital symmetries:
       Occupied  (A) (A) (A) (A) (A) (A) (A) (A) (A) (A) (A) (A)
                 (A) (A) (A) (A) (A) (A) (A) (A) (A) (A) (A) (A)
                 (A) (A) (A) (A) (A) (A) (A) (A) (A) (A) (A) (A)
                 (A) (A) (A) (A) (A)
       Virtual   (A) (A) (A) (A) (A) (A) (A) (A) (A) (A) (A) (A)
                 (A) (A) (A) (A) (A) (A) (A) (A) (A) (A) (A) (A)
                 (A) (A) (A) (A) (A) (A) (A) (A) (A) (A) (A) (A)
                 (A) (A) (A) (A) (A) (A) (A) (A) (A) (A) (A) (A)
                 (A) (A) (A) (A) (A) (A) (A) (A) (A) (A) (A) (A)
                 (A) (A) (A) (A) (A) (A) (A) (A) (A) (A) (A) (A)
                 (A) (A) (A) (A) (A) (A) (A) (A) (A) (A) (A) (A)
                 (A) (A) (A) (A) (A) (A) (A) (A) (A) (A) (A) (A)
                 (A) (A) (A) (A) (A) (A) (A) (A) (A) (A) (A) (A)
                 (A) (A) (A) (A) (A) (A) (A) (A) (A) (A) (A) (A)
                 (A) (A) (A) (A) (A) (A) (A) (A) (A) (A) (A) (A)
                 (A) (A) (A) (A) (A) (A) (A) (A) (A) (A) (A) (A)
                 (A) (A) (A) (A) (A) (A) (A) (A) (A) (A) (A) (A)
 The electronic state is 1-A.
 Alpha  occ. eigenvalues --  -14.44389 -10.25513 -10.23878 -10.21111 -10.20759
 Alpha  occ. eigenvalues --  -10.19981 -10.19452 -10.19321 -10.19123 -10.18856
 Alpha  occ. eigenvalues --  -10.18826  -1.01815  -0.86807  -0.81248  -0.76363
 Alpha  occ. eigenvalues --   -0.75400  -0.72332  -0.68720  -0.63661  -0.61680
 Alpha  occ. eigenvalues --   -0.59131  -0.58440  -0.52441  -0.51752  -0.50669
 Alpha  occ. eigenvalues --   -0.47000  -0.45440  -0.44691  -0.42991  -0.42448
 Alpha  occ. eigenvalues --   -0.41494  -0.40194  -0.39549  -0.39306  -0.38138
 Alpha  occ. eigenvalues --   -0.36563  -0.35865  -0.34462  -0.33082  -0.26267
 Alpha  occ. eigenvalues --   -0.25186
 Alpha virt. eigenvalues --   -0.01561  -0.00882   0.06600   0.08579   0.09638
 Alpha virt. eigenvalues --    0.10853   0.11274   0.13263   0.13568   0.14303
 Alpha virt. eigenvalues --    0.14516   0.15233   0.15424   0.16585   0.16983
 Alpha virt. eigenvalues --    0.17537   0.18375   0.19089   0.20371   0.20487
 Alpha virt. eigenvalues --    0.21614   0.23798   0.24487   0.24697   0.30347
 Alpha virt. eigenvalues --    0.31860   0.33424   0.33475   0.44604   0.47389
 Alpha virt. eigenvalues --    0.48357   0.50100   0.51532   0.52649   0.53447
 Alpha virt. eigenvalues --    0.53677   0.54885   0.55386   0.56953   0.58482
 Alpha virt. eigenvalues --    0.59499   0.60110   0.61458   0.61938   0.63146
 Alpha virt. eigenvalues --    0.63959   0.64242   0.65090   0.66544   0.71138
 Alpha virt. eigenvalues --    0.71359   0.76690   0.78204   0.79010   0.80492
 Alpha virt. eigenvalues --    0.81446   0.82366   0.82974   0.84534   0.85419
 Alpha virt. eigenvalues --    0.86739   0.87086   0.88236   0.89252   0.89943
 Alpha virt. eigenvalues --    0.90587   0.92569   0.93894   0.94252   0.95313
 Alpha virt. eigenvalues --    0.97001   0.97788   0.99785   1.00170   1.00342
 Alpha virt. eigenvalues --    1.04656   1.06754   1.09010   1.12936   1.13564
 Alpha virt. eigenvalues --    1.16242   1.21195   1.23304   1.24728   1.28277
 Alpha virt. eigenvalues --    1.31353   1.34545   1.38314   1.41481   1.45252
 Alpha virt. eigenvalues --    1.50151   1.51696   1.53047   1.55008   1.59137
 Alpha virt. eigenvalues --    1.65930   1.69234   1.70747   1.73779   1.75588
 Alpha virt. eigenvalues --    1.80831   1.81874   1.84742   1.86726   1.88929
 Alpha virt. eigenvalues --    1.91286   1.92596   1.95052   1.95592   1.98274
 Alpha virt. eigenvalues --    1.99712   2.02101   2.05497   2.07729   2.08784
 Alpha virt. eigenvalues --    2.11132   2.13969   2.16974   2.18219   2.19531
 Alpha virt. eigenvalues --    2.21700   2.26272   2.28450   2.29178   2.32465
 Alpha virt. eigenvalues --    2.33131   2.34665   2.39635   2.40760   2.43650
 Alpha virt. eigenvalues --    2.50230   2.52730   2.56278   2.59829   2.64613
 Alpha virt. eigenvalues --    2.67082   2.69844   2.70852   2.73376   2.74079
 Alpha virt. eigenvalues --    2.76218   2.76681   2.83970   3.04147   3.37535
 Alpha virt. eigenvalues --    3.92437   4.09430   4.11649   4.15098   4.22924
 Alpha virt. eigenvalues --    4.24088   4.30794   4.34759   4.41884   4.53951
 Alpha virt. eigenvalues --    4.67202
          Condensed to atoms (all electrons):
               1          2          3          4          5          6
     1  C    5.010245   0.382616   0.382817   0.381644   0.258014  -0.021303
     2  H    0.382616   0.486581  -0.032825  -0.020376  -0.032926  -0.002535
     3  H    0.382817  -0.032825   0.484864  -0.022884  -0.028591   0.002974
     4  H    0.381644  -0.020376  -0.022884   0.475379  -0.028072  -0.002239
     5  N    0.258014  -0.032926  -0.028591  -0.028072   6.764507   0.283810
     6  H   -0.021303  -0.002535   0.002974  -0.002239   0.283810   0.295513
     7  C   -0.034260  -0.002653  -0.002332   0.003340   0.236938  -0.030230
     8  C   -0.001623  -0.000331   0.002477  -0.000054  -0.051317   0.004929
     9  H    0.001691   0.000051   0.002645  -0.000058  -0.003781  -0.000051
    10  H   -0.000036  -0.000013  -0.000100   0.000002   0.004156  -0.000114
    11  H   -0.000106   0.000016   0.000004  -0.000000  -0.003754  -0.000102
    12  H   -0.002435   0.005550  -0.000554   0.000064  -0.046100  -0.001465
    13  C    0.004528   0.000065  -0.000017  -0.000197  -0.057778  -0.007731
    14  H   -0.000054   0.000002  -0.000004   0.000009  -0.004353  -0.000083
    15  H   -0.000112  -0.000001   0.000001   0.000003   0.003866   0.000492
    16  C    0.000067   0.000012  -0.000012   0.000009  -0.008814   0.015414
    17  C   -0.000037   0.000018   0.000000   0.000001  -0.000089  -0.000432
    18  H   -0.000002   0.000001   0.000000  -0.000000   0.000038  -0.000023
    19  C   -0.000005   0.000000   0.000000  -0.000000   0.000003   0.000019
    20  H    0.000000  -0.000000  -0.000000   0.000000  -0.000001   0.000007
    21  C    0.000000  -0.000001   0.000000  -0.000001   0.000085  -0.000578
    22  H   -0.000000   0.000000   0.000000  -0.000000   0.000000  -0.000005
    23  C    0.000009  -0.000000  -0.000000   0.000003  -0.000676   0.001488
    24  H    0.000000   0.000000  -0.000000   0.000000  -0.000010   0.000066
    25  C    0.000050   0.000017  -0.000008   0.000044  -0.005093   0.021718
    26  H    0.000006  -0.000000  -0.000000   0.000003  -0.000126  -0.000137
    27  H   -0.021434   0.003492  -0.003761  -0.001350   0.297758  -0.012985
               7          8          9         10         11         12
     1  C   -0.034260  -0.001623   0.001691  -0.000036  -0.000106  -0.002435
     2  H   -0.002653  -0.000331   0.000051  -0.000013   0.000016   0.005550
     3  H   -0.002332   0.002477   0.002645  -0.000100   0.000004  -0.000554
     4  H    0.003340  -0.000054  -0.000058   0.000002  -0.000000   0.000064
     5  N    0.236938  -0.051317  -0.003781   0.004156  -0.003754  -0.046100
     6  H   -0.030230   0.004929  -0.000051  -0.000114  -0.000102  -0.001465
     7  C    4.931948   0.366161  -0.024399  -0.027626  -0.041074   0.392332
     8  C    0.366161   5.134889   0.370732   0.377533   0.373373  -0.052787
     9  H   -0.024399   0.370732   0.519052  -0.022249  -0.028362  -0.001224
    10  H   -0.027626   0.377533  -0.022249   0.514124  -0.027142  -0.005354
    11  H   -0.041074   0.373373  -0.028362  -0.027142   0.550014   0.006205
    12  H    0.392332  -0.052787  -0.001224  -0.005354   0.006205   0.521960
    13  C    0.361712  -0.051362   0.003922  -0.001361  -0.008784  -0.026054
    14  H   -0.033820  -0.006696  -0.000031  -0.000052   0.007406   0.003639
    15  H   -0.033910  -0.001372   0.000017   0.002147  -0.000289  -0.002310
    16  C   -0.034490   0.003715  -0.000102   0.000003   0.000255  -0.002096
    17  C   -0.001455   0.000082  -0.000000   0.000002   0.000003   0.002152
    18  H    0.000514  -0.000043   0.000001   0.000003   0.000001   0.000568
    19  C   -0.000170   0.000004  -0.000000  -0.000000  -0.000000  -0.000076
    20  H   -0.000003  -0.000000   0.000000   0.000000  -0.000000   0.000001
    21  C    0.000076  -0.000000   0.000000  -0.000000   0.000000   0.000001
    22  H    0.000000  -0.000000  -0.000000  -0.000000   0.000000  -0.000000
    23  C   -0.000171   0.000001  -0.000000  -0.000000   0.000000   0.000003
    24  H   -0.000003  -0.000000   0.000000   0.000000  -0.000000   0.000000
    25  C   -0.007633   0.000056  -0.000002  -0.000000  -0.000000   0.000042
    26  H    0.000046  -0.000038   0.000001   0.000000  -0.000008   0.000012
    27  H   -0.020056  -0.004767   0.000082  -0.000079   0.004387   0.004520
              13         14         15         16         17         18
     1  C    0.004528  -0.000054  -0.000112   0.000067  -0.000037  -0.000002
     2  H    0.000065   0.000002  -0.000001   0.000012   0.000018   0.000001
     3  H   -0.000017  -0.000004   0.000001  -0.000012   0.000000   0.000000
     4  H   -0.000197   0.000009   0.000003   0.000009   0.000001  -0.000000
     5  N   -0.057778  -0.004353   0.003866  -0.008814  -0.000089   0.000038
     6  H   -0.007731  -0.000083   0.000492   0.015414  -0.000432  -0.000023
     7  C    0.361712  -0.033820  -0.033910  -0.034490  -0.001455   0.000514
     8  C   -0.051362  -0.006696  -0.001372   0.003715   0.000082  -0.000043
     9  H    0.003922  -0.000031   0.000017  -0.000102  -0.000000   0.000001
    10  H   -0.001361  -0.000052   0.002147   0.000003   0.000002   0.000003
    11  H   -0.008784   0.007406  -0.000289   0.000255   0.000003   0.000001
    12  H   -0.026054   0.003639  -0.002310  -0.002096   0.002152   0.000568
    13  C    5.183929   0.361501   0.361408   0.342950  -0.050233  -0.006948
    14  H    0.361501   0.530763  -0.022191  -0.029793   0.003201   0.000052
    15  H    0.361408  -0.022191   0.532147  -0.028102  -0.002258   0.003253
    16  C    0.342950  -0.029793  -0.028102   4.746362   0.519993  -0.041925
    17  C   -0.050233   0.003201  -0.002258   0.519993   4.989368   0.361121
    18  H   -0.006948   0.000052   0.003253  -0.041925   0.361121   0.566944
    19  C    0.004415  -0.000107   0.000162  -0.016452   0.516181  -0.045539
    20  H   -0.000107   0.000002   0.000003   0.003427  -0.038407  -0.003840
    21  C    0.000485  -0.000004  -0.000010  -0.040514  -0.038587   0.004942
    22  H    0.000003  -0.000000  -0.000000   0.000486   0.006374  -0.000212
    23  C    0.006634   0.000183  -0.000165  -0.032786  -0.047904   0.000368
    24  H   -0.000179  -0.000002   0.000003   0.004331   0.000412   0.000018
    25  C   -0.048327  -0.002918   0.003189   0.540878  -0.039063   0.005234
    26  H   -0.011606   0.006199   0.000219  -0.048507   0.006281  -0.000152
    27  H   -0.000711   0.002820  -0.000065  -0.000193   0.000032  -0.000000
              19         20         21         22         23         24
     1  C   -0.000005   0.000000   0.000000  -0.000000   0.000009   0.000000
     2  H    0.000000  -0.000000  -0.000001   0.000000  -0.000000   0.000000
     3  H    0.000000  -0.000000   0.000000   0.000000  -0.000000  -0.000000
     4  H   -0.000000   0.000000  -0.000001  -0.000000   0.000003   0.000000
     5  N    0.000003  -0.000001   0.000085   0.000000  -0.000676  -0.000010
     6  H    0.000019   0.000007  -0.000578  -0.000005   0.001488   0.000066
     7  C   -0.000170  -0.000003   0.000076   0.000000  -0.000171  -0.000003
     8  C    0.000004  -0.000000  -0.000000  -0.000000   0.000001  -0.000000
     9  H   -0.000000   0.000000   0.000000  -0.000000  -0.000000   0.000000
    10  H   -0.000000   0.000000  -0.000000  -0.000000  -0.000000   0.000000
    11  H   -0.000000  -0.000000   0.000000   0.000000   0.000000  -0.000000
    12  H   -0.000076   0.000001   0.000001  -0.000000   0.000003   0.000000
    13  C    0.004415  -0.000107   0.000485   0.000003   0.006634  -0.000179
    14  H   -0.000107   0.000002  -0.000004  -0.000000   0.000183  -0.000002
    15  H    0.000162   0.000003  -0.000010  -0.000000  -0.000165   0.000003
    16  C   -0.016452   0.003427  -0.040514   0.000486  -0.032786   0.004331
    17  C    0.516181  -0.038407  -0.038587   0.006374  -0.047904   0.000412
    18  H   -0.045539  -0.003840   0.004942  -0.000212   0.000368   0.000018
    19  C    4.900728   0.362414   0.527865  -0.046410  -0.024672   0.005313
    20  H    0.362414   0.566772  -0.044649  -0.008811   0.006044  -0.000205
    21  C    0.527865  -0.044649   4.886593   0.363248   0.563569  -0.044149
    22  H   -0.046410  -0.008811   0.363248   0.582423  -0.044167  -0.006340
    23  C   -0.024672   0.006044   0.563569  -0.044167   4.877167   0.362466
    24  H    0.005313  -0.000205  -0.044149  -0.006340   0.362466   0.568162
    25  C   -0.049764   0.000387  -0.032972   0.005831   0.502200  -0.041029
    26  H    0.000234   0.000017   0.004590  -0.000165  -0.038794  -0.004199
    27  H   -0.000001   0.000000  -0.000001  -0.000000   0.000016   0.000000
              25         26         27
     1  C    0.000050   0.000006  -0.021434
     2  H    0.000017  -0.000000   0.003492
     3  H   -0.000008  -0.000000  -0.003761
     4  H    0.000044   0.000003  -0.001350
     5  N   -0.005093  -0.000126   0.297758
     6  H    0.021718  -0.000137  -0.012985
     7  C   -0.007633   0.000046  -0.020056
     8  C    0.000056  -0.000038  -0.004767
     9  H   -0.000002   0.000001   0.000082
    10  H   -0.000000   0.000000  -0.000079
    11  H   -0.000000  -0.000008   0.004387
    12  H    0.000042   0.000012   0.004520
    13  C   -0.048327  -0.011606  -0.000711
    14  H   -0.002918   0.006199   0.002820
    15  H    0.003189   0.000219  -0.000065
    16  C    0.540878  -0.048507  -0.000193
    17  C   -0.039063   0.006281   0.000032
    18  H    0.005234  -0.000152  -0.000000
    19  C   -0.049764   0.000234  -0.000001
    20  H    0.000387   0.000017   0.000000
    21  C   -0.032972   0.004590  -0.000001
    22  H    0.005831  -0.000165  -0.000000
    23  C    0.502200  -0.038794   0.000016
    24  H   -0.041029  -0.004199   0.000000
    25  C    4.991636   0.360885   0.000511
    26  H    0.360885   0.564038   0.000321
    27  H    0.000511   0.000321   0.290490
 Mulliken charges:
               1
     1  C   -0.340281
     2  H    0.213238
     3  H    0.215306
     4  H    0.214730
     5  N   -0.577696
     6  H    0.453585
     7  C    0.001220
     8  C   -0.463564
     9  H    0.182064
    10  H    0.186157
    11  H    0.167958
    12  H    0.203408
    13  C   -0.360157
    14  H    0.184331
    15  H    0.183876
    16  C    0.105885
    17  C   -0.186757
    18  H    0.155624
    19  C   -0.134141
    20  H    0.156947
    21  C   -0.149987
    22  H    0.147743
    23  C   -0.130816
    24  H    0.155345
    25  C   -0.205871
    26  H    0.160879
    27  H    0.460973
 Sum of Mulliken charges =   1.00000
 Mulliken charges with hydrogens summed into heavy atoms:
               1
     1  C    0.302993
     5  N    0.336862
     7  C    0.204628
     8  C    0.072615
    13  C    0.008051
    16  C    0.105885
    17  C   -0.031133
    19  C    0.022806
    21  C   -0.002244
    23  C    0.024528
    25  C   -0.044991
 Electronic spatial extent (au):  <R**2>=           2100.4503
 Charge=              1.0000 electrons
 Dipole moment (field-independent basis, Debye):
    X=              7.4995    Y=              3.6559    Z=              0.5460  Tot=              8.3610
 Quadrupole moment (field-independent basis, Debye-Ang):
   XX=            -42.5931   YY=            -55.8667   ZZ=            -58.7834
   XY=              4.5075   XZ=              1.9285   YZ=              2.7632
 Traceless Quadrupole moment (field-independent basis, Debye-Ang):
   XX=              9.8213   YY=             -3.4523   ZZ=             -6.3690
   XY=              4.5075   XZ=              1.9285   YZ=              2.7632
 Octapole moment (field-independent basis, Debye-Ang**2):
  XXX=             38.9366  YYY=             16.9449  ZZZ=              3.0211  XYY=             24.4982
  XXY=             26.5467  XXZ=             -9.1058  XZZ=              7.6152  YZZ=              4.5613
  YYZ=             -2.5187  XYZ=             -5.9760
 Hexadecapole moment (field-independent basis, Debye-Ang**3):
 XXXX=          -1721.7096 YYYY=           -481.8648 ZZZZ=           -311.8086 XXXY=              9.1337
 XXXZ=             22.3974 YYYX=             30.4237 YYYZ=              6.1343 ZZZX=              6.7251
 ZZZY=              7.2053 XXYY=           -372.9903 XXZZ=           -345.3430 YYZZ=           -134.2339
 XXYZ=             11.1250 YYXZ=             -9.8204 ZZXY=              8.3760
 N-N= 6.153808479368D+02 E-N=-2.246641362390D+03  KE= 4.410679042089D+02
 No NMR shielding tensors so no spin-rotation constants.
 Leave Link  601 at Sun Jul 18 14:20:05 2021, MaxMem=   104857600 cpu:               0.4 elap:               0.1
 (Enter /prod/apps/gaussian/g16b1/l701.exe)
 ... and contract with generalized density number  0.
 Compute integral first derivatives.
 D1PCM: PCM CHGder 1st derivatives, ID1Alg=3 FixD1E=F DoIter=F DoCFld=F I1PDM=0.
 GePol: Maximum number of non-zero 1st derivatives   =     170
 Leave Link  701 at Sun Jul 18 14:20:06 2021, MaxMem=   104857600 cpu:               4.8 elap:               1.2
 (Enter /prod/apps/gaussian/g16b1/l702.exe)
 L702 exits ... SP integral derivatives will be done elsewhere.
 Leave Link  702 at Sun Jul 18 14:20:06 2021, MaxMem=   104857600 cpu:               0.1 elap:               0.0
 (Enter /prod/apps/gaussian/g16b1/l703.exe)
 Integral derivatives from FoFJK, PRISM(SPDF).
 Compute integral first derivatives, UseDBF=F ICtDFT=           0.
 Calling FoFJK, ICntrl=      2127 FMM=F ISym2X=0 I1Cent= 0 IOpClX= 0 NMat=1 NMatS=1 NMatT=0.
 FoFJK:  IHMeth= 1 ICntrl=    2127 DoSepK=F KAlg= 0 I1Cent=           0 FoldK=F
 IRaf=         0 NMat=       1 IRICut=       1 DoRegI=T DoRafI=F ISym2E= 0 IDoP0=0 IntGTp=1.
 FoFCou: FMM=F IPFlag=           0 FMFlag=      100000 FMFlg1=         800
         NFxFlg=           0 DoJE=F BraDBF=F KetDBF=F FulRan=T
         wScrn=  0.000000 ICntrl=      2127 IOpCl=  0 I1Cent=           0 NGrid=           0
         NMat0=    1 NMatS0=      1 NMatT0=    0 NMatD0=    1 NMtDS0=    0 NMtDT0=    0
 Symmetry not used in FoFCou.
 Leave Link  703 at Sun Jul 18 14:20:12 2021, MaxMem=   104857600 cpu:              24.1 elap:               6.1
 (Enter /prod/apps/gaussian/g16b1/l716.exe)
 Dipole        = 2.95053466D+00 1.43832446D+00 2.14793730D-01
 ***** Axes restored to original set *****
 -------------------------------------------------------------------
 Center     Atomic                   Forces (Hartrees/Bohr)
 Number     Number              X              Y              Z
 -------------------------------------------------------------------
      1        6          -0.014003744   -0.009731361    0.021459891
      2        1           0.000071753    0.008466118   -0.006164222
      3        1           0.004512003   -0.000750793   -0.010097714
      4        1           0.003164464    0.000544061    0.002262440
      5        7          -0.006795064   -0.016365833    0.024030513
      6        1          -0.005162660    0.025860265   -0.010995701
      7        6           0.010965015   -0.001575929    0.003429835
      8        6           0.012261577   -0.013114498   -0.016658505
      9        1          -0.002934074    0.005236974    0.003505209
     10        1          -0.001688979   -0.000149038    0.002281457
     11        1           0.000922574   -0.007221773   -0.001211514
     12        1           0.002562922    0.020850394   -0.006135357
     13        6          -0.003147099    0.040269199    0.028979607
     14        1           0.001651784    0.002038069    0.000101398
     15        1           0.002647185   -0.008830913   -0.003569925
     16        6           0.009870510   -0.050597115    0.034094870
     17        6          -0.014901685   -0.008568438    0.010850604
     18        1           0.002207087   -0.004533213   -0.003700592
     19        6           0.015139147    0.019252906   -0.024927716
     20        1           0.005719779   -0.013477376    0.014756697
     21        6          -0.013701503    0.021133535    0.009621428
     22        1          -0.005842085   -0.001937738   -0.003138846
     23        6           0.000191675    0.002147007   -0.015866482
     24        1          -0.000508392   -0.003171833    0.000445720
     25        6           0.010532112    0.003178440   -0.024012014
     26        1          -0.014175774    0.001990044   -0.003362706
     27        1           0.000441472   -0.010941161   -0.025978374
 -------------------------------------------------------------------
 Cartesian Forces:  Max     0.050597115 RMS     0.013736075
 Leave Link  716 at Sun Jul 18 14:20:12 2021, MaxMem=   104857600 cpu:               0.1 elap:               0.0
 (Enter /prod/apps/gaussian/g16b1/l103.exe)

 GradGradGradGradGradGradGradGradGradGradGradGradGradGradGradGradGradGrad
 Berny optimization.
 FormGI is forming the generalized inverse of G from B-inverse, IUseBI=4.
 GSVD:  received Info=                   1 from GESDD.
 Internal  Forces:  Max     0.034184546 RMS     0.008454496
 Search for a local minimum.
 Step number   1 out of a maximum of  151
 All quantities printed in internal units (Hartrees-Bohrs-Radians)
 RMS Force = .84545D-02 SwitMx=.10000D-02 MixMth= 1
 Mixed Optimization -- RFO/linear search
 Second derivative matrix not updated -- first step.
 ITU=  0
     Eigenvalues ---    0.00230   0.00230   0.00593   0.00709   0.00752
     Eigenvalues ---    0.01538   0.02072   0.02165   0.02254   0.02311
     Eigenvalues ---    0.02364   0.02396   0.02445   0.02510   0.03391
     Eigenvalues ---    0.03999   0.04151   0.04293   0.04999   0.05108
     Eigenvalues ---    0.05272   0.05498   0.05724   0.05933   0.06279
     Eigenvalues ---    0.09111   0.09260   0.12745   0.12821   0.15178
     Eigenvalues ---    0.15349   0.15473   0.15824   0.15939   0.15998
     Eigenvalues ---    0.16000   0.16000   0.16000   0.16000   0.16000
     Eigenvalues ---    0.16000   0.16437   0.21790   0.21984   0.22081
     Eigenvalues ---    0.22157   0.23176   0.23853   0.24514   0.25920
     Eigenvalues ---    0.31933   0.34225   0.34459   0.34467   0.34488
     Eigenvalues ---    0.34519   0.34548   0.34562   0.34597   0.34625
     Eigenvalues ---    0.34652   0.35119   0.35132   0.35169   0.35177
     Eigenvalues ---    0.35192   0.35614   0.41104   0.43050   0.45764
     Eigenvalues ---    0.47623   0.47715   0.47845   0.49305   0.50914
 RFO step:  Lambda=-4.20053617D-02 EMin= 2.30000000D-03
 Linear search not attempted -- first point.
 Maximum step size (   0.300) exceeded in Quadratic search.
    -- Step size scaled by   0.857
 Iteration  1 RMS(Cart)=  0.09296553 RMS(Int)=  0.00384602
 Iteration  2 RMS(Cart)=  0.00571505 RMS(Int)=  0.00121874
 Iteration  3 RMS(Cart)=  0.00002539 RMS(Int)=  0.00121854
 Iteration  4 RMS(Cart)=  0.00000009 RMS(Int)=  0.00121854
 ITry= 1 IFail=0 DXMaxC= 3.72D-01 DCOld= 1.00D+10 DXMaxT= 3.00D-01 DXLimC= 3.00D+00 Rises=F
 Variable       Old X    -DE/DX   Delta X   Delta X   Delta X     New X
                                 (Linear)    (Quad)   (Total)
    R1        2.06514  -0.00155   0.00000  -0.00342  -0.00342   2.06172
    R2        2.06563  -0.00198   0.00000  -0.00438  -0.00438   2.06124
    R3        2.06462  -0.00364   0.00000  -0.00806  -0.00806   2.05656
    R4        2.77989   0.00932   0.00000   0.02006   0.02006   2.79995
    R5        1.88944   0.02826   0.00000   0.04662   0.04662   1.93606
    R6        2.80253   0.01783   0.00000   0.03975   0.03975   2.84227
    R7        1.89043   0.02757   0.00000   0.04558   0.04558   1.93600
    R8        2.84267   0.01619   0.00000   0.03839   0.03839   2.88106
    R9        2.06549  -0.00093   0.00000  -0.00206  -0.00206   2.06343
   R10        2.96924  -0.01435   0.00000  -0.04082  -0.04082   2.92842
   R11        2.06415  -0.00041   0.00000  -0.00091  -0.00091   2.06323
   R12        2.06334   0.00007   0.00000   0.00016   0.00016   2.06350
   R13        2.06244   0.00334   0.00000   0.00736   0.00736   2.06980
   R14        2.06288  -0.00087   0.00000  -0.00192  -0.00192   2.06097
   R15        2.06392   0.00069   0.00000   0.00152   0.00152   2.06544
   R16        3.02216  -0.03196   0.00000  -0.09759  -0.09759   2.92457
   R17        2.67325  -0.00865   0.00000  -0.01730  -0.01731   2.65594
   R18        2.58321   0.03418   0.00000   0.05246   0.05256   2.63577
   R19        2.05482  -0.00089   0.00000  -0.00194  -0.00194   2.05287
   R20        2.61809   0.00720   0.00000   0.01051   0.01054   2.62864
   R21        2.05461  -0.00144   0.00000  -0.00315  -0.00315   2.05146
   R22        2.64269   0.01253   0.00000   0.02120   0.02090   2.66359
   R23        2.05402  -0.00005   0.00000  -0.00010  -0.00010   2.05391
   R24        2.58985   0.01735   0.00000   0.02840   0.02839   2.61824
   R25        2.05364  -0.00123   0.00000  -0.00267  -0.00267   2.05097
   R26        2.62316   0.01401   0.00000   0.02482   0.02501   2.64817
   R27        2.05389   0.00004   0.00000   0.00008   0.00008   2.05397
    A1        1.79746   0.01125   0.00000   0.06146   0.06152   1.85899
    A2        1.95263  -0.00027   0.00000  -0.00832  -0.00850   1.94413
    A3        1.92399  -0.00448   0.00000  -0.01586  -0.01592   1.90807
    A4        1.91690   0.00333   0.00000   0.00858   0.00820   1.92511
    A5        1.96350  -0.01032   0.00000  -0.04009  -0.04026   1.92324
    A6        1.90802   0.00076   0.00000  -0.00369  -0.00398   1.90404
    A7        1.87951   0.00162   0.00000   0.00158   0.00177   1.88128
    A8        2.05661  -0.01031   0.00000  -0.03186  -0.03172   2.02488
    A9        1.87927   0.00344   0.00000   0.01086   0.01098   1.89025
   A10        1.87994   0.00538   0.00000   0.02308   0.02302   1.90295
   A11        1.88288  -0.00357   0.00000  -0.01827  -0.01842   1.86446
   A12        1.87957   0.00359   0.00000   0.01420   0.01420   1.89377
   A13        1.94933  -0.01091   0.00000  -0.03270  -0.03302   1.91631
   A14        1.87732  -0.00390   0.00000  -0.02019  -0.01897   1.85836
   A15        1.84622   0.01669   0.00000   0.06892   0.06937   1.91559
   A16        1.79640   0.01194   0.00000   0.06660   0.06652   1.86292
   A17        1.91264  -0.00304   0.00000  -0.00395  -0.00365   1.90899
   A18        2.08330  -0.01254   0.00000  -0.08399  -0.08354   1.99976
   A19        2.04718  -0.01152   0.00000  -0.05444  -0.05456   1.99262
   A20        1.90351   0.00030   0.00000  -0.00219  -0.00315   1.90036
   A21        1.86202   0.01215   0.00000   0.05995   0.06017   1.92219
   A22        1.90723   0.00227   0.00000  -0.00425  -0.00540   1.90184
   A23        1.87995  -0.00046   0.00000   0.00261   0.00351   1.88346
   A24        1.85410  -0.00180   0.00000   0.00516   0.00453   1.85863
   A25        1.87950   0.00078   0.00000   0.00259   0.00261   1.88211
   A26        1.86842  -0.00393   0.00000  -0.01412  -0.01463   1.85379
   A27        1.97644   0.00506   0.00000   0.02132   0.02118   1.99762
   A28        1.94685  -0.00221   0.00000  -0.02497  -0.02495   1.92190
   A29        1.95566  -0.00387   0.00000  -0.01735  -0.01728   1.93837
   A30        1.83599   0.00409   0.00000   0.03187   0.03186   1.86785
   A31        2.11169  -0.00913   0.00000  -0.02342  -0.02416   2.08752
   A32        2.02036   0.01863   0.00000   0.06037   0.06036   2.08072
   A33        2.13208  -0.00886   0.00000  -0.02633  -0.02696   2.10512
   A34        2.14170  -0.01072   0.00000  -0.03539  -0.03573   2.10597
   A35        2.05384   0.00861   0.00000   0.02370   0.02333   2.07717
   A36        2.07705   0.00273   0.00000   0.01977   0.01897   2.09602
   A37        2.26529  -0.02180   0.00000  -0.08339  -0.08641   2.17888
   A38        2.05335   0.00910   0.00000   0.03289   0.03119   2.08454
   A39        1.92149   0.01486   0.00000   0.08056   0.08019   2.00168
   A40        2.01657   0.01112   0.00000   0.04060   0.04084   2.05742
   A41        2.15778  -0.01172   0.00000  -0.03674  -0.03732   2.12046
   A42        2.10865   0.00058   0.00000  -0.00395  -0.00361   2.10505
   A43        2.09165   0.00110   0.00000   0.00376   0.00358   2.09522
   A44        2.05141   0.00327   0.00000   0.01704   0.01695   2.06836
   A45        2.13649  -0.00420   0.00000  -0.01840  -0.01849   2.11800
   A46        2.09372   0.00113   0.00000   0.00970   0.00882   2.10253
   A47        1.98963   0.01088   0.00000   0.05158   0.05081   2.04044
   A48        2.16899  -0.01042   0.00000  -0.04171  -0.04324   2.12575
    D1       -1.24264   0.00187   0.00000   0.01737   0.01727  -1.22538
    D2        0.88617   0.00310   0.00000   0.02696   0.02693   0.91311
    D3        3.01430   0.00345   0.00000   0.03235   0.03228   3.04658
    D4        3.04515  -0.00312   0.00000  -0.02486  -0.02478   3.02037
    D5       -1.10921  -0.00189   0.00000  -0.01528  -0.01511  -1.12433
    D6        1.01891  -0.00154   0.00000  -0.00989  -0.00977   1.00915
    D7        0.91063  -0.00093   0.00000  -0.00606  -0.00616   0.90447
    D8        3.03945   0.00031   0.00000   0.00352   0.00351   3.04296
    D9       -1.11561   0.00066   0.00000   0.00891   0.00886  -1.10675
   D10        1.32454   0.00155   0.00000  -0.00089  -0.00061   1.32392
   D11       -0.63432  -0.00496   0.00000  -0.05227  -0.05223  -0.68654
   D12       -2.87887   0.00216   0.00000   0.01876   0.01857  -2.86030
   D13       -2.83005   0.00086   0.00000  -0.00231  -0.00218  -2.83224
   D14        1.49428  -0.00565   0.00000  -0.05368  -0.05380   1.44048
   D15       -0.75027   0.00147   0.00000   0.01735   0.01700  -0.73328
   D16       -0.80344   0.00128   0.00000  -0.00456  -0.00425  -0.80769
   D17       -2.76229  -0.00523   0.00000  -0.05594  -0.05587  -2.81816
   D18        1.27634   0.00189   0.00000   0.01509   0.01493   1.29127
   D19       -0.79359   0.00227   0.00000  -0.00710  -0.00646  -0.80005
   D20       -2.97255   0.00788   0.00000   0.04311   0.04309  -2.92946
   D21        1.31483   0.00357   0.00000   0.00729   0.00699   1.32182
   D22        1.21558  -0.00054   0.00000  -0.00853  -0.00806   1.20751
   D23       -0.96338   0.00507   0.00000   0.04167   0.04149  -0.92189
   D24       -2.95919   0.00076   0.00000   0.00585   0.00539  -2.95380
   D25       -2.83357  -0.00984   0.00000  -0.06992  -0.06945  -2.90302
   D26        1.27066  -0.00423   0.00000  -0.01972  -0.01989   1.25076
   D27       -0.72515  -0.00854   0.00000  -0.05554  -0.05599  -0.78114
   D28       -1.13015   0.00155   0.00000   0.00019  -0.00026  -1.13040
[...]
 Alpha virt. eigenvalues --    0.02883   0.02988   0.03643   0.03992   0.04801
 Alpha virt. eigenvalues --    0.05354   0.05455   0.06071   0.06587   0.06795
 Alpha virt. eigenvalues --    0.07050   0.07164   0.07496   0.07595   0.07972
 Alpha virt. eigenvalues --    0.08110   0.08548   0.08671   0.09288   0.09457
 Alpha virt. eigenvalues --    0.10125   0.10282   0.10593   0.11314   0.11500
 Alpha virt. eigenvalues --    0.11659   0.12325   0.12641   0.13833   0.13969
 Alpha virt. eigenvalues --    0.14771   0.15042   0.15466   0.16670   0.16718
 Alpha virt. eigenvalues --    0.17890   0.18049   0.18595   0.19002   0.19249
 Alpha virt. eigenvalues --    0.20242   0.20674   0.20953   0.21678   0.22026
 Alpha virt. eigenvalues --    0.22755   0.22974   0.23381   0.24251   0.24720
 Alpha virt. eigenvalues --    0.25084   0.25677   0.26677   0.26993   0.27217
 Alpha virt. eigenvalues --    0.27827   0.28343   0.28973   0.29498   0.30495
 Alpha virt. eigenvalues --    0.31058   0.31459   0.31723   0.32163   0.32632
 Alpha virt. eigenvalues --    0.33419   0.33635   0.34101   0.34444   0.35319
 Alpha virt. eigenvalues --    0.35443   0.36079   0.36289   0.36866   0.37253
 Alpha virt. eigenvalues --    0.37341   0.38733   0.38993   0.40070   0.40124
 Alpha virt. eigenvalues --    0.40919   0.41509   0.41962   0.42546   0.42892
 Alpha virt. eigenvalues --    0.43634   0.44158   0.44637   0.45513   0.46347
 Alpha virt. eigenvalues --    0.46870   0.47505   0.47715   0.48530   0.48926
 Alpha virt. eigenvalues --    0.49525   0.50151   0.50939   0.51611   0.52130
 Alpha virt. eigenvalues --    0.52731   0.52925   0.53227   0.53590   0.54328
 Alpha virt. eigenvalues --    0.54752   0.55493   0.55772   0.56902   0.57197
 Alpha virt. eigenvalues --    0.57330   0.57769   0.58728   0.59190   0.59567
 Alpha virt. eigenvalues --    0.60677   0.61108   0.61243   0.62001   0.62155
 Alpha virt. eigenvalues --    0.63044   0.63652   0.63826   0.64819   0.65849
 Alpha virt. eigenvalues --    0.66290   0.66802   0.67334   0.68162   0.68523
 Alpha virt. eigenvalues --    0.68888   0.69962   0.69980   0.70647   0.72124
 Alpha virt. eigenvalues --    0.72672   0.72887   0.73305   0.74217   0.74618
 Alpha virt. eigenvalues --    0.75475   0.76197   0.76317   0.77545   0.79538
 Alpha virt. eigenvalues --    0.80230   0.80462   0.81101   0.81970   0.82344
 Alpha virt. eigenvalues --    0.83349   0.83993   0.84879   0.85120   0.85686
 Alpha virt. eigenvalues --    0.86406   0.87517   0.87835   0.88804   0.89161
 Alpha virt. eigenvalues --    0.90539   0.90915   0.91604   0.92591   0.93569
 Alpha virt. eigenvalues --    0.94162   0.95607   0.96866   0.97648   0.98418
 Alpha virt. eigenvalues --    0.98909   1.01228   1.01990   1.02300   1.04055
 Alpha virt. eigenvalues --    1.05148   1.06565   1.08489   1.09008   1.11800
 Alpha virt. eigenvalues --    1.12103   1.14260   1.15085   1.16407   1.18335
 Alpha virt. eigenvalues --    1.21251   1.22027   1.22579   1.24186   1.27631
 Alpha virt. eigenvalues --    1.30153   1.31936   1.32361   1.35526   1.39100
 Alpha virt. eigenvalues --    1.40026   1.41222   1.41820   1.42610   1.44675
 Alpha virt. eigenvalues --    1.45971   1.46031   1.48087   1.49261   1.49727
 Alpha virt. eigenvalues --    1.50775   1.51660   1.52775   1.54040   1.55229
 Alpha virt. eigenvalues --    1.55927   1.56751   1.58219   1.59672   1.60954
 Alpha virt. eigenvalues --    1.61467   1.62582   1.63357   1.65290   1.65943
 Alpha virt. eigenvalues --    1.67275   1.68415   1.68701   1.70372   1.72055
 Alpha virt. eigenvalues --    1.72620   1.73454   1.75116   1.76757   1.77502
 Alpha virt. eigenvalues --    1.78628   1.79996   1.80736   1.81982   1.83282
 Alpha virt. eigenvalues --    1.84068   1.85175   1.85712   1.86845   1.87368
 Alpha virt. eigenvalues --    1.87835   1.88529   1.89380   1.91819   1.92851
 Alpha virt. eigenvalues --    1.94051   1.94406   1.96923   1.97583   1.98792
 Alpha virt. eigenvalues --    2.00149   2.00578   2.00854   2.02219   2.03033
 Alpha virt. eigenvalues --    2.04205   2.05204   2.06706   2.10241   2.10700
 Alpha virt. eigenvalues --    2.11696   2.12405   2.12633   2.13897   2.15765
 Alpha virt. eigenvalues --    2.16643   2.17915   2.19381   2.20812   2.21019
 Alpha virt. eigenvalues --    2.22142   2.22674   2.23698   2.25447   2.25866
 Alpha virt. eigenvalues --    2.26940   2.27251   2.29969   2.31835   2.32871
 Alpha virt. eigenvalues --    2.33426   2.33811   2.34974   2.36175   2.36559
 Alpha virt. eigenvalues --    2.40071   2.41803   2.43930   2.46242   2.49514
 Alpha virt. eigenvalues --    2.50098   2.51900   2.53544   2.54913   2.56929
 Alpha virt. eigenvalues --    2.59164   2.59799   2.61344   2.62733   2.65271
 Alpha virt. eigenvalues --    2.66514   2.69257   2.70460   2.71460   2.71828
 Alpha virt. eigenvalues --    2.73184   2.74268   2.75190   2.75668   2.78747
 Alpha virt. eigenvalues --    2.80897   2.84286   2.85235   2.87201   2.89556
 Alpha virt. eigenvalues --    2.93901   2.94281   2.97087   2.98778   3.01890
 Alpha virt. eigenvalues --    3.05273   3.05612   3.07603   3.13188   3.17065
 Alpha virt. eigenvalues --    3.22885   3.24610   3.28178   3.32465   3.46391
 Alpha virt. eigenvalues --    3.51684   3.51871   3.62757   3.75734   3.90116
 Alpha virt. eigenvalues --    4.76109
          Condensed to atoms (all electrons):
               1          2          3          4          5          6
     1  C    4.069345   0.320200   0.351766   0.456853   0.117297  -0.015026
     2  H    0.320200   1.044916  -0.113630  -0.186660   0.015951  -0.027008
     3  H    0.351766  -0.113630   1.171915  -0.253969  -0.017585   0.005984
     4  H    0.456853  -0.186660  -0.253969   1.245011  -0.168823   0.004246
     5  N    0.117297   0.015951  -0.017585  -0.168823   7.807924   0.443412
     6  H   -0.015026  -0.027008   0.005984   0.004246   0.443412   0.536417
     7  C    0.010503  -0.055749   0.050240   0.051273  -1.053066   0.000873
     8  C    0.015731   0.003555  -0.076932   0.027199  -0.001861  -0.002627
     9  H    0.034598  -0.016867   0.028430   0.003068   0.014699   0.002436
    10  H   -0.017792   0.002560  -0.001855  -0.000358   0.021024   0.002064
    11  H    0.008551   0.001254  -0.016749   0.005804  -0.096235  -0.009060
    12  H    0.020033   0.018012  -0.020952   0.016289  -0.267623  -0.046581
    13  C   -0.069093   0.051632   0.033144  -0.060511   0.317892  -0.081956
    14  H   -0.001461  -0.002911   0.007712  -0.003610  -0.012695  -0.000947
    15  H    0.007017   0.002309   0.000388  -0.001910   0.068619   0.005998
    16  C    0.000888  -0.022137  -0.000038   0.013193  -0.184811   0.019794
    17  C   -0.028268   0.016980  -0.000199  -0.004738  -0.012876  -0.011846
    18  H   -0.004226  -0.001183  -0.000531  -0.000057   0.005778   0.005320
    19  C   -0.007970  -0.000014  -0.001536   0.001018  -0.028023  -0.004158
    20  H   -0.000045  -0.000019  -0.000029  -0.000037  -0.001310   0.000600
    21  C   -0.002860   0.002171  -0.000002  -0.001342   0.031561   0.021992
    22  H    0.000345  -0.000068   0.000022   0.000082   0.000466  -0.003064
    23  C   -0.010153  -0.003257   0.000309  -0.003541  -0.044737  -0.003326
    24  H   -0.000135  -0.000091   0.000087  -0.000333   0.000229   0.001602
    25  C    0.001488   0.000474   0.004140  -0.007844   0.189980   0.004120
    26  H   -0.003066   0.001653  -0.001226   0.000293  -0.022316  -0.004311
    27  H   -0.052179   0.016741  -0.017884  -0.003345   0.391808  -0.063326
               7          8          9         10         11         12
     1  C    0.010503   0.015731   0.034598  -0.017792   0.008551   0.020033
     2  H   -0.055749   0.003555  -0.016867   0.002560   0.001254   0.018012
     3  H    0.050240  -0.076932   0.028430  -0.001855  -0.016749  -0.020952
     4  H    0.051273   0.027199   0.003068  -0.000358   0.005804   0.016289
     5  N   -1.053066  -0.001861   0.014699   0.021024  -0.096235  -0.267623
     6  H    0.000873  -0.002627   0.002436   0.002064  -0.009060  -0.046581
     7  C    7.715012   0.141251   0.183320   0.013907  -0.034252  -0.032549
     8  C    0.141251   4.392424   0.248064   0.211078   0.438546   0.035220
     9  H    0.183320   0.248064   1.182924  -0.225082  -0.225533  -0.051931
    10  H    0.013907   0.211078  -0.225082   1.093143  -0.126085  -0.075942
    11  H   -0.034252   0.438546  -0.225533  -0.126085   1.059745   0.102135
    12  H   -0.032549   0.035220  -0.051931  -0.075942   0.102135   2.030302
    13  C   -0.317491  -0.100318  -0.052952   0.052518  -0.133042  -0.264049
    14  H    0.149247  -0.075403   0.005463  -0.014363  -0.004207   0.071007
    15  H    0.048599  -0.070143   0.012379  -0.001853  -0.031045  -0.069708
    16  C    0.443882   0.004147  -0.030251   0.024174   0.070374   0.044925
    17  C   -0.638132  -0.052701  -0.009216  -0.002482   0.005093  -0.050962
    18  H    0.062997   0.026232  -0.001751   0.006157   0.001842  -0.041957
    19  C    0.130016   0.045998  -0.001888   0.005093   0.004347   0.015001
    20  H    0.005631   0.000673   0.000014   0.000294  -0.000024   0.000044
    21  C   -0.150156  -0.011943  -0.000505  -0.000663  -0.000736  -0.010062
    22  H   -0.002127  -0.000317  -0.000031  -0.000033   0.000004   0.000874
    23  C    0.239548   0.021732   0.000462   0.001829   0.001810   0.019379
    24  H   -0.002334   0.000528   0.000041   0.000005  -0.000007   0.000047
    25  C   -0.548704  -0.041687   0.001186   0.004190  -0.014413  -0.016865
    26  H    0.035408   0.007583  -0.000803  -0.000339   0.004908   0.003817
    27  H   -0.146851  -0.002178  -0.025913   0.006739   0.027999   0.033469
              13         14         15         16         17         18
     1  C   -0.069093  -0.001461   0.007017   0.000888  -0.028268  -0.004226
     2  H    0.051632  -0.002911   0.002309  -0.022137   0.016980  -0.001183
     3  H    0.033144   0.007712   0.000388  -0.000038  -0.000199  -0.000531
     4  H   -0.060511  -0.003610  -0.001910   0.013193  -0.004738  -0.000057
     5  N    0.317892  -0.012695   0.068619  -0.184811  -0.012876   0.005778
     6  H   -0.081956  -0.000947   0.005998   0.019794  -0.011846   0.005320
     7  C   -0.317491   0.149247   0.048599   0.443882  -0.638132   0.062997
     8  C   -0.100318  -0.075403  -0.070143   0.004147  -0.052701   0.026232
     9  H   -0.052952   0.005463   0.012379  -0.030251  -0.009216  -0.001751
    10  H    0.052518  -0.014363  -0.001853   0.024174  -0.002482   0.006157
    11  H   -0.133042  -0.004207  -0.031045   0.070374   0.005093   0.001842
    12  H   -0.264049   0.071007  -0.069708   0.044925  -0.050962  -0.041957
    13  C    7.740991  -0.050755   0.094112  -0.709447  -0.265382  -0.112412
    14  H   -0.050755   1.567991  -0.238777  -0.148358  -0.233359   0.001315
    15  H    0.094112  -0.238777   1.331398  -0.166303   0.135673  -0.019180
    16  C   -0.709447  -0.148358  -0.166303  13.286204  -5.809951   0.701509
    17  C   -0.265382  -0.233359   0.135673  -5.809951  15.663216  -1.210148
    18  H   -0.112412   0.001315  -0.019180   0.701509  -1.210148   2.166130
    19  C   -0.248690  -0.049900   0.038440   2.630733  -3.730754   0.430449
    20  H    0.018309  -0.000707   0.000537  -0.147757   0.593538  -0.097455
    21  C    0.170353  -0.000113   0.013105  -3.463500   3.180997  -0.193389
    22  H    0.000484   0.000070   0.000781   0.098247  -0.131375  -0.016097
    23  C   -0.392235   0.112062  -0.050930   3.107906  -3.691912   0.145206
    24  H    0.019065   0.004331  -0.000403  -0.165003   0.114772   0.009463
    25  C   -0.228226   0.196106  -0.034678  -5.363634   1.630103  -0.143398
    26  H    0.001385  -0.059828   0.012997   0.734372   0.002053  -0.021911
    27  H    0.008777  -0.013277   0.007316   0.000680   0.017541   0.000631
              19         20         21         22         23         24
     1  C   -0.007970  -0.000045  -0.002860   0.000345  -0.010153  -0.000135
     2  H   -0.000014  -0.000019   0.002171  -0.000068  -0.003257  -0.000091
     3  H   -0.001536  -0.000029  -0.000002   0.000022   0.000309   0.000087
     4  H    0.001018  -0.000037  -0.001342   0.000082  -0.003541  -0.000333
     5  N   -0.028023  -0.001310   0.031561   0.000466  -0.044737   0.000229
     6  H   -0.004158   0.000600   0.021992  -0.003064  -0.003326   0.001602
     7  C    0.130016   0.005631  -0.150156  -0.002127   0.239548  -0.002334
     8  C    0.045998   0.000673  -0.011943  -0.000317   0.021732   0.000528
     9  H   -0.001888   0.000014  -0.000505  -0.000031   0.000462   0.000041
    10  H    0.005093   0.000294  -0.000663  -0.000033   0.001829   0.000005
    11  H    0.004347  -0.000024  -0.000736   0.000004   0.001810  -0.000007
    12  H    0.015001   0.000044  -0.010062   0.000874   0.019379   0.000047
    13  C   -0.248690   0.018309   0.170353   0.000484  -0.392235   0.019065
    14  H   -0.049900  -0.000707  -0.000113   0.000070   0.112062   0.004331
    15  H    0.038440   0.000537   0.013105   0.000781  -0.050930  -0.000403
    16  C    2.630733  -0.147757  -3.463500   0.098247   3.107906  -0.165003
    17  C   -3.730754   0.593538   3.180997  -0.131375  -3.691912   0.114772
    18  H    0.430449  -0.097455  -0.193389  -0.016097   0.145206   0.009463
    19  C   10.366720  -0.715565  -3.010124   0.350714   3.500381  -0.211092
    20  H   -0.715565   1.649640   0.320821  -0.058663  -0.230962  -0.017653
    21  C   -3.010124   0.320821   8.708932  -0.573899  -3.164669   0.339501
    22  H    0.350714  -0.058663  -0.573899   1.586815   0.352178  -0.055018
    23  C    3.500381  -0.230962  -3.164669   0.352178  10.351547  -0.680258
    24  H   -0.211092  -0.017653   0.339501  -0.055018  -0.680258   1.636739
    25  C   -3.753786   0.116616   3.298494  -0.118360  -4.051472   0.540797
    26  H    0.119381   0.009394  -0.180109  -0.014123   0.315162  -0.095196
    27  H    0.002504   0.000120   0.000120   0.000202  -0.002903  -0.000187
              25         26         27
     1  C    0.001488  -0.003066  -0.052179
     2  H    0.000474   0.001653   0.016741
     3  H    0.004140  -0.001226  -0.017884
     4  H   -0.007844   0.000293  -0.003345
     5  N    0.189980  -0.022316   0.391808
     6  H    0.004120  -0.004311  -0.063326
     7  C   -0.548704   0.035408  -0.146851
     8  C   -0.041687   0.007583  -0.002178
     9  H    0.001186  -0.000803  -0.025913
    10  H    0.004190  -0.000339   0.006739
    11  H   -0.014413   0.004908   0.027999
    12  H   -0.016865   0.003817   0.033469
    13  C   -0.228226   0.001385   0.008777
    14  H    0.196106  -0.059828  -0.013277
    15  H   -0.034678   0.012997   0.007316
    16  C   -5.363634   0.734372   0.000680
    17  C    1.630103   0.002053   0.017541
    18  H   -0.143398  -0.021911   0.000631
    19  C   -3.753786   0.119381   0.002504
    20  H    0.116616   0.009394   0.000120
    21  C    3.298494  -0.180109   0.000120
    22  H   -0.118360  -0.014123   0.000202
    23  C   -4.051472   0.315162  -0.002903
    24  H    0.540797  -0.095196  -0.000187
    25  C   15.092028  -1.314552   0.011208
    26  H   -1.314552   2.138422   0.004308
    27  H    0.011208   0.004308   0.596313
 Mulliken charges:
               1
     1  C    0.797660
     2  H   -0.068814
     3  H   -0.131020
     4  H   -0.127251
     5  N   -0.514676
     6  H    0.218378
     7  C   -0.300298
     8  C    0.816150
     9  H   -0.074362
    10  H    0.022070
    11  H   -0.041025
    12  H   -0.461373
    13  C    0.577898
    14  H   -0.204632
    15  H   -0.094740
    16  C    1.030164
    17  C    0.524335
    18  H   -0.699335
    19  C    0.122705
    20  H   -0.446001
    21  C    0.676027
    22  H   -0.418107
    23  C    0.160844
    24  H   -0.439496
    25  C    0.546688
    26  H   -0.673356
    27  H    0.201568
 Sum of Mulliken charges =   1.00000
 Mulliken charges with hydrogens summed into heavy atoms:
               1
     1  C    0.470576
     5  N   -0.094731
     7  C   -0.761671
     8  C    0.722833
    13  C    0.278526
    16  C    1.030164
    17  C   -0.175000
    19  C   -0.323296
    21  C    0.257920
    23  C   -0.278652
    25  C   -0.126668
 Electronic spatial extent (au):  <R**2>=           2216.8478
 Charge=              1.0000 electrons
 Dipole moment (field-independent basis, Debye):
    X=              7.0909    Y=              3.0187    Z=             -0.0444  Tot=              7.7069
 Quadrupole moment (field-independent basis, Debye-Ang):
   XX=            -34.8525   YY=            -56.6365   ZZ=            -58.9838
   XY=              3.7059   XZ=              1.3487   YZ=              2.4995
 Traceless Quadrupole moment (field-independent basis, Debye-Ang):
   XX=             15.3051   YY=             -6.4789   ZZ=             -8.8262
   XY=              3.7059   XZ=              1.3487   YZ=              2.4995
 Octapole moment (field-independent basis, Debye-Ang**2):
  XXX=             43.0932  YYY=             13.6263  ZZZ=              0.3391  XYY=             32.8623
  XXY=             33.6407  XXZ=            -11.5457  XZZ=              6.4404  YZZ=              4.6163
  YYZ=             -2.0050  XYZ=             -9.4460
 Hexadecapole moment (field-independent basis, Debye-Ang**3):
 XXXX=          -1805.2489 YYYY=           -427.7979 ZZZZ=           -326.1732 XXXY=             -8.1721
 XXXZ=             17.5899 YYYX=             32.0693 YYYZ=             -0.7869 ZZZX=              9.9431
 ZZZY=             12.5525 XXYY=           -383.5632 XXZZ=           -372.1536 YYZZ=           -130.4298
 XXYZ=              8.8837 YYXZ=            -11.2145 ZZXY=             10.4919
 N-N= 6.083013569086D+02 E-N=-2.232550753390D+03  KE= 4.417772794906D+02
 Leave Link  601 at Sun Jul 18 14:41:46 2021, MaxMem=   262144000 cpu:               0.6 elap:               0.2
 (Enter /prod/apps/gaussian/g16b1/l9999.exe)
 1\1\GINC-PIRINEUS29\SP\RMP2-FC\Aug-CC-pVDZ\C10H16N1(1+)\UBATOR02\18-Ju
 l-2021\0\\#p mp2/aug-cc-pVDZ scf=tight maxdisk=180GB geom=allcheck\\SE
 T_328_BBB30_conf1.geo_075_060_195 geometry\\1,1\C,0,-2.2747965795,-1.9
 687672753,0.7068071223\H,0,-2.3194489459,-1.4414790986,1.6579894125\H,
 0,-2.0792811779,-3.0256804579,0.86699932\H,0,-3.2052699848,-1.83839434
 83,0.1578743876\N,0,-1.168978289,-1.3816292488,-0.1058219851\H,0,-1.41
 27733534,-0.4013661455,-0.3190412388\C,0,0.19811853,-1.4123330741,0.54
 02779936\C,0,0.6707065886,-2.8475225596,0.7075879822\H,0,-0.0009170036
 ,-3.4318157519,1.3389070926\H,0,1.6531848129,-2.8390633974,1.183861492
 \H,0,0.7655987718,-3.3450987896,-0.2609448644\H,0,0.0566219777,-0.9457
 21058,1.5174605243\C,0,1.1806841092,-0.5752755952,-0.2925591122\H,0,1.
 2864573735,-1.0304677398,-1.282659612\H,0,2.1508979015,-0.6744613318,0
 .2042844457\C,0,0.8148954827,0.8878890316,-0.4333725924\C,0,0.92054921
 91,1.7650491398,0.6570783126\H,0,1.2808273438,1.3944568644,1.612527604
 3\C,0,0.5790942982,3.1104551943,0.5255492748\H,0,0.6711341211,3.774992
 9874,1.3783365276\C,0,0.1264891624,3.6037767291,-0.7012863485\H,0,-0.1
 358338524,4.6514245054,-0.8040579827\C,0,0.0189735139,2.7425392411,-1.
 7935795475\H,0,-0.3266622883,3.1163742151,-2.7519649929\C,0,0.36095391
 02,1.3952062397,-1.6574057308\H,0,0.283091641,0.728884375,-2.512057865
 \H,0,-1.1233172829,-1.859972651,-1.0197896198\\Version=ES64L-G16RevB.0
 1\State=1-A\HF=-442.2979885\MP2=-443.8832704\RMSD=4.662e-09\PG=C01 [X(
 C10H16N1)]\\@


 ASKING FOR EFFICIENCY AND ADAPTABILITY IN THE SAME PROGRAM IS LIKE
 ASKING FOR A BEAUTIFUL AND MODEST WIFE ...
 WE'LL PROBABLY HAVE TO SETTLE FOR ONE OR THE OTHER.

             -- THE PSYCHOLOGY OF COMPUTER PROGRAMMING
                GERALD M. WEINBERG
 Job cpu time:       0 days  0 hours 26 minutes 42.9 seconds.
 Elapsed time:       0 days  0 hours  6 minutes 55.2 seconds.
 File lengths (MBytes):  RWF=  17483 Int=      0 D2E=      0 Chk=     14 Scr=      1
 Normal termination of Gaussian 16 at Sun Jul 18 14:41:47 2021.
