 Entering Gaussian System, Link 0=g16
 Initial command:
 /prod/apps/gaussian/g16b1/l1.exe "/tmp/ubator02/1839671/Gau-15160.inp" -scrdir="/tmp/ubator02/1839671/"
 Entering Link 1 = /prod/apps/gaussian/g16b1/l1.exe PID=     15161.
  
 Copyright (c) 1988-2017, Gaussian, Inc.  All Rights Reserved.
  
 This is part of the Gaussian(R) 16 program.  It is based on
 the Gaussian(R) 09 system (copyright 2009, Gaussian, Inc.),
 the Gaussian(R) 03 system (copyright 2003, Gaussian, Inc.),
 the Gaussian(R) 98 system (copyright 1998, Gaussian, Inc.),
 the Gaussian(R) 94 system (copyright 1995, Gaussian, Inc.),
 the Gaussian 92(TM) system (copyright 1992, Gaussian, Inc.),
 the Gaussian 90(TM) system (copyright 1990, Gaussian, Inc.),
 the Gaussian 88(TM) system (copyright 1988, Gaussian, Inc.),
 the Gaussian 86(TM) system (copyright 1986, Carnegie Mellon
 University), and the Gaussian 82(TM) system (copyright 1983,
 Carnegie Mellon University). Gaussian is a federally registered
 trademark of Gaussian, Inc.
  
 This software contains proprietary and confidential information,
 including trade secrets, belonging to Gaussian, Inc.
  
 This software is provided under written license and may be
 used, copied, transmitted, or stored only in accord with that
 written license.
  
 The following legend is applicable only to US Government
 contracts under FAR:
  
                    RESTRICTED RIGHTS LEGEND
  
 Use, reproduction and disclosure by the US Government is
 subject to restrictions as set forth in subparagraphs (a)
 and (c) of the Commercial Computer Software - Restricted
 Rights clause in FAR 52.227-19.
  
 Gaussian, Inc.
 340 Quinnipiac St., Bldg. 40, Wallingford CT 06492
  
  
 ---------------------------------------------------------------
 Warning -- This program may not be used in any manner that
 competes with the business of Gaussian, Inc. or will provide
 assistance to any competitor of Gaussian, Inc.  The licensee
 of this program is prohibited from giving any competitor of
 Gaussian, Inc. access to this program.  By using this program,
 the user acknowledges that Gaussian, Inc. is engaged in the
 business of creating and licensing software in the field of
 computational chemistry and represents and warrants to the
 licensee that it is not a competitor of Gaussian, Inc. and that
 it will not use this program in any manner prohibited above.
 ---------------------------------------------------------------
  

 Cite this work as:
 Gaussian 16, Revision B.01,
 M. J. Frisch, G. W. Trucks, H. B. Schlegel, G. E. Scuseria, 
 M. A. Robb, J. R. Cheeseman, G. Scalmani, V. Barone, 
 G. A. Petersson, H. Nakatsuji, X. Li, M. Caricato, A. V. Marenich, 
 J. Bloino, B. G. Janesko, R. Gomperts, B. Mennucci, H. P. Hratchian, 
 J. V. Ortiz, A. F. Izmaylov, J. L. Sonnenberg, D. Williams-Young, 
 F. Ding, F. Lipparini, F. Egidi, J. Goings, B. Peng, A. Petrone, 
 T. Henderson, D. Ranasinghe, V. G. Zakrzewski, J. Gao, N. Rega, 
 G. Zheng, W. Liang, M. Hada, M. Ehara, K. Toyota, R. Fukuda, 
 J. Hasegawa, M. Ishida, T. Nakajima, Y. Honda, O. Kitao, H. Nakai, 
 T. Vreven, K. Throssell, J. A. Montgomery, Jr., J. E. Peralta, 
 F. Ogliaro, M. J. Bearpark, J. J. Heyd, E. N. Brothers, K. N. Kudin, 
 V. N. Staroverov, T. A. Keith, R. Kobayashi, J. Normand, 
 K. Raghavachari, A. P. Rendell, J. C. Burant, S. S. Iyengar, 
 J. Tomasi, M. Cossi, J. M. Millam, M. Klene, C. Adamo, R. Cammi, 
 J. W. Ochterski, R. L. Martin, K. Morokuma, O. Farkas, 
 J. B. Foresman, and D. J. Fox, Gaussian, Inc., Wallingford CT, 2016.
 
 ******************************************
 Gaussian 16:  ES64L-G16RevB.01 20-Dec-2017
                18-Jul-2021 
 ******************************************
 %mem=800MB
 %nproc=4
 Will use up to    4 processors via shared memory.
 %chk=SET_328_BBB321_conf1.geo_180_330_045.chk
 -----------------------------------------------------------
 #p b3lyp/6-31G(d) opt freq scrf=(iefpcm,read,solvent=water)
 -----------------------------------------------------------
 1/18=20,19=15,26=3,38=1,40=2/1,3;
 2/9=110,12=2,17=6,18=5,40=1/2;
 3/5=1,6=6,7=1,11=2,25=1,30=1,70=2203,71=1,72=1,74=-5/1,2,3;
 4//1;
 5/5=2,38=5,53=1/2;
 6/7=2,8=2,9=2,10=2,28=1/1;
 7//1,2,3,16;
 1/18=20,19=15,26=3/3(2);
 2/9=110/2;
 99//99;
 2/9=110/2;
 3/5=1,6=6,7=1,11=2,25=1,30=1,70=2205,71=1,72=1,74=-5/1,2,3;
 4/5=5,16=3,69=1/1;
 5/5=2,38=5,53=1/2;
 7//1,2,3,16;
 1/18=20,19=15,26=3/3(-5);
 2/9=110/2;
 6/7=2,8=2,9=2,10=2,19=2,28=1/1;
 99/9=1/99;
 Leave Link    1 at Sun Jul 18 15:47:05 2021, MaxMem=   104857600 cpu:               0.2 elap:               0.1
 (Enter /prod/apps/gaussian/g16b1/l101.exe)
 ---------------------------------------------
 SET_328_BBB321_conf1.geo_180_330_045 geometry
 ---------------------------------------------
 Symbolic Z-matrix:
 Charge =  1 Multiplicity = 1
 C                     4.388    -1.594     2.191 
 H                     4.375    -1.445     3.273 
 H                     5.089    -0.875     1.763 
 H                     4.85     -2.547     1.928 
 C                     2.982    -1.484     1.595 
 O                     2.006    -1.205     2.252 
 N                     3.012    -1.661     0.271 
 H                     3.927    -1.851    -0.107 
 C                     1.887    -1.709    -0.605 
 C                     1.92     -2.597    -1.642 
 C                     0.938    -2.571    -2.66 
 C                    -0.15     -1.648    -2.553 
 H                    -0.852    -1.676    -3.382 
 H                     0.989    -3.278    -3.484 
 H                     2.706    -3.338    -1.766 
 C                     0.844    -0.759    -0.535 
 H                     0.854    -0.003     0.247 
 C                    -0.206    -0.742    -1.477 
 C                    -1.202     0.278    -1.33 
 N                    -1.613     0.913    -0.127 
 C                    -1.781     0.778    -2.498 
 H                    -1.676     0.421    -3.515 
 S                    -3.047     1.87     -2.14 
 C                    -2.602     1.811    -0.386 
 N                    -3.26      2.651     0.453 
 C                    -2.928     2.614     1.586 
 N                    -2.609     3.795     1.836 
 H                    -2.882     3.949     2.8 
 H                    -3.215     4.272     1.177 
 N                    -3.948     2.744     2.369 
 H                    -4.195     1.874     2.828 
 H                    -4.6       3.012     1.64 
 H                    -3.982     3.264     0.132 
 
 ITRead=  0  0  0  0  0  0  0  0  0  0  0  0  0  0  0  0  0  0  0  0
 ITRead=  0  0  0  0  0  0  0  0  0  0  0  0  0
 MicOpt= -1 -1 -1 -1 -1 -1 -1 -1 -1 -1 -1 -1 -1 -1 -1 -1 -1 -1 -1 -1
 MicOpt= -1 -1 -1 -1 -1 -1 -1 -1 -1 -1 -1 -1 -1
 NAtoms=     33 NQM=       33 NQMF=       0 NMMI=      0 NMMIF=      0
                NMic=       0 NMicF=      0.
                    Isotopes and Nuclear Properties:
 (Nuclear quadrupole moments (NQMom) in fm**2, nuclear magnetic moments (NMagM)
  in nuclear magnetons)

  Atom         1           2           3           4           5           6           7           8           9          10
 IAtWgt=          12           1           1           1          12          16          14           1          12          12
 AtmWgt=  12.0000000   1.0078250   1.0078250   1.0078250  12.0000000  15.9949146  14.0030740   1.0078250  12.0000000  12.0000000
 NucSpn=           0           1           1           1           0           0           2           1           0           0
 AtZEff=  -0.0000000  -0.0000000  -0.0000000  -0.0000000  -0.0000000  -0.0000000  -0.0000000  -0.0000000  -0.0000000  -0.0000000
 NQMom=    0.0000000   0.0000000   0.0000000   0.0000000   0.0000000   0.0000000   2.0440000   0.0000000   0.0000000   0.0000000
 NMagM=    0.0000000   2.7928460   2.7928460   2.7928460   0.0000000   0.0000000   0.4037610   2.7928460   0.0000000   0.0000000
 AtZNuc=   6.0000000   1.0000000   1.0000000   1.0000000   6.0000000   8.0000000   7.0000000   1.0000000   6.0000000   6.0000000

  Atom        11          12          13          14          15          16          17          18          19          20
 IAtWgt=          12          12           1           1           1          12           1          12          12          14
 AtmWgt=  12.0000000  12.0000000   1.0078250   1.0078250   1.0078250  12.0000000   1.0078250  12.0000000  12.0000000  14.0030740
 NucSpn=           0           0           1           1           1           0           1           0           0           2
 AtZEff=  -0.0000000  -0.0000000  -0.0000000  -0.0000000  -0.0000000  -0.0000000  -0.0000000  -0.0000000  -0.0000000  -0.0000000
 NQMom=    0.0000000   0.0000000   0.0000000   0.0000000   0.0000000   0.0000000   0.0000000   0.0000000   0.0000000   2.0440000
 NMagM=    0.0000000   0.0000000   2.7928460   2.7928460   2.7928460   0.0000000   2.7928460   0.0000000   0.0000000   0.4037610
 AtZNuc=   6.0000000   6.0000000   1.0000000   1.0000000   1.0000000   6.0000000   1.0000000   6.0000000   6.0000000   7.0000000

  Atom        21          22          23          24          25          26          27          28          29          30
 IAtWgt=          12           1          32          12          14          12          14           1           1          14
 AtmWgt=  12.0000000   1.0078250  31.9720718  12.0000000  14.0030740  12.0000000  14.0030740   1.0078250   1.0078250  14.0030740
 NucSpn=           0           1           0           0           2           0           2           1           1           2
 AtZEff=  -0.0000000  -0.0000000  -0.0000000  -0.0000000  -0.0000000  -0.0000000  -0.0000000  -0.0000000  -0.0000000  -0.0000000
 NQMom=    0.0000000   0.0000000   0.0000000   0.0000000   2.0440000   0.0000000   2.0440000   0.0000000   0.0000000   2.0440000
 NMagM=    0.0000000   2.7928460   0.0000000   0.0000000   0.4037610   0.0000000   0.4037610   2.7928460   2.7928460   0.4037610
 AtZNuc=   6.0000000   1.0000000  16.0000000   6.0000000   7.0000000   6.0000000   7.0000000   1.0000000   1.0000000   7.0000000

  Atom        31          32          33
 IAtWgt=           1           1           1
 AtmWgt=   1.0078250   1.0078250   1.0078250
 NucSpn=           1           1           1
 AtZEff=  -0.0000000  -0.0000000  -0.0000000
 NQMom=    0.0000000   0.0000000   0.0000000
 NMagM=    2.7928460   2.7928460   2.7928460
 AtZNuc=   1.0000000   1.0000000   1.0000000
 Leave Link  101 at Sun Jul 18 15:47:05 2021, MaxMem=   104857600 cpu:               0.8 elap:               0.3
 (Enter /prod/apps/gaussian/g16b1/l103.exe)

 GradGradGradGradGradGradGradGradGradGradGradGradGradGradGradGradGradGrad
 Berny optimization.
 Initialization pass.
                           ----------------------------
                           !    Initial Parameters    !
                           ! (Angstroms and Degrees)  !
 --------------------------                            --------------------------
 ! Name  Definition              Value          Derivative Info.                !
 --------------------------------------------------------------------------------
 ! R1    R(1,2)                  1.0923         estimate D2E/DX2                !
 ! R2    R(1,3)                  1.0916         estimate D2E/DX2                !
 ! R3    R(1,4)                  1.0912         estimate D2E/DX2                !
 ! R4    R(1,5)                  1.5311         estimate D2E/DX2                !
 ! R5    R(5,6)                  1.2092         estimate D2E/DX2                !
 ! R6    R(5,7)                  1.3361         estimate D2E/DX2                !
 ! R7    R(7,8)                  1.0081         estimate D2E/DX2                !
 ! R8    R(7,9)                  1.4266         estimate D2E/DX2                !
 ! R9    R(9,10)                 1.3657         estimate D2E/DX2                !
 ! R10   R(9,16)                 1.4125         estimate D2E/DX2                !
 ! R11   R(10,11)                1.4147         estimate D2E/DX2                !
 ! R12   R(10,15)                1.0873         estimate D2E/DX2                !
 ! R13   R(11,12)                1.4308         estimate D2E/DX2                !
 ! R14   R(11,14)                1.0869         estimate D2E/DX2                !
 ! R15   R(12,13)                1.0867         estimate D2E/DX2                !
 ! R16   R(12,18)                1.4077         estimate D2E/DX2                !
 ! R17   R(16,17)                1.0877         estimate D2E/DX2                !
 ! R18   R(16,18)                1.4107         estimate D2E/DX2                !
 ! R19   R(18,19)                1.4332         estimate D2E/DX2                !
 ! R20   R(19,20)                1.421          estimate D2E/DX2                !
 ! R21   R(19,21)                1.3962         estimate D2E/DX2                !
 ! R22   R(20,24)                1.3607         estimate D2E/DX2                !
 ! R23   R(21,22)                1.0829         estimate D2E/DX2                !
 ! R24   R(21,23)                1.7098         estimate D2E/DX2                !
 ! R25   R(23,24)                1.8105         estimate D2E/DX2                !
 ! R26   R(24,25)                1.3574         estimate D2E/DX2                !
 ! R27   R(25,26)                1.1812         estimate D2E/DX2                !
 ! R28   R(25,33)                1.0            estimate D2E/DX2                !
 ! R29   R(26,27)                1.2486         estimate D2E/DX2                !
 ! R30   R(26,30)                1.2924         estimate D2E/DX2                !
 ! R31   R(27,28)                1.0137         estimate D2E/DX2                !
 ! R32   R(27,29)                1.0144         estimate D2E/DX2                !
 ! R33   R(30,31)                1.0142         estimate D2E/DX2                !
 ! R34   R(30,32)                1.0141         estimate D2E/DX2                !
 ! A1    A(2,1,3)              107.8299         estimate D2E/DX2                !
 ! A2    A(2,1,4)              111.2788         estimate D2E/DX2                !
 ! A3    A(2,1,5)              111.3999         estimate D2E/DX2                !
 ! A4    A(3,1,4)              102.0551         estimate D2E/DX2                !
 ! A5    A(3,1,5)              112.9407         estimate D2E/DX2                !
 ! A6    A(4,1,5)              110.9597         estimate D2E/DX2                !
 ! A7    A(1,5,6)              123.1139         estimate D2E/DX2                !
 ! A8    A(1,5,7)              110.8306         estimate D2E/DX2                !
 ! A9    A(6,5,7)              125.9526         estimate D2E/DX2                !
 ! A10   A(5,7,8)              114.6404         estimate D2E/DX2                !
 ! A11   A(5,7,9)              126.5278         estimate D2E/DX2                !
 ! A12   A(8,7,9)              118.6315         estimate D2E/DX2                !
 ! A13   A(7,9,10)             117.9748         estimate D2E/DX2                !
 ! A14   A(7,9,16)             121.9522         estimate D2E/DX2                !
 ! A15   A(10,9,16)            119.5243         estimate D2E/DX2                !
 ! A16   A(9,10,11)            121.178          estimate D2E/DX2                !
 ! A17   A(9,10,15)            123.1752         estimate D2E/DX2                !
 ! A18   A(11,10,15)           115.6103         estimate D2E/DX2                !
 ! A19   A(10,11,12)           119.0708         estimate D2E/DX2                !
 ! A20   A(10,11,14)           120.0661         estimate D2E/DX2                !
 ! A21   A(12,11,14)           120.7961         estimate D2E/DX2                !
 ! A22   A(11,12,13)           114.6815         estimate D2E/DX2                !
 ! A23   A(11,12,18)           120.1714         estimate D2E/DX2                !
 ! A24   A(13,12,18)           125.0291         estimate D2E/DX2                !
 ! A25   A(9,16,17)            119.7541         estimate D2E/DX2                !
 ! A26   A(9,16,18)            121.641          estimate D2E/DX2                !
 ! A27   A(17,16,18)           118.5891         estimate D2E/DX2                !
 ! A28   A(12,18,16)           118.2304         estimate D2E/DX2                !
 ! A29   A(12,18,19)           124.3385         estimate D2E/DX2                !
 ! A30   A(16,18,19)           117.2156         estimate D2E/DX2                !
 ! A31   A(18,19,20)           127.2905         estimate D2E/DX2                !
 ! A32   A(18,19,21)           117.2099         estimate D2E/DX2                !
 ! A33   A(20,19,21)           115.3547         estimate D2E/DX2                !
 ! A34   A(19,20,24)           110.1193         estimate D2E/DX2                !
 ! A35   A(19,21,22)           128.8541         estimate D2E/DX2                !
 ! A36   A(19,21,23)           111.1376         estimate D2E/DX2                !
 ! A37   A(22,21,23)           118.6181         estimate D2E/DX2                !
 ! A38   A(21,23,24)            90.0025         estimate D2E/DX2                !
 ! A39   A(20,24,23)           112.6151         estimate D2E/DX2                !
 ! A40   A(20,24,25)           130.0213         estimate D2E/DX2                !
 ! A41   A(23,24,25)           117.3543         estimate D2E/DX2                !
 ! A42   A(24,25,26)           115.9277         estimate D2E/DX2                !
 ! A43   A(24,25,33)           122.0667         estimate D2E/DX2                !
 ! A44   A(26,25,33)           122.0056         estimate D2E/DX2                !
 ! A45   A(25,26,27)           103.5462         estimate D2E/DX2                !
 ! A46   A(25,26,30)           110.8628         estimate D2E/DX2                !
 ! A47   A(27,26,30)            89.1514         estimate D2E/DX2                !
 ! A48   A(26,27,28)           105.3848         estimate D2E/DX2                !
 ! A49   A(26,27,29)            99.3268         estimate D2E/DX2                !
 ! A50   A(28,27,29)           112.6732         estimate D2E/DX2                !
 ! A51   A(26,30,31)           112.3403         estimate D2E/DX2                !
 ! A52   A(26,30,32)            95.6517         estimate D2E/DX2                !
 ! A53   A(31,30,32)           113.2949         estimate D2E/DX2                !
 ! D1    D(2,1,5,6)              3.1651         estimate D2E/DX2                !
 ! D2    D(2,1,5,7)            179.6738         estimate D2E/DX2                !
 ! D3    D(3,1,5,6)           -118.3673         estimate D2E/DX2                !
 ! D4    D(3,1,5,7)             58.1414         estimate D2E/DX2                !
 ! D5    D(4,1,5,6)            127.7422         estimate D2E/DX2                !
 ! D6    D(4,1,5,7)            -55.7491         estimate D2E/DX2                !
 ! D7    D(1,5,7,8)              1.1278         estimate D2E/DX2                !
 ! D8    D(1,5,7,9)            175.8762         estimate D2E/DX2                !
 ! D9    D(6,5,7,8)            177.5152         estimate D2E/DX2                !
 ! D10   D(6,5,7,9)             -7.7364         estimate D2E/DX2                !
 ! D11   D(5,7,9,10)          -142.0927         estimate D2E/DX2                !
 ! D12   D(5,7,9,16)            46.4488         estimate D2E/DX2                !
 ! D13   D(8,7,9,10)            32.4683         estimate D2E/DX2                !
 ! D14   D(8,7,9,16)          -138.9902         estimate D2E/DX2                !
 ! D15   D(7,9,10,11)         -170.7524         estimate D2E/DX2                !
 ! D16   D(7,9,10,15)            6.9514         estimate D2E/DX2                !
 ! D17   D(16,9,10,11)           0.9202         estimate D2E/DX2                !
 ! D18   D(16,9,10,15)         178.624          estimate D2E/DX2                !
 ! D19   D(7,9,16,17)           -4.1324         estimate D2E/DX2                !
 ! D20   D(7,9,16,18)          174.3967         estimate D2E/DX2                !
 ! D21   D(10,9,16,17)        -175.4622         estimate D2E/DX2                !
 ! D22   D(10,9,16,18)           3.0669         estimate D2E/DX2                !
 ! D23   D(9,10,11,12)          -3.749          estimate D2E/DX2                !
 ! D24   D(9,10,11,14)         179.2041         estimate D2E/DX2                !
 ! D25   D(15,10,11,12)        178.3822         estimate D2E/DX2                !
 ! D26   D(15,10,11,14)          1.3352         estimate D2E/DX2                !
 ! D27   D(10,11,12,13)        178.9363         estimate D2E/DX2                !
 ! D28   D(10,11,12,18)          2.6904         estimate D2E/DX2                !
 ! D29   D(14,11,12,13)         -4.039          estimate D2E/DX2                !
 ! D30   D(14,11,12,18)        179.7151         estimate D2E/DX2                !
 ! D31   D(11,12,18,16)          1.0947         estimate D2E/DX2                !
 ! D32   D(11,12,18,19)        175.6008         estimate D2E/DX2                !
 ! D33   D(13,12,18,16)       -174.7389         estimate D2E/DX2                !
 ! D34   D(13,12,18,19)         -0.2329         estimate D2E/DX2                !
 ! D35   D(9,16,18,12)          -4.0244         estimate D2E/DX2                !
 ! D36   D(9,16,18,19)        -178.9242         estimate D2E/DX2                !
 ! D37   D(17,16,18,12)        174.5214         estimate D2E/DX2                !
 ! D38   D(17,16,18,19)         -0.3785         estimate D2E/DX2                !
 ! D39   D(12,18,19,20)        156.9347         estimate D2E/DX2                !
 ! D40   D(12,18,19,21)        -27.6703         estimate D2E/DX2                !
 ! D41   D(16,18,19,20)        -28.5082         estimate D2E/DX2                !
 ! D42   D(16,18,19,21)        146.8868         estimate D2E/DX2                !
 ! D43   D(18,19,20,24)       -178.774          estimate D2E/DX2                !
 ! D44   D(21,19,20,24)          5.7578         estimate D2E/DX2                !
 ! D45   D(18,19,21,22)          8.3801         estimate D2E/DX2                !
 ! D46   D(18,19,21,23)        174.5174         estimate D2E/DX2                !
 ! D47   D(20,19,21,22)       -175.673          estimate D2E/DX2                !
 ! D48   D(20,19,21,23)         -9.5358         estimate D2E/DX2                !
 ! D49   D(19,20,24,23)          0.4393         estimate D2E/DX2                !
 ! D50   D(19,20,24,25)       -178.4054         estimate D2E/DX2                !
 ! D51   D(19,21,23,24)          7.8275         estimate D2E/DX2                !
 ! D52   D(22,21,23,24)        175.5556         estimate D2E/DX2                !
 ! D53   D(21,23,24,20)         -4.8455         estimate D2E/DX2                !
 ! D54   D(21,23,24,25)        174.1584         estimate D2E/DX2                !
 ! D55   D(20,24,25,26)          0.5178         estimate D2E/DX2                !
 ! D56   D(20,24,25,33)       -179.4775         estimate D2E/DX2                !
 ! D57   D(23,24,25,26)       -178.2814         estimate D2E/DX2                !
 ! D58   D(23,24,25,33)          1.7233         estimate D2E/DX2                !
 ! D59   D(24,25,26,27)        123.5199         estimate D2E/DX2                !
 ! D60   D(24,25,26,30)       -142.149          estimate D2E/DX2                !
 ! D61   D(33,25,26,27)        -56.4848         estimate D2E/DX2                !
 ! D62   D(33,25,26,30)         37.8464         estimate D2E/DX2                !
 ! D63   D(25,26,27,28)        145.1868         estimate D2E/DX2                !
 ! D64   D(25,26,27,29)         28.4208         estimate D2E/DX2                !
 ! D65   D(30,26,27,28)         33.9149         estimate D2E/DX2                !
 ! D66   D(30,26,27,29)        -82.8511         estimate D2E/DX2                !
 ! D67   D(25,26,30,31)        107.309          estimate D2E/DX2                !
 ! D68   D(25,26,30,32)        -10.7456         estimate D2E/DX2                !
 ! D69   D(27,26,30,31)       -148.5064         estimate D2E/DX2                !
 ! D70   D(27,26,30,32)         93.439          estimate D2E/DX2                !
 --------------------------------------------------------------------------------
 Trust Radius=3.00D-01 FncErr=1.00D-07 GrdErr=1.00D-06 EigMax=2.50D+02 EigMin=1.00D-04
 Number of steps in this run=    167 maximum allowed number of steps=    198.
 GradGradGradGradGradGradGradGradGradGradGradGradGradGradGradGradGradGrad

 Leave Link  103 at Sun Jul 18 15:47:05 2021, MaxMem=   104857600 cpu:               0.1 elap:               0.1
 (Enter /prod/apps/gaussian/g16b1/l202.exe)
                          Input orientation:                          
 ---------------------------------------------------------------------
 Center     Atomic      Atomic             Coordinates (Angstroms)
 Number     Number       Type             X           Y           Z
 ---------------------------------------------------------------------
      1          6           0        4.388000   -1.594000    2.191000
      2          1           0        4.375000   -1.445000    3.273000
      3          1           0        5.089000   -0.875000    1.763000
      4          1           0        4.850000   -2.547000    1.928000
      5          6           0        2.982000   -1.484000    1.595000
      6          8           0        2.006000   -1.205000    2.252000
      7          7           0        3.012000   -1.661000    0.271000
      8          1           0        3.927000   -1.851000   -0.107000
      9          6           0        1.887000   -1.709000   -0.605000
     10          6           0        1.920000   -2.597000   -1.642000
     11          6           0        0.938000   -2.571000   -2.660000
     12          6           0       -0.150000   -1.648000   -2.553000
     13          1           0       -0.852000   -1.676000   -3.382000
     14          1           0        0.989000   -3.278000   -3.484000
     15          1           0        2.706000   -3.338000   -1.766000
     16          6           0        0.844000   -0.759000   -0.535000
     17          1           0        0.854000   -0.003000    0.247000
     18          6           0       -0.206000   -0.742000   -1.477000
     19          6           0       -1.202000    0.278000   -1.330000
     20          7           0       -1.613000    0.913000   -0.127000
     21          6           0       -1.781000    0.778000   -2.498000
     22          1           0       -1.676000    0.421000   -3.515000
     23         16           0       -3.047000    1.870000   -2.140000
     24          6           0       -2.602000    1.811000   -0.386000
     25          7           0       -3.260000    2.651000    0.453000
     26          6           0       -2.928000    2.614000    1.586000
     27          7           0       -2.609000    3.795000    1.836000
     28          1           0       -2.882000    3.949000    2.800000
     29          1           0       -3.215000    4.272000    1.177000
     30          7           0       -3.948000    2.744000    2.369000
     31          1           0       -4.195000    1.874000    2.828000
     32          1           0       -4.600000    3.012000    1.640000
     33          1           0       -3.982000    3.264000    0.132000
 ---------------------------------------------------------------------
                    Distance matrix (angstroms):
                    1          2          3          4          5
     1  C    0.000000
     2  H    1.092288   0.000000
     3  H    1.091580   1.764878   0.000000
     4  H    1.091248   1.802513   1.697036   0.000000
     5  C    1.531062   2.181205   2.199671   2.174921   0.000000
     6  O    2.414325   2.590792   3.138935   3.161372   1.209159
     7  N    2.363105   3.304002   2.675404   2.628477   1.336116
     8  H    2.357832   3.433648   2.408261   2.340421   1.981040
     9  C    3.753111   4.615054   4.068880   3.987192   2.467722
    10  C    4.667861   5.613497   4.960027   4.618690   3.583962
    11  C    6.032349   6.948477   6.298424   6.029433   4.844020
    12  C    6.565203   7.379642   6.831728   6.774036   5.200214
    13  H    7.650010   8.465454   7.899880   7.840124   6.285455
    14  H    6.826030   7.777013   7.079224   6.688156   5.743407
    15  H    4.639882   5.635648   4.919238   4.343737   3.848352
    16  C    4.548432   5.238265   4.828487   5.031039   3.103799
    17  H    4.335847   4.861428   4.581906   5.026501   2.922131
    18  C    5.940115   6.636435   6.209051   6.357294   4.488997
    19  C    6.866580   7.433658   7.104417   7.431143   5.400567
    20  N    6.904359   7.278483   7.189287   7.613475   5.461219
    21  C    8.103682   8.725967   8.251390   8.638013   6.674988
    22  H    8.566841   9.282968   8.677680   9.001330   7.172035
    23  S    9.275564   9.766057   9.432016   9.920742   7.845278
    24  C    8.191157   8.524573   8.425217   8.937509   6.779561
    25  N    8.918104   9.111687   9.157214   9.745098   7.573965
    26  C    8.461510   8.523805   8.745098   9.340780   7.191786
    27  N    8.838855   8.848662   9.004079   9.791124   7.693192
    28  H    9.162348   9.054447   9.374603  10.136184   8.084306
    29  H    9.656281   9.730643   9.787309  10.588059   8.468121
    30  N    9.398874   9.361478   9.753551  10.275892   8.154751
    31  H    9.279045   9.201015   9.740836  10.107782   8.019089
    32  H   10.114494  10.152939  10.440336  10.967585   8.814917
    33  H    9.894268  10.093563  10.103194  10.723692   8.554599
                    6          7          8          9         10
     6  O    0.000000
     7  N    2.268112   0.000000
     8  H    3.110054   1.008072   0.000000
     9  C    2.903554   1.426641   2.104701   0.000000
    10  C    4.136218   2.393351   2.634538   1.365651   0.000000
    11  C    5.209062   3.704097   3.996290   2.422121   1.414682
    12  C    5.285131   4.239503   4.758787   2.819183   2.452636
    13  H    6.334979   5.317436   5.796127   3.900633   3.399974
    14  H    6.183309   4.561496   4.698117   3.399530   2.173358
    15  H    4.602609   2.656188   2.540530   2.161556   1.087315
    16  C    3.052299   2.482632   3.298566   1.412533   2.400306
    17  H    2.606134   2.721489   3.603297   2.168739   3.381348
    18  C    4.360362   3.775657   4.493158   2.464979   2.826327
    19  C    5.032025   4.907211   5.686388   3.743757   4.255567
    20  N    4.821071   5.307966   6.191260   4.399246   5.205518
    21  C    6.390318   6.048878   6.723822   4.819008   5.081413
    22  H    7.032730   6.375411   6.940465   5.069514   5.054470
    23  S    7.367367   7.415684   8.161838   6.285684   6.698745
    24  C    6.106469   6.633508   7.491056   5.708720   6.438671
    25  N    6.770221   7.613439   8.499092   6.827926   7.665698
    26  C    6.274765   7.435620   8.354250   6.831767   7.815217
    27  N    6.816985   7.988292   8.852788   7.514420   8.571230
    28  H    7.124364   8.520985   9.404952   8.145572   9.254225
    29  H    7.642774   8.648517   9.494627   8.060911   9.027632
    30  N    7.145516   8.499837   9.447763   7.919666   8.890884
    31  H    6.947260   8.424685   9.405144   7.849465   8.795679
    32  H    7.861098   9.036240   9.970482   8.331208   9.205586
    33  H    7.766756   8.555173   9.421923   7.727811   8.504822
                   11         12         13         14         15
    11  C    0.000000
    12  C    1.430777   0.000000
    13  H    2.127536   1.086660   0.000000
    14  H    1.086934   2.195673   2.442558   0.000000
    15  H    2.124464   3.410602   4.246536   2.429653   0.000000
    16  C    2.794245   2.418818   3.438417   3.881106   3.410813
    17  H    3.879733   3.399124   4.344998   4.966308   4.313270
    18  C    2.460379   1.407746   2.217814   3.447807   3.911839
    19  C    3.803328   2.512351   2.855052   4.699503   5.342098
    20  N    5.006191   3.818974   4.228128   5.966937   6.277825
    21  C    4.316828   2.923810   2.768865   5.009614   6.132736
    22  H    4.063999   2.744974   2.257006   4.559143   6.032496
    23  S    5.989416   4.575970   4.351403   6.678139   7.769179
    24  C    6.074916   4.761604   4.919114   6.956350   7.522730
    25  N    7.388048   6.098322   6.263275   8.288969   8.739865
    26  C    7.736840   6.558449   6.884395   8.704220   8.854613
    27  N    8.562779   7.411899   7.761856   9.553812   9.597047
    28  H    9.322789   8.212481   8.601084  10.329706  10.255460
    29  H    8.876746   7.638948   7.857923   9.818403  10.081249
    30  N    8.798469   7.611869   7.886420   9.741461   9.917896
    31  H    8.730628   7.597478   7.895711   9.657034   9.792527
    32  H    8.962663   7.687610   7.825940   9.851721  10.261626
    33  H    8.127047   6.783892   6.822660   8.976863   9.587395
                   16         17         18         19         20
    16  C    0.000000
    17  H    1.087732   0.000000
    18  C    1.410728   2.154506   0.000000
    19  C    2.427655   2.606343   1.433187   0.000000
    20  N    2.999816   2.658011   2.557572   1.421040   0.000000
    21  C    3.620271   3.884355   2.415257   1.396232   2.380775
    22  H    4.077156   4.553386   2.768919   2.240391   3.424117
    23  S    4.962615   4.942034   3.915788   2.567993   2.650354
    24  C    4.301397   3.954140   3.667275   2.280619   1.360737
    25  N    5.426515   4.900117   4.956235   3.611867   2.463667
    26  C    5.486689   4.790108   5.296602   4.115705   2.748999
    27  N    6.187388   5.379786   6.110217   4.936851   3.626473
    28  H    6.868083   6.007812   6.889063   5.775426   4.403974
    29  H    6.687106   5.974721   6.421681   5.127305   3.943311
    30  N    6.608138   5.925209   6.398943   5.225349   3.877474
    31  H    6.605602   5.973030   6.425621   5.366025   4.040083
    32  H    6.970524   6.385671   6.566235   5.276558   4.055892
    33  H    6.318203   5.837243   5.735424   4.333825   3.347603
                   21         22         23         24         25
    21  C    0.000000
    22  H    1.082942   0.000000
    23  S    1.709791   2.422781   0.000000
    24  C    2.490316   3.546860   1.810531   0.000000
    25  N    3.795256   4.819438   2.716428   1.357382   0.000000
    26  C    4.622290   5.691832   3.801417   2.154036   1.181221
    27  N    5.345225   6.394339   4.439149   2.978857   1.909247
    28  H    6.271861   7.333515   5.362189   3.847082   2.708523
    29  H    5.269726   6.262075   4.098819   2.979137   1.775906
    30  N    5.678797   6.721590   4.680466   3.205032   2.037903
    31  H    5.949360   6.977838   5.098916   3.587675   2.668067
    32  H    5.482751   6.468159   4.243156   3.088540   1.826168
    33  H    4.235740   5.167291   2.824791   2.069766   1.000047
                   26         27         28         29         30
    26  C    0.000000
    27  N    1.248608   0.000000
    28  H    1.805031   1.013677   0.000000
    29  H    1.731651   1.014419   1.688001   0.000000
    30  N    1.292435   1.783707   1.665576   2.071940   0.000000
    31  H    1.922356   2.681362   2.455683   3.071906   1.014194
    32  H    1.719565   2.148391   2.274883   1.928780   1.014085
    33  H    1.909851   2.251823   2.966049   1.642065   2.296895
                   31         32         33
    31  H    0.000000
    32  H    1.694229   0.000000
    33  H    3.040705   1.649088   0.000000
 Stoichiometry    C12H14N5OS(1+)
 Framework group  C1[X(C12H14N5OS)]
 Deg. of freedom    93
 Full point group                 C1      NOp   1
 Largest Abelian subgroup         C1      NOp   1
 Largest concise Abelian subgroup C1      NOp   1
                         Standard orientation:                         
 ---------------------------------------------------------------------
 Center     Atomic      Atomic             Coordinates (Angstroms)
 Number     Number       Type             X           Y           Z
 ---------------------------------------------------------------------
      1          6           0        4.940619    2.802336   -0.517984
      2          1           0        4.827299    3.854797   -0.248578
      3          1           0        5.071049    2.746549   -1.600306
      4          1           0        5.887129    2.399895   -0.153318
      5          6           0        3.760245    1.966776   -0.015282
      6          8           0        2.805691    2.445886    0.551591
      7          7           0        3.906935    0.683420   -0.356873
      8          1           0        4.755785    0.476747   -0.859813
      9          6           0        3.049342   -0.396199    0.009544
     10          6           0        3.623881   -1.600745    0.299327
     11          6           0        2.837396   -2.762596    0.480621
     12          6           0        1.411665   -2.650794    0.436874
     13          1           0        0.878759   -3.588903    0.566456
     14          1           0        3.314526   -3.714713    0.697986
     15          1           0        4.699193   -1.745280    0.370505
     16          6           0        1.643655   -0.302065   -0.092591
     17          1           0        1.186116    0.637088   -0.395594
     18          6           0        0.807454   -1.409819    0.159999
     19          6           0       -0.603911   -1.214393    0.005466
     20          7           0       -1.329264   -0.004344    0.175763
     21          6           0       -1.353163   -2.301883   -0.447802
     22          1           0       -1.041783   -3.329253   -0.590339
     23         16           0       -3.025822   -1.947866   -0.431516
     24          6           0       -2.656546   -0.221139   -0.031429
     25          7           0       -3.698143    0.648739   -0.001857
     26          6           0       -3.424751    1.774114    0.230672
     27          7           0       -3.885843    2.395574   -0.749228
     28          1           0       -4.208090    3.282091   -0.378034
     29          1           0       -4.648897    1.773618   -0.994106
     30          7           0       -4.326028    2.321821    0.977737
     31          1           0       -4.003698    2.464881    1.928646
     32          1           0       -4.998836    1.567992    0.891485
     33          1           0       -4.639827    0.355248   -0.166747
 ---------------------------------------------------------------------
 Rotational constants (GHZ):           0.4909831           0.1824206           0.1371605
 Leave Link  202 at Sun Jul 18 15:47:05 2021, MaxMem=   104857600 cpu:               0.2 elap:               0.1
 (Enter /prod/apps/gaussian/g16b1/l301.exe)
 Standard basis: 6-31G(d) (6D, 7F)
 Ernie: Thresh=  0.10000D-02 Tol=  0.10000D-05 Strict=F.
 There are   317 symmetry adapted cartesian basis functions of A   symmetry.
 There are   317 symmetry adapted basis functions of A   symmetry.
   317 basis functions,   612 primitive gaussians,   317 cartesian basis functions
    72 alpha electrons       72 beta electrons
       nuclear repulsion energy      1475.5991991266 Hartrees.
 IExCor=  402 DFT=T Ex+Corr=B3LYP ExCW=0 ScaHFX=  0.200000
 ScaDFX=  0.800000  0.720000  1.000000  0.810000 ScalE2=  1.000000  1.000000
 IRadAn=      5 IRanWt=     -1 IRanGd=            0 ICorTp=0 IEmpDi=  4
 NAtoms=   33 NActive=   33 NUniq=   33 SFac= 1.00D+00 NAtFMM=   60 NAOKFM=F Big=F
 Integral buffers will be    131072 words long.
 Raffenetti 2 integral format.
 Two-electron integral symmetry is turned on.
 Using the following non-standard input for PCM:
 MSTModel=DFT cav MSTCharged
 --- end of non-standard input.
 MST model for solvation energy: B3LYP parametrization.
 MST cavity parameters:
 ISph   IAn     Re0     Alpha   Atom Type   QCorr
 ------------------------------------------------
   1      6     1.50     1.25      CH3        F
   2      1     1.20     1.25      CH3        F
   3      1     1.20     1.25      CH3        F
   4      1     1.20     1.25      CH3        F
   5      6     1.50     1.25      C          F
   6      8     1.40     1.25      O          F
   7      7     1.50     1.25      NH         F
   8      1     0.90     1.25      NH         F
   9      6     1.50     1.25      C          F
  10      6     1.50     1.25      CH         F
  11      6     1.50     1.25      CH         F
  12      6     1.50     1.25      CH         F
  13      1     1.20     1.25      CH         F
  14      1     1.20     1.25      CH         F
  15      1     1.20     1.25      CH         F
  16      6     1.50     1.25      CH         F
  17      1     1.20     1.25      CH         F
  18      6     1.50     1.25      C          F
  19      6     1.50     1.25      C          F
  20      7     1.40     1.25      N          F
  21      6     1.50     1.25      CH         F
  22      1     1.20     1.25      CH         F
  23     16     1.75     1.25      S          F
  24      6     1.50     1.25      C          F
  25      7     1.50     1.15      NH         T
  26      6     1.50     1.15      C          T
  27      7     1.55     1.15      NH         T
  28      1     0.90     1.15      NH         T
  29      1     0.90     1.15      NH         T
  30      7     1.55     1.15      NH         T
  31      1     0.90     1.15      NH         T
  32      1     0.90     1.15      NH         T
  33      1     0.90     1.15      NH         T
 ------------------------------------------------------------------------------
 Polarizable Continuum Model (PCM)
 =================================
 Model                : PCM.
 Atomic radii         : MST.
 Polarization charges : Total charges.
 Charge compensation  : None.
 Solution method      : On-the-fly selection.
 Cavity type          : Scaled VdW (van der Waals Surface) (Alpha=1.250).
 Cavity algorithm     : GePol (No added spheres)
                        Default sphere list used, NSphG=   33.
                        Lebedev-Laikov grids with approx.  5.0 points / Ang**2.
                        Smoothing algorithm: York/Karplus (Gamma=1.0000).
                        Polarization charges: spherical gaussians, with
                                              point-specific exponents (IZeta= 3).
                        Self-potential: point-specific (ISelfS= 7).
                        Self-field    : sphere-specific E.n sum rule (ISelfD= 2).
 1st derivatives      : Analytical E(r).r(x)/FMM algorithm (CHGder, D1EAlg=3).
                        Cavity 1st derivative terms included.
 Solvent              : Water, Eps=  78.355300 Eps(inf)=   1.777849
 ------------------------------------------------------------------------------
 GePol: Number of generator spheres                  =      33
 GePol: Total number of spheres                      =      33
 GePol: Number of exposed spheres                    =      33 (100.00%)
 GePol: Number of points                             =    2495
 GePol: Average weight of points                     =       0.13
 GePol: Minimum weight of points                     =   0.79D-09
 GePol: Maximum weight of points                     =    0.22001
 GePol: Number of points with low weight             =     144
 GePol: Fraction of low-weight points (<1% of avg)   =       5.77%
 GePol: Cavity surface area                          =    315.480 Ang**2
 GePol: Cavity volume                                =    294.667 Ang**3
 PCM non-electrostatic energy =         0.0017060303 Hartrees.
 Nuclear repulsion after PCM non-electrostatic terms =     1475.6009051569 Hartrees.
 Leave Link  301 at Sun Jul 18 15:47:05 2021, MaxMem=   104857600 cpu:               0.5 elap:               0.2
 (Enter /prod/apps/gaussian/g16b1/l302.exe)
 NPDir=0 NMtPBC=     1 NCelOv=     1 NCel=       1 NClECP=     1 NCelD=      1
         NCelK=      1 NCelE2=     1 NClLst=     1 CellRange=     0.0.
 One-electron integrals computed using PRISM.
 One-electron integral symmetry used in STVInt
 NBasis=   317 RedAO= T EigKep=  4.47D-04  NBF=   317
 NBsUse=   317 1.00D-06 EigRej= -1.00D+00 NBFU=   317
 Precomputing XC quadrature grid using
 IXCGrd= 4 IRadAn=           5 IRanWt=          -1 IRanGd=           0 AccXCQ= 0.00D+00.
 Generated NRdTot=       0 NPtTot=           0 NUsed=           0 NTot=          32
 NSgBfM=   314   314   314   314   314 MxSgAt=    33 MxSgA2=    33.
 Leave Link  302 at Sun Jul 18 15:47:06 2021, MaxMem=   104857600 cpu:               2.2 elap:               0.6
 (Enter /prod/apps/gaussian/g16b1/l303.exe)
 DipDrv:  MaxL=1.
 Leave Link  303 at Sun Jul 18 15:47:06 2021, MaxMem=   104857600 cpu:               0.1 elap:               0.1
 (Enter /prod/apps/gaussian/g16b1/l401.exe)
 ExpMin= 1.17D-01 ExpMax= 2.19D+04 ExpMxC= 3.30D+03 IAcc=3 IRadAn=         5 AccDes= 0.00D+00
 Harris functional with IExCor=  402 and IRadAn=       5 diagonalized for initial guess.
 HarFok:  IExCor=  402 AccDes= 0.00D+00 IRadAn=         5 IDoV= 1 UseB2=F ITyADJ=14
 ICtDFT=  3500011 ScaDFX=  1.000000  1.000000  1.000000  1.000000
 FoFCou: FMM=F IPFlag=           0 FMFlag=      100000 FMFlg1=           0
         NFxFlg=           0 DoJE=T BraDBF=F KetDBF=T FulRan=T
         wScrn=  0.000000 ICntrl=       500 IOpCl=  0 I1Cent=   200000004 NGrid=           0
         NMat0=    1 NMatS0=      1 NMatT0=    0 NMatD0=    1 NMtDS0=    0 NMtDT0=    0
 Petite list used in FoFCou.
 Harris En= -1212.21276847869    
 JPrj=0 DoOrth=F DoCkMO=F.
 Leave Link  401 at Sun Jul 18 15:47:08 2021, MaxMem=   104857600 cpu:               7.9 elap:               2.0
 (Enter /prod/apps/gaussian/g16b1/l502.exe)
 Integral symmetry usage will be decided dynamically.
 Closed shell SCF:
 Using DIIS extrapolation, IDIIS=  1040.
 NGot=   104857600 LenX=   104651207 LenY=   104550277
 Requested convergence on RMS density matrix=1.00D-08 within 128 cycles.
 Requested convergence on MAX density matrix=1.00D-06.
 Requested convergence on             energy=1.00D-06.
 No special actions if energy rises.
 Fock matrices will be formed incrementally for  20 cycles.

 Cycle   1  Pass 1  IDiag  1:
 FoFJK:  IHMeth= 1 ICntrl=       0 DoSepK=F KAlg= 0 I1Cent=           0 FoldK=F
 IRaf= 730000000 NMat=       1 IRICut=       1 DoRegI=T DoRafI=F ISym2E= 0 IDoP0=0 IntGTp=1.
 FoFCou: FMM=F IPFlag=           0 FMFlag=      100000 FMFlg1=           0
         NFxFlg=           0 DoJE=F BraDBF=F KetDBF=F FulRan=T
         wScrn=  0.000000 ICntrl=         0 IOpCl=  0 I1Cent=           0 NGrid=           0
         NMat0=    1 NMatS0=      1 NMatT0=    0 NMatD0=    1 NMtDS0=    0 NMtDT0=    0
 Symmetry not used in FoFCou.
 Inv3:  Mode=1 IEnd=    18675075.
 Iteration    1 A*A^-1 deviation from unit magnitude is 3.11D-15 for   1097.
 Iteration    1 A*A^-1 deviation from orthogonality  is 3.11D-15 for   2225    496.
 Iteration    1 A^-1*A deviation from unit magnitude is 3.11D-15 for   1100.
 Iteration    1 A^-1*A deviation from orthogonality  is 9.41D-13 for   2307   2305.
 E= -1211.89389111289    
 DIIS: error= 2.74D-02 at cycle   1 NSaved=   1.
 NSaved= 1 IEnMin= 1 EnMin= -1211.89389111289     IErMin= 1 ErrMin= 2.74D-02
 ErrMax= 2.74D-02  0.00D+00 EMaxC= 1.00D-01 BMatC= 4.97D-01 BMatP= 4.97D-01
 IDIUse=3 WtCom= 7.26D-01 WtEn= 2.74D-01
 Coeff-Com:  0.100D+01
 Coeff-En:   0.100D+01
 Coeff:      0.100D+01
 Gap=     0.053 Goal=   None    Shift=    0.000
 GapD=    0.053 DampG=0.500 DampE=0.500 DampFc=0.2500 IDamp=-1.
 Damping current iteration by 2.50D-01
 RMSDP=5.76D-03 MaxDP=2.06D-01              OVMax= 4.95D-01

 Cycle   2  Pass 1  IDiag  1:
 RMSU=  1.43D-03    CP:  9.90D-01
 E= -1212.06206227309     Delta-E=       -0.168171160193 Rises=F Damp=T
 DIIS: error= 1.24D-02 at cycle   2 NSaved=   2.
 NSaved= 2 IEnMin= 2 EnMin= -1212.06206227309     IErMin= 2 ErrMin= 1.24D-02
 ErrMax= 1.24D-02  0.00D+00 EMaxC= 1.00D-01 BMatC= 1.08D-01 BMatP= 4.97D-01
 IDIUse=3 WtCom= 8.76D-01 WtEn= 1.24D-01
 Coeff-Com: -0.615D+00 0.162D+01
 Coeff-En:   0.000D+00 0.100D+01
 Coeff:     -0.539D+00 0.154D+01
 Gap=     0.048 Goal=   None    Shift=    0.000
 RMSDP=1.82D-03 MaxDP=5.96D-02 DE=-1.68D-01 OVMax= 5.21D-01

 Cycle   3  Pass 1  IDiag  1:
 RMSU=  1.69D-03    CP:  9.75D-01  1.42D+00
 E= -1212.30306273534     Delta-E=       -0.241000462251 Rises=F Damp=F
 DIIS: error= 8.90D-03 at cycle   3 NSaved=   3.
 NSaved= 3 IEnMin= 3 EnMin= -1212.30306273534     IErMin= 3 ErrMin= 8.90D-03
 ErrMax= 8.90D-03  0.00D+00 EMaxC= 1.00D-01 BMatC= 5.96D-02 BMatP= 1.08D-01
 IDIUse=3 WtCom= 9.11D-01 WtEn= 8.90D-02
 Coeff-Com: -0.399D+00 0.939D+00 0.460D+00
 Coeff-En:   0.000D+00 0.000D+00 0.100D+01
 Coeff:     -0.363D+00 0.855D+00 0.508D+00
 Gap=     0.036 Goal=   None    Shift=    0.000
 RMSDP=1.26D-03 MaxDP=6.87D-02 DE=-2.41D-01 OVMax= 1.90D-01

 Cycle   4  Pass 1  IDiag  1:
 RMSU=  8.63D-04    CP:  9.77D-01  1.65D+00  4.95D-01
 E= -1212.34777731635     Delta-E=       -0.044714581011 Rises=F Damp=F
 DIIS: error= 5.60D-03 at cycle   4 NSaved=   4.
 NSaved= 4 IEnMin= 4 EnMin= -1212.34777731635     IErMin= 4 ErrMin= 5.60D-03
 ErrMax= 5.60D-03  0.00D+00 EMaxC= 1.00D-01 BMatC= 1.34D-02 BMatP= 5.96D-02
 IDIUse=3 WtCom= 9.44D-01 WtEn= 5.60D-02
 Coeff-Com: -0.949D-01 0.224D+00 0.324D+00 0.547D+00
 Coeff-En:   0.000D+00 0.000D+00 0.208D+00 0.792D+00
 Coeff:     -0.896D-01 0.212D+00 0.317D+00 0.561D+00
 Gap=     0.039 Goal=   None    Shift=    0.000
 RMSDP=5.52D-04 MaxDP=3.45D-02 DE=-4.47D-02 OVMax= 9.45D-02

 Cycle   5  Pass 1  IDiag  1:
 RMSU=  2.80D-04    CP:  9.78D-01  1.57D+00  6.63D-01  5.80D-01
 E= -1212.35750417300     Delta-E=       -0.009726856646 Rises=F Damp=F
 DIIS: error= 2.34D-03 at cycle   5 NSaved=   5.
 NSaved= 5 IEnMin= 5 EnMin= -1212.35750417300     IErMin= 5 ErrMin= 2.34D-03
 ErrMax= 2.34D-03  0.00D+00 EMaxC= 1.00D-01 BMatC= 2.82D-03 BMatP= 1.34D-02
 IDIUse=3 WtCom= 9.77D-01 WtEn= 2.34D-02
 Coeff-Com: -0.146D-01 0.338D-01 0.161D+00 0.395D+00 0.426D+00
 Coeff-En:   0.000D+00 0.000D+00 0.000D+00 0.181D+00 0.819D+00
 Coeff:     -0.143D-01 0.331D-01 0.157D+00 0.390D+00 0.435D+00
 Gap=     0.042 Goal=   None    Shift=    0.000
 RMSDP=2.16D-04 MaxDP=1.53D-02 DE=-9.73D-03 OVMax= 3.36D-02

 Cycle   6  Pass 1  IDiag  1:
 RMSU=  1.11D-04    CP:  9.77D-01  1.58D+00  6.34D-01  6.96D-01  4.82D-01
 E= -1212.35990371053     Delta-E=       -0.002399537538 Rises=F Damp=F
 DIIS: error= 6.29D-04 at cycle   6 NSaved=   6.
 NSaved= 6 IEnMin= 6 EnMin= -1212.35990371053     IErMin= 6 ErrMin= 6.29D-04
 ErrMax= 6.29D-04  0.00D+00 EMaxC= 1.00D-01 BMatC= 1.98D-04 BMatP= 2.82D-03
 IDIUse=3 WtCom= 9.94D-01 WtEn= 6.29D-03
 Coeff-Com:  0.268D-02-0.469D-02 0.606D-01 0.172D+00 0.269D+00 0.500D+00
 Coeff-En:   0.000D+00 0.000D+00 0.000D+00 0.000D+00 0.304D-01 0.970D+00
 Coeff:      0.267D-02-0.466D-02 0.602D-01 0.171D+00 0.268D+00 0.503D+00
 Gap=     0.041 Goal=   None    Shift=    0.000
 RMSDP=5.93D-05 MaxDP=3.20D-03 DE=-2.40D-03 OVMax= 6.82D-03

 Cycle   7  Pass 1  IDiag  1:
 RMSU=  3.16D-05    CP:  9.77D-01  1.58D+00  6.43D-01  6.91D-01  5.36D-01
                    CP:  5.95D-01
 E= -1212.36007553434     Delta-E=       -0.000171823810 Rises=F Damp=F
 DIIS: error= 9.93D-05 at cycle   7 NSaved=   7.
 NSaved= 7 IEnMin= 7 EnMin= -1212.36007553434     IErMin= 7 ErrMin= 9.93D-05
 ErrMax= 9.93D-05  0.00D+00 EMaxC= 1.00D-01 BMatC= 1.01D-05 BMatP= 1.98D-04
 IDIUse=1 WtCom= 1.00D+00 WtEn= 0.00D+00
 Coeff-Com:  0.306D-02-0.601D-02 0.146D-01 0.414D-01 0.902D-01 0.240D+00
 Coeff-Com:  0.616D+00
 Coeff:      0.306D-02-0.601D-02 0.146D-01 0.414D-01 0.902D-01 0.240D+00
 Coeff:      0.616D+00
 Gap=     0.042 Goal=   None    Shift=    0.000
 RMSDP=1.86D-05 MaxDP=6.01D-04 DE=-1.72D-04 OVMax= 3.34D-03

 Cycle   8  Pass 1  IDiag  1:
 RMSU=  1.33D-05    CP:  9.77D-01  1.58D+00  6.43D-01  6.94D-01  5.37D-01
                    CP:  6.87D-01  7.77D-01
 E= -1212.36008381682     Delta-E=       -0.000008282480 Rises=F Damp=F
 DIIS: error= 9.07D-05 at cycle   8 NSaved=   8.
 NSaved= 8 IEnMin= 8 EnMin= -1212.36008381682     IErMin= 8 ErrMin= 9.07D-05
 ErrMax= 9.07D-05  0.00D+00 EMaxC= 1.00D-01 BMatC= 2.44D-06 BMatP= 1.01D-05
 IDIUse=1 WtCom= 1.00D+00 WtEn= 0.00D+00
 Coeff-Com:  0.151D-02-0.275D-02 0.312D-02 0.581D-02 0.264D-01 0.808D-01
 Coeff-Com:  0.370D+00 0.515D+00
 Coeff:      0.151D-02-0.275D-02 0.312D-02 0.581D-02 0.264D-01 0.808D-01
 Coeff:      0.370D+00 0.515D+00
 Gap=     0.041 Goal=   None    Shift=    0.000
 RMSDP=6.29D-06 MaxDP=2.44D-04 DE=-8.28D-06 OVMax= 4.40D-04

 Cycle   9  Pass 1  IDiag  1:
 RMSU=  4.91D-06    CP:  9.77D-01  1.58D+00  6.43D-01  6.93D-01  5.40D-01
                    CP:  6.83D-01  8.41D-01  7.62D-01
 E= -1212.36008581940     Delta-E=       -0.000002002577 Rises=F Damp=F
 DIIS: error= 2.70D-05 at cycle   9 NSaved=   9.
 NSaved= 9 IEnMin= 9 EnMin= -1212.36008581940     IErMin= 9 ErrMin= 2.70D-05
 ErrMax= 2.70D-05  0.00D+00 EMaxC= 1.00D-01 BMatC= 3.56D-07 BMatP= 2.44D-06
 IDIUse=1 WtCom= 1.00D+00 WtEn= 0.00D+00
 Coeff-Com:  0.589D-03-0.927D-03-0.124D-03-0.368D-02 0.209D-02 0.284D-02
 Coeff-Com:  0.119D+00 0.265D+00 0.616D+00
 Coeff:      0.589D-03-0.927D-03-0.124D-03-0.368D-02 0.209D-02 0.284D-02
 Coeff:      0.119D+00 0.265D+00 0.616D+00
 Gap=     0.041 Goal=   None    Shift=    0.000
 RMSDP=2.84D-06 MaxDP=1.03D-04 DE=-2.00D-06 OVMax= 5.18D-04

 Cycle  10  Pass 1  IDiag  1:
 RMSU=  1.88D-06    CP:  9.77D-01  1.58D+00  6.43D-01  6.93D-01  5.39D-01
                    CP:  6.93D-01  8.59D-01  8.85D-01  9.16D-01
 E= -1212.36008611601     Delta-E=       -0.000000296614 Rises=F Damp=F
 DIIS: error= 1.43D-05 at cycle  10 NSaved=  10.
 NSaved=10 IEnMin=10 EnMin= -1212.36008611601     IErMin=10 ErrMin= 1.43D-05
 ErrMax= 1.43D-05  0.00D+00 EMaxC= 1.00D-01 BMatC= 7.98D-08 BMatP= 3.56D-07
 IDIUse=1 WtCom= 1.00D+00 WtEn= 0.00D+00
 Coeff-Com:  0.237D-03-0.328D-03-0.252D-03-0.282D-02-0.113D-02-0.106D-01
 Coeff-Com:  0.235D-01 0.638D-01 0.347D+00 0.581D+00
 Coeff:      0.237D-03-0.328D-03-0.252D-03-0.282D-02-0.113D-02-0.106D-01
 Coeff:      0.235D-01 0.638D-01 0.347D+00 0.581D+00
 Gap=     0.041 Goal=   None    Shift=    0.000
 RMSDP=1.11D-06 MaxDP=3.31D-05 DE=-2.97D-07 OVMax= 1.86D-04

 Cycle  11  Pass 1  IDiag  1:
 RMSU=  6.97D-07    CP:  9.77D-01  1.58D+00  6.43D-01  6.93D-01  5.40D-01
                    CP:  6.96D-01  8.71D-01  9.20D-01  1.02D+00  1.04D+00
 E= -1212.36008618541     Delta-E=       -0.000000069394 Rises=F Damp=F
 DIIS: error= 7.60D-06 at cycle  11 NSaved=  11.
 NSaved=11 IEnMin=11 EnMin= -1212.36008618541     IErMin=11 ErrMin= 7.60D-06
 ErrMax= 7.60D-06  0.00D+00 EMaxC= 1.00D-01 BMatC= 1.45D-08 BMatP= 7.98D-08
 IDIUse=1 WtCom= 1.00D+00 WtEn= 0.00D+00
 Coeff-Com:  0.251D-04-0.264D-05 0.206D-04-0.804D-03-0.433D-03-0.719D-02
 Coeff-Com: -0.720D-02-0.270D-01 0.749D-01 0.269D+00 0.699D+00
 Coeff:      0.251D-04-0.264D-05 0.206D-04-0.804D-03-0.433D-03-0.719D-02
 Coeff:     -0.720D-02-0.270D-01 0.749D-01 0.269D+00 0.699D+00
 Gap=     0.041 Goal=   None    Shift=    0.000
 RMSDP=7.01D-07 MaxDP=2.00D-05 DE=-6.94D-08 OVMax= 1.27D-04

 Cycle  12  Pass 1  IDiag  1:
 RMSU=  3.10D-07    CP:  9.77D-01  1.58D+00  6.43D-01  6.93D-01  5.40D-01
                    CP:  6.97D-01  8.77D-01  9.44D-01  1.09D+00  1.22D+00
                    CP:  1.24D+00
 E= -1212.36008620080     Delta-E=       -0.000000015395 Rises=F Damp=F
 DIIS: error= 2.71D-06 at cycle  12 NSaved=  12.
 NSaved=12 IEnMin=12 EnMin= -1212.36008620080     IErMin=12 ErrMin= 2.71D-06
 ErrMax= 2.71D-06  0.00D+00 EMaxC= 1.00D-01 BMatC= 2.31D-09 BMatP= 1.45D-08
 IDIUse=1 WtCom= 1.00D+00 WtEn= 0.00D+00
 Coeff-Com: -0.192D-04 0.338D-04 0.800D-04 0.105D-03 0.240D-03-0.187D-02
 Coeff-Com: -0.677D-02-0.311D-01-0.216D-01 0.152D-01 0.349D+00 0.696D+00
 Coeff:     -0.192D-04 0.338D-04 0.800D-04 0.105D-03 0.240D-03-0.187D-02
 Coeff:     -0.677D-02-0.311D-01-0.216D-01 0.152D-01 0.349D+00 0.696D+00
 Gap=     0.041 Goal=   None    Shift=    0.000
 RMSDP=4.30D-07 MaxDP=9.37D-06 DE=-1.54D-08 OVMax= 9.19D-05

 Cycle  13  Pass 1  IDiag  1:
 RMSU=  1.46D-07    CP:  9.77D-01  1.58D+00  6.43D-01  6.93D-01  5.40D-01
                    CP:  6.98D-01  8.78D-01  9.56D-01  1.12D+00  1.33D+00
                    CP:  1.53D+00  1.10D+00
 E= -1212.36008620418     Delta-E=       -0.000000003373 Rises=F Damp=F
 DIIS: error= 8.99D-07 at cycle  13 NSaved=  13.
 NSaved=13 IEnMin=13 EnMin= -1212.36008620418     IErMin=13 ErrMin= 8.99D-07
 ErrMax= 8.99D-07  0.00D+00 EMaxC= 1.00D-01 BMatC= 3.81D-10 BMatP= 2.31D-09
 IDIUse=1 WtCom= 1.00D+00 WtEn= 0.00D+00
 Coeff-Com: -0.229D-04 0.286D-04 0.350D-04 0.205D-03 0.252D-03 0.683D-03
 Coeff-Com: -0.540D-03-0.800D-02-0.173D-01-0.569D-01-0.641D-01 0.307D+00
 Coeff-Com:  0.839D+00
 Coeff:     -0.229D-04 0.286D-04 0.350D-04 0.205D-03 0.252D-03 0.683D-03
 Coeff:     -0.540D-03-0.800D-02-0.173D-01-0.569D-01-0.641D-01 0.307D+00
 Coeff:      0.839D+00
 Gap=     0.041 Goal=   None    Shift=    0.000
 RMSDP=2.81D-07 MaxDP=7.29D-06 DE=-3.37D-09 OVMax= 5.92D-05

 Cycle  14  Pass 1  IDiag  1:
 RMSU=  6.21D-08    CP:  9.77D-01  1.58D+00  6.43D-01  6.93D-01  5.39D-01
                    CP:  6.98D-01  8.78D-01  9.64D-01  1.14D+00  1.40D+00
                    CP:  1.73D+00  1.42D+00  1.22D+00
 E= -1212.36008620498     Delta-E=       -0.000000000799 Rises=F Damp=F
 DIIS: error= 2.63D-07 at cycle  14 NSaved=  14.
 NSaved=14 IEnMin=14 EnMin= -1212.36008620498     IErMin=14 ErrMin= 2.63D-07
 ErrMax= 2.63D-07  0.00D+00 EMaxC= 1.00D-01 BMatC= 8.35D-11 BMatP= 3.81D-10
 IDIUse=1 WtCom= 1.00D+00 WtEn= 0.00D+00
 Coeff-Com: -0.112D-04 0.106D-04 0.137D-05 0.105D-03 0.136D-03 0.950D-03
 Coeff-Com:  0.172D-02 0.268D-02-0.328D-02-0.407D-01-0.135D+00 0.264D-01
 Coeff-Com:  0.506D+00 0.642D+00
 Coeff:     -0.112D-04 0.106D-04 0.137D-05 0.105D-03 0.136D-03 0.950D-03
 Coeff:      0.172D-02 0.268D-02-0.328D-02-0.407D-01-0.135D+00 0.264D-01
 Coeff:      0.506D+00 0.642D+00
 Gap=     0.041 Goal=   None    Shift=    0.000
 RMSDP=1.08D-07 MaxDP=3.39D-06 DE=-7.99D-10 OVMax= 1.97D-05

 Cycle  15  Pass 1  IDiag  1:
 RMSU=  2.92D-08    CP:  9.77D-01  1.58D+00  6.43D-01  6.93D-01  5.39D-01
                    CP:  6.99D-01  8.78D-01  9.66D-01  1.15D+00  1.43D+00
                    CP:  1.80D+00  1.56D+00  1.42D+00  9.15D-01
 E= -1212.36008620509     Delta-E=       -0.000000000118 Rises=F Damp=F
 DIIS: error= 9.53D-08 at cycle  15 NSaved=  15.
 NSaved=15 IEnMin=15 EnMin= -1212.36008620509     IErMin=15 ErrMin= 9.53D-08
 ErrMax= 9.53D-08  0.00D+00 EMaxC= 1.00D-01 BMatC= 7.58D-12 BMatP= 8.35D-11
 IDIUse=1 WtCom= 1.00D+00 WtEn= 0.00D+00
 Coeff-Com: -0.384D-05 0.431D-05-0.111D-04-0.694D-05-0.953D-05 0.174D-03
 Coeff-Com:  0.602D-03 0.195D-02 0.262D-02-0.604D-02-0.394D-01-0.346D-01
 Coeff-Com:  0.801D-01 0.247D+00 0.748D+00
 Coeff:     -0.384D-05 0.431D-05-0.111D-04-0.694D-05-0.953D-05 0.174D-03
 Coeff:      0.602D-03 0.195D-02 0.262D-02-0.604D-02-0.394D-01-0.346D-01
 Coeff:      0.801D-01 0.247D+00 0.748D+00
 Gap=     0.041 Goal=   None    Shift=    0.000
 RMSDP=3.07D-08 MaxDP=8.86D-07 DE=-1.18D-10 OVMax= 5.65D-06

 Cycle  16  Pass 1  IDiag  1:
 RMSU=  1.08D-08    CP:  9.77D-01  1.58D+00  6.43D-01  6.93D-01  5.39D-01
                    CP:  6.99D-01  8.78D-01  9.67D-01  1.15D+00  1.43D+00
                    CP:  1.83D+00  1.59D+00  1.50D+00  1.06D+00  9.33D-01
 E= -1212.36008620511     Delta-E=       -0.000000000015 Rises=F Damp=F
 DIIS: error= 5.92D-08 at cycle  16 NSaved=  16.
 NSaved=16 IEnMin=16 EnMin= -1212.36008620511     IErMin=16 ErrMin= 5.92D-08
 ErrMax= 5.92D-08  0.00D+00 EMaxC= 1.00D-01 BMatC= 2.62D-12 BMatP= 7.58D-12
 IDIUse=1 WtCom= 1.00D+00 WtEn= 0.00D+00
 Coeff-Com: -0.117D-05 0.150D-05-0.678D-05-0.128D-04-0.192D-04 0.238D-04
 Coeff-Com:  0.196D-03 0.107D-02 0.195D-02 0.109D-02-0.764D-02-0.309D-01
 Coeff-Com: -0.227D-01 0.361D-01 0.418D+00 0.603D+00
 Coeff:     -0.117D-05 0.150D-05-0.678D-05-0.128D-04-0.192D-04 0.238D-04
 Coeff:      0.196D-03 0.107D-02 0.195D-02 0.109D-02-0.764D-02-0.309D-01
 Coeff:     -0.227D-01 0.361D-01 0.418D+00 0.603D+00
 Gap=     0.041 Goal=   None    Shift=    0.000
 RMSDP=1.28D-08 MaxDP=5.69D-07 DE=-1.50D-11 OVMax= 1.87D-06

 Cycle  17  Pass 1  IDiag  1:
 RMSU=  3.04D-09    CP:  9.77D-01  1.58D+00  6.43D-01  6.93D-01  5.39D-01
                    CP:  6.99D-01  8.78D-01  9.67D-01  1.15D+00  1.43D+00
                    CP:  1.84D+00  1.61D+00  1.52D+00  1.10D+00  1.07D+00
                    CP:  7.95D-01
 E= -1212.36008620511     Delta-E=        0.000000000003 Rises=F Damp=F
 DIIS: error= 3.34D-08 at cycle  17 NSaved=  17.
 NSaved=17 IEnMin=16 EnMin= -1212.36008620511     IErMin=17 ErrMin= 3.34D-08
 ErrMax= 3.34D-08  0.00D+00 EMaxC= 1.00D-01 BMatC= 2.92D-13 BMatP= 2.62D-12
 IDIUse=1 WtCom= 1.00D+00 WtEn= 0.00D+00
 Coeff-Com: -0.329D-06 0.526D-06-0.184D-05-0.486D-05-0.708D-05-0.140D-04
 Coeff-Com:  0.487D-05 0.171D-03 0.580D-03 0.121D-02 0.268D-02-0.653D-02
 Coeff-Com: -0.124D-01-0.151D-01 0.900D-01 0.209D+00 0.730D+00
 Coeff:     -0.329D-06 0.526D-06-0.184D-05-0.486D-05-0.708D-05-0.140D-04
 Coeff:      0.487D-05 0.171D-03 0.580D-03 0.121D-02 0.268D-02-0.653D-02
 Coeff:     -0.124D-01-0.151D-01 0.900D-01 0.209D+00 0.730D+00
 Gap=     0.041 Goal=   None    Shift=    0.000
 RMSDP=2.68D-09 MaxDP=1.01D-07 DE= 2.73D-12 OVMax= 3.40D-07

 Error on total polarization charges =  0.02635
 SCF Done:  E(RB3LYP) =  -1212.36008621     A.U. after   17 cycles
            NFock= 17  Conv=0.27D-08     -V/T= 2.0056
 KE= 1.205558692193D+03 PE=-5.773573410319D+03 EE= 1.880053726764D+03
 Leave Link  502 at Sun Jul 18 15:48:25 2021, MaxMem=   104857600 cpu:             307.9 elap:              77.1
 (Enter /prod/apps/gaussian/g16b1/l601.exe)
 Copying SCF densities to generalized density rwf, IOpCl= 0 IROHF=0.

 **********************************************************************

            Population analysis using the SCF Density.

 **********************************************************************

 Orbital symmetries:
       Occupied  (A) (A) (A) (A) (A) (A) (A) (A) (A) (A) (A) (A)
                 (A) (A) (A) (A) (A) (A) (A) (A) (A) (A) (A) (A)
                 (A) (A) (A) (A) (A) (A) (A) (A) (A) (A) (A) (A)
                 (A) (A) (A) (A) (A) (A) (A) (A) (A) (A) (A) (A)
                 (A) (A) (A) (A) (A) (A) (A) (A) (A) (A) (A) (A)
                 (A) (A) (A) (A) (A) (A) (A) (A) (A) (A) (A) (A)
       Virtual   (A) (A) (A) (A) (A) (A) (A) (A) (A) (A) (A) (A)
                 (A) (A) (A) (A) (A) (A) (A) (A) (A) (A) (A) (A)
                 (A) (A) (A) (A) (A) (A) (A) (A) (A) (A) (A) (A)
                 (A) (A) (A) (A) (A) (A) (A) (A) (A) (A) (A) (A)
                 (A) (A) (A) (A) (A) (A) (A) (A) (A) (A) (A) (A)
                 (A) (A) (A) (A) (A) (A) (A) (A) (A) (A) (A) (A)
                 (A) (A) (A) (A) (A) (A) (A) (A) (A) (A) (A) (A)
                 (A) (A) (A) (A) (A) (A) (A) (A) (A) (A) (A) (A)
                 (A) (A) (A) (A) (A) (A) (A) (A) (A) (A) (A) (A)
                 (A) (A) (A) (A) (A) (A) (A) (A) (A) (A) (A) (A)
                 (A) (A) (A) (A) (A) (A) (A) (A) (A) (A) (A) (A)
                 (A) (A) (A) (A) (A) (A) (A) (A) (A) (A) (A) (A)
                 (A) (A) (A) (A) (A) (A) (A) (A) (A) (A) (A) (A)
                 (A) (A) (A) (A) (A) (A) (A) (A) (A) (A) (A) (A)
                 (A) (A) (A) (A) (A) (A) (A) (A) (A) (A) (A) (A)
                 (A) (A) (A) (A) (A) (A) (A) (A) (A) (A) (A) (A)
                 (A) (A) (A) (A) (A) (A) (A) (A) (A) (A) (A) (A)
                 (A) (A) (A) (A) (A) (A) (A) (A) (A) (A) (A) (A)
                 (A) (A) (A) (A) (A) (A) (A) (A) (A) (A) (A) (A)
                 (A) (A) (A) (A) (A) (A) (A) (A) (A) (A) (A) (A)
                 (A) (A) (A) (A) (A)
 The electronic state is 1-A.
 Alpha  occ. eigenvalues --  -88.92219 -19.12056 -14.41494 -14.39868 -14.37574
 Alpha  occ. eigenvalues --  -14.36634 -14.35772 -10.31634 -10.29797 -10.29158
 Alpha  occ. eigenvalues --  -10.24446 -10.23913 -10.22460 -10.21401 -10.20263
 Alpha  occ. eigenvalues --  -10.20182 -10.19876 -10.19535 -10.18250  -7.98390
 Alpha  occ. eigenvalues --   -5.94789  -5.94431  -5.94073  -1.19195  -1.04856
 Alpha  occ. eigenvalues --   -1.01230  -0.94549  -0.94264  -0.91338  -0.85899
 Alpha  occ. eigenvalues --   -0.81008  -0.79490  -0.75866  -0.74288  -0.71834
 Alpha  occ. eigenvalues --   -0.69930  -0.68045  -0.63346  -0.62077  -0.61199
 Alpha  occ. eigenvalues --   -0.58506  -0.57696  -0.56196  -0.55122  -0.53023
 Alpha  occ. eigenvalues --   -0.51277  -0.49921  -0.49230  -0.47911  -0.46617
 Alpha  occ. eigenvalues --   -0.45974  -0.44368  -0.43982  -0.42794  -0.41969
 Alpha  occ. eigenvalues --   -0.41310  -0.41146  -0.39888  -0.38500  -0.38036
 Alpha  occ. eigenvalues --   -0.36657  -0.36422  -0.35050  -0.33360  -0.30174
 Alpha  occ. eigenvalues --   -0.29823  -0.29119  -0.26845  -0.26379  -0.25695
 Alpha  occ. eigenvalues --   -0.23552  -0.20963
 Alpha virt. eigenvalues --   -0.16823  -0.04292  -0.01973  -0.01081   0.00769
 Alpha virt. eigenvalues --    0.03269   0.06144   0.07292   0.08905   0.09841
 Alpha virt. eigenvalues --    0.10809   0.12450   0.13120   0.13653   0.14717
 Alpha virt. eigenvalues --    0.15447   0.15974   0.16621   0.17088   0.17535
 Alpha virt. eigenvalues --    0.17881   0.18681   0.19283   0.20657   0.21732
 Alpha virt. eigenvalues --    0.22773   0.24899   0.26706   0.26967   0.28673
 Alpha virt. eigenvalues --    0.29164   0.30615   0.31694   0.32877   0.33332
 Alpha virt. eigenvalues --    0.35077   0.35415   0.36301   0.37224   0.39543
 Alpha virt. eigenvalues --    0.40182   0.40422   0.44182   0.45788   0.49575
 Alpha virt. eigenvalues --    0.49897   0.50604   0.51691   0.51777   0.53487
 Alpha virt. eigenvalues --    0.53749   0.53985   0.55181   0.55674   0.56438
 Alpha virt. eigenvalues --    0.57503   0.57907   0.59137   0.60191   0.60329
 Alpha virt. eigenvalues --    0.61105   0.61242   0.62954   0.63459   0.64290
 Alpha virt. eigenvalues --    0.65092   0.66431   0.67707   0.68730   0.69906
 Alpha virt. eigenvalues --    0.70088   0.72432   0.73741   0.74196   0.74485
 Alpha virt. eigenvalues --    0.75445   0.76973   0.77827   0.79258   0.79791
 Alpha virt. eigenvalues --    0.80902   0.81209   0.81618   0.82333   0.83071
 Alpha virt. eigenvalues --    0.84027   0.84376   0.85260   0.85600   0.86819
 Alpha virt. eigenvalues --    0.87537   0.87886   0.88009   0.89170   0.89628
 Alpha virt. eigenvalues --    0.90466   0.91039   0.91837   0.92672   0.92783
 Alpha virt. eigenvalues --    0.93722   0.94518   0.95280   0.97021   0.98083
 Alpha virt. eigenvalues --    0.98467   0.99932   1.01069   1.02437   1.03440
 Alpha virt. eigenvalues --    1.04212   1.04582   1.06227   1.10470   1.11407
 Alpha virt. eigenvalues --    1.12065   1.12985   1.15335   1.16521   1.17703
 Alpha virt. eigenvalues --    1.19052   1.20896   1.24924   1.25770   1.27699
 Alpha virt. eigenvalues --    1.31951   1.33235   1.35746   1.36316   1.37630
 Alpha virt. eigenvalues --    1.39044   1.39398   1.40616   1.42205   1.43410
 Alpha virt. eigenvalues --    1.45525   1.46698   1.48348   1.50089   1.50629
 Alpha virt. eigenvalues --    1.53191   1.55557   1.58300   1.60933   1.62323
 Alpha virt. eigenvalues --    1.65058   1.66701   1.69087   1.75042   1.76077
 Alpha virt. eigenvalues --    1.77496   1.78767   1.79809   1.81316   1.81874
 Alpha virt. eigenvalues --    1.82812   1.83120   1.83742   1.85347   1.88998
 Alpha virt. eigenvalues --    1.89454   1.89807   1.91947   1.92903   1.93675
 Alpha virt. eigenvalues --    1.96057   1.97322   1.99625   2.03403   2.04258
 Alpha virt. eigenvalues --    2.05060   2.07251   2.08802   2.11075   2.13105
 Alpha virt. eigenvalues --    2.13931   2.15082   2.16936   2.17782   2.20314
 Alpha virt. eigenvalues --    2.21317   2.23443   2.24582   2.26111   2.26523
 Alpha virt. eigenvalues --    2.28469   2.29503   2.30770   2.32683   2.35759
 Alpha virt. eigenvalues --    2.36139   2.38540   2.41476   2.42865   2.43337
 Alpha virt. eigenvalues --    2.44750   2.46781   2.48261   2.49962   2.52148
 Alpha virt. eigenvalues --    2.55819   2.56262   2.59124   2.60289   2.61843
 Alpha virt. eigenvalues --    2.65047   2.67907   2.70068   2.70982   2.72052
 Alpha virt. eigenvalues --    2.73192   2.75456   2.77328   2.80463   2.83587
 Alpha virt. eigenvalues --    2.84871   2.86726   2.94483   2.95864   3.00542
 Alpha virt. eigenvalues --    3.02699   3.09204   3.16020   3.22823   3.27881
 Alpha virt. eigenvalues --    3.40850   3.80215   3.92508   3.93335   4.00523
 Alpha virt. eigenvalues --    4.06882   4.07238   4.08012   4.12034   4.13873
 Alpha virt. eigenvalues --    4.14855   4.18201   4.22165   4.28605   4.33353
 Alpha virt. eigenvalues --    4.34526   4.44167   4.53509   4.60304   4.75357
          Condensed to atoms (all electrons):
               1          2          3          4          5          6
     1  C    5.344518   0.357704   0.358473   0.351550   0.355719  -0.080073
     2  H    0.357704   0.521944  -0.022719  -0.018721  -0.020876   0.004090
     3  H    0.358473  -0.022719   0.523959  -0.032471  -0.021086   0.000968
     4  H    0.351550  -0.018721  -0.032471   0.528735  -0.018962   0.001688
     5  C    0.355719  -0.020876  -0.021086  -0.018962   4.270006   0.623082
     6  O   -0.080073   0.004090   0.000968   0.001688   0.623082   8.097499
     7  N   -0.130966   0.005128   0.001718   0.001695   0.254476  -0.103582
     8  H   -0.000219  -0.000019   0.000711   0.001303  -0.022463   0.003063
     9  C    0.007102  -0.000118   0.000070  -0.000479  -0.013654   0.004927
    10  C   -0.000494   0.000004  -0.000008   0.000055   0.003978   0.000304
    11  C    0.000002  -0.000000   0.000000   0.000000  -0.000103  -0.000009
    12  C    0.000000  -0.000000  -0.000000   0.000000   0.000020   0.000006
    13  H    0.000000  -0.000000  -0.000000  -0.000000   0.000000   0.000000
    14  H   -0.000000   0.000000   0.000000  -0.000000   0.000000  -0.000000
    15  H   -0.000034   0.000000  -0.000001   0.000003   0.000263   0.000005
    16  C    0.000432  -0.000001  -0.000013  -0.000010  -0.002106  -0.000688
    17  H    0.000102   0.000002  -0.000022  -0.000000   0.003556   0.010076
    18  C    0.000004  -0.000000  -0.000001   0.000000   0.000176   0.000173
    19  C   -0.000000   0.000000   0.000000  -0.000000  -0.000011  -0.000008
    20  N   -0.000000  -0.000000   0.000000   0.000000  -0.000005  -0.000006
    21  C    0.000000  -0.000000   0.000000  -0.000000  -0.000000  -0.000000
    22  H    0.000000  -0.000000  -0.000000  -0.000000   0.000000   0.000000
    23  S   -0.000000   0.000000  -0.000000   0.000000  -0.000000   0.000000
    24  C   -0.000000   0.000000   0.000000   0.000000   0.000000  -0.000000
    25  N    0.000000   0.000000   0.000000  -0.000000   0.000000   0.000000
    26  C    0.000000  -0.000000  -0.000000   0.000000  -0.000000   0.000000
    27  N   -0.000000   0.000000   0.000000   0.000000  -0.000000   0.000000
    28  H   -0.000000   0.000000   0.000000  -0.000000  -0.000000  -0.000000
    29  H    0.000000  -0.000000  -0.000000  -0.000000   0.000000   0.000000
    30  N   -0.000000   0.000000  -0.000000   0.000000  -0.000000   0.000000
    31  H    0.000000  -0.000000  -0.000000  -0.000000  -0.000000   0.000000
    32  H    0.000000  -0.000000  -0.000000  -0.000000   0.000000   0.000000
    33  H    0.000000  -0.000000  -0.000000  -0.000000   0.000000   0.000000
               7          8          9         10         11         12
     1  C   -0.130966  -0.000219   0.007102  -0.000494   0.000002   0.000000
     2  H    0.005128  -0.000019  -0.000118   0.000004  -0.000000  -0.000000
     3  H    0.001718   0.000711   0.000070  -0.000008   0.000000  -0.000000
     4  H    0.001695   0.001303  -0.000479   0.000055   0.000000   0.000000
     5  C    0.254476  -0.022463  -0.013654   0.003978  -0.000103   0.000020
     6  O   -0.103582   0.003063   0.004927   0.000304  -0.000009   0.000006
     7  N    7.251692   0.306172   0.210188  -0.062878   0.004985   0.000469
     8  H    0.306172   0.332565  -0.020633  -0.003375   0.000000   0.000006
     9  C    0.210188  -0.020633   4.594859   0.527780  -0.012223  -0.039669
    10  C   -0.062878  -0.003375   0.527780   5.018505   0.509528  -0.042518
    11  C    0.004985   0.000000  -0.012223   0.509528   4.916199   0.504279
    12  C    0.000469   0.000006  -0.039669  -0.042518   0.504279   5.060872
    13  H    0.000005  -0.000000   0.000405   0.004589  -0.040521   0.354199
    14  H   -0.000107  -0.000005   0.003345  -0.034601   0.361901  -0.034490
    15  H   -0.006098   0.003085  -0.044080   0.358078  -0.040332   0.005084
    16  C   -0.052401   0.003246   0.490074  -0.062043  -0.041229  -0.066336
    17  H   -0.010280  -0.000115  -0.035393   0.006380   0.000001   0.005531
    18  C    0.003651   0.000004  -0.003887  -0.034765  -0.012077   0.520397
    19  C   -0.000165   0.000002   0.006584   0.000908   0.005445  -0.054357
    20  N   -0.000001   0.000000   0.000280   0.000004  -0.000064   0.003797
    21  C    0.000001  -0.000000  -0.000325   0.000038   0.000276  -0.016674
    22  H    0.000000   0.000000   0.000002  -0.000003   0.000166   0.004296
    23  S   -0.000000   0.000000   0.000010   0.000000  -0.000012   0.000490
    24  C    0.000000   0.000000  -0.000004  -0.000000   0.000001   0.000025
    25  N    0.000000   0.000000  -0.000000  -0.000000  -0.000000   0.000001
    26  C   -0.000000  -0.000000  -0.000000   0.000000   0.000000  -0.000000
    27  N   -0.000000   0.000000   0.000000   0.000000  -0.000000   0.000000
    28  H    0.000000   0.000000  -0.000000  -0.000000  -0.000000  -0.000000
    29  H    0.000000  -0.000000  -0.000000   0.000000   0.000000   0.000000
    30  N    0.000000   0.000000   0.000000  -0.000000  -0.000000  -0.000000
    31  H   -0.000000  -0.000000   0.000000   0.000000   0.000000  -0.000000
    32  H   -0.000000  -0.000000  -0.000000   0.000000   0.000000  -0.000000
    33  H    0.000000  -0.000000  -0.000000   0.000000   0.000000  -0.000000
              13         14         15         16         17         18
     1  C    0.000000  -0.000000  -0.000034   0.000432   0.000102   0.000004
     2  H   -0.000000   0.000000   0.000000  -0.000001   0.000002  -0.000000
     3  H   -0.000000   0.000000  -0.000001  -0.000013  -0.000022  -0.000001
     4  H   -0.000000  -0.000000   0.000003  -0.000010  -0.000000   0.000000
     5  C    0.000000   0.000000   0.000263  -0.002106   0.003556   0.000176
     6  O    0.000000  -0.000000   0.000005  -0.000688   0.010076   0.000173
     7  N    0.000005  -0.000107  -0.006098  -0.052401  -0.010280   0.003651
     8  H   -0.000000  -0.000005   0.003085   0.003246  -0.000115   0.000004
     9  C    0.000405   0.003345  -0.044080   0.490074  -0.035393  -0.003887
    10  C    0.004589  -0.034601   0.358078  -0.062043   0.006380  -0.034765
    11  C   -0.040521   0.361901  -0.040332  -0.041229   0.000001  -0.012077
    12  C    0.354199  -0.034490   0.005084  -0.066336   0.005531   0.520397
    13  H    0.559746  -0.004052  -0.000180   0.005041  -0.000111  -0.036932
    14  H   -0.004052   0.546103  -0.005326   0.000812   0.000010   0.002563
    15  H   -0.000180  -0.005326   0.564252   0.005449  -0.000131   0.000319
    16  C    0.005041   0.000812   0.005449   5.165066   0.351410   0.459123
    17  H   -0.000111   0.000010  -0.000131   0.351410   0.557814  -0.047624
    18  C   -0.036932   0.002563   0.000319   0.459123  -0.047624   4.796385
    19  C   -0.008841  -0.000153   0.000006  -0.042987  -0.012790   0.353045
    20  N   -0.000054   0.000000   0.000000  -0.007087   0.011866  -0.052350
    21  C    0.005098   0.000003  -0.000000   0.008324   0.000653  -0.054612
    22  H    0.002950  -0.000002  -0.000000  -0.000032  -0.000018  -0.008633
    23  S   -0.000124  -0.000000   0.000000  -0.000034   0.000091   0.006773
    24  C   -0.000011  -0.000000  -0.000000   0.000033  -0.000303   0.006107
    25  N   -0.000000   0.000000  -0.000000  -0.000004  -0.000020  -0.000176
    26  C    0.000000  -0.000000   0.000000  -0.000014   0.000058  -0.000016
    27  N   -0.000000   0.000000  -0.000000  -0.000000  -0.000000  -0.000000
    28  H   -0.000000   0.000000  -0.000000  -0.000000  -0.000000   0.000000
    29  H    0.000000  -0.000000   0.000000  -0.000000   0.000000   0.000000
    30  N   -0.000000   0.000000  -0.000000   0.000000  -0.000000  -0.000000
    31  H    0.000000  -0.000000   0.000000   0.000000   0.000000  -0.000000
    32  H    0.000000  -0.000000   0.000000  -0.000000   0.000000   0.000000
    33  H    0.000000  -0.000000   0.000000  -0.000000  -0.000000   0.000002
              19         20         21         22         23         24
     1  C   -0.000000  -0.000000   0.000000   0.000000  -0.000000  -0.000000
     2  H    0.000000  -0.000000  -0.000000  -0.000000   0.000000   0.000000
     3  H    0.000000   0.000000   0.000000  -0.000000  -0.000000   0.000000
     4  H   -0.000000   0.000000  -0.000000  -0.000000   0.000000   0.000000
     5  C   -0.000011  -0.000005  -0.000000   0.000000  -0.000000   0.000000
     6  O   -0.000008  -0.000006  -0.000000   0.000000   0.000000  -0.000000
     7  N   -0.000165  -0.000001   0.000001   0.000000  -0.000000   0.000000
     8  H    0.000002   0.000000  -0.000000   0.000000   0.000000   0.000000
     9  C    0.006584   0.000280  -0.000325   0.000002   0.000010  -0.000004
    10  C    0.000908   0.000004   0.000038  -0.000003   0.000000  -0.000000
    11  C    0.005445  -0.000064   0.000276   0.000166  -0.000012   0.000001
    12  C   -0.054357   0.003797  -0.016674   0.004296   0.000490   0.000025
    13  H   -0.008841  -0.000054   0.005098   0.002950  -0.000124  -0.000011
    14  H   -0.000153   0.000000   0.000003  -0.000002  -0.000000  -0.000000
    15  H    0.000006   0.000000  -0.000000  -0.000000   0.000000  -0.000000
    16  C   -0.042987  -0.007087   0.008324  -0.000032  -0.000034   0.000033
    17  H   -0.012790   0.011866   0.000653  -0.000018   0.000091  -0.000303
    18  C    0.353045  -0.052350  -0.054612  -0.008633   0.006773   0.006107
    19  C    4.741520   0.364441   0.511474  -0.012465  -0.066114  -0.043490
    20  N    0.364441   7.033668  -0.089136   0.003730  -0.075171   0.422354
    21  C    0.511474  -0.089136   5.423338   0.350071   0.284978  -0.048078
    22  H   -0.012465   0.003730   0.350071   0.471554  -0.031699   0.002087
    23  S   -0.066114  -0.075171   0.284978  -0.031699  15.399205   0.288214
    24  C   -0.043490   0.422354  -0.048078   0.002087   0.288214   4.806290
    25  N    0.001374  -0.060964   0.002266  -0.000021  -0.068641   0.292743
    26  C    0.001005   0.011727  -0.000004   0.000001   0.006726  -0.058549
    27  N    0.000001   0.000590   0.000014   0.000000  -0.000326   0.005590
    28  H    0.000001  -0.000037  -0.000000   0.000000   0.000036  -0.000643
    29  H    0.000016   0.000015  -0.000002   0.000000   0.000572  -0.000118
    30  N   -0.000018   0.000751   0.000002  -0.000000  -0.000334   0.008301
    31  H   -0.000007   0.000093   0.000002  -0.000000  -0.000050   0.000258
    32  H    0.000010  -0.000021   0.000005   0.000000  -0.000016   0.000070
    33  H    0.000062   0.001452  -0.000028   0.000001   0.002420  -0.015236
              25         26         27         28         29         30
     1  C    0.000000   0.000000  -0.000000  -0.000000   0.000000  -0.000000
     2  H    0.000000  -0.000000   0.000000   0.000000  -0.000000   0.000000
     3  H    0.000000  -0.000000   0.000000   0.000000  -0.000000  -0.000000
     4  H   -0.000000   0.000000   0.000000  -0.000000  -0.000000   0.000000
     5  C    0.000000  -0.000000  -0.000000  -0.000000   0.000000  -0.000000
     6  O    0.000000   0.000000   0.000000  -0.000000   0.000000   0.000000
     7  N    0.000000  -0.000000  -0.000000   0.000000   0.000000   0.000000
     8  H    0.000000  -0.000000   0.000000   0.000000  -0.000000   0.000000
     9  C   -0.000000  -0.000000   0.000000  -0.000000  -0.000000   0.000000
    10  C   -0.000000   0.000000   0.000000  -0.000000   0.000000  -0.000000
    11  C   -0.000000   0.000000  -0.000000  -0.000000   0.000000  -0.000000
    12  C    0.000001  -0.000000   0.000000  -0.000000   0.000000  -0.000000
    13  H   -0.000000   0.000000  -0.000000  -0.000000   0.000000  -0.000000
    14  H    0.000000  -0.000000   0.000000   0.000000  -0.000000   0.000000
[...]
 Alpha virt. eigenvalues --    3.80662   3.83682   3.92330   3.93765   4.04882
 Alpha virt. eigenvalues --    4.13230   4.19291   4.26089   4.98398
          Condensed to atoms (all electrons):
               1          2          3          4          5          6
     1  C    4.839289   0.363849   0.308885   0.247152  -0.097962  -0.076539
     2  H    0.363849   0.807250  -0.047922  -0.127005  -0.088749   0.016937
     3  H    0.308885  -0.047922   0.693989  -0.059523   0.036265  -0.002726
     4  H    0.247152  -0.127005  -0.059523   1.023080   0.160430   0.019592
     5  C   -0.097962  -0.088749   0.036265   0.160430   5.847718   0.073834
     6  O   -0.076539   0.016937  -0.002726   0.019592   0.073834   8.885988
     7  N   -0.006859   0.088744   0.015743  -0.156893   0.244011  -0.109903
     8  H   -0.099879  -0.010011   0.001514   0.006837  -0.057510  -0.014709
     9  C    0.229949   0.005505  -0.027934  -0.028435  -1.077316   0.250623
    10  C   -0.205798   0.007680  -0.009329  -0.026184  -0.409043   0.118548
    11  C    0.053844   0.001712   0.001639   0.003144  -0.117726  -0.002361
    12  C   -0.060264  -0.000518  -0.001791  -0.007412   0.262399  -0.026983
    13  H   -0.001112   0.000010  -0.000101  -0.000019   0.002580  -0.000075
    14  H    0.000478  -0.000024   0.000057  -0.000174   0.001230  -0.000597
    15  H    0.003445   0.000582  -0.000917   0.002594  -0.019623   0.004266
    16  C   -0.128196  -0.007037   0.009773   0.036185   0.448751  -0.030395
    17  H    0.030962   0.001871   0.002873  -0.001632   0.094891  -0.108728
    18  C    0.077560  -0.003307   0.002233   0.007540   0.218971  -0.105482
    19  C    0.000010   0.000420  -0.000368   0.000527   0.035204   0.014995
    20  N    0.002736   0.000251   0.000242  -0.000014   0.006541  -0.001263
    21  C    0.003564   0.000072   0.000250   0.000098  -0.003687   0.000609
    22  H    0.000566   0.000018   0.000037   0.000036   0.001876  -0.000209
    23  S    0.000005   0.000003   0.000000   0.000005   0.001484  -0.000082
    24  C    0.000130   0.000231   0.000178  -0.000137   0.000545  -0.007037
    25  N    0.000153   0.000024   0.000001   0.000015   0.000804   0.000317
    26  C   -0.001312  -0.000077  -0.000075  -0.000070  -0.013319  -0.001065
    27  N   -0.001456   0.000126  -0.000072   0.000015   0.003666  -0.002692
    28  H   -0.000202  -0.000305   0.000047   0.000041  -0.000763  -0.000089
    29  H   -0.006624  -0.000490  -0.000584  -0.000007   0.007725   0.010097
    30  N    0.000003   0.000031  -0.000003  -0.000001   0.000556  -0.000209
    31  H   -0.000107  -0.000011  -0.000009  -0.000004  -0.000269   0.000131
    32  H    0.000016   0.000004   0.000001   0.000001   0.000069  -0.000062
    33  H   -0.000025  -0.000001  -0.000000  -0.000002  -0.000092   0.000075
               7          8          9         10         11         12
     1  C   -0.006859  -0.099879   0.229949  -0.205798   0.053844  -0.060264
     2  H    0.088744  -0.010011   0.005505   0.007680   0.001712  -0.000518
     3  H    0.015743   0.001514  -0.027934  -0.009329   0.001639  -0.001791
     4  H   -0.156893   0.006837  -0.028435  -0.026184   0.003144  -0.007412
     5  C    0.244011  -0.057510  -1.077316  -0.409043  -0.117726   0.262399
     6  O   -0.109903  -0.014709   0.250623   0.118548  -0.002361  -0.026983
     7  N    8.273299   0.246142  -2.044774   1.151124  -0.886898   0.637150
     8  H    0.246142   0.991276   0.120506  -0.051823   0.043943   0.052960
     9  C   -2.044774   0.120506  25.380873 -11.082140   5.982188  -6.006577
    10  C    1.151124  -0.051823 -11.082140  21.208035  -6.570804   4.051609
    11  C   -0.886898   0.043943   5.982188  -6.570804  16.420373  -5.465477
    12  C    0.637150   0.052960  -6.006577   4.051609  -5.465477  26.829648
    13  H    0.017330  -0.003998  -0.171616  -0.103203   0.091816  -1.762774
    14  H    0.005389   0.010254  -0.236516   0.574657  -1.129733   0.818130
    15  H   -0.299279   0.002814   1.744837  -2.148435   0.801185  -0.331247
    16  C    1.374187  -0.201590 -10.732447   5.353689  -4.886627  -0.393297
    17  H   -0.244507   0.007922   1.044053  -0.754808   0.322168  -0.644066
    18  C   -0.710964   0.002627   3.793523  -6.674083   1.986618 -11.636215
    19  C    0.131480  -0.011360  -1.589374   0.763798  -0.769048   1.795126
    20  N   -0.008698   0.000462   0.283735  -0.111592   0.167615  -0.215250
    21  C   -0.046836   0.003269   0.496934  -0.127575   0.032991  -2.774779
    22  H   -0.004515   0.000079   0.048188  -0.036863   0.117403   0.248816
    23  S   -0.000174   0.000080  -0.027381   0.018319  -0.050178   0.011065
    24  C    0.005311   0.001062   0.151088  -0.071491   0.036758   0.078852
    25  N    0.000300  -0.000088  -0.031308   0.006759  -0.008396   0.012978
    26  C   -0.002976   0.000453   0.094201   0.002649  -0.014152  -0.103931
    27  N    0.001572  -0.000055  -0.050988  -0.001148   0.003185   0.029968
    28  H   -0.001013   0.000142   0.008537  -0.003749   0.001685  -0.003822
    29  H    0.013217   0.000203  -0.130397   0.077784  -0.052568   0.121929
    30  N    0.000040  -0.000011  -0.004910   0.000051   0.000206   0.004345
    31  H    0.000002   0.000006   0.000958   0.000163  -0.000142  -0.000490
    32  H    0.000004  -0.000004  -0.000382  -0.000032   0.000101   0.000338
    33  H   -0.000069   0.000017   0.002334   0.000188  -0.001088  -0.004434
              13         14         15         16         17         18
     1  C   -0.001112   0.000478   0.003445  -0.128196   0.030962   0.077560
     2  H    0.000010  -0.000024   0.000582  -0.007037   0.001871  -0.003307
     3  H   -0.000101   0.000057  -0.000917   0.009773   0.002873   0.002233
     4  H   -0.000019  -0.000174   0.002594   0.036185  -0.001632   0.007540
     5  C    0.002580   0.001230  -0.019623   0.448751   0.094891   0.218971
     6  O   -0.000075  -0.000597   0.004266  -0.030395  -0.108728  -0.105482
     7  N    0.017330   0.005389  -0.299279   1.374187  -0.244507  -0.710964
     8  H   -0.003998   0.010254   0.002814  -0.201590   0.007922   0.002627
     9  C   -0.171616  -0.236516   1.744837 -10.732447   1.044053   3.793523
    10  C   -0.103203   0.574657  -2.148435   5.353689  -0.754808  -6.674083
    11  C    0.091816  -1.129733   0.801185  -4.886627   0.322168   1.986618
    12  C   -1.762774   0.818130  -0.331247  -0.393297  -0.644066 -11.636215
    13  H    2.145268  -0.081924  -0.009241   0.320012  -0.008305   1.116085
    14  H   -0.081924   1.727361  -0.109029   0.045046   0.007889  -0.115732
    15  H   -0.009241  -0.109029   2.212574  -0.239965  -0.010901   0.078630
    16  C    0.320012   0.045046  -0.239965  24.262099  -2.267713  -7.347514
    17  H   -0.008305   0.007889  -0.010901  -2.267713   3.027870   1.358067
    18  C    1.116085  -0.115732   0.078630  -7.347514   1.358067  28.951421
    19  C    0.174213  -0.127656   0.015507   0.358682  -0.021114 -12.098363
    20  N   -0.012725   0.006103   0.000243  -0.176658  -0.112138   0.909309
    21  C    0.014288   0.088637  -0.008064  -1.202033   0.109076   4.767502
    22  H   -0.073706   0.003053   0.000074   0.028739   0.021450  -0.493446
    23  S   -0.003166  -0.000138   0.000121  -0.004641   0.003468  -0.197317
    24  C   -0.008083   0.003596  -0.001226  -0.147972  -0.157047   0.202352
    25  N    0.003289  -0.000384   0.000225   0.010937  -0.000839  -0.150745
    26  C   -0.000974  -0.000073  -0.000273   0.011015   0.043277  -0.007897
    27  N   -0.000215   0.000078   0.000060  -0.003078  -0.002709   0.042690
    28  H   -0.000180   0.000047  -0.000106   0.002963   0.009313   0.000739
    29  H    0.001494  -0.000782   0.000333   0.073491  -0.092124  -0.093061
    30  N    0.000136  -0.000002   0.000014  -0.005152  -0.000397   0.000806
    31  H    0.000021  -0.000003   0.000001   0.000774   0.000526  -0.001740
    32  H   -0.000003   0.000001   0.000001   0.000130  -0.000267   0.000833
    33  H   -0.000193   0.000008  -0.000004   0.004422  -0.001947  -0.001027
              19         20         21         22         23         24
     1  C    0.000010   0.002736   0.003564   0.000566   0.000005   0.000130
     2  H    0.000420   0.000251   0.000072   0.000018   0.000003   0.000231
     3  H   -0.000368   0.000242   0.000250   0.000037   0.000000   0.000178
     4  H    0.000527  -0.000014   0.000098   0.000036   0.000005  -0.000137
     5  C    0.035204   0.006541  -0.003687   0.001876   0.001484   0.000545
     6  O    0.014995  -0.001263   0.000609  -0.000209  -0.000082  -0.007037
     7  N    0.131480  -0.008698  -0.046836  -0.004515  -0.000174   0.005311
     8  H   -0.011360   0.000462   0.003269   0.000079   0.000080   0.001062
     9  C   -1.589374   0.283735   0.496934   0.048188  -0.027381   0.151088
    10  C    0.763798  -0.111592  -0.127575  -0.036863   0.018319  -0.071491
    11  C   -0.769048   0.167615   0.032991   0.117403  -0.050178   0.036758
    12  C    1.795126  -0.215250  -2.774779   0.248816   0.011065   0.078852
    13  H    0.174213  -0.012725   0.014288  -0.073706  -0.003166  -0.008083
    14  H   -0.127656   0.006103   0.088637   0.003053  -0.000138   0.003596
    15  H    0.015507   0.000243  -0.008064   0.000074   0.000121  -0.001226
    16  C    0.358682  -0.176658  -1.202033   0.028739  -0.004641  -0.147972
    17  H   -0.021114  -0.112138   0.109076   0.021450   0.003468  -0.157047
    18  C  -12.098363   0.909309   4.767502  -0.493446  -0.197317   0.202352
    19  C   32.417469  -2.077973 -11.876076   1.110534   0.058907  -1.379512
    20  N   -2.077973   8.135839   0.928059   0.006838  -0.181137   0.180990
    21  C  -11.876076   0.928059  16.166538  -0.668804   0.220607  -0.636388
    22  H    1.110534   0.006838  -0.668804   1.653175  -0.233414  -0.101566
    23  S    0.058907  -0.181137   0.220607  -0.233414  15.927997   0.177684
    24  C   -1.379512   0.180990  -0.636388  -0.101566   0.177684   7.890583
    25  N    0.563247  -0.140444  -0.090512  -0.015074  -0.111217  -0.220955
    26  C    0.020753   0.087301  -0.145437  -0.009709  -0.080053  -0.530776
    27  N   -0.084500  -0.028324   0.065534   0.002606  -0.007682   0.041923
    28  H    0.000017  -0.004327   0.000348   0.000227  -0.000414   0.012816
    29  H    0.029931  -0.035697  -0.069609  -0.009669   0.000881   0.000980
    30  N    0.025453   0.001562   0.000095  -0.000168   0.009128   0.031866
    31  H    0.003555   0.002862  -0.003651  -0.000198  -0.000506  -0.014390
    32  H   -0.002251   0.001093   0.001146   0.000116  -0.002053  -0.034534
    33  H   -0.064455  -0.009036  -0.002349   0.000258   0.012009  -0.115098
              25         26         27         28         29         30
     1  C    0.000153  -0.001312  -0.001456  -0.000202  -0.006624   0.000003
     2  H    0.000024  -0.000077   0.000126  -0.000305  -0.000490   0.000031
     3  H    0.000001  -0.000075  -0.000072   0.000047  -0.000584  -0.000003
     4  H    0.000015  -0.000070   0.000015   0.000041  -0.000007  -0.000001
     5  C    0.000804  -0.013319   0.003666  -0.000763   0.007725   0.000556
     6  O    0.000317  -0.001065  -0.002692  -0.000089   0.010097  -0.000209
     7  N    0.000300  -0.002976   0.001572  -0.001013   0.013217   0.000040
     8  H   -0.000088   0.000453  -0.000055   0.000142   0.000203  -0.000011
     9  C   -0.031308   0.094201  -0.050988   0.008537  -0.130397  -0.004910
    10  C    0.006759   0.002649  -0.001148  -0.003749   0.077784   0.000051
    11  C   -0.008396  -0.014152   0.003185   0.001685  -0.052568   0.000206
    12  C    0.012978  -0.103931   0.029968  -0.003822   0.121929   0.004345
    13  H    0.003289  -0.000974  -0.000215  -0.000180   0.001494   0.000136
    14  H   -0.000384  -0.000073   0.000078   0.000047  -0.000782  -0.000002
    15  H    0.000225  -0.000273   0.000060  -0.000106   0.000333   0.000014
    16  C    0.010937   0.011015  -0.003078   0.002963   0.073491  -0.005152
    17  H   -0.000839   0.043277  -0.002709   0.009313  -0.092124  -0.000397
    18  C   -0.150745  -0.007897   0.042690   0.000739  -0.093061   0.000806
    19  C    0.563247   0.020753  -0.084500   0.000017   0.029931   0.025453
    20  N   -0.140444   0.087301  -0.028324  -0.004327  -0.035697   0.001562
    21  C   -0.090512  -0.145437   0.065534   0.000348  -0.069609   0.000095
    22  H   -0.015074  -0.009709   0.002606   0.000227  -0.009669  -0.000168
    23  S   -0.111217  -0.080053  -0.007682  -0.000414   0.000881   0.009128
    24  C   -0.220955  -0.530776   0.041923   0.012816   0.000980   0.031866
    25  N    7.428063   0.167080  -0.023299   0.010807  -0.029107  -0.102138
    26  C    0.167080   5.535756   0.057306  -0.133839  -0.195524   0.112006
    27  N   -0.023299   0.057306   6.283440   0.445343   0.428696  -0.107777
    28  H    0.010807  -0.133839   0.445343   0.869119  -0.216049  -0.005508
    29  H   -0.029107  -0.195524   0.428696  -0.216049   1.052015   0.015304
    30  N   -0.102138   0.112006  -0.107777  -0.005508   0.015304   6.385672
    31  H   -0.024460  -0.053545  -0.019669  -0.008498  -0.003218   0.453564
    32  H    0.018152  -0.075552   0.004764   0.002756   0.003240   0.453700
    33  H    0.437790  -0.095524   0.010672  -0.001581   0.002775  -0.007131
              31         32         33
     1  C   -0.000107   0.000016  -0.000025
     2  H   -0.000011   0.000004  -0.000001
     3  H   -0.000009   0.000001  -0.000000
     4  H   -0.000004   0.000001  -0.000002
     5  C   -0.000269   0.000069  -0.000092
     6  O    0.000131  -0.000062   0.000075
     7  N    0.000002   0.000004  -0.000069
     8  H    0.000006  -0.000004   0.000017
     9  C    0.000958  -0.000382   0.002334
    10  C    0.000163  -0.000032   0.000188
    11  C   -0.000142   0.000101  -0.001088
    12  C   -0.000490   0.000338  -0.004434
    13  H    0.000021  -0.000003  -0.000193
    14  H   -0.000003   0.000001   0.000008
    15  H    0.000001   0.000001  -0.000004
    16  C    0.000774   0.000130   0.004422
    17  H    0.000526  -0.000267  -0.001947
    18  C   -0.001740   0.000833  -0.001027
    19  C    0.003555  -0.002251  -0.064455
    20  N    0.002862   0.001093  -0.009036
    21  C   -0.003651   0.001146  -0.002349
    22  H   -0.000198   0.000116   0.000258
    23  S   -0.000506  -0.002053   0.012009
    24  C   -0.014390  -0.034534  -0.115098
    25  N   -0.024460   0.018152   0.437790
    26  C   -0.053545  -0.075552  -0.095524
    27  N   -0.019669   0.004764   0.010672
    28  H   -0.008498   0.002756  -0.001581
    29  H   -0.003218   0.003240   0.002775
    30  N    0.453564   0.453700  -0.007131
    31  H    0.784332  -0.145861   0.002893
    32  H   -0.145861   0.786662  -0.006085
    33  H    0.002893  -0.006085   0.846393
 Mulliken charges:
               1
     1  C    0.523737
     2  H   -0.009862
     3  H    0.077626
     4  H   -0.099781
     5  C    0.436506
     6  O   -0.904807
     7  N   -0.680687
     8  H   -0.041531
     9  C   -0.395535
    10  C    1.053047
    11  C   -0.113377
    12  C    0.484012
    13  H   -0.644928
    14  H   -0.489245
    15  H   -0.689198
    16  C    1.433420
    17  H   -0.656433
    18  C    2.119388
    19  C   -1.417782
    20  N   -0.606503
    21  C    0.756183
    22  H   -0.596747
    23  S    0.457789
    24  C    0.609269
    25  N   -0.711976
    26  C    1.334357
    27  N   -0.087981
    28  H    0.015498
    29  H    0.095417
    30  N   -0.261127
    31  H    0.026983
    32  H   -0.006038
    33  H   -0.009693
 Sum of Mulliken charges =   1.00000
 Mulliken charges with hydrogens summed into heavy atoms:
               1
     1  C    0.491720
     5  C    0.436506
     6  O   -0.904807
     7  N   -0.722218
     9  C   -0.395535
    10  C    0.363849
    11  C   -0.602623
    12  C   -0.160916
    16  C    0.776987
    18  C    2.119388
    19  C   -1.417782
    20  N   -0.606503
    21  C    0.159436
    23  S    0.457789
    24  C    0.609269
    25  N   -0.721669
    26  C    1.334357
    27  N    0.022934
    30  N   -0.240182
 Electronic spatial extent (au):  <R**2>=           6846.7696
 Charge=              1.0000 electrons
 Dipole moment (field-independent basis, Debye):
    X=             -9.1432    Y=              6.2204    Z=              0.0684  Tot=             11.0588
 Quadrupole moment (field-independent basis, Debye-Ang):
   XX=            -14.3689   YY=            -67.6403   ZZ=           -124.5771
   XY=            -26.9361   XZ=             -0.3068   YZ=              0.5309
 Traceless Quadrupole moment (field-independent basis, Debye-Ang):
   XX=             54.4932   YY=              1.2218   ZZ=            -55.7150
   XY=            -26.9361   XZ=             -0.3068   YZ=              0.5309
 Octapole moment (field-independent basis, Debye-Ang**2):
  XXX=           -118.1871  YYY=             98.1402  ZZZ=             -1.2004  XYY=            -96.5217
  XXY=            171.1283  XXZ=             -1.0229  XZZ=             -3.8763  YZZ=             19.8849
  YYZ=              2.8284  XYZ=             -3.6370
 Hexadecapole moment (field-independent basis, Debye-Ang**3):
 XXXX=          -3580.6522 YYYY=          -2232.9057 ZZZZ=           -143.5087 XXXY=           -454.5064
 XXXZ=              1.7243 YYYX=           -373.9925 YYYZ=             14.7301 ZZZX=             -6.1194
 ZZZY=             -2.4149 XXYY=           -856.2478 XXZZ=          -1081.7162 YYZZ=           -569.9691
 XXYZ=             -3.4283 YYXZ=             -6.6261 ZZXY=             25.6661
 N-N= 1.484250118363D+03 E-N=-5.789158911747D+03  KE= 1.206004152758D+03
 Leave Link  601 at Sun Jul 18 17:37:05 2021, MaxMem=   262144000 cpu:               0.6 elap:               0.2
 (Enter /prod/apps/gaussian/g16b1/l9999.exe)
 1\1\GINC-PIRINEUS35\SP\RMP2-FC\Aug-CC-pVDZ\C12H14N5O1S1(1+)\UBATOR02\1
 8-Jul-2021\0\\#p mp2/aug-cc-pVDZ scf=tight maxdisk=180GB geom=allcheck
 \\SET_328_BBB321_conf1.geo_180_330_045 geometry\\1,1\C,0,3.8174523405,
 -1.0911316422,2.5555763652\H,0,3.4677041163,-1.0654401488,3.5882460152
 \H,0,4.5475282946,-0.2855707856,2.4256173136\H,0,4.3176871241,-2.04207
 97525,2.3633020801\C,0,2.6386349261,-0.8458062212,1.636110549\O,0,1.70
 98294847,-0.1042293025,1.9614164058\N,0,2.7172540212,-1.4869786193,0.4
 290584188\H,0,3.5365143994,-2.0651896375,0.2833055673\C,0,1.8209023348
 ,-1.4353734973,-0.6562495669\C,0,2.1347409079,-2.1869287825,-1.7996433
 461\C,0,1.2784726733,-2.1702605203,-2.8980347487\C,0,0.108760258,-1.41
 53546061,-2.8791649702\H,0,-0.548617194,-1.414235751,-3.7411848769\H,0
 ,1.5290028124,-2.7546897809,-3.7770552642\H,0,3.0428226928,-2.78022236
 11,-1.8270427843\C,0,0.6446009079,-0.6739697986,-0.6336030682\H,0,0.40
 73906088,-0.0979470732,0.2438375502\C,0,-0.2134713174,-0.6607793527,-1
 .7412008463\C,0,-1.4428851208,0.1507341711,-1.6875070497\N,0,-1.739505
 6491,0.861819514,-0.5303096\C,0,-2.362877156,0.2914204988,-2.689269835
 9\H,0,-2.3612784146,-0.1489567981,-3.6731657478\S,0,-3.6583105432,1.34
 02016428,-2.2037373546\C,0,-2.8535592852,1.5222843269,-0.6505973266\N,
 0,-3.4168245001,2.3222553223,0.3289526182\C,0,-2.9206428657,2.54330770
 25,1.5828743915\N,0,-1.7972804083,1.969727557,1.9829705529\H,0,-1.4423
 449469,2.1556107125,2.9160777059\H,0,-1.2852269399,1.3650772784,1.3427
 803166\N,0,-3.6081940929,3.354373733,2.3806925589\H,0,-3.281172992,3.5
 397047407,3.3234163552\H,0,-4.4767157992,3.7778907875,2.0716287156\H,0
 ,-4.2913906774,2.7937364439,0.1059029065\\Version=ES64L-G16RevB.01\Sta
 te=1-A\HF=-1207.1659468\MP2=-1209.9822186\RMSD=5.870e-09\PG=C01 [X(C12
 H14N5O1S1)]\\@


 A COMPLEXITY IS MERELY A DISARRANGEMENT OF SIMPLICITIES.

                                    -- G. O. ABELL IN "EXPLORATION OF THE UNIVERSE"
 Job cpu time:       0 days  1 hours 56 minutes 42.1 seconds.
 Elapsed time:       0 days  0 hours 31 minutes 13.6 seconds.
 File lengths (MBytes):  RWF=  90984 Int=      0 D2E=      0 Chk=     27 Scr=      1
 Normal termination of Gaussian 16 at Sun Jul 18 17:37:07 2021.
