 Entering Gaussian System, Link 0=g16
 Initial command:
 /prod/apps/gaussian/g16b1/l1.exe "/tmp/ubator02/1839563/Gau-127179.inp" -scrdir="/tmp/ubator02/1839563/"
 Entering Link 1 = /prod/apps/gaussian/g16b1/l1.exe PID=    127181.
  
 Copyright (c) 1988-2017, Gaussian, Inc.  All Rights Reserved.
  
 This is part of the Gaussian(R) 16 program.  It is based on
 the Gaussian(R) 09 system (copyright 2009, Gaussian, Inc.),
 the Gaussian(R) 03 system (copyright 2003, Gaussian, Inc.),
 the Gaussian(R) 98 system (copyright 1998, Gaussian, Inc.),
 the Gaussian(R) 94 system (copyright 1995, Gaussian, Inc.),
 the Gaussian 92(TM) system (copyright 1992, Gaussian, Inc.),
 the Gaussian 90(TM) system (copyright 1990, Gaussian, Inc.),
 the Gaussian 88(TM) system (copyright 1988, Gaussian, Inc.),
 the Gaussian 86(TM) system (copyright 1986, Carnegie Mellon
 University), and the Gaussian 82(TM) system (copyright 1983,
 Carnegie Mellon University). Gaussian is a federally registered
 trademark of Gaussian, Inc.
  
 This software contains proprietary and confidential information,
 including trade secrets, belonging to Gaussian, Inc.
  
 This software is provided under written license and may be
 used, copied, transmitted, or stored only in accord with that
 written license.
  
 The following legend is applicable only to US Government
 contracts under FAR:
  
                    RESTRICTED RIGHTS LEGEND
  
 Use, reproduction and disclosure by the US Government is
 subject to restrictions as set forth in subparagraphs (a)
 and (c) of the Commercial Computer Software - Restricted
 Rights clause in FAR 52.227-19.
  
 Gaussian, Inc.
 340 Quinnipiac St., Bldg. 40, Wallingford CT 06492
  
  
 ---------------------------------------------------------------
 Warning -- This program may not be used in any manner that
 competes with the business of Gaussian, Inc. or will provide
 assistance to any competitor of Gaussian, Inc.  The licensee
 of this program is prohibited from giving any competitor of
 Gaussian, Inc. access to this program.  By using this program,
 the user acknowledges that Gaussian, Inc. is engaged in the
 business of creating and licensing software in the field of
 computational chemistry and represents and warrants to the
 licensee that it is not a competitor of Gaussian, Inc. and that
 it will not use this program in any manner prohibited above.
 ---------------------------------------------------------------
  

 Cite this work as:
 Gaussian 16, Revision B.01,
 M. J. Frisch, G. W. Trucks, H. B. Schlegel, G. E. Scuseria, 
 M. A. Robb, J. R. Cheeseman, G. Scalmani, V. Barone, 
 G. A. Petersson, H. Nakatsuji, X. Li, M. Caricato, A. V. Marenich, 
 J. Bloino, B. G. Janesko, R. Gomperts, B. Mennucci, H. P. Hratchian, 
 J. V. Ortiz, A. F. Izmaylov, J. L. Sonnenberg, D. Williams-Young, 
 F. Ding, F. Lipparini, F. Egidi, J. Goings, B. Peng, A. Petrone, 
 T. Henderson, D. Ranasinghe, V. G. Zakrzewski, J. Gao, N. Rega, 
 G. Zheng, W. Liang, M. Hada, M. Ehara, K. Toyota, R. Fukuda, 
 J. Hasegawa, M. Ishida, T. Nakajima, Y. Honda, O. Kitao, H. Nakai, 
 T. Vreven, K. Throssell, J. A. Montgomery, Jr., J. E. Peralta, 
 F. Ogliaro, M. J. Bearpark, J. J. Heyd, E. N. Brothers, K. N. Kudin, 
 V. N. Staroverov, T. A. Keith, R. Kobayashi, J. Normand, 
 K. Raghavachari, A. P. Rendell, J. C. Burant, S. S. Iyengar, 
 J. Tomasi, M. Cossi, J. M. Millam, M. Klene, C. Adamo, R. Cammi, 
 J. W. Ochterski, R. L. Martin, K. Morokuma, O. Farkas, 
 J. B. Foresman, and D. J. Fox, Gaussian, Inc., Wallingford CT, 2016.
 
 ******************************************
 Gaussian 16:  ES64L-G16RevB.01 20-Dec-2017
                18-Jul-2021 
 ******************************************
 %mem=800MB
 %nproc=4
 Will use up to    4 processors via shared memory.
 %chk=SET_328_BBB272_conf1.geo_195_315_180.chk
 -----------------------------------------------------------
 #p b3lyp/6-31G(d) opt freq scrf=(iefpcm,read,solvent=water)
 -----------------------------------------------------------
 1/18=20,19=15,26=3,38=1,40=2/1,3;
 2/9=110,12=2,17=6,18=5,40=1/2;
 3/5=1,6=6,7=1,11=2,25=1,30=1,70=2203,71=1,72=1,74=-5/1,2,3;
 4//1;
 5/5=2,38=5,53=1/2;
 6/7=2,8=2,9=2,10=2,28=1/1;
 7//1,2,3,16;
 1/18=20,19=15,26=3/3(2);
 2/9=110/2;
 99//99;
 2/9=110/2;
 3/5=1,6=6,7=1,11=2,25=1,30=1,70=2205,71=1,72=1,74=-5/1,2,3;
 4/5=5,16=3,69=1/1;
 5/5=2,38=5,53=1/2;
 7//1,2,3,16;
 1/18=20,19=15,26=3/3(-5);
 2/9=110/2;
 6/7=2,8=2,9=2,10=2,19=2,28=1/1;
 99/9=1/99;
 Leave Link    1 at Sun Jul 18 13:42:44 2021, MaxMem=   104857600 cpu:               0.1 elap:               0.0
 (Enter /prod/apps/gaussian/g16b1/l101.exe)
 ---------------------------------------------
 SET_328_BBB272_conf1.geo_195_315_180 geometry
 ---------------------------------------------
 Symbolic Z-matrix:
 Charge = -1 Multiplicity = 1
 C                    -0.877     2.677    -2.047 
 H                    -0.182     2.892    -2.861 
 H                    -0.785     3.35     -1.192 
 H                    -1.856     2.66     -2.531 
 C                    -0.751     1.256    -1.61 
 O                    -0.775     0.406    -2.471 
 O                    -0.386     1.137    -0.297 
 C                    -0.227    -0.15      0.205 
 C                     0.903    -0.44      1.032 
 C                     2.003     0.516     1.361 
 O                     1.746     1.757     1.223 
 O                     3.123     0.146     1.672 
 C                     1.031    -1.744     1.466 
 H                     1.864    -2.164     2.023 
 C                     0.135    -2.703     1.219 
 H                     0.323    -3.671     1.678 
 C                    -0.959    -2.416     0.412 
 H                    -1.762    -3.11      0.178 
 C                    -1.177    -1.131    -0.118 
 H                    -2.167    -0.947    -0.527 
 
 ITRead=  0  0  0  0  0  0  0  0  0  0  0  0  0  0  0  0  0  0  0  0
 MicOpt= -1 -1 -1 -1 -1 -1 -1 -1 -1 -1 -1 -1 -1 -1 -1 -1 -1 -1 -1 -1
 NAtoms=     20 NQM=       20 NQMF=       0 NMMI=      0 NMMIF=      0
                NMic=       0 NMicF=      0.
                    Isotopes and Nuclear Properties:
 (Nuclear quadrupole moments (NQMom) in fm**2, nuclear magnetic moments (NMagM)
  in nuclear magnetons)

  Atom         1           2           3           4           5           6           7           8           9          10
 IAtWgt=          12           1           1           1          12          16          16          12          12          12
 AtmWgt=  12.0000000   1.0078250   1.0078250   1.0078250  12.0000000  15.9949146  15.9949146  12.0000000  12.0000000  12.0000000
 NucSpn=           0           1           1           1           0           0           0           0           0           0
 AtZEff=  -0.0000000  -0.0000000  -0.0000000  -0.0000000  -0.0000000  -0.0000000  -0.0000000  -0.0000000  -0.0000000  -0.0000000
 NQMom=    0.0000000   0.0000000   0.0000000   0.0000000   0.0000000   0.0000000   0.0000000   0.0000000   0.0000000   0.0000000
 NMagM=    0.0000000   2.7928460   2.7928460   2.7928460   0.0000000   0.0000000   0.0000000   0.0000000   0.0000000   0.0000000
 AtZNuc=   6.0000000   1.0000000   1.0000000   1.0000000   6.0000000   8.0000000   8.0000000   6.0000000   6.0000000   6.0000000

  Atom        11          12          13          14          15          16          17          18          19          20
 IAtWgt=          16          16          12           1          12           1          12           1          12           1
 AtmWgt=  15.9949146  15.9949146  12.0000000   1.0078250  12.0000000   1.0078250  12.0000000   1.0078250  12.0000000   1.0078250
 NucSpn=           0           0           0           1           0           1           0           1           0           1
 AtZEff=  -0.0000000  -0.0000000  -0.0000000  -0.0000000  -0.0000000  -0.0000000  -0.0000000  -0.0000000  -0.0000000  -0.0000000
 NQMom=    0.0000000   0.0000000   0.0000000   0.0000000   0.0000000   0.0000000   0.0000000   0.0000000   0.0000000   0.0000000
 NMagM=    0.0000000   0.0000000   0.0000000   2.7928460   0.0000000   2.7928460   0.0000000   2.7928460   0.0000000   2.7928460
 AtZNuc=   8.0000000   8.0000000   6.0000000   1.0000000   6.0000000   1.0000000   6.0000000   1.0000000   6.0000000   1.0000000
 Leave Link  101 at Sun Jul 18 13:42:45 2021, MaxMem=   104857600 cpu:               0.5 elap:               0.1
 (Enter /prod/apps/gaussian/g16b1/l103.exe)

 GradGradGradGradGradGradGradGradGradGradGradGradGradGradGradGradGradGrad
 Berny optimization.
 Initialization pass.
                           ----------------------------
                           !    Initial Parameters    !
                           ! (Angstroms and Degrees)  !
 --------------------------                            --------------------------
 ! Name  Definition              Value          Derivative Info.                !
 --------------------------------------------------------------------------------
 ! R1    R(1,2)                  1.0917         estimate D2E/DX2                !
 ! R2    R(1,3)                  1.092          estimate D2E/DX2                !
 ! R3    R(1,4)                  1.0922         estimate D2E/DX2                !
 ! R4    R(1,5)                  1.492          estimate D2E/DX2                !
 ! R5    R(5,6)                  1.2101         estimate D2E/DX2                !
 ! R6    R(5,7)                  1.368          estimate D2E/DX2                !
 ! R7    R(7,8)                  1.3906         estimate D2E/DX2                !
 ! R8    R(8,9)                  1.43           estimate D2E/DX2                !
 ! R9    R(8,19)                 1.4033         estimate D2E/DX2                !
 ! R10   R(9,10)                 1.494          estimate D2E/DX2                !
 ! R11   R(9,13)                 1.3803         estimate D2E/DX2                !
 ! R12   R(10,11)                1.2748         estimate D2E/DX2                !
 ! R13   R(10,12)                1.2198         estimate D2E/DX2                !
 ! R14   R(13,14)                1.0865         estimate D2E/DX2                !
 ! R15   R(13,15)                1.3355         estimate D2E/DX2                !
 ! R16   R(15,16)                1.0877         estimate D2E/DX2                !
 ! R17   R(15,17)                1.3894         estimate D2E/DX2                !
 ! R18   R(17,18)                1.0868         estimate D2E/DX2                !
 ! R19   R(17,19)                1.407          estimate D2E/DX2                !
 ! R20   R(19,20)                1.0868         estimate D2E/DX2                !
 ! A1    A(2,1,3)              114.129          estimate D2E/DX2                !
 ! A2    A(2,1,4)              104.0799         estimate D2E/DX2                !
 ! A3    A(2,1,5)              110.6213         estimate D2E/DX2                !
 ! A4    A(3,1,4)              115.5989         estimate D2E/DX2                !
 ! A5    A(3,1,5)              110.52           estimate D2E/DX2                !
 ! A6    A(4,1,5)              100.9913         estimate D2E/DX2                !
 ! A7    A(1,5,6)              117.3168         estimate D2E/DX2                !
 ! A8    A(1,5,7)              112.7373         estimate D2E/DX2                !
 ! A9    A(6,5,7)              128.8361         estimate D2E/DX2                !
 ! A10   A(5,7,8)              117.2271         estimate D2E/DX2                !
 ! A11   A(7,8,9)              119.132          estimate D2E/DX2                !
 ! A12   A(7,8,19)             119.1116         estimate D2E/DX2                !
 ! A13   A(9,8,19)             121.7559         estimate D2E/DX2                !
 ! A14   A(8,9,10)             125.4068         estimate D2E/DX2                !
 ! A15   A(8,9,13)             116.5328         estimate D2E/DX2                !
 ! A16   A(10,9,13)            117.8395         estimate D2E/DX2                !
 ! A17   A(9,10,11)            116.7842         estimate D2E/DX2                !
 ! A18   A(9,10,12)            122.551          estimate D2E/DX2                !
 ! A19   A(11,10,12)           120.5283         estimate D2E/DX2                !
 ! A20   A(9,13,14)            126.6896         estimate D2E/DX2                !
 ! A21   A(9,13,15)            123.9203         estimate D2E/DX2                !
 ! A22   A(14,13,15)           109.3661         estimate D2E/DX2                !
 ! A23   A(13,15,16)           116.4275         estimate D2E/DX2                !
 ! A24   A(13,15,17)           119.1676         estimate D2E/DX2                !
 ! A25   A(16,15,17)           124.4048         estimate D2E/DX2                !
 ! A26   A(15,17,18)           125.0933         estimate D2E/DX2                !
 ! A27   A(15,17,19)           121.9675         estimate D2E/DX2                !
 ! A28   A(18,17,19)           112.8056         estimate D2E/DX2                !
 ! A29   A(8,19,17)            116.5427         estimate D2E/DX2                !
 ! A30   A(8,19,20)            125.7979         estimate D2E/DX2                !
 ! A31   A(17,19,20)           115.9448         estimate D2E/DX2                !
 ! D1    D(2,1,5,6)            -49.3986         estimate D2E/DX2                !
 ! D2    D(2,1,5,7)            119.6329         estimate D2E/DX2                !
 ! D3    D(3,1,5,6)           -176.7868         estimate D2E/DX2                !
 ! D4    D(3,1,5,7)             -7.7552         estimate D2E/DX2                !
 ! D5    D(4,1,5,6)             60.3486         estimate D2E/DX2                !
 ! D6    D(4,1,5,7)           -130.6198         estimate D2E/DX2                !
 ! D7    D(1,5,7,8)           -179.3129         estimate D2E/DX2                !
 ! D8    D(6,5,7,8)            -11.8473         estimate D2E/DX2                !
 ! D9    D(5,7,8,9)            136.2239         estimate D2E/DX2                !
 ! D10   D(5,7,8,19)           -43.5203         estimate D2E/DX2                !
 ! D11   D(7,8,9,10)            -3.5442         estimate D2E/DX2                !
 ! D12   D(7,8,9,13)          -178.0047         estimate D2E/DX2                !
 ! D13   D(19,8,9,10)          176.1931         estimate D2E/DX2                !
 ! D14   D(19,8,9,13)            1.7325         estimate D2E/DX2                !
 ! D15   D(7,8,19,17)          179.6228         estimate D2E/DX2                !
 ! D16   D(7,8,19,20)          -15.9714         estimate D2E/DX2                !
 ! D17   D(9,8,19,17)           -0.1145         estimate D2E/DX2                !
 ! D18   D(9,8,19,20)          164.2913         estimate D2E/DX2                !
 ! D19   D(8,9,10,11)           20.7517         estimate D2E/DX2                !
 ! D20   D(8,9,10,12)         -155.0178         estimate D2E/DX2                !
 ! D21   D(13,9,10,11)        -164.8532         estimate D2E/DX2                !
 ! D22   D(13,9,10,12)          19.3772         estimate D2E/DX2                !
 ! D23   D(8,9,13,14)          174.2213         estimate D2E/DX2                !
 ! D24   D(8,9,13,15)           -3.8058         estimate D2E/DX2                !
 ! D25   D(10,9,13,14)          -0.6739         estimate D2E/DX2                !
 ! D26   D(10,9,13,15)        -178.701          estimate D2E/DX2                !
 ! D27   D(9,13,15,16)        -175.8424         estimate D2E/DX2                !
 ! D28   D(9,13,15,17)           4.0703         estimate D2E/DX2                !
 ! D29   D(14,13,15,16)          5.8344         estimate D2E/DX2                !
 ! D30   D(14,13,15,17)       -174.2529         estimate D2E/DX2                !
 ! D31   D(13,15,17,18)       -177.6762         estimate D2E/DX2                !
 ! D32   D(13,15,17,19)         -2.1853         estimate D2E/DX2                !
 ! D33   D(16,15,17,18)          2.2291         estimate D2E/DX2                !
 ! D34   D(16,15,17,19)        177.7199         estimate D2E/DX2                !
 ! D35   D(15,17,19,8)           0.2906         estimate D2E/DX2                !
 ! D36   D(15,17,19,20)       -165.6768         estimate D2E/DX2                !
 ! D37   D(18,17,19,8)         176.2891         estimate D2E/DX2                !
 ! D38   D(18,17,19,20)         10.3217         estimate D2E/DX2                !
 --------------------------------------------------------------------------------
 Trust Radius=3.00D-01 FncErr=1.00D-07 GrdErr=1.00D-06 EigMax=2.50D+02 EigMin=1.00D-04
 Number of steps in this run=     99 maximum allowed number of steps=    120.
 GradGradGradGradGradGradGradGradGradGradGradGradGradGradGradGradGradGrad

 Leave Link  103 at Sun Jul 18 13:42:45 2021, MaxMem=   104857600 cpu:               0.0 elap:               0.0
 (Enter /prod/apps/gaussian/g16b1/l202.exe)
                          Input orientation:                          
 ---------------------------------------------------------------------
 Center     Atomic      Atomic             Coordinates (Angstroms)
 Number     Number       Type             X           Y           Z
 ---------------------------------------------------------------------
      1          6           0       -0.877000    2.677000   -2.047000
      2          1           0       -0.182000    2.892000   -2.861000
      3          1           0       -0.785000    3.350000   -1.192000
      4          1           0       -1.856000    2.660000   -2.531000
      5          6           0       -0.751000    1.256000   -1.610000
      6          8           0       -0.775000    0.406000   -2.471000
      7          8           0       -0.386000    1.137000   -0.297000
      8          6           0       -0.227000   -0.150000    0.205000
      9          6           0        0.903000   -0.440000    1.032000
     10          6           0        2.003000    0.516000    1.361000
     11          8           0        1.746000    1.757000    1.223000
     12          8           0        3.123000    0.146000    1.672000
     13          6           0        1.031000   -1.744000    1.466000
     14          1           0        1.864000   -2.164000    2.023000
     15          6           0        0.135000   -2.703000    1.219000
     16          1           0        0.323000   -3.671000    1.678000
     17          6           0       -0.959000   -2.416000    0.412000
     18          1           0       -1.762000   -3.110000    0.178000
     19          6           0       -1.177000   -1.131000   -0.118000
     20          1           0       -2.167000   -0.947000   -0.527000
 ---------------------------------------------------------------------
                    Distance matrix (angstroms):
                    1          2          3          4          5
     1  C    0.000000
     2  H    1.091717   0.000000
     3  H    1.091979   1.832739   0.000000
     4  H    1.092239   1.721918   1.848259   0.000000
     5  C    1.492007   2.136646   2.135583   2.010095   0.000000
     6  O    2.312492   2.585333   3.209841   2.500535   1.210123
     7  O    2.382264   3.113798   2.420247   3.077529   1.367975
     8  C    3.672320   4.319276   3.809590   4.246815   2.354918
     9  C    4.729094   5.237833   4.707401   5.469648   3.548563
    10  C    4.957700   5.314592   4.724649   5.885260   4.118125
    11  O    4.291786   4.656658   3.843935   5.280372   3.809449
    12  O    6.019711   6.245929   5.808664   6.983971   5.197259
    13  C    5.960442   6.456531   6.025915   6.611051   4.651591
    14  H    6.892986   7.321387   6.910689   7.605806   5.633233
    15  C    6.374582   6.931877   6.580131   6.840201   4.945899
    16  H    7.457394   7.995656   7.665442   7.908558   6.019946
    17  C    5.656152   6.284196   5.987474   5.935624   4.197062
    18  H    6.262844   6.910566   6.675555   6.374984   4.825041
    19  C    4.279241   4.969769   4.624554   4.544809   2.846982
    20  H    4.136167   4.911792   4.562495   4.138017   2.833929
                    6          7          8          9         10
     6  O    0.000000
     7  O    2.326362   0.000000
     8  C    2.787547   1.390559   0.000000
     9  C    3.975224   2.432014   1.430010   0.000000
    10  C    4.734301   2.973538   2.598613   1.494047   0.000000
    11  O    4.671860   2.690766   2.926722   2.360919   1.274823
    12  O    5.694423   4.143926   3.669088   2.383568   1.219845
    13  C    4.835711   3.662816   2.390297   1.380274   2.462399
    14  H    5.810788   4.619686   3.425434   2.208569   2.764049
    15  C    4.910202   4.161165   2.770749   2.397074   3.724453
    16  H    5.919606   5.245967   3.856121   3.345606   4.522594
    17  C    4.038469   3.668081   2.390278   2.784963   4.274420
    18  H    4.511499   4.489545   3.334450   3.867873   5.359346
    19  C    2.839116   2.408640   1.403278   2.475153   3.874590
    20  H    2.747255   2.750985   2.221403   3.480292   4.805602
                   11         12         13         14         15
    11  O    0.000000
    12  O    2.166345   0.000000
    13  C    3.581519   2.826836   0.000000
    14  H    4.003519   2.654125   1.086526   0.000000
    15  C    4.742039   4.153330   1.335480   1.981509   0.000000
    16  H    5.629844   4.733870   2.063865   2.182832   1.087681
    17  C    5.038718   4.981382   2.350021   3.260085   1.389408
    18  H    6.089809   6.057788   3.365375   4.176939   2.201804
    19  C    4.322355   4.829579   2.785694   3.859877   2.445424
    20  H    5.068105   5.832182   3.851553   4.922657   3.381014
                   16         17         18         19         20
    16  H    0.000000
    17  C    2.195747   0.000000
    18  H    2.629058   1.086831   0.000000
    19  C    3.453580   1.407000   2.084774   0.000000
    20  H    4.299105   2.121072   2.310762   1.086847   0.000000
 Stoichiometry    C9H7O4(1-)
 Framework group  C1[X(C9H7O4)]
 Deg. of freedom    54
 Full point group                 C1      NOp   1
 Largest Abelian subgroup         C1      NOp   1
 Largest concise Abelian subgroup C1      NOp   1
                         Standard orientation:                         
 ---------------------------------------------------------------------
 Center     Atomic      Atomic             Coordinates (Angstroms)
 Number     Number       Type             X           Y           Z
 ---------------------------------------------------------------------
      1          6           0        3.530543    0.723650   -0.116815
      2          1           0        3.903029    1.154995    0.814336
      3          1           0        3.310730    1.459484   -0.893119
      4          1           0        4.277256   -0.029395   -0.378213
      5          6           0        2.338537   -0.135561    0.141960
      6          8           0        2.427767   -0.957571    1.025551
      7          8           0        1.220427    0.299572   -0.515189
      8          6           0        0.049343   -0.426430   -0.327743
      9          6           0       -1.177241    0.275291   -0.108635
     10          6           0       -1.316331    1.757750    0.014430
     11          8           0       -0.375507    2.465573   -0.474457
     12          8           0       -2.237123    2.282701    0.618244
     13          6           0       -2.298825   -0.497985    0.113291
     14          1           0       -3.289543   -0.142445    0.382747
     15          6           0       -2.306461   -1.832388    0.060222
     16          1           0       -3.272337   -2.316356    0.186352
     17          6           0       -1.110971   -2.508583   -0.149579
     18          1           0       -1.011308   -3.586611   -0.245095
     19          6           0        0.103748   -1.828421   -0.353266
     20          1           0        0.923601   -2.425815   -0.743390
 ---------------------------------------------------------------------
 Rotational constants (GHZ):           1.0858368           0.7199502           0.4621845
 Leave Link  202 at Sun Jul 18 13:42:45 2021, MaxMem=   104857600 cpu:               0.1 elap:               0.0
 (Enter /prod/apps/gaussian/g16b1/l301.exe)
 Standard basis: 6-31G(d) (6D, 7F)
 Ernie: Thresh=  0.10000D-02 Tol=  0.10000D-05 Strict=F.
 There are   209 symmetry adapted cartesian basis functions of A   symmetry.
 There are   209 symmetry adapted basis functions of A   symmetry.
   209 basis functions,   392 primitive gaussians,   209 cartesian basis functions
    47 alpha electrons       47 beta electrons
       nuclear repulsion energy       758.1411588684 Hartrees.
 IExCor=  402 DFT=T Ex+Corr=B3LYP ExCW=0 ScaHFX=  0.200000
 ScaDFX=  0.800000  0.720000  1.000000  0.810000 ScalE2=  1.000000  1.000000
 IRadAn=      5 IRanWt=     -1 IRanGd=            0 ICorTp=0 IEmpDi=  4
 NAtoms=   20 NActive=   20 NUniq=   20 SFac= 1.00D+00 NAtFMM=   60 NAOKFM=F Big=F
 Integral buffers will be    131072 words long.
 Raffenetti 2 integral format.
 Two-electron integral symmetry is turned on.
 Using the following non-standard input for PCM:
 MSTModel=DFT cav MSTCharged
 --- end of non-standard input.
 MST model for solvation energy: B3LYP parametrization.
 MST cavity parameters:
 ISph   IAn     Re0     Alpha   Atom Type   QCorr
 ------------------------------------------------
   1      6     1.50     1.25      CH3        F
   2      1     1.20     1.25      CH3        F
   3      1     1.20     1.25      CH3        F
   4      1     1.20     1.25      CH3        F
   5      6     1.50     1.25      C          F
   6      8     1.40     1.25      O          F
   7      8     1.40     1.25      O          F
   8      6     1.50     1.25      C          F
   9      6     1.50     1.25      C          F
  10      6     1.50     1.15      C          T
  11      8     1.40     1.15      O          T
  12      8     1.40     1.15      O          T
  13      6     1.50     1.25      CH         F
  14      1     1.20     1.25      CH         F
  15      6     1.50     1.25      CH         F
  16      1     1.20     1.25      CH         F
  17      6     1.50     1.25      CH         F
  18      1     1.20     1.25      CH         F
  19      6     1.50     1.25      CH         F
  20      1     1.20     1.25      CH         F
 ------------------------------------------------------------------------------
 Polarizable Continuum Model (PCM)
 =================================
 Model                : PCM.
 Atomic radii         : MST.
 Polarization charges : Total charges.
 Charge compensation  : None.
 Solution method      : On-the-fly selection.
 Cavity type          : Scaled VdW (van der Waals Surface) (Alpha=1.250).
 Cavity algorithm     : GePol (No added spheres)
                        Default sphere list used, NSphG=   20.
                        Lebedev-Laikov grids with approx.  5.0 points / Ang**2.
                        Smoothing algorithm: York/Karplus (Gamma=1.0000).
                        Polarization charges: spherical gaussians, with
                                              point-specific exponents (IZeta= 3).
                        Self-potential: point-specific (ISelfS= 7).
                        Self-field    : sphere-specific E.n sum rule (ISelfD= 2).
 1st derivatives      : Analytical E(r).r(x)/FMM algorithm (CHGder, D1EAlg=3).
                        Cavity 1st derivative terms included.
 Solvent              : Water, Eps=  78.355300 Eps(inf)=   1.777849
 ------------------------------------------------------------------------------
 Spheres list:
 ISph  on   Nord     Re0    Alpha      Xe            Ye            Ze
    1   C      1    1.5000  1.250      3.530543      0.723650     -0.116815
    2   H      2    1.2000  1.250      3.903029      1.154995      0.814336
    3   H      3    1.2000  1.250      3.310730      1.459484     -0.893119
    4   H      4    1.2000  1.250      4.277256     -0.029395     -0.378213
    5   C      5    1.5000  1.250      2.338537     -0.135561      0.141960
    6   O      6    1.4000  1.250      2.427767     -0.957571      1.025551
    7   O      7    1.4000  1.250      1.220427      0.299572     -0.515189
    8   C      8    1.5000  1.250      0.049343     -0.426430     -0.327743
    9   C      9    1.5000  1.250     -1.177241      0.275291     -0.108635
   10   C     10    1.5000  1.150     -1.316331      1.757750      0.014430
   11   O     11    1.4000  1.150     -0.375507      2.465573     -0.474457
   12   O     12    1.4000  1.150     -2.237123      2.282701      0.618244
   13   C     13    1.5000  1.250     -2.298825     -0.497985      0.113291
   14   H     14    1.2000  1.250     -3.289543     -0.142445      0.382747
   15   C     15    1.5000  1.250     -2.306461     -1.832388      0.060222
   16   H     16    1.2000  1.250     -3.272337     -2.316356      0.186352
   17   C     17    1.5000  1.250     -1.110971     -2.508583     -0.149579
   18   H     18    1.2000  1.250     -1.011308     -3.586611     -0.245095
   19   C     19    1.5000  1.250      0.103748     -1.828421     -0.353266
   20   H     20    1.2000  1.250      0.923601     -2.425815     -0.743390
 ------------------------------------------------------------------------------
 GePol: Number of generator spheres                  =      20
 GePol: Total number of spheres                      =      20
 GePol: Number of exposed spheres                    =      20 (100.00%)
 GePol: Number of points                             =    1616
 GePol: Average weight of points                     =       0.13
 GePol: Minimum weight of points                     =   0.57D-11
 GePol: Maximum weight of points                     =    0.22001
 GePol: Number of points with low weight             =     108
 GePol: Fraction of low-weight points (<1% of avg)   =       6.68%
 GePol: Cavity surface area                          =    217.770 Ang**2
 GePol: Cavity volume                                =    194.166 Ang**3
 PCM non-electrostatic energy =         0.0034219713 Hartrees.
 Nuclear repulsion after PCM non-electrostatic terms =      758.1445808397 Hartrees.
 Leave Link  301 at Sun Jul 18 13:42:45 2021, MaxMem=   104857600 cpu:               0.4 elap:               0.1
 (Enter /prod/apps/gaussian/g16b1/l302.exe)
 NPDir=0 NMtPBC=     1 NCelOv=     1 NCel=       1 NClECP=     1 NCelD=      1
         NCelK=      1 NCelE2=     1 NClLst=     1 CellRange=     0.0.
 One-electron integrals computed using PRISM.
 One-electron integral symmetry used in STVInt
 NBasis=   209 RedAO= T EigKep=  4.53D-04  NBF=   209
 NBsUse=   209 1.00D-06 EigRej= -1.00D+00 NBFU=   209
 Precomputing XC quadrature grid using
 IXCGrd= 4 IRadAn=           5 IRanWt=          -1 IRanGd=           0 AccXCQ= 0.00D+00.
 Generated NRdTot=       0 NPtTot=           0 NUsed=           0 NTot=          32
 NSgBfM=   208   208   208   208   208 MxSgAt=    20 MxSgA2=    20.
 Leave Link  302 at Sun Jul 18 13:42:45 2021, MaxMem=   104857600 cpu:               1.1 elap:               0.3
 (Enter /prod/apps/gaussian/g16b1/l303.exe)
 DipDrv:  MaxL=1.
 Leave Link  303 at Sun Jul 18 13:42:45 2021, MaxMem=   104857600 cpu:               0.1 elap:               0.0
 (Enter /prod/apps/gaussian/g16b1/l401.exe)
 ExpMin= 1.61D-01 ExpMax= 5.48D+03 ExpMxC= 8.25D+02 IAcc=3 IRadAn=         5 AccDes= 0.00D+00
 Harris functional with IExCor=  402 and IRadAn=       5 diagonalized for initial guess.
 HarFok:  IExCor=  402 AccDes= 0.00D+00 IRadAn=         5 IDoV= 1 UseB2=F ITyADJ=14
 ICtDFT=  3500011 ScaDFX=  1.000000  1.000000  1.000000  1.000000
 FoFCou: FMM=F IPFlag=           0 FMFlag=      100000 FMFlg1=           0
         NFxFlg=           0 DoJE=T BraDBF=F KetDBF=T FulRan=T
         wScrn=  0.000000 ICntrl=       500 IOpCl=  0 I1Cent=   200000004 NGrid=           0
         NMat0=    1 NMatS0=      1 NMatT0=    0 NMatD0=    1 NMtDS0=    0 NMtDT0=    0
 Petite list used in FoFCou.
 Harris En= -648.329851950171    
 JPrj=0 DoOrth=F DoCkMO=F.
 Leave Link  401 at Sun Jul 18 13:42:46 2021, MaxMem=   104857600 cpu:               4.5 elap:               1.1
 (Enter /prod/apps/gaussian/g16b1/l502.exe)
 Integral symmetry usage will be decided dynamically.
 Closed shell SCF:
 Using DIIS extrapolation, IDIIS=  1040.
 NGot=   104857600 LenX=   104766669 LenY=   104722547
 Requested convergence on RMS density matrix=1.00D-08 within 128 cycles.
 Requested convergence on MAX density matrix=1.00D-06.
 Requested convergence on             energy=1.00D-06.
 No special actions if energy rises.
 Fock matrices will be formed incrementally for  20 cycles.

 Cycle   1  Pass 1  IDiag  1:
 FoFJK:  IHMeth= 1 ICntrl=       0 DoSepK=F KAlg= 0 I1Cent=           0 FoldK=F
 IRaf= 880000000 NMat=       1 IRICut=       1 DoRegI=T DoRafI=F ISym2E= 0 IDoP0=0 IntGTp=1.
 FoFCou: FMM=F IPFlag=           0 FMFlag=      100000 FMFlg1=           0
         NFxFlg=           0 DoJE=F BraDBF=F KetDBF=F FulRan=T
         wScrn=  0.000000 ICntrl=         0 IOpCl=  0 I1Cent=           0 NGrid=           0
         NMat0=    1 NMatS0=      1 NMatT0=    0 NMatD0=    1 NMtDS0=    0 NMtDT0=    0
 Symmetry not used in FoFCou.
 Inv3:  Mode=1 IEnd=     7834368.
 Iteration    1 A*A^-1 deviation from unit magnitude is 2.44D-15 for     33.
 Iteration    1 A*A^-1 deviation from orthogonality  is 3.61D-15 for   1091    994.
 Iteration    1 A^-1*A deviation from unit magnitude is 2.66D-15 for   1450.
 Iteration    1 A^-1*A deviation from orthogonality  is 2.12D-13 for   1599   1581.
 E= -647.794815604717    
 DIIS: error= 3.46D-02 at cycle   1 NSaved=   1.
 NSaved= 1 IEnMin= 1 EnMin= -647.794815604717     IErMin= 1 ErrMin= 3.46D-02
 ErrMax= 3.46D-02  0.00D+00 EMaxC= 1.00D-01 BMatC= 4.81D-01 BMatP= 4.81D-01
 IDIUse=3 WtCom= 6.54D-01 WtEn= 3.46D-01
 Coeff-Com:  0.100D+01
 Coeff-En:   0.100D+01
 Coeff:      0.100D+01
 Gap=     0.235 Goal=   None    Shift=    0.000
 GapD=    0.235 DampG=1.000 DampE=0.500 DampFc=0.5000 IDamp=-1.
 Damping current iteration by 5.00D-01
 RMSDP=8.06D-03 MaxDP=1.85D-01              OVMax= 2.53D-01

 Cycle   2  Pass 1  IDiag  1:
 RMSU=  4.01D-03    CP:  9.83D-01
 E= -647.933591520497     Delta-E=       -0.138775915779 Rises=F Damp=T
 DIIS: error= 8.81D-03 at cycle   2 NSaved=   2.
 NSaved= 2 IEnMin= 2 EnMin= -647.933591520497     IErMin= 2 ErrMin= 8.81D-03
 ErrMax= 8.81D-03  0.00D+00 EMaxC= 1.00D-01 BMatC= 5.23D-02 BMatP= 4.81D-01
 IDIUse=3 WtCom= 9.12D-01 WtEn= 8.81D-02
 Coeff-Com:  0.177D+00 0.823D+00
 Coeff-En:   0.279D+00 0.721D+00
 Coeff:      0.186D+00 0.814D+00
 Gap=     0.170 Goal=   None    Shift=    0.000
 RMSDP=2.04D-03 MaxDP=4.84D-02 DE=-1.39D-01 OVMax= 1.81D-01

 Cycle   3  Pass 1  IDiag  1:
 RMSU=  1.88D-03    CP:  9.74D-01  8.08D-01
 E= -648.165564102307     Delta-E=       -0.231972581810 Rises=F Damp=F
 DIIS: error= 1.03D-02 at cycle   3 NSaved=   3.
 NSaved= 3 IEnMin= 3 EnMin= -648.165564102307     IErMin= 2 ErrMin= 8.81D-03
 ErrMax= 1.03D-02  0.00D+00 EMaxC= 1.00D-01 BMatC= 4.24D-02 BMatP= 5.23D-02
 IDIUse=3 WtCom= 8.97D-01 WtEn= 1.03D-01
 Coeff-Com:  0.534D-01 0.473D+00 0.474D+00
 Coeff-En:   0.000D+00 0.000D+00 0.100D+01
 Coeff:      0.479D-01 0.424D+00 0.528D+00
 Gap=     0.179 Goal=   None    Shift=    0.000
 RMSDP=1.16D-03 MaxDP=3.99D-02 DE=-2.32D-01 OVMax= 8.31D-02

 Cycle   4  Pass 1  IDiag  1:
 RMSU=  7.57D-04    CP:  9.78D-01  8.32D-01  5.35D-01
 E= -648.196447255598     Delta-E=       -0.030883153291 Rises=F Damp=F
 DIIS: error= 4.64D-03 at cycle   4 NSaved=   4.
 NSaved= 4 IEnMin= 4 EnMin= -648.196447255598     IErMin= 4 ErrMin= 4.64D-03
 ErrMax= 4.64D-03  0.00D+00 EMaxC= 1.00D-01 BMatC= 7.79D-03 BMatP= 4.24D-02
 IDIUse=3 WtCom= 9.54D-01 WtEn= 4.64D-02
 Coeff-Com:  0.113D-01 0.120D+00 0.313D+00 0.555D+00
 Coeff-En:   0.000D+00 0.000D+00 0.143D+00 0.857D+00
 Coeff:      0.108D-01 0.115D+00 0.305D+00 0.569D+00
 Gap=     0.173 Goal=   None    Shift=    0.000
 RMSDP=3.88D-04 MaxDP=1.55D-02 DE=-3.09D-02 OVMax= 2.79D-02

 Cycle   5  Pass 1  IDiag  1:
 RMSU=  2.39D-04    CP:  9.78D-01  8.24D-01  6.32D-01  6.79D-01
 E= -648.201682669123     Delta-E=       -0.005235413525 Rises=F Damp=F
 DIIS: error= 1.14D-03 at cycle   5 NSaved=   5.
 NSaved= 5 IEnMin= 5 EnMin= -648.201682669123     IErMin= 5 ErrMin= 1.14D-03
 ErrMax= 1.14D-03  0.00D+00 EMaxC= 1.00D-01 BMatC= 7.89D-04 BMatP= 7.79D-03
 IDIUse=3 WtCom= 9.89D-01 WtEn= 1.14D-02
 Coeff-Com:  0.160D-02 0.773D-02 0.115D+00 0.339D+00 0.537D+00
 Coeff-En:   0.000D+00 0.000D+00 0.000D+00 0.457D-01 0.954D+00
 Coeff:      0.159D-02 0.765D-02 0.114D+00 0.335D+00 0.542D+00
 Gap=     0.177 Goal=   None    Shift=    0.000
 RMSDP=1.32D-04 MaxDP=3.64D-03 DE=-5.24D-03 OVMax= 5.70D-03

 Cycle   6  Pass 1  IDiag  1:
 RMSU=  6.24D-05    CP:  9.77D-01  8.21D-01  6.40D-01  7.23D-01  5.44D-01
 E= -648.202281006691     Delta-E=       -0.000598337568 Rises=F Damp=F
 DIIS: error= 2.18D-04 at cycle   6 NSaved=   6.
 NSaved= 6 IEnMin= 6 EnMin= -648.202281006691     IErMin= 6 ErrMin= 2.18D-04
 ErrMax= 2.18D-04  0.00D+00 EMaxC= 1.00D-01 BMatC= 3.11D-05 BMatP= 7.89D-04
 IDIUse=3 WtCom= 9.98D-01 WtEn= 2.18D-03
 Coeff-Com:  0.273D-03-0.209D-02 0.407D-01 0.133D+00 0.271D+00 0.556D+00
 Coeff-En:   0.000D+00 0.000D+00 0.000D+00 0.000D+00 0.000D+00 0.100D+01
 Coeff:      0.272D-03-0.209D-02 0.406D-01 0.133D+00 0.271D+00 0.557D+00
 Gap=     0.177 Goal=   None    Shift=    0.000
 RMSDP=2.96D-05 MaxDP=1.01D-03 DE=-5.98D-04 OVMax= 1.37D-03

 Cycle   7  Pass 1  IDiag  1:
 RMSU=  1.78D-05    CP:  9.77D-01  8.22D-01  6.40D-01  7.25D-01  5.86D-01
                    CP:  6.64D-01
 E= -648.202306628533     Delta-E=       -0.000025621842 Rises=F Damp=F
 DIIS: error= 5.83D-05 at cycle   7 NSaved=   7.
 NSaved= 7 IEnMin= 7 EnMin= -648.202306628533     IErMin= 7 ErrMin= 5.83D-05
 ErrMax= 5.83D-05  0.00D+00 EMaxC= 1.00D-01 BMatC= 2.12D-06 BMatP= 3.11D-05
 IDIUse=1 WtCom= 1.00D+00 WtEn= 0.00D+00
 Coeff-Com:  0.743D-04-0.158D-02 0.114D-01 0.385D-01 0.924D-01 0.273D+00
 Coeff-Com:  0.587D+00
 Coeff:      0.743D-04-0.158D-02 0.114D-01 0.385D-01 0.924D-01 0.273D+00
 Coeff:      0.587D+00
 Gap=     0.177 Goal=   None    Shift=    0.000
 RMSDP=8.38D-06 MaxDP=3.35D-04 DE=-2.56D-05 OVMax= 6.11D-04

 Cycle   8  Pass 1  IDiag  1:
 RMSU=  5.56D-06    CP:  9.77D-01  8.22D-01  6.41D-01  7.25D-01  5.88D-01
                    CP:  6.96D-01  6.87D-01
 E= -648.202308439105     Delta-E=       -0.000001810572 Rises=F Damp=F
 DIIS: error= 2.73D-05 at cycle   8 NSaved=   8.
 NSaved= 8 IEnMin= 8 EnMin= -648.202308439105     IErMin= 8 ErrMin= 2.73D-05
 ErrMax= 2.73D-05  0.00D+00 EMaxC= 1.00D-01 BMatC= 2.83D-07 BMatP= 2.12D-06
 IDIUse=1 WtCom= 1.00D+00 WtEn= 0.00D+00
 Coeff-Com:  0.332D-04-0.714D-03 0.283D-02 0.940D-02 0.283D-01 0.103D+00
 Coeff-Com:  0.329D+00 0.528D+00
 Coeff:      0.332D-04-0.714D-03 0.283D-02 0.940D-02 0.283D-01 0.103D+00
 Coeff:      0.329D+00 0.528D+00
 Gap=     0.177 Goal=   None    Shift=    0.000
 RMSDP=3.12D-06 MaxDP=8.73D-05 DE=-1.81D-06 OVMax= 1.80D-04

 Cycle   9  Pass 1  IDiag  1:
 RMSU=  1.90D-06    CP:  9.77D-01  8.22D-01  6.41D-01  7.26D-01  5.89D-01
                    CP:  6.98D-01  7.34D-01  5.95D-01
 E= -648.202308670351     Delta-E=       -0.000000231246 Rises=F Damp=F
 DIIS: error= 1.24D-05 at cycle   9 NSaved=   9.
 NSaved= 9 IEnMin= 9 EnMin= -648.202308670351     IErMin= 9 ErrMin= 1.24D-05
 ErrMax= 1.24D-05  0.00D+00 EMaxC= 1.00D-01 BMatC= 2.94D-08 BMatP= 2.83D-07
 IDIUse=1 WtCom= 1.00D+00 WtEn= 0.00D+00
 Coeff-Com:  0.112D-04-0.159D-03-0.159D-03-0.840D-03 0.133D-02 0.132D-01
 Coeff-Com:  0.871D-01 0.280D+00 0.620D+00
 Coeff:      0.112D-04-0.159D-03-0.159D-03-0.840D-03 0.133D-02 0.132D-01
 Coeff:      0.871D-01 0.280D+00 0.620D+00
 Gap=     0.177 Goal=   None    Shift=    0.000
 RMSDP=1.09D-06 MaxDP=3.84D-05 DE=-2.31D-07 OVMax= 8.16D-05

 Cycle  10  Pass 1  IDiag  1:
 RMSU=  7.72D-07    CP:  9.77D-01  8.22D-01  6.41D-01  7.26D-01  5.89D-01
                    CP:  6.99D-01  7.42D-01  6.73D-01  6.99D-01
 E= -648.202308688573     Delta-E=       -0.000000018222 Rises=F Damp=F
 DIIS: error= 5.78D-06 at cycle  10 NSaved=  10.
 NSaved=10 IEnMin=10 EnMin= -648.202308688573     IErMin=10 ErrMin= 5.78D-06
 ErrMax= 5.78D-06  0.00D+00 EMaxC= 1.00D-01 BMatC= 6.47D-09 BMatP= 2.94D-08
 IDIUse=1 WtCom= 1.00D+00 WtEn= 0.00D+00
 Coeff-Com:  0.517D-05-0.400D-04-0.297D-03-0.122D-02-0.144D-02-0.783D-03
 Coeff-Com:  0.247D-01 0.125D+00 0.392D+00 0.462D+00
 Coeff:      0.517D-05-0.400D-04-0.297D-03-0.122D-02-0.144D-02-0.783D-03
 Coeff:      0.247D-01 0.125D+00 0.392D+00 0.462D+00
 Gap=     0.177 Goal=   None    Shift=    0.000
 RMSDP=4.25D-07 MaxDP=1.43D-05 DE=-1.82D-08 OVMax= 3.07D-05

 Cycle  11  Pass 1  IDiag  1:
 RMSU=  1.87D-07    CP:  9.77D-01  8.22D-01  6.41D-01  7.25D-01  5.89D-01
                    CP:  7.00D-01  7.45D-01  6.83D-01  7.81D-01  5.65D-01
 E= -648.202308694125     Delta-E=       -0.000000005552 Rises=F Damp=F
 DIIS: error= 5.64D-07 at cycle  11 NSaved=  11.
 NSaved=11 IEnMin=11 EnMin= -648.202308694125     IErMin=11 ErrMin= 5.64D-07
 ErrMax= 5.64D-07  0.00D+00 EMaxC= 1.00D-01 BMatC= 1.55D-10 BMatP= 6.47D-09
 IDIUse=1 WtCom= 1.00D+00 WtEn= 0.00D+00
 Coeff-Com:  0.116D-05 0.962D-06-0.906D-04-0.372D-03-0.653D-03-0.160D-02
 Coeff-Com:  0.173D-02 0.195D-01 0.856D-01 0.176D+00 0.720D+00
 Coeff:      0.116D-05 0.962D-06-0.906D-04-0.372D-03-0.653D-03-0.160D-02
 Coeff:      0.173D-02 0.195D-01 0.856D-01 0.176D+00 0.720D+00
 Gap=     0.177 Goal=   None    Shift=    0.000
 RMSDP=8.15D-08 MaxDP=2.18D-06 DE=-5.55D-09 OVMax= 4.74D-06

 Cycle  12  Pass 1  IDiag  1:
 RMSU=  5.81D-08    CP:  9.77D-01  8.22D-01  6.41D-01  7.25D-01  5.89D-01
                    CP:  7.00D-01  7.45D-01  6.85D-01  7.87D-01  6.20D-01
                    CP:  8.44D-01
 E= -648.202308694245     Delta-E=       -0.000000000120 Rises=F Damp=F
 DIIS: error= 2.29D-07 at cycle  12 NSaved=  12.
 NSaved=12 IEnMin=12 EnMin= -648.202308694245     IErMin=12 ErrMin= 2.29D-07
 ErrMax= 2.29D-07  0.00D+00 EMaxC= 1.00D-01 BMatC= 4.32D-11 BMatP= 1.55D-10
 IDIUse=1 WtCom= 1.00D+00 WtEn= 0.00D+00
 Coeff-Com:  0.471D-07 0.442D-05-0.331D-04-0.128D-03-0.307D-03-0.105D-02
 Coeff-Com: -0.165D-02-0.144D-02 0.116D-01 0.611D-01 0.426D+00 0.506D+00
 Coeff:      0.471D-07 0.442D-05-0.331D-04-0.128D-03-0.307D-03-0.105D-02
 Coeff:     -0.165D-02-0.144D-02 0.116D-01 0.611D-01 0.426D+00 0.506D+00
 Gap=     0.177 Goal=   None    Shift=    0.000
 RMSDP=3.29D-08 MaxDP=8.43D-07 DE=-1.20D-10 OVMax= 1.48D-06

 Cycle  13  Pass 1  IDiag  1:
 RMSU=  1.84D-08    CP:  9.77D-01  8.22D-01  6.41D-01  7.25D-01  5.89D-01
                    CP:  7.00D-01  7.46D-01  6.85D-01  7.91D-01  6.25D-01
                    CP:  9.08D-01  6.46D-01
 E= -648.202308694280     Delta-E=       -0.000000000035 Rises=F Damp=F
 DIIS: error= 4.13D-08 at cycle  13 NSaved=  13.
 NSaved=13 IEnMin=13 EnMin= -648.202308694280     IErMin=13 ErrMin= 4.13D-08
 ErrMax= 4.13D-08  0.00D+00 EMaxC= 1.00D-01 BMatC= 9.89D-13 BMatP= 4.32D-11
 IDIUse=1 WtCom= 1.00D+00 WtEn= 0.00D+00
 Coeff-Com: -0.431D-07 0.894D-06 0.167D-05 0.673D-05-0.114D-04-0.131D-03
 Coeff-Com: -0.564D-03-0.265D-02-0.583D-02 0.884D-03 0.553D-01 0.155D+00
 Coeff-Com:  0.798D+00
 Coeff:     -0.431D-07 0.894D-06 0.167D-05 0.673D-05-0.114D-04-0.131D-03
 Coeff:     -0.564D-03-0.265D-02-0.583D-02 0.884D-03 0.553D-01 0.155D+00
 Coeff:      0.798D+00
 Gap=     0.177 Goal=   None    Shift=    0.000
 RMSDP=7.19D-09 MaxDP=1.65D-07 DE=-3.48D-11 OVMax= 6.10D-07

 Error on total polarization charges =  0.01961
 SCF Done:  E(RB3LYP) =  -648.202308694     A.U. after   13 cycles
            NFock= 13  Conv=0.72D-08     -V/T= 2.0083
 KE= 6.428390707529D+02 PE=-3.047562280623D+03 EE= 9.983763203366D+02
 Leave Link  502 at Sun Jul 18 13:43:12 2021, MaxMem=   104857600 cpu:             103.1 elap:              25.8
 (Enter /prod/apps/gaussian/g16b1/l601.exe)
 Copying SCF densities to generalized density rwf, IOpCl= 0 IROHF=0.

 **********************************************************************

            Population analysis using the SCF Density.

 **********************************************************************

 Orbital symmetries:
       Occupied  (A) (A) (A) (A) (A) (A) (A) (A) (A) (A) (A) (A)
                 (A) (A) (A) (A) (A) (A) (A) (A) (A) (A) (A) (A)
                 (A) (A) (A) (A) (A) (A) (A) (A) (A) (A) (A) (A)
                 (A) (A) (A) (A) (A) (A) (A) (A) (A) (A) (A)
       Virtual   (A) (A) (A) (A) (A) (A) (A) (A) (A) (A) (A) (A)
                 (A) (A) (A) (A) (A) (A) (A) (A) (A) (A) (A) (A)
                 (A) (A) (A) (A) (A) (A) (A) (A) (A) (A) (A) (A)
                 (A) (A) (A) (A) (A) (A) (A) (A) (A) (A) (A) (A)
                 (A) (A) (A) (A) (A) (A) (A) (A) (A) (A) (A) (A)
                 (A) (A) (A) (A) (A) (A) (A) (A) (A) (A) (A) (A)
                 (A) (A) (A) (A) (A) (A) (A) (A) (A) (A) (A) (A)
                 (A) (A) (A) (A) (A) (A) (A) (A) (A) (A) (A) (A)
                 (A) (A) (A) (A) (A) (A) (A) (A) (A) (A) (A) (A)
                 (A) (A) (A) (A) (A) (A) (A) (A) (A) (A) (A) (A)
                 (A) (A) (A) (A) (A) (A) (A) (A) (A) (A) (A) (A)
                 (A) (A) (A) (A) (A) (A) (A) (A) (A) (A) (A) (A)
                 (A) (A) (A) (A) (A) (A) (A) (A) (A) (A) (A) (A)
                 (A) (A) (A) (A) (A) (A)
 The electronic state is 1-A.
 Alpha  occ. eigenvalues --  -19.20893 -19.14190 -19.07040 -19.05347 -10.32466
 Alpha  occ. eigenvalues --  -10.25856 -10.25266 -10.19454 -10.19210 -10.19182
 Alpha  occ. eigenvalues --  -10.18705 -10.18020 -10.17922  -1.11265  -1.03281
 Alpha  occ. eigenvalues --   -1.01587  -0.90586  -0.85933  -0.77261  -0.75420
 Alpha  occ. eigenvalues --   -0.73174  -0.64459  -0.62118  -0.56937  -0.52960
 Alpha  occ. eigenvalues --   -0.49357  -0.48781  -0.48145  -0.46239  -0.44150
 Alpha  occ. eigenvalues --   -0.43676  -0.42021  -0.41774  -0.40656  -0.39281
 Alpha  occ. eigenvalues --   -0.38516  -0.37041  -0.35777  -0.35435  -0.34677
 Alpha  occ. eigenvalues --   -0.32510  -0.28084  -0.25066  -0.24067  -0.23315
 Alpha  occ. eigenvalues --   -0.22631  -0.19943
 Alpha virt. eigenvalues --   -0.02279  -0.00873   0.01604   0.09238   0.10243
 Alpha virt. eigenvalues --    0.11920   0.14220   0.15678   0.17462   0.17940
 Alpha virt. eigenvalues --    0.18520   0.19431   0.21157   0.24441   0.25594
 Alpha virt. eigenvalues --    0.27607   0.31395   0.32281   0.34137   0.34505
 Alpha virt. eigenvalues --    0.37286   0.40281   0.42583   0.49923   0.51034
 Alpha virt. eigenvalues --    0.52645   0.54199   0.55469   0.55852   0.56313
 Alpha virt. eigenvalues --    0.57537   0.58379   0.59441   0.60580   0.61641
 Alpha virt. eigenvalues --    0.62327   0.62463   0.63904   0.64644   0.65570
 Alpha virt. eigenvalues --    0.68224   0.68418   0.70067   0.71758   0.75389
 Alpha virt. eigenvalues --    0.77989   0.79147   0.80836   0.82940   0.84175
 Alpha virt. eigenvalues --    0.84589   0.85892   0.87414   0.89244   0.89906
 Alpha virt. eigenvalues --    0.91560   0.92846   0.93190   0.95128   0.95969
 Alpha virt. eigenvalues --    0.98078   0.98829   1.00531   1.02726   1.03672
 Alpha virt. eigenvalues --    1.05532   1.06549   1.09386   1.11761   1.13226
 Alpha virt. eigenvalues --    1.16856   1.18297   1.19323   1.21444   1.24916
 Alpha virt. eigenvalues --    1.28228   1.30996   1.34380   1.37673   1.40748
 Alpha virt. eigenvalues --    1.42255   1.43392   1.45148   1.46636   1.49803
 Alpha virt. eigenvalues --    1.51691   1.54046   1.55133   1.57507   1.69269
 Alpha virt. eigenvalues --    1.70329   1.72306   1.73753   1.75092   1.77321
 Alpha virt. eigenvalues --    1.78168   1.79568   1.83190   1.84535   1.86007
 Alpha virt. eigenvalues --    1.88640   1.89472   1.89843   1.91680   1.92762
 Alpha virt. eigenvalues --    1.95589   1.96008   1.98913   1.99627   2.00374
 Alpha virt. eigenvalues --    2.06806   2.08506   2.09013   2.12872   2.15709
 Alpha virt. eigenvalues --    2.18590   2.18909   2.22078   2.22182   2.25583
 Alpha virt. eigenvalues --    2.27891   2.29474   2.32469   2.35051   2.36118
 Alpha virt. eigenvalues --    2.41597   2.45472   2.47946   2.57327   2.60825
 Alpha virt. eigenvalues --    2.61219   2.63563   2.64010   2.67296   2.69358
 Alpha virt. eigenvalues --    2.73774   2.75091   2.77390   2.80442   2.85707
 Alpha virt. eigenvalues --    2.90624   2.94182   2.95849   2.99455   3.07136
 Alpha virt. eigenvalues --    3.12145   3.15888   3.31313   3.45291   3.89265
 Alpha virt. eigenvalues --    4.00771   4.09400   4.11157   4.13521   4.15337
 Alpha virt. eigenvalues --    4.25168   4.33299   4.37923   4.45046   4.46561
 Alpha virt. eigenvalues --    4.57061   4.78187
          Condensed to atoms (all electrons):
               1          2          3          4          5          6
     1  C    5.246937   0.371926   0.339898   0.357511   0.386008  -0.095171
     2  H    0.371926   0.492107  -0.019277  -0.026385  -0.021760  -0.001083
     3  H    0.339898  -0.019277   0.534440  -0.015366  -0.027401   0.004772
     4  H    0.357511  -0.026385  -0.015366   0.517597  -0.029068   0.000477
     5  C    0.386008  -0.021760  -0.027401  -0.029068   4.292589   0.532251
     6  O   -0.095171  -0.001083   0.004772   0.000477   0.532251   8.113866
     7  O   -0.086324   0.000945   0.007668   0.002201   0.258396  -0.058891
     8  C    0.004973  -0.000140   0.000003  -0.000082  -0.010443  -0.002762
     9  C   -0.000408   0.000019   0.000012  -0.000003   0.000038  -0.000485
    10  C   -0.000034  -0.000001   0.000031   0.000001   0.000468  -0.000008
    11  O   -0.000144   0.000003   0.000323   0.000000   0.001057  -0.000003
    12  O    0.000000   0.000000   0.000000  -0.000000   0.000004  -0.000000
    13  C    0.000005  -0.000000  -0.000001  -0.000000  -0.000102   0.000017
    14  H   -0.000000   0.000000  -0.000000  -0.000000  -0.000001   0.000000
    15  C    0.000000  -0.000000   0.000000   0.000000   0.000030  -0.000009
    16  H    0.000000  -0.000000  -0.000000  -0.000000   0.000000   0.000000
    17  C   -0.000007   0.000000  -0.000000  -0.000002   0.000211  -0.000273
    18  H   -0.000000  -0.000000   0.000000   0.000000  -0.000021   0.000001
    19  C    0.000307   0.000014   0.000016  -0.000011  -0.001322   0.007229
    20  H   -0.000195   0.000005   0.000008   0.000011   0.002848  -0.000768
               7          8          9         10         11         12
     1  C   -0.086324   0.004973  -0.000408  -0.000034  -0.000144   0.000000
     2  H    0.000945  -0.000140   0.000019  -0.000001   0.000003   0.000000
     3  H    0.007668   0.000003   0.000012   0.000031   0.000323   0.000000
     4  H    0.002201  -0.000082  -0.000003   0.000001   0.000000  -0.000000
     5  C    0.258396  -0.010443   0.000038   0.000468   0.001057   0.000004
     6  O   -0.058891  -0.002762  -0.000485  -0.000008  -0.000003  -0.000000
     7  O    8.284441   0.199907  -0.050798  -0.003583  -0.006129  -0.000012
     8  C    0.199907   4.756257   0.489405  -0.035769  -0.001717   0.001235
     9  C   -0.050798   0.489405   5.387263   0.165698  -0.138447  -0.158082
    10  C   -0.003583  -0.035769   0.165698   4.385522   0.517426   0.569003
    11  O   -0.006129  -0.001717  -0.138447   0.517426   8.464834  -0.133859
    12  O   -0.000012   0.001235  -0.158082   0.569003  -0.133859   8.333178
    13  C    0.003690  -0.035483   0.416563  -0.037042   0.006358   0.014890
    14  H   -0.000032   0.003864  -0.058260  -0.002667   0.000336   0.011350
    15  C    0.000140  -0.041440  -0.036758   0.007658  -0.000061   0.001429
    16  H    0.000002   0.000255   0.005542  -0.000075   0.000001   0.000001
    17  C    0.003623  -0.004980  -0.045430  -0.000902  -0.000026  -0.000025
    18  H   -0.000079   0.004219   0.000989   0.000007  -0.000000   0.000000
    19  C   -0.061577   0.462447  -0.047404   0.006738   0.000471  -0.000025
    20  H   -0.003616  -0.034922   0.003702  -0.000017   0.000007   0.000000
              13         14         15         16         17         18
     1  C    0.000005  -0.000000   0.000000   0.000000  -0.000007  -0.000000
     2  H   -0.000000   0.000000  -0.000000  -0.000000   0.000000  -0.000000
     3  H   -0.000001  -0.000000   0.000000  -0.000000  -0.000000   0.000000
     4  H   -0.000000  -0.000000   0.000000  -0.000000  -0.000002   0.000000
     5  C   -0.000102  -0.000001   0.000030   0.000000   0.000211  -0.000021
     6  O    0.000017   0.000000  -0.000009   0.000000  -0.000273   0.000001
     7  O    0.003690  -0.000032   0.000140   0.000002   0.003623  -0.000079
     8  C   -0.035483   0.003864  -0.041440   0.000255  -0.004980   0.004219
     9  C    0.416563  -0.058260  -0.036758   0.005542  -0.045430   0.000989
    10  C   -0.037042  -0.002667   0.007658  -0.000075  -0.000902   0.000007
    11  O    0.006358   0.000336  -0.000061   0.000001  -0.000026  -0.000000
    12  O    0.014890   0.011350   0.001429   0.000001  -0.000025   0.000000
    13  C    5.098652   0.362021   0.484043  -0.039971  -0.021437   0.004682
    14  H    0.362021   0.593015  -0.046379  -0.011313   0.007845  -0.000273
    15  C    0.484043  -0.046379   4.929394   0.362733   0.529089  -0.038886
    16  H   -0.039971  -0.011313   0.362733   0.581115  -0.044878  -0.004118
    17  C   -0.021437   0.007845   0.529089  -0.044878   4.932676   0.356182
    18  H    0.004682  -0.000273  -0.038886  -0.004118   0.356182   0.579168
    19  C   -0.050333   0.000198  -0.032264   0.004604   0.498963  -0.041914
    20  H    0.000331   0.000016   0.004526  -0.000138  -0.037660  -0.006818
              19         20
     1  C    0.000307  -0.000195
     2  H    0.000014   0.000005
     3  H    0.000016   0.000008
     4  H   -0.000011   0.000011
     5  C   -0.001322   0.002848
     6  O    0.007229  -0.000768
     7  O   -0.061577  -0.003616
     8  C    0.462447  -0.034922
     9  C   -0.047404   0.003702
    10  C    0.006738  -0.000017
    11  O    0.000471   0.000007
    12  O   -0.000025   0.000000
    13  C   -0.050333   0.000331
    14  H    0.000198   0.000016
    15  C   -0.032264   0.004526
    16  H    0.004604  -0.000138
    17  C    0.498963  -0.037660
    18  H   -0.041914  -0.006818
    19  C    5.055827   0.360648
    20  H    0.360648   0.543184
 Mulliken charges:
               1
     1  C   -0.525281
     2  H    0.203627
     3  H    0.174873
     4  H    0.193118
     5  C    0.616218
     6  O   -0.499159
     7  O   -0.489971
     8  C    0.245172
     9  C    0.066847
    10  C    0.427548
    11  O   -0.710429
    12  O   -0.639088
    13  C   -0.206882
    14  H    0.140280
    15  C   -0.123243
    16  H    0.146240
    17  C   -0.172970
    18  H    0.146862
    19  C   -0.162611
    20  H    0.168849
 Sum of Mulliken charges =  -1.00000
 Mulliken charges with hydrogens summed into heavy atoms:
               1
     1  C    0.046337
     5  C    0.616218
     6  O   -0.499159
     7  O   -0.489971
     8  C    0.245172
     9  C    0.066847
    10  C    0.427548
    11  O   -0.710429
    12  O   -0.639088
    13  C   -0.066602
    15  C    0.022997
    17  C   -0.026108
    19  C    0.006238
 Electronic spatial extent (au):  <R**2>=           2386.3231
 Charge=             -1.0000 electrons
 Dipole moment (field-independent basis, Debye):
    X=              5.3974    Y=            -11.3809    Z=             -1.9551  Tot=             12.7468
 Quadrupole moment (field-independent basis, Debye-Ang):
   XX=            -78.7482   YY=           -102.3756   ZZ=            -79.3742
   XY=             20.0277   XZ=             -0.9566   YZ=              3.6770
 Traceless Quadrupole moment (field-independent basis, Debye-Ang):
   XX=              8.0845   YY=            -15.5429   ZZ=              7.4585
   XY=             20.0277   XZ=             -0.9566   YZ=              3.6770
 Octapole moment (field-independent basis, Debye-Ang**2):
  XXX=             48.7629  YYY=            -86.7537  ZZZ=              0.5417  XYY=             36.5926
  XXY=            -22.2514  XXZ=            -16.5381  XZZ=              5.8100  YZZ=              4.6611
  YYZ=             -5.4048  XYZ=             19.0878
 Hexadecapole moment (field-independent basis, Debye-Ang**3):
 XXXX=          -1693.1936 YYYY=          -1292.6408 ZZZZ=           -157.5164 XXXY=            116.9360
 XXXZ=             -2.2026 YYYX=             89.7460 YYYZ=             11.5224 ZZZX=              0.5267
 ZZZY=             -0.8151 XXYY=           -554.3260 XXZZ=           -343.5576 YYZZ=           -233.9639
 XXYZ=             -6.5144 YYXZ=             12.3732 ZZXY=              3.8903
 N-N= 7.581445808397D+02 E-N=-3.047562280756D+03  KE= 6.428390707529D+02
 No NMR shielding tensors so no spin-rotation constants.
 Leave Link  601 at Sun Jul 18 13:43:12 2021, MaxMem=   104857600 cpu:               0.5 elap:               0.1
 (Enter /prod/apps/gaussian/g16b1/l701.exe)
 ... and contract with generalized density number  0.
 Compute integral first derivatives.
 D1PCM: PCM CHGder 1st derivatives, ID1Alg=3 FixD1E=F DoIter=F DoCFld=F I1PDM=0.
 GePol: Maximum number of non-zero 1st derivatives   =     169
 Leave Link  701 at Sun Jul 18 13:43:13 2021, MaxMem=   104857600 cpu:               4.1 elap:               1.0
 (Enter /prod/apps/gaussian/g16b1/l702.exe)
 L702 exits ... SP integral derivatives will be done elsewhere.
 Leave Link  702 at Sun Jul 18 13:43:13 2021, MaxMem=   104857600 cpu:               0.1 elap:               0.0
 (Enter /prod/apps/gaussian/g16b1/l703.exe)
 Integral derivatives from FoFJK, PRISM(SPDF).
 Compute integral first derivatives, UseDBF=F ICtDFT=           0.
 Calling FoFJK, ICntrl=      2127 FMM=F ISym2X=0 I1Cent= 0 IOpClX= 0 NMat=1 NMatS=1 NMatT=0.
 FoFJK:  IHMeth= 1 ICntrl=    2127 DoSepK=F KAlg= 0 I1Cent=           0 FoldK=F
 IRaf=         0 NMat=       1 IRICut=       1 DoRegI=T DoRafI=F ISym2E= 0 IDoP0=0 IntGTp=1.
 FoFCou: FMM=F IPFlag=           0 FMFlag=      100000 FMFlg1=         800
         NFxFlg=           0 DoJE=F BraDBF=F KetDBF=F FulRan=T
         wScrn=  0.000000 ICntrl=      2127 IOpCl=  0 I1Cent=           0 NGrid=           0
         NMat0=    1 NMatS0=      1 NMatT0=    0 NMatD0=    1 NMtDS0=    0 NMtDT0=    0
 Symmetry not used in FoFCou.
 Leave Link  703 at Sun Jul 18 13:43:19 2021, MaxMem=   104857600 cpu:              23.2 elap:               5.8
 (Enter /prod/apps/gaussian/g16b1/l716.exe)
 Dipole        = 2.12351428D+00-4.47760393D+00-7.69212130D-01
 ***** Axes restored to original set *****
 -------------------------------------------------------------------
 Center     Atomic                   Forces (Hartrees/Bohr)
 Number     Number              X              Y              Z
 -------------------------------------------------------------------
      1        6          -0.013852855   -0.001182775    0.009265421
      2        1           0.005643910   -0.000557342    0.005804633
      3        1          -0.003869732    0.006017255   -0.007548284
      4        1          -0.004659764    0.014697153    0.004042026
      5        6           0.032557991    0.017811550   -0.017724438
      6        8          -0.005764667   -0.024429367    0.012460558
      7        8          -0.012592847   -0.006642031   -0.009621952
      8        6           0.007108935   -0.005193509    0.006008175
      9        6          -0.008857486    0.002998090   -0.018496473
     10        6          -0.026472660    0.064028862   -0.022831486
     11        8          -0.016017786    0.002035640    0.001468532
     12        8           0.047224654   -0.045562112    0.019368822
     13        6           0.034403001    0.002710252    0.020032095
     14        1           0.008544151    0.022351099    0.003460551
     15        6          -0.037312264   -0.039292986   -0.014729559
     16        1          -0.007380150   -0.002362229   -0.006731596
     17        6          -0.024561632    0.004793516   -0.009069757
     18        1           0.005877987   -0.007491182    0.005261459
     19        6           0.010639947   -0.011585405    0.028645112
     20        1           0.009341269    0.006855521   -0.009063841
 -------------------------------------------------------------------
 Cartesian Forces:  Max     0.064028862 RMS     0.019076478
 Leave Link  716 at Sun Jul 18 13:43:19 2021, MaxMem=   104857600 cpu:               0.1 elap:               0.0
 (Enter /prod/apps/gaussian/g16b1/l103.exe)

 GradGradGradGradGradGradGradGradGradGradGradGradGradGradGradGradGradGrad
 Berny optimization.
 FormGI is forming the generalized inverse of G from B-inverse, IUseBI=4.
 Internal  Forces:  Max     0.066146345 RMS     0.014125455
 Search for a local minimum.
 Step number   1 out of a maximum of   99
 All quantities printed in internal units (Hartrees-Bohrs-Radians)
 RMS Force = .14125D-01 SwitMx=.10000D-02 MixMth= 1
 Mixed Optimization -- RFO/linear search
 Second derivative matrix not updated -- first step.
 ITU=  0
     Eigenvalues ---    0.00845   0.00872   0.00878   0.01400   0.01650
     Eigenvalues ---    0.01817   0.01848   0.01932   0.02075   0.02115
     Eigenvalues ---    0.02144   0.02201   0.02499   0.02561   0.02676
     Eigenvalues ---    0.07222   0.08518   0.15425   0.15964   0.15993
     Eigenvalues ---    0.16000   0.16000   0.16000   0.16000   0.21996
     Eigenvalues ---    0.22480   0.24439   0.24652   0.24876   0.25000
     Eigenvalues ---    0.25000   0.25000   0.25000   0.25000   0.33010
     Eigenvalues ---    0.33231   0.34555   0.34585   0.34615   0.35082
     Eigenvalues ---    0.35180   0.35181   0.35217   0.39329   0.42120
     Eigenvalues ---    0.44004   0.46412   0.47222   0.48097   0.51368
     Eigenvalues ---    0.56562   0.74700   0.95452   0.99897
 RFO step:  Lambda=-5.08933648D-02 EMin= 8.44691816D-03
 Linear search not attempted -- first point.
 Maximum step size (   0.300) exceeded in Quadratic search.
    -- Step size scaled by   0.809
 Iteration  1 RMS(Cart)=  0.06091910 RMS(Int)=  0.00334253
 Iteration  2 RMS(Cart)=  0.00436203 RMS(Int)=  0.00130861
 Iteration  3 RMS(Cart)=  0.00001250 RMS(Int)=  0.00130856
 Iteration  4 RMS(Cart)=  0.00000003 RMS(Int)=  0.00130856
 ITry= 1 IFail=0 DXMaxC= 1.94D-01 DCOld= 1.00D+10 DXMaxT= 3.00D-01 DXLimC= 3.00D+00 Rises=F
 Variable       Old X    -DE/DX   Delta X   Delta X   Delta X     New X
                                 (Linear)    (Quad)   (Total)
    R1        2.06305  -0.00084   0.00000  -0.00172  -0.00172   2.06133
    R2        2.06354  -0.00251   0.00000  -0.00511  -0.00511   2.05843
    R3        2.06403   0.00214   0.00000   0.00436   0.00436   2.06839
    R4        2.81949   0.01613   0.00000   0.03407   0.03407   2.85356
    R5        2.28680   0.00839   0.00000   0.00647   0.00647   2.29327
    R6        2.58510  -0.00774   0.00000  -0.01109  -0.01109   2.57401
    R7        2.62778   0.00683   0.00000   0.01057   0.01057   2.63834
    R8        2.70233  -0.01709   0.00000  -0.03252  -0.03252   2.66981
    R9        2.65181  -0.00137   0.00000  -0.00737  -0.00722   2.64459
   R10        2.82334   0.01614   0.00000   0.03428   0.03428   2.85762
   R11        2.60834   0.01787   0.00000   0.02960   0.02943   2.63777
   R12        2.40907   0.00503   0.00000   0.00511   0.00511   2.41417
   R13        2.30517   0.06212   0.00000   0.05001   0.05001   2.35518
   R14        2.05324  -0.00032   0.00000  -0.00065  -0.00065   2.05259
   R15        2.52369   0.06615   0.00000   0.08867   0.08852   2.61221
   R16        2.05542  -0.00202   0.00000  -0.00406  -0.00406   2.05136
   R17        2.62560   0.00033   0.00000   0.00267   0.00267   2.62827
   R18        2.05381  -0.00068   0.00000  -0.00137  -0.00137   2.05244
   R19        2.65884  -0.00358   0.00000  -0.00863  -0.00848   2.65037
   R20        2.05384  -0.00393   0.00000  -0.00790  -0.00790   2.04595
    A1        1.99193  -0.00608   0.00000  -0.03251  -0.03239   1.95954
    A2        1.81654   0.00067   0.00000   0.01559   0.01600   1.83254
    A3        1.93071  -0.00861   0.00000  -0.03439  -0.03415   1.89655
    A4        2.01758  -0.01478   0.00000  -0.05678  -0.05847   1.95911
    A5        1.92894   0.01065   0.00000   0.03551   0.03476   1.96370
    A6        1.76263   0.02000   0.00000   0.08216   0.08142   1.84405
    A7        2.04757   0.03242   0.00000   0.09440   0.09161   2.13918
    A8        1.96764  -0.00617   0.00000  -0.00986  -0.01288   1.95475
    A9        2.24861  -0.02396   0.00000  -0.05826  -0.06154   2.18707
   A10        2.04600   0.01534   0.00000   0.04125   0.04125   2.08725
   A11        2.07925  -0.00587   0.00000  -0.00935  -0.00952   2.06973
   A12        2.07889   0.00068   0.00000   0.00826   0.00811   2.08700
   A13        2.12504   0.00520   0.00000   0.00116   0.00136   2.12640
   A14        2.18876  -0.00159   0.00000  -0.00455  -0.00459   2.18417
   A15        2.03388  -0.00147   0.00000  -0.00236  -0.00251   2.03137
   A16        2.05669   0.00319   0.00000   0.00864   0.00865   2.06534
   A17        2.03827  -0.00071   0.00000   0.00072  -0.00271   2.03556
   A18        2.13892  -0.03159   0.00000  -0.08232  -0.08575   2.05317
   A19        2.10362   0.03294   0.00000   0.09124   0.08780   2.19141
   A20        2.21115  -0.01998   0.00000  -0.08772  -0.08760   2.12355
   A21        2.16282  -0.00891   0.00000  -0.01205  -0.01230   2.15052
   A22        1.90880   0.02889   0.00000   0.09992   0.10005   2.00884
   A23        2.03204   0.01244   0.00000   0.03891   0.03895   2.07100
   A24        2.07987  -0.00465   0.00000  -0.00020  -0.00028   2.07958
   A25        2.17127  -0.00779   0.00000  -0.03872  -0.03868   2.13259
   A26        2.18329  -0.00636   0.00000  -0.02720  -0.02738   2.15591
   A27        2.12873  -0.00930   0.00000  -0.02897  -0.02879   2.09994
   A28        1.96883   0.01575   0.00000   0.05755   0.05737   2.02619
   A29        2.03405   0.01922   0.00000   0.04354   0.04344   2.07750
   A30        2.19559  -0.01819   0.00000  -0.05203  -0.05307   2.14252
   A31        2.02362   0.00045   0.00000   0.02205   0.02161   2.04523
    D1       -0.86217  -0.00881   0.00000  -0.09231  -0.09400  -0.95617
    D2        2.08799  -0.00077   0.00000   0.02801   0.02997   2.11796
    D3       -3.08551  -0.00241   0.00000  -0.05059  -0.05168  -3.13720
    D4       -0.13535   0.00563   0.00000   0.06973   0.07228  -0.06307
    D5        1.05328  -0.00160   0.00000  -0.04799  -0.05067   1.00261
    D6       -2.27975   0.00643   0.00000   0.07233   0.07329  -2.20645
    D7       -3.12960  -0.00926   0.00000  -0.08684  -0.08174   3.07184
    D8       -0.20677   0.00798   0.00000   0.07245   0.06734  -0.13943
    D9        2.37756  -0.00133   0.00000  -0.01573  -0.01569   2.36186
   D10       -0.75957  -0.00274   0.00000  -0.03199  -0.03202  -0.79160
   D11       -0.06186   0.00100   0.00000   0.00629   0.00591  -0.05595
   D12       -3.10677  -0.00081   0.00000  -0.01579  -0.01626  -3.12303
   D13        3.07515   0.00243   0.00000   0.02301   0.02265   3.09779
   D14        0.03024   0.00062   0.00000   0.00093   0.00048   0.03072
   D15        3.13501   0.00071   0.00000   0.01088   0.01110  -3.13708
   D16       -0.27875   0.00796   0.00000   0.07614   0.07503  -0.20372
   D17       -0.00200  -0.00071   0.00000  -0.00579  -0.00575  -0.00775
   D18        2.86742   0.00654   0.00000   0.05947   0.05818   2.92560
   D19        0.36219   0.00521   0.00000   0.07057   0.07033   0.43252
   D20       -2.70557  -0.00609   0.00000  -0.08262  -0.08259  -2.78816
   D21       -2.87723   0.00680   0.00000   0.09235   0.09232  -2.78491
   D22        0.33820  -0.00450   0.00000  -0.06084  -0.06060   0.27760
   D23        3.04074   0.00224   0.00000   0.02330   0.02316   3.06390
   D24       -0.06642   0.00154   0.00000   0.01505   0.01509  -0.05134
   D25       -0.01176   0.00083   0.00000   0.00366   0.00328  -0.00848
   D26       -3.11892   0.00013   0.00000  -0.00459  -0.00479  -3.12371
   D27       -3.06903  -0.00203   0.00000  -0.01922  -0.01909  -3.08812
   D28        0.07104  -0.00250   0.00000  -0.02345  -0.02329   0.04775
   D29        0.10183  -0.00189   0.00000  -0.02330  -0.02358   0.07825
   D30       -3.04129  -0.00237   0.00000  -0.02753  -0.02779  -3.06907
   D31       -3.10103  -0.00059   0.00000  -0.00875  -0.00895  -3.10998
   D32       -0.03814   0.00178   0.00000   0.01695   0.01654  -0.02160
   D33        0.03890  -0.00109   0.00000  -0.01327  -0.01323   0.02567
   D34        3.10180   0.00128   0.00000   0.01244   0.01226   3.11406
   D35        0.00507  -0.00013   0.00000  -0.00264  -0.00249   0.00258
   D36       -2.89161  -0.00329   0.00000  -0.04902  -0.05069  -2.94230
   D37        3.07683   0.00120   0.00000   0.01713   0.01796   3.09479
   D38        0.18015  -0.00196   0.00000  -0.02925  -0.03024   0.14990
         Item               Value     Threshold  Converged?
 Maximum Force            0.066146     0.000450     NO 
 RMS     Force            0.014125     0.000300     NO 
 Maximum Displacement     0.194494     0.001800     NO 
 RMS     Displacement     0.060344     0.001200     NO 
 Predicted change in Energy=-2.880285D-02
 Lowest energy point so far.  Saving SCF results.
 GradGradGradGradGradGradGradGradGradGradGradGradGradGradGradGradGradGrad

 Leave Link  103 at Sun Jul 18 13:43:19 2021, MaxMem=   104857600 cpu:               0.1 elap:               0.0
 (Enter /prod/apps/gaussian/g16b1/l202.exe)
                          Input orientation:                          
 ---------------------------------------------------------------------
 Center     Atomic      Atomic             Coordinates (Angstroms)
 Number     Number       Type             X           Y           Z
 ---------------------------------------------------------------------
      1          6           0       -0.904311    2.701071   -2.034099
      2          1           0       -0.215252    2.962608   -2.838248
      3          1           0       -0.809880    3.366352   -1.176776
      4          1           0       -1.899476    2.747932   -2.487404
      5          6           0       -0.691358    1.251777   -1.667471
      6          8           0       -0.750591    0.355933   -2.483959
      7          8           0       -0.349587    1.101758   -0.357502
      8          6           0       -0.196957   -0.180769    0.172652
      9          6           0        0.920932   -0.443427    0.995663
     10          6           0        2.024880    0.542600    1.305115
     11          8           0        1.727808    1.781796    1.214486
     12          8           0        3.112247    0.085520    1.707597
     13          6           0        1.040714   -1.746252    1.482171
     14          1           0        1.902857   -2.061078    2.063025
     15          6           0        0.102983   -2.733216    1.242628
     16          1           0        0.244883   -3.707942    1.698865
     17          6           0       -0.991521   -2.445928    0.433978
     18          1           0       -1.784075   -3.157688    0.222127
     19          6           0       -1.153255   -1.162937   -0.108998
     20          1           0       -2.107042   -0.937110   -0.568848
 ---------------------------------------------------------------------
                    Distance matrix (angstroms):
                    1          2          3          4          5
     1  C    0.000000
     2  H    1.090807   0.000000
     3  H    1.089275   1.810271   0.000000
     4  H    1.094547   1.733721   1.813121   0.000000
     5  C    1.510039   2.127049   2.173996   2.090531   0.000000
     6  O    2.392838   2.684560   3.282509   2.653602   1.213547
     7  O    2.382540   3.104015   2.451830   3.106208   1.362106
     8  C    3.697986   4.352777   3.844308   4.307175   2.383836
     9  C    4.732741   5.252700   4.714830   5.501930   3.544782
    10  C    4.938574   5.295477   4.708421   5.886193   4.088661
    11  O    4.280937   4.646983   3.829989   5.272058   3.799864
    12  O    6.080636   6.325708   5.870822   7.057183   5.217150
    13  C    5.993827   6.512821   6.052556   6.678319   4.680652
    14  H    6.880747   7.331185   6.878390   7.634836   5.623305
    15  C    6.425189   7.014073   6.625071   6.925746   4.997982
    16  H    7.505406   8.080430   7.708922   7.987580   6.066925
    17  C    5.708819   6.368855   6.034081   6.027856   4.263709
    18  H    6.339527   7.020337   6.743077   6.498556   4.920162
    19  C    4.324181   5.034757   4.666103   4.637732   2.910847
    20  H    4.102424   4.892529   4.535636   4.159745   2.828844
                    6          7          8          9         10
     6  O    0.000000
     7  O    2.288859   0.000000
     8  C    2.766250   1.396150   0.000000
     9  C    3.942174   2.415134   1.412803   0.000000
    10  C    4.700549   2.952126   2.596594   1.512188   0.000000
    11  O    4.674830   2.692428   2.939694   2.377089   1.277525
    12  O    5.706468   4.157122   3.657567   2.364000   1.246306
    13  C    4.833027   3.664491   2.386925   1.395848   2.497755
    14  H    5.792909   4.575586   3.393861   2.172609   2.714490
    15  C    4.915168   4.179983   2.783846   2.444005   3.798495
    16  H    5.916254   5.264528   3.868527   3.407138   4.624991
    17  C    4.052509   3.691151   2.414657   2.825416   4.334612
    18  H    4.553738   4.531733   3.373935   3.909301   5.419699
    19  C    2.847726   2.415880   1.399459   2.457686   3.874160
    20  H    2.679471   2.700055   2.184101   3.443841   4.772218
                   11         12         13         14         15
    11  O    0.000000
    12  O    2.244366   0.000000
    13  C    3.604286   2.774428   0.000000
    14  H    3.939332   2.489344   1.086184   0.000000
    15  C    4.798560   4.149353   1.382323   2.089106   0.000000
    16  H    5.707093   4.755229   2.128034   2.365090   1.085532
    17  C    5.087002   4.987107   2.391283   3.343550   1.390822
    18  H    6.141384   6.057968   3.399896   4.264378   2.186912
    19  C    4.327076   4.801371   2.772287   3.855406   2.422974
    20  H    5.027803   5.785235   3.843145   4.926393   3.375152
                   16         17         18         19         20
    16  H    0.000000
    17  C    2.172858   0.000000
    18  H    2.569086   1.086105   0.000000
    19  C    3.420557   1.402515   2.118162   0.000000
    20  H    4.283875   2.127576   2.379269   1.082668   0.000000
 Stoichiometry    C9H7O4(1-)
 Framework group  C1[X(C9H7O4)]
 Deg. of freedom    54
 Full point group                 C1      NOp   1
 RotChk:  IX=0 Diff= 3.01D-02
 Largest Abelian subgroup         C1      NOp   1
 Largest concise Abelian subgroup C1      NOp   1
                         Standard orientation:                         
 ---------------------------------------------------------------------
 Center     Atomic      Atomic             Coordinates (Angstroms)
 Number     Number       Type             X           Y           Z
 ---------------------------------------------------------------------
      1          6           0        3.566781    0.659805   -0.178306
      2          1           0        3.975744    1.113817    0.725288
      3          1           0        3.352227    1.397671   -0.950341
      4          1           0        4.321457   -0.066069   -0.497062
      5          6           0        2.351563   -0.154080    0.197264
      6          8           0        2.384021   -1.024613    1.042139
      7          8           0        1.233415    0.266950   -0.456809
      8          6           0        0.034554   -0.429117   -0.291101
      9          6           0       -1.151895    0.308509   -0.080723
     10          6           0       -1.229817    1.812979    0.050469
     11          8           0       -0.292308    2.484964   -0.498696
     12          8           0       -2.237783    2.293616    0.603889
     13          6           0       -2.319753   -0.433830    0.102122
     14          1           0       -3.266485    0.042074    0.340888
     15          6           0       -2.359793   -1.813468    0.025865
     16          1           0       -3.317814   -2.313085    0.130553
     17          6           0       -1.177988   -2.514730   -0.188501
     18          1           0       -1.131336   -3.595208   -0.288589
     19          6           0        0.033644   -1.827291   -0.351052
     20          1           0        0.883667   -2.399184   -0.701151
 ---------------------------------------------------------------------
 Rotational constants (GHZ):           1.0761733           0.7157888           0.4586544
 Leave Link  202 at Sun Jul 18 13:43:19 2021, MaxMem=   104857600 cpu:               0.0 elap:               0.0
 (Enter /prod/apps/gaussian/g16b1/l301.exe)
 Standard basis: 6-31G(d) (6D, 7F)
 Ernie: Thresh=  0.10000D-02 Tol=  0.10000D-05 Strict=F.
 There are   209 symmetry adapted cartesian basis functions of A   symmetry.
 There are   209 symmetry adapted basis functions of A   symmetry.
   209 basis functions,   392 primitive gaussians,   209 cartesian basis functions
    47 alpha electrons       47 beta electrons
       nuclear repulsion energy       754.8571348523 Hartrees.
 IExCor=  402 DFT=T Ex+Corr=B3LYP ExCW=0 ScaHFX=  0.200000
 ScaDFX=  0.800000  0.720000  1.000000  0.810000 ScalE2=  1.000000  1.000000
 IRadAn=      5 IRanWt=     -1 IRanGd=            0 ICorTp=0 IEmpDi=  4
 NAtoms=   20 NActive=   20 NUniq=   20 SFac= 1.00D+00 NAtFMM=   60 NAOKFM=F Big=F
 Integral buffers will be    131072 words long.
 Raffenetti 2 integral format.
 Two-electron integral symmetry is turned on.
 ------------------------------------------------------------------------------
 Polarizable Continuum Model (PCM)
 =================================
 Model                : PCM.
 Atomic radii         : MST.
 Polarization charges : Total charges.
 Charge compensation  : None.
 Solution method      : On-the-fly selection.
 Cavity type          : Scaled VdW (van der Waals Surface) (Alpha=1.250).
 Cavity algorithm     : GePol (No added spheres)
                        Default sphere list used, NSphG=   20.
                        Lebedev-Laikov grids with approx.  5.0 points / Ang**2.
                        Smoothing algorithm: York/Karplus (Gamma=1.0000).
                        Polarization charges: spherical gaussians, with
                                              point-specific exponents (IZeta= 3).
                        Self-potential: point-specific (ISelfS= 7).
                        Self-field    : sphere-specific E.n sum rule (ISelfD= 2).
 1st derivatives      : Analytical E(r).r(x)/FMM algorithm (CHGder, D1EAlg=3).
                        Cavity 1st derivative terms included.
 Solvent              : Water, Eps=  78.355300 Eps(inf)=   1.777849
 ------------------------------------------------------------------------------
 Spheres list:
 ISph  on   Nord     Re0    Alpha      Xe            Ye            Ze
    1   C      1    1.5000  1.250      3.566781      0.659805     -0.178306
    2   H      2    1.2000  1.250      3.975744      1.113817      0.725288
    3   H      3    1.2000  1.250      3.352227      1.397671     -0.950341
    4   H      4    1.2000  1.250      4.321457     -0.066069     -0.497062
    5   C      5    1.5000  1.250      2.351563     -0.154080      0.197264
    6   O      6    1.4000  1.250      2.384021     -1.024613      1.042139
    7   O      7    1.4000  1.250      1.233415      0.266950     -0.456809
    8   C      8    1.5000  1.250      0.034554     -0.429117     -0.291101
    9   C      9    1.5000  1.250     -1.151895      0.308509     -0.080723
   10   C     10    1.5000  1.150     -1.229817      1.812979      0.050469
   11   O     11    1.4000  1.150     -0.292308      2.484964     -0.498696
   12   O     12    1.4000  1.150     -2.237783      2.293616      0.603889
   13   C     13    1.5000  1.250     -2.319753     -0.433830      0.102122
   14   H     14    1.2000  1.250     -3.266485      0.042074      0.340888
   15   C     15    1.5000  1.250     -2.359793     -1.813468      0.025865
   16   H     16    1.2000  1.250     -3.317814     -2.313085      0.130553
   17   C     17    1.5000  1.250     -1.177988     -2.514730     -0.188501
[...]
 IMap=   1   2   3   4   5   6   7   8   9  10  11  12  13  14  15  16  17  18  19  20
 IMap=  21  22  23  24  25  26  27  28  29  30  31  32  33  34
 Actual    scratch disk usage=  1965297160 words.
 JobTyp=1 Pass  1:  I=   1 to  34 NPSUse=  4 ParTrn=T ParDer=T DoDerP=F.
 Spin components of T(2) and E(2):
     alpha-alpha T2 =       0.9615891196D-01 E2=     -0.2750156207D+00
     alpha-beta  T2 =       0.4826170664D+00 E2=     -0.1456006019D+01
     beta-beta   T2 =       0.9615891196D-01 E2=     -0.2750156207D+00
 The integrals were generated   1 times.
 ANorm=    0.1294192756D+01
 E2 =    -0.2006037260D+01 EUMP2 =    -0.64649563157148D+03
 Leave Link  906 at Sun Jul 18 14:22:20 2021, MaxMem=   262144000 cpu:             445.8 elap:             120.1
 (Enter /prod/apps/gaussian/g16b1/l601.exe)
 Copying SCF densities to generalized density rwf, IOpCl= 0 IROHF=0.

 **********************************************************************

            Population analysis using the SCF Density.

 **********************************************************************

 Orbital symmetries:
       Occupied  (A) (A) (A) (A) (A) (A) (A) (A) (A) (A) (A) (A)
                 (A) (A) (A) (A) (A) (A) (A) (A) (A) (A) (A) (A)
                 (A) (A) (A) (A) (A) (A) (A) (A) (A) (A) (A) (A)
                 (A) (A) (A) (A) (A) (A) (A) (A) (A) (A) (A)
       Virtual   (A) (A) (A) (A) (A) (A) (A) (A) (A) (A) (A) (A)
                 (A) (A) (A) (A) (A) (A) (A) (A) (A) (A) (A) (A)
                 (A) (A) (A) (A) (A) (A) (A) (A) (A) (A) (A) (A)
                 (A) (A) (A) (A) (A) (A) (A) (A) (A) (A) (A) (A)
                 (A) (A) (A) (A) (A) (A) (A) (A) (A) (A) (A) (A)
                 (A) (A) (A) (A) (A) (A) (A) (A) (A) (A) (A) (A)
                 (A) (A) (A) (A) (A) (A) (A) (A) (A) (A) (A) (A)
                 (A) (A) (A) (A) (A) (A) (A) (A) (A) (A) (A) (A)
                 (A) (A) (A) (A) (A) (A) (A) (A) (A) (A) (A) (A)
                 (A) (A) (A) (A) (A) (A) (A) (A) (A) (A) (A) (A)
                 (A) (A) (A) (A) (A) (A) (A) (A) (A) (A) (A) (A)
                 (A) (A) (A) (A) (A) (A) (A) (A) (A) (A) (A) (A)
                 (A) (A) (A) (A) (A) (A) (A) (A) (A) (A) (A) (A)
                 (A) (A) (A) (A) (A) (A) (A) (A) (A) (A) (A) (A)
                 (A) (A) (A) (A) (A) (A) (A) (A) (A) (A) (A) (A)
                 (A) (A) (A) (A) (A) (A) (A) (A) (A) (A) (A) (A)
                 (A) (A) (A) (A) (A) (A) (A) (A) (A) (A) (A) (A)
                 (A) (A) (A) (A) (A) (A) (A) (A) (A) (A) (A) (A)
                 (A) (A) (A) (A) (A) (A) (A) (A) (A) (A) (A) (A)
                 (A) (A) (A) (A) (A) (A) (A) (A) (A) (A) (A) (A)
                 (A) (A) (A) (A) (A) (A) (A) (A) (A) (A) (A) (A)
                 (A) (A) (A) (A) (A) (A) (A) (A) (A) (A) (A) (A)
                 (A) (A) (A) (A) (A) (A) (A) (A) (A) (A) (A) (A)
                 (A) (A) (A) (A) (A) (A) (A) (A) (A) (A) (A) (A)
                 (A) (A) (A) (A) (A) (A) (A) (A) (A) (A) (A) (A)
                 (A) (A) (A) (A) (A) (A) (A) (A) (A) (A) (A) (A)
                 (A) (A) (A)
 The electronic state is 1-A.
 Alpha  occ. eigenvalues --  -20.48850 -20.42585 -20.32404 -20.32324 -11.27003
 Alpha  occ. eigenvalues --  -11.18597 -11.17560 -11.13456 -11.13122 -11.12680
 Alpha  occ. eigenvalues --  -11.12411 -11.11651 -11.11207  -1.33869  -1.23772
 Alpha  occ. eigenvalues --   -1.19435  -1.09002  -1.03310  -0.92197  -0.90233
 Alpha  occ. eigenvalues --   -0.87698  -0.74094  -0.72124  -0.65756  -0.60257
 Alpha  occ. eigenvalues --   -0.57152  -0.55945  -0.54794  -0.52862  -0.49851
 Alpha  occ. eigenvalues --   -0.48335  -0.46506  -0.45949  -0.44754  -0.42514
 Alpha  occ. eigenvalues --   -0.41601  -0.40518  -0.39610  -0.37768  -0.36142
 Alpha  occ. eigenvalues --   -0.33970  -0.32223  -0.23576  -0.23231  -0.21658
 Alpha  occ. eigenvalues --   -0.21044  -0.20632
 Alpha virt. eigenvalues --    0.10884   0.11535   0.12182   0.13244   0.14137
 Alpha virt. eigenvalues --    0.15507   0.15948   0.18388   0.20056   0.20598
 Alpha virt. eigenvalues --    0.21184   0.21542   0.21844   0.22410   0.23006
 Alpha virt. eigenvalues --    0.23178   0.23331   0.23830   0.24037   0.24981
 Alpha virt. eigenvalues --    0.25303   0.25768   0.26744   0.26871   0.27461
 Alpha virt. eigenvalues --    0.27718   0.28630   0.29295   0.29433   0.30038
 Alpha virt. eigenvalues --    0.30175   0.30292   0.31654   0.32293   0.32896
 Alpha virt. eigenvalues --    0.34042   0.35222   0.35475   0.36013   0.37786
 Alpha virt. eigenvalues --    0.38502   0.39347   0.39993   0.41106   0.41460
 Alpha virt. eigenvalues --    0.41889   0.42580   0.43904   0.44045   0.44678
 Alpha virt. eigenvalues --    0.44985   0.46116   0.46711   0.47550   0.47760
 Alpha virt. eigenvalues --    0.48491   0.48839   0.49451   0.49597   0.49970
 Alpha virt. eigenvalues --    0.50418   0.50789   0.51559   0.51995   0.52865
 Alpha virt. eigenvalues --    0.53058   0.53935   0.54525   0.54770   0.55483
 Alpha virt. eigenvalues --    0.56138   0.56715   0.57547   0.58479   0.58717
 Alpha virt. eigenvalues --    0.59228   0.60223   0.61433   0.62197   0.62279
 Alpha virt. eigenvalues --    0.64560   0.65787   0.66353   0.66725   0.67320
 Alpha virt. eigenvalues --    0.67883   0.68063   0.68754   0.69748   0.70310
 Alpha virt. eigenvalues --    0.71420   0.71956   0.72389   0.73518   0.73805
 Alpha virt. eigenvalues --    0.74328   0.74834   0.75761   0.77034   0.77615
 Alpha virt. eigenvalues --    0.78101   0.79506   0.80043   0.80372   0.81035
 Alpha virt. eigenvalues --    0.81668   0.82547   0.82840   0.83828   0.84741
 Alpha virt. eigenvalues --    0.85052   0.85576   0.86870   0.87388   0.88470
 Alpha virt. eigenvalues --    0.88851   0.89661   0.90565   0.92117   0.92885
 Alpha virt. eigenvalues --    0.93297   0.95438   0.96093   0.97068   0.98569
 Alpha virt. eigenvalues --    0.98666   0.99851   1.00442   1.01913   1.02726
 Alpha virt. eigenvalues --    1.03950   1.04317   1.05236   1.05917   1.06974
 Alpha virt. eigenvalues --    1.07942   1.08118   1.08735   1.08959   1.11133
 Alpha virt. eigenvalues --    1.11560   1.12319   1.12596   1.13910   1.15334
 Alpha virt. eigenvalues --    1.16326   1.17139   1.17593   1.18641   1.20072
 Alpha virt. eigenvalues --    1.21533   1.22203   1.23054   1.24048   1.25132
 Alpha virt. eigenvalues --    1.25335   1.27635   1.28670   1.30091   1.31753
 Alpha virt. eigenvalues --    1.32734   1.33961   1.34812   1.37631   1.40570
 Alpha virt. eigenvalues --    1.41104   1.42264   1.43757   1.45482   1.47418
 Alpha virt. eigenvalues --    1.48970   1.51533   1.52463   1.52625   1.54503
 Alpha virt. eigenvalues --    1.56863   1.57155   1.59196   1.60479   1.62096
 Alpha virt. eigenvalues --    1.63739   1.64785   1.65184   1.65866   1.66638
 Alpha virt. eigenvalues --    1.67653   1.68102   1.69790   1.70890   1.71643
 Alpha virt. eigenvalues --    1.72935   1.73928   1.74361   1.76331   1.76683
 Alpha virt. eigenvalues --    1.78506   1.80429   1.82446   1.83675   1.84471
 Alpha virt. eigenvalues --    1.85267   1.86426   1.87757   1.88170   1.89809
 Alpha virt. eigenvalues --    1.90382   1.91559   1.92923   1.94077   1.96822
 Alpha virt. eigenvalues --    1.97248   1.98986   2.00587   2.01933   2.02773
 Alpha virt. eigenvalues --    2.03988   2.05698   2.06330   2.06936   2.07240
 Alpha virt. eigenvalues --    2.08007   2.09663   2.10268   2.12154   2.13084
 Alpha virt. eigenvalues --    2.13983   2.16485   2.17356   2.19403   2.20620
 Alpha virt. eigenvalues --    2.22978   2.23305   2.24917   2.26629   2.27378
 Alpha virt. eigenvalues --    2.28640   2.31223   2.33032   2.33585   2.35190
 Alpha virt. eigenvalues --    2.37050   2.37972   2.38317   2.40035   2.40366
 Alpha virt. eigenvalues --    2.41826   2.43580   2.45687   2.47262   2.47342
 Alpha virt. eigenvalues --    2.49357   2.50600   2.50706   2.52280   2.53196
 Alpha virt. eigenvalues --    2.54980   2.56874   2.58763   2.61037   2.63358
 Alpha virt. eigenvalues --    2.64338   2.70296   2.71991   2.74771   2.77373
 Alpha virt. eigenvalues --    2.78736   2.81025   2.84772   2.85794   2.90733
 Alpha virt. eigenvalues --    2.93671   2.94634   2.97320   2.98378   3.01536
 Alpha virt. eigenvalues --    3.05755   3.08689   3.11887   3.12272   3.13345
 Alpha virt. eigenvalues --    3.17152   3.25813   3.28045   3.32472   3.38191
 Alpha virt. eigenvalues --    3.41684   3.42892   3.46002   3.48690   3.58515
 Alpha virt. eigenvalues --    3.75509   3.77685   3.78389   3.91020   3.94318
 Alpha virt. eigenvalues --    3.97402   3.97703   3.99871   4.00813   4.01649
 Alpha virt. eigenvalues --    4.04436   4.05283   4.08092   4.10612   4.14207
 Alpha virt. eigenvalues --    4.14693   4.16666   4.19338   4.26398   4.28695
 Alpha virt. eigenvalues --    4.34949   4.38669   4.43676   4.46600   4.90348
          Condensed to atoms (all electrons):
               1          2          3          4          5          6
     1  C    4.724930   0.414457   0.307702   0.301424   0.001359  -0.002885
     2  H    0.414457   0.719547  -0.057981  -0.093556  -0.040236   0.003449
     3  H    0.307702  -0.057981   0.896292  -0.112134   0.057453  -0.002285
     4  H    0.301424  -0.093556  -0.112134   0.931267  -0.064755   0.021899
     5  C    0.001359  -0.040236   0.057453  -0.064755   5.415898   0.126139
     6  O   -0.002885   0.003449  -0.002285   0.021899   0.126139   8.649666
     7  O   -0.057011  -0.022301  -0.063774   0.062635   0.163013  -0.009820
     8  C    0.101611  -0.006454  -0.039951  -0.016437  -0.659839   0.068183
     9  C   -0.011074   0.026665  -0.017824   0.010942   0.166400  -0.096137
    10  C    0.062303  -0.003823  -0.002583   0.005407  -0.208385   0.022827
    11  O    0.009270  -0.001755   0.002227   0.005012  -0.046074   0.005865
    12  O    0.004422   0.001110   0.000318   0.000205  -0.014969  -0.000375
    13  C    0.050397   0.004109   0.000251   0.001590  -0.138146   0.009877
    14  H   -0.000429   0.000154  -0.000038  -0.000209   0.000346   0.000635
    15  C   -0.013990  -0.000022  -0.002642   0.001051   0.046072  -0.004649
    16  H   -0.000273  -0.000002  -0.000015   0.000041   0.001986  -0.000212
    17  C    0.013861  -0.000434   0.008193  -0.002466   0.001878   0.021398
    18  H   -0.000975  -0.000077   0.000028  -0.000100  -0.000425   0.000273
    19  C   -0.154943  -0.023121   0.022916  -0.005188   0.422317   0.002816
    20  H    0.005950   0.000882   0.002973  -0.001070   0.015772  -0.004438
               7          8          9         10         11         12
     1  C   -0.057011   0.101611  -0.011074   0.062303   0.009270   0.004422
     2  H   -0.022301  -0.006454   0.026665  -0.003823  -0.001755   0.001110
     3  H   -0.063774  -0.039951  -0.017824  -0.002583   0.002227   0.000318
     4  H    0.062635  -0.016437   0.010942   0.005407   0.005012   0.000205
     5  C    0.163013  -0.659839   0.166400  -0.208385  -0.046074  -0.014969
     6  O   -0.009820   0.068183  -0.096137   0.022827   0.005865  -0.000375
     7  O   10.026645  -1.111594   0.355678  -0.055696  -0.040705  -0.004407
     8  C   -1.111594  18.524790  -4.697507  -0.249815   0.088058  -0.007324
     9  C    0.355678  -4.697507  13.989808  -1.383764   0.169258   0.045620
    10  C   -0.055696  -0.249815  -1.383764   7.421660   0.136440   0.202543
    11  O   -0.040705   0.088058   0.169258   0.136440   8.976036  -0.137219
    12  O   -0.004407  -0.007324   0.045620   0.202543  -0.137219   8.994085
    13  C   -0.060017   0.458954  -3.870945  -0.499410  -0.120547   0.070917
    14  H   -0.009460  -0.041627   0.726248   0.086515   0.001836  -0.028260
    15  C    0.103244  -3.552741   1.556191  -0.370452  -0.029895  -0.114921
    16  H    0.004985   0.020448  -0.063279   0.021581   0.000272   0.000897
    17  C   -0.182398   1.831427  -2.975125   0.280915  -0.007953  -0.003164
    18  H   -0.007406  -0.045764   0.018427  -0.011908  -0.000183   0.000024
    19  C    0.256379  -6.393537   1.703412  -0.332566  -0.055087  -0.020007
    20  H   -0.157029   0.991449  -0.257453   0.000952   0.000389   0.000115
              13         14         15         16         17         18
     1  C    0.050397  -0.000429  -0.013990  -0.000273   0.013861  -0.000975
     2  H    0.004109   0.000154  -0.000022  -0.000002  -0.000434  -0.000077
     3  H    0.000251  -0.000038  -0.002642  -0.000015   0.008193   0.000028
     4  H    0.001590  -0.000209   0.001051   0.000041  -0.002466  -0.000100
     5  C   -0.138146   0.000346   0.046072   0.001986   0.001878  -0.000425
     6  O    0.009877   0.000635  -0.004649  -0.000212   0.021398   0.000273
     7  O   -0.060017  -0.009460   0.103244   0.004985  -0.182398  -0.007406
     8  C    0.458954  -0.041627  -3.552741   0.020448   1.831427  -0.045764
     9  C   -3.870945   0.726248   1.556191  -0.063279  -2.975125   0.018427
    10  C   -0.499410   0.086515  -0.370452   0.021581   0.280915  -0.011908
    11  O   -0.120547   0.001836  -0.029895   0.000272  -0.007953  -0.000183
    12  O    0.070917  -0.028260  -0.114921   0.000897  -0.003164   0.000024
    13  C   15.717889  -1.114262  -3.837580   0.604112   2.904979  -0.178216
    14  H   -1.114262   1.882947   0.278253  -0.088377  -0.212958  -0.012993
    15  C   -3.837580   0.278253  11.734508  -0.842254  -3.106996   0.420358
    16  H    0.604112  -0.088377  -0.842254   1.694729   0.369437  -0.058536
    17  C    2.904979  -0.212958  -3.106996   0.369437  10.386393  -0.786042
    18  H   -0.178216  -0.012993   0.420358  -0.058536  -0.786042   1.705131
    19  C   -4.877988   0.140405   3.503053  -0.174692  -3.353921   0.488614
    20  H    0.181434   0.010603  -0.226091  -0.017335   0.428479  -0.068885
              19         20
     1  C   -0.154943   0.005950
     2  H   -0.023121   0.000882
     3  H    0.022916   0.002973
     4  H   -0.005188  -0.001070
     5  C    0.422317   0.015772
     6  O    0.002816  -0.004438
     7  O    0.256379  -0.157029
     8  C   -6.393537   0.991449
     9  C    1.703412  -0.257453
    10  C   -0.332566   0.000952
    11  O   -0.055087   0.000389
    12  O   -0.020007   0.000115
    13  C   -4.877988   0.181434
    14  H    0.140405   0.010603
    15  C    3.503053  -0.226091
    16  H   -0.174692  -0.017335
    17  C   -3.353921   0.428479
    18  H    0.488614  -0.068885
    19  C   15.829224  -1.293129
    20  H   -1.293129   1.988042
 Mulliken charges:
               1
     1  C    0.243895
     2  H    0.079390
     3  H    0.000875
     4  H   -0.045556
     5  C    0.754193
     6  O   -0.812226
     7  O   -1.190959
     8  C    0.737670
     9  C    0.604457
    10  C    0.877260
    11  O   -0.955244
    12  O   -0.989612
    13  C    0.692601
    14  H   -0.619326
    15  C    0.459504
    16  H   -0.473510
    17  C    0.384496
    18  H   -0.461345
    19  C    0.315044
    20  H   -0.601610
 Sum of Mulliken charges =  -1.00000
 Mulliken charges with hydrogens summed into heavy atoms:
               1
     1  C    0.278605
     5  C    0.754193
     6  O   -0.812226
     7  O   -1.190959
     8  C    0.737670
     9  C    0.604457
    10  C    0.877260
    11  O   -0.955244
    12  O   -0.989612
    13  C    0.073275
    15  C   -0.014006
    17  C   -0.076848
    19  C   -0.286566
 Electronic spatial extent (au):  <R**2>=           2261.6575
 Charge=             -1.0000 electrons
 Dipole moment (field-independent basis, Debye):
    X=             -0.4114    Y=             -9.1586    Z=             -1.6757  Tot=              9.3198
 Quadrupole moment (field-independent basis, Debye-Ang):
   XX=            -79.4400   YY=           -107.3087   ZZ=            -85.7482
   XY=              0.5297   XZ=             -6.0315   YZ=              3.5367
 Traceless Quadrupole moment (field-independent basis, Debye-Ang):
   XX=             11.3923   YY=            -16.4764   ZZ=              5.0841
   XY=              0.5297   XZ=             -6.0315   YZ=              3.5367
 Octapole moment (field-independent basis, Debye-Ang**2):
  XXX=             28.6658  YYY=            -94.4612  ZZZ=             -5.6932  XYY=             12.7523
  XXY=             -8.7736  XXZ=             -2.6193  XZZ=              3.9066  YZZ=             10.3954
  YYZ=              0.8358  XYZ=              1.8579
 Hexadecapole moment (field-independent basis, Debye-Ang**3):
 XXXX=          -1725.9649 YYYY=          -1332.1060 ZZZZ=           -221.7367 XXXY=            -19.8331
 XXXZ=            -31.5460 YYYX=             35.7496 YYYZ=             17.3224 ZZZX=            -10.4668
 ZZZY=              3.3845 XXYY=           -506.7181 XXZZ=           -370.4308 YYZZ=           -225.2573
 XXYZ=              7.0983 YYXZ=             -8.4406 ZZXY=             -3.8902
 N-N= 7.677928647714D+02 E-N=-3.064229878145D+03  KE= 6.435895689592D+02
 Leave Link  601 at Sun Jul 18 14:22:20 2021, MaxMem=   262144000 cpu:               0.5 elap:               0.2
 (Enter /prod/apps/gaussian/g16b1/l9999.exe)
 1\1\GINC-PIRINEUS38\SP\RMP2-FC\Aug-CC-pVDZ\C9H7O4(1-)\UBATOR02\18-Jul-
 2021\0\\#p mp2/aug-cc-pVDZ scf=tight maxdisk=180GB geom=allcheck\\SET_
 328_BBB272_conf1.geo_195_315_180 geometry\\-1,1\C,0,-0.7399156881,2.75
 05056758,-1.8518645862\H,0,-0.075733101,3.3734411069,-1.2475033463\H,0
 ,-1.7683910468,2.9831363896,-1.5672377831\H,0,-0.5840691321,2.96698034
 84,-2.9075999815\C,0,-0.430831711,1.3075135082,-1.5760649831\O,0,0.078
 1648611,0.5276252898,-2.3512793544\O,0,-0.8580034725,0.959832295,-0.33
 14155379\C,0,-0.4684055929,-0.286520115,0.170909936\C,0,0.8092862028,-
 0.4810639612,0.7187223843\C,0,1.9142495701,0.5812640758,0.7473782229\O
 ,0,1.7875011805,1.5871308449,-0.0042686261\O,0,2.8796437544,0.35163117
 05,1.5248899071\C,0,1.0676288009,-1.7389509625,1.2833053844\H,0,2.0476
 360077,-1.8925947535,1.7208606777\C,0,0.1157581196,-2.7559370121,1.296
 2946956\H,0,0.3546320248,-3.7183269159,1.7367863565\C,0,-1.1477788901,
 -2.5278512383,0.7476881662\H,0,-1.901883467,-3.3062635576,0.7566695627
 \C,0,-1.4396997361,-1.2855647268,0.1864881502\H,0,-2.4157886843,-1.074
 987462,-0.237759245\\Version=ES64L-G16RevB.01\State=1-A\HF=-644.489594
 3\MP2=-646.4956316\RMSD=5.955e-09\PG=C01 [X(C9H7O4)]\\@


 THOUGH I SPEAK WITH THE TONGUES OF MEN AND OF ANGELS, 
 AND HAVE NOT LOVE,
 I AM BECOME AS SOUNDING BRASS, A TINKLING CYMBAL.
 AND THOUGH I HAVE THE GIFT OF PROPHECY,
 AND UNDERSTAND ALL MYSTERIES, AND ALL KNOWLEDGE.
 AND THOUGH I HAVE ALL FAITH, SO THAT I COULD REMOVE MOUNTAINS,
 AND HAVE NOT LOVE, I AM NOTHING.
 AND THOUGH I BESTOW ALL MY GOODS TO FEED THE POOR,
 AND THOUGH I GIVE MY BODY TO BE BURNED,
 AND HAVE NOT LOVE IT PROFITETH ME NOTHING.
 LOVE SUFFERETH LONG, AND IS KIND,
 LOVE ENVIETH NOT,
 LOVE VAUNTETH NOT ITSELF, IS NOT PUFFED UP,
 DOTH NOT BEHAVE ITSELF UNSEEMLY, SEEKETH NOT HER OWN,
 IS NOT EASILY PROVOKED, THINKETH NO EVIL,
 REJOICETH NOT IN INIQUITY, BUT REJOICETH IN THE TRUTH,
 BEARETH ALL THINGS, BELIEVETH ALL THINGS,
 HOPETH ALL THINGS, ENDURETH ALL THINGS.
 LOVE NEVER FAILETH, BUT WHETHER THERE BE PROPHECIES, THEY SHALL FAIL, 
 WHETHER THERE BE TONGUES, THEY SHALL CEASE,
 WHETHER THERE BE KNOWLEDGE, IT SHALL VANISH AWAY.
 FOR WE KNOW IN PART, AND WE PROPHESY IN PART.
 BUT WHEN THAT WHICH IS PERFECT IS COME, THEN THAT WHICH IS IN PART 
 SHALL BE DONE AWAY. 
 WHEN I WAS A CHILD, I SPAKE AS A CHILD, I UNDERSTOOD AS A CHILD, 
 I THOUGHT AS A CHILD.
 BUT WHEN I BECAME A MAN, I PUT AWAY CHILDISH THINGS.
 FOR NOW WE SEE THROUGH A GLASS, DARKLY, BUT THEN FACE TO FACE.
 NOW I KNOW IN PART. BUT THEN SHALL I KNOW EVEN AS ALSO I AM KNOWN.
 AND NOW ABIDETH FAITH, HOPE AND LOVE, THESE THREE.
 BUT THE GREATEST OF THESE IS LOVE.

                     I CORINTHIANS 13
 Job cpu time:       0 days  0 hours 17 minutes 35.5 seconds.
 Elapsed time:       0 days  0 hours  4 minutes 32.8 seconds.
 File lengths (MBytes):  RWF=  15067 Int=      0 D2E=      0 Chk=     11 Scr=      1
 Normal termination of Gaussian 16 at Sun Jul 18 14:22:21 2021.
