 Entering Gaussian System, Link 0=g16
 Initial command:
 /prod/apps/gaussian/g16b1/l1.exe "/tmp/ubator02/1839562/Gau-127166.inp" -scrdir="/tmp/ubator02/1839562/"
 Entering Link 1 = /prod/apps/gaussian/g16b1/l1.exe PID=    127167.
  
 Copyright (c) 1988-2017, Gaussian, Inc.  All Rights Reserved.
  
 This is part of the Gaussian(R) 16 program.  It is based on
 the Gaussian(R) 09 system (copyright 2009, Gaussian, Inc.),
 the Gaussian(R) 03 system (copyright 2003, Gaussian, Inc.),
 the Gaussian(R) 98 system (copyright 1998, Gaussian, Inc.),
 the Gaussian(R) 94 system (copyright 1995, Gaussian, Inc.),
 the Gaussian 92(TM) system (copyright 1992, Gaussian, Inc.),
 the Gaussian 90(TM) system (copyright 1990, Gaussian, Inc.),
 the Gaussian 88(TM) system (copyright 1988, Gaussian, Inc.),
 the Gaussian 86(TM) system (copyright 1986, Carnegie Mellon
 University), and the Gaussian 82(TM) system (copyright 1983,
 Carnegie Mellon University). Gaussian is a federally registered
 trademark of Gaussian, Inc.
  
 This software contains proprietary and confidential information,
 including trade secrets, belonging to Gaussian, Inc.
  
 This software is provided under written license and may be
 used, copied, transmitted, or stored only in accord with that
 written license.
  
 The following legend is applicable only to US Government
 contracts under FAR:
  
                    RESTRICTED RIGHTS LEGEND
  
 Use, reproduction and disclosure by the US Government is
 subject to restrictions as set forth in subparagraphs (a)
 and (c) of the Commercial Computer Software - Restricted
 Rights clause in FAR 52.227-19.
  
 Gaussian, Inc.
 340 Quinnipiac St., Bldg. 40, Wallingford CT 06492
  
  
 ---------------------------------------------------------------
 Warning -- This program may not be used in any manner that
 competes with the business of Gaussian, Inc. or will provide
 assistance to any competitor of Gaussian, Inc.  The licensee
 of this program is prohibited from giving any competitor of
 Gaussian, Inc. access to this program.  By using this program,
 the user acknowledges that Gaussian, Inc. is engaged in the
 business of creating and licensing software in the field of
 computational chemistry and represents and warrants to the
 licensee that it is not a competitor of Gaussian, Inc. and that
 it will not use this program in any manner prohibited above.
 ---------------------------------------------------------------
  

 Cite this work as:
 Gaussian 16, Revision B.01,
 M. J. Frisch, G. W. Trucks, H. B. Schlegel, G. E. Scuseria, 
 M. A. Robb, J. R. Cheeseman, G. Scalmani, V. Barone, 
 G. A. Petersson, H. Nakatsuji, X. Li, M. Caricato, A. V. Marenich, 
 J. Bloino, B. G. Janesko, R. Gomperts, B. Mennucci, H. P. Hratchian, 
 J. V. Ortiz, A. F. Izmaylov, J. L. Sonnenberg, D. Williams-Young, 
 F. Ding, F. Lipparini, F. Egidi, J. Goings, B. Peng, A. Petrone, 
 T. Henderson, D. Ranasinghe, V. G. Zakrzewski, J. Gao, N. Rega, 
 G. Zheng, W. Liang, M. Hada, M. Ehara, K. Toyota, R. Fukuda, 
 J. Hasegawa, M. Ishida, T. Nakajima, Y. Honda, O. Kitao, H. Nakai, 
 T. Vreven, K. Throssell, J. A. Montgomery, Jr., J. E. Peralta, 
 F. Ogliaro, M. J. Bearpark, J. J. Heyd, E. N. Brothers, K. N. Kudin, 
 V. N. Staroverov, T. A. Keith, R. Kobayashi, J. Normand, 
 K. Raghavachari, A. P. Rendell, J. C. Burant, S. S. Iyengar, 
 J. Tomasi, M. Cossi, J. M. Millam, M. Klene, C. Adamo, R. Cammi, 
 J. W. Ochterski, R. L. Martin, K. Morokuma, O. Farkas, 
 J. B. Foresman, and D. J. Fox, Gaussian, Inc., Wallingford CT, 2016.
 
 ******************************************
 Gaussian 16:  ES64L-G16RevB.01 20-Dec-2017
                18-Jul-2021 
 ******************************************
 %mem=800MB
 %nproc=4
 Will use up to    4 processors via shared memory.
 %chk=SET_328_BBB272_conf1.geo_165_045_180.chk
 -----------------------------------------------------------
 #p b3lyp/6-31G(d) opt freq scrf=(iefpcm,read,solvent=water)
 -----------------------------------------------------------
 1/18=20,19=15,26=3,38=1,40=2/1,3;
 2/9=110,12=2,17=6,18=5,40=1/2;
 3/5=1,6=6,7=1,11=2,25=1,30=1,70=2203,71=1,72=1,74=-5/1,2,3;
 4//1;
 5/5=2,38=5,53=1/2;
 6/7=2,8=2,9=2,10=2,28=1/1;
 7//1,2,3,16;
 1/18=20,19=15,26=3/3(2);
 2/9=110/2;
 99//99;
 2/9=110/2;
 3/5=1,6=6,7=1,11=2,25=1,30=1,70=2205,71=1,72=1,74=-5/1,2,3;
 4/5=5,16=3,69=1/1;
 5/5=2,38=5,53=1/2;
 7//1,2,3,16;
 1/18=20,19=15,26=3/3(-5);
 2/9=110/2;
 6/7=2,8=2,9=2,10=2,19=2,28=1/1;
 99/9=1/99;
 Leave Link    1 at Sun Jul 18 13:42:44 2021, MaxMem=   104857600 cpu:               0.1 elap:               0.0
 (Enter /prod/apps/gaussian/g16b1/l101.exe)
 ---------------------------------------------
 SET_328_BBB272_conf1.geo_165_045_180 geometry
 ---------------------------------------------
 Symbolic Z-matrix:
 Charge = -1 Multiplicity = 1
 C                    -3.247     1.265    -0.021 
 H                    -3.636     0.808     0.892 
 H                    -3.572     0.654    -0.865 
 H                    -3.726     2.239    -0.141 
 C                    -1.718     1.336     0.059 
 O                    -1.152     2.347    -0.242 
 O                    -1.204     0.113     0.112 
 C                     0.191    -0.041     0.215 
 C                     0.893    -1.027    -0.506 
 C                     0.228    -1.99     -1.415 
 O                    -1.089    -2.132    -1.305 
 O                     0.909    -2.888    -1.916 
 C                     2.248    -1.107    -0.34 
 H                     2.823    -1.921    -0.773 
 C                     2.972    -0.267     0.507 
 H                     4.055    -0.348     0.543 
 C                     2.293     0.632     1.299 
 H                     2.829     1.448     1.778 
 C                     0.883     0.759     1.132 
 H                     0.358     1.514     1.712 
 
 ITRead=  0  0  0  0  0  0  0  0  0  0  0  0  0  0  0  0  0  0  0  0
 MicOpt= -1 -1 -1 -1 -1 -1 -1 -1 -1 -1 -1 -1 -1 -1 -1 -1 -1 -1 -1 -1
 NAtoms=     20 NQM=       20 NQMF=       0 NMMI=      0 NMMIF=      0
                NMic=       0 NMicF=      0.
                    Isotopes and Nuclear Properties:
 (Nuclear quadrupole moments (NQMom) in fm**2, nuclear magnetic moments (NMagM)
  in nuclear magnetons)

  Atom         1           2           3           4           5           6           7           8           9          10
 IAtWgt=          12           1           1           1          12          16          16          12          12          12
 AtmWgt=  12.0000000   1.0078250   1.0078250   1.0078250  12.0000000  15.9949146  15.9949146  12.0000000  12.0000000  12.0000000
 NucSpn=           0           1           1           1           0           0           0           0           0           0
 AtZEff=  -0.0000000  -0.0000000  -0.0000000  -0.0000000  -0.0000000  -0.0000000  -0.0000000  -0.0000000  -0.0000000  -0.0000000
 NQMom=    0.0000000   0.0000000   0.0000000   0.0000000   0.0000000   0.0000000   0.0000000   0.0000000   0.0000000   0.0000000
 NMagM=    0.0000000   2.7928460   2.7928460   2.7928460   0.0000000   0.0000000   0.0000000   0.0000000   0.0000000   0.0000000
 AtZNuc=   6.0000000   1.0000000   1.0000000   1.0000000   6.0000000   8.0000000   8.0000000   6.0000000   6.0000000   6.0000000

  Atom        11          12          13          14          15          16          17          18          19          20
 IAtWgt=          16          16          12           1          12           1          12           1          12           1
 AtmWgt=  15.9949146  15.9949146  12.0000000   1.0078250  12.0000000   1.0078250  12.0000000   1.0078250  12.0000000   1.0078250
 NucSpn=           0           0           0           1           0           1           0           1           0           1
 AtZEff=  -0.0000000  -0.0000000  -0.0000000  -0.0000000  -0.0000000  -0.0000000  -0.0000000  -0.0000000  -0.0000000  -0.0000000
 NQMom=    0.0000000   0.0000000   0.0000000   0.0000000   0.0000000   0.0000000   0.0000000   0.0000000   0.0000000   0.0000000
 NMagM=    0.0000000   0.0000000   0.0000000   2.7928460   0.0000000   2.7928460   0.0000000   2.7928460   0.0000000   2.7928460
 AtZNuc=   8.0000000   8.0000000   6.0000000   1.0000000   6.0000000   1.0000000   6.0000000   1.0000000   6.0000000   1.0000000
 Leave Link  101 at Sun Jul 18 13:42:45 2021, MaxMem=   104857600 cpu:               0.5 elap:               0.1
 (Enter /prod/apps/gaussian/g16b1/l103.exe)

 GradGradGradGradGradGradGradGradGradGradGradGradGradGradGradGradGradGrad
 Berny optimization.
 Initialization pass.
                           ----------------------------
                           !    Initial Parameters    !
                           ! (Angstroms and Degrees)  !
 --------------------------                            --------------------------
 ! Name  Definition              Value          Derivative Info.                !
 --------------------------------------------------------------------------------
 ! R1    R(1,2)                  1.0926         estimate D2E/DX2                !
 ! R2    R(1,3)                  1.0915         estimate D2E/DX2                !
 ! R3    R(1,4)                  1.092          estimate D2E/DX2                !
 ! R4    R(1,5)                  1.5327         estimate D2E/DX2                !
 ! R5    R(5,6)                  1.1971         estimate D2E/DX2                !
 ! R6    R(5,7)                  1.3277         estimate D2E/DX2                !
 ! R7    R(7,8)                  1.4072         estimate D2E/DX2                !
 ! R8    R(8,9)                  1.4088         estimate D2E/DX2                !
 ! R9    R(8,19)                 1.3999         estimate D2E/DX2                !
 ! R10   R(9,10)                 1.4818         estimate D2E/DX2                !
 ! R11   R(9,13)                 1.3675         estimate D2E/DX2                !
 ! R12   R(10,11)                1.3292         estimate D2E/DX2                !
 ! R13   R(10,12)                1.2334         estimate D2E/DX2                !
 ! R14   R(13,14)                1.0866         estimate D2E/DX2                !
 ! R15   R(13,15)                1.3954         estimate D2E/DX2                !
 ! R16   R(15,16)                1.0866         estimate D2E/DX2                !
 ! R17   R(15,17)                1.3771         estimate D2E/DX2                !
 ! R18   R(17,18)                1.0875         estimate D2E/DX2                !
 ! R19   R(17,19)                1.4255         estimate D2E/DX2                !
 ! R20   R(19,20)                1.0872         estimate D2E/DX2                !
 ! A1    A(2,1,3)              107.8189         estimate D2E/DX2                !
 ! A2    A(2,1,4)              107.9823         estimate D2E/DX2                !
 ! A3    A(2,1,5)              109.3252         estimate D2E/DX2                !
 ! A4    A(3,1,4)              106.482          estimate D2E/DX2                !
 ! A5    A(3,1,5)              111.305          estimate D2E/DX2                !
 ! A6    A(4,1,5)              113.7023         estimate D2E/DX2                !
 ! A7    A(1,5,6)              119.8446         estimate D2E/DX2                !
 ! A8    A(1,5,7)              110.2191         estimate D2E/DX2                !
 ! A9    A(6,5,7)              127.2246         estimate D2E/DX2                !
 ! A10   A(5,7,8)              119.1763         estimate D2E/DX2                !
 ! A11   A(7,8,9)              122.2134         estimate D2E/DX2                !
 ! A12   A(7,8,19)             118.3868         estimate D2E/DX2                !
 ! A13   A(9,8,19)             119.2662         estimate D2E/DX2                !
 ! A14   A(8,9,10)             123.034          estimate D2E/DX2                !
 ! A15   A(8,9,13)             118.2003         estimate D2E/DX2                !
 ! A16   A(10,9,13)            118.7584         estimate D2E/DX2                !
 ! A17   A(9,10,11)            117.6008         estimate D2E/DX2                !
 ! A18   A(9,10,12)            118.3304         estimate D2E/DX2                !
 ! A19   A(11,10,12)           120.1934         estimate D2E/DX2                !
 ! A20   A(9,13,14)            121.3186         estimate D2E/DX2                !
 ! A21   A(9,13,15)            123.5439         estimate D2E/DX2                !
 ! A22   A(14,13,15)           114.7255         estimate D2E/DX2                !
 ! A23   A(13,15,16)           119.4951         estimate D2E/DX2                !
 ! A24   A(13,15,17)           119.0934         estimate D2E/DX2                !
 ! A25   A(16,15,17)           121.4005         estimate D2E/DX2                !
 ! A26   A(15,17,18)           120.0093         estimate D2E/DX2                !
 ! A27   A(15,17,19)           118.5853         estimate D2E/DX2                !
 ! A28   A(18,17,19)           118.1818         estimate D2E/DX2                !
 ! A29   A(8,19,17)            120.9814         estimate D2E/DX2                !
 ! A30   A(8,19,20)            120.5035         estimate D2E/DX2                !
 ! A31   A(17,19,20)           118.4893         estimate D2E/DX2                !
 ! D1    D(2,1,5,6)           -133.8468         estimate D2E/DX2                !
 ! D2    D(2,1,5,7)             63.4943         estimate D2E/DX2                !
 ! D3    D(3,1,5,6)            107.1518         estimate D2E/DX2                !
 ! D4    D(3,1,5,7)            -55.5072         estimate D2E/DX2                !
 ! D5    D(4,1,5,6)            -13.0993         estimate D2E/DX2                !
 ! D6    D(4,1,5,7)           -175.7583         estimate D2E/DX2                !
 ! D7    D(1,5,7,8)           -178.816          estimate D2E/DX2                !
 ! D8    D(6,5,7,8)             20.1299         estimate D2E/DX2                !
 ! D9    D(5,7,8,9)           -138.9724         estimate D2E/DX2                !
 ! D10   D(5,7,8,19)            45.2631         estimate D2E/DX2                !
 ! D11   D(7,8,9,10)            -0.7576         estimate D2E/DX2                !
 ! D12   D(7,8,9,13)          -179.7572         estimate D2E/DX2                !
 ! D13   D(19,8,9,10)          174.9709         estimate D2E/DX2                !
 ! D14   D(19,8,9,13)           -4.0286         estimate D2E/DX2                !
 ! D15   D(7,8,19,17)          178.8564         estimate D2E/DX2                !
 ! D16   D(7,8,19,20)           -3.019          estimate D2E/DX2                !
 ! D17   D(9,8,19,17)            2.964          estimate D2E/DX2                !
 ! D18   D(9,8,19,20)         -178.9113         estimate D2E/DX2                !
 ! D19   D(8,9,10,11)          -16.0837         estimate D2E/DX2                !
 ! D20   D(8,9,10,12)         -173.9922         estimate D2E/DX2                !
 ! D21   D(13,9,10,11)         162.9105         estimate D2E/DX2                !
 ! D22   D(13,9,10,12)           5.0021         estimate D2E/DX2                !
 ! D23   D(8,9,13,14)          172.3932         estimate D2E/DX2                !
 ! D24   D(8,9,13,15)            0.1526         estimate D2E/DX2                !
 ! D25   D(10,9,13,14)          -6.6501         estimate D2E/DX2                !
 ! D26   D(10,9,13,15)        -178.8907         estimate D2E/DX2                !
 ! D27   D(9,13,15,16)        -176.2603         estimate D2E/DX2                !
 ! D28   D(9,13,15,17)           4.9245         estimate D2E/DX2                !
 ! D29   D(14,13,15,16)         11.035          estimate D2E/DX2                !
 ! D30   D(14,13,15,17)       -167.7802         estimate D2E/DX2                !
 ! D31   D(13,15,17,18)       -165.2062         estimate D2E/DX2                !
 ! D32   D(13,15,17,19)         -5.849          estimate D2E/DX2                !
 ! D33   D(16,15,17,18)         16.002          estimate D2E/DX2                !
 ! D34   D(16,15,17,19)        175.3592         estimate D2E/DX2                !
 ! D35   D(15,17,19,8)           2.0576         estimate D2E/DX2                !
 ! D36   D(15,17,19,20)       -176.104          estimate D2E/DX2                !
 ! D37   D(18,17,19,8)         161.7942         estimate D2E/DX2                !
 ! D38   D(18,17,19,20)        -16.3674         estimate D2E/DX2                !
 --------------------------------------------------------------------------------
 Trust Radius=3.00D-01 FncErr=1.00D-07 GrdErr=1.00D-06 EigMax=2.50D+02 EigMin=1.00D-04
 Number of steps in this run=     99 maximum allowed number of steps=    120.
 GradGradGradGradGradGradGradGradGradGradGradGradGradGradGradGradGradGrad

 Leave Link  103 at Sun Jul 18 13:42:45 2021, MaxMem=   104857600 cpu:               0.1 elap:               0.0
 (Enter /prod/apps/gaussian/g16b1/l202.exe)
                          Input orientation:                          
 ---------------------------------------------------------------------
 Center     Atomic      Atomic             Coordinates (Angstroms)
 Number     Number       Type             X           Y           Z
 ---------------------------------------------------------------------
      1          6           0       -3.247000    1.265000   -0.021000
      2          1           0       -3.636000    0.808000    0.892000
      3          1           0       -3.572000    0.654000   -0.865000
      4          1           0       -3.726000    2.239000   -0.141000
      5          6           0       -1.718000    1.336000    0.059000
      6          8           0       -1.152000    2.347000   -0.242000
      7          8           0       -1.204000    0.113000    0.112000
      8          6           0        0.191000   -0.041000    0.215000
      9          6           0        0.893000   -1.027000   -0.506000
     10          6           0        0.228000   -1.990000   -1.415000
     11          8           0       -1.089000   -2.132000   -1.305000
     12          8           0        0.909000   -2.888000   -1.916000
     13          6           0        2.248000   -1.107000   -0.340000
     14          1           0        2.823000   -1.921000   -0.773000
     15          6           0        2.972000   -0.267000    0.507000
     16          1           0        4.055000   -0.348000    0.543000
     17          6           0        2.293000    0.632000    1.299000
     18          1           0        2.829000    1.448000    1.778000
     19          6           0        0.883000    0.759000    1.132000
     20          1           0        0.358000    1.514000    1.712000
 ---------------------------------------------------------------------
                    Distance matrix (angstroms):
                    1          2          3          4          5
     1  C    0.000000
     2  H    1.092584   0.000000
     3  H    1.091459   1.764897   0.000000
     4  H    1.092024   1.767187   1.749319   0.000000
     5  C    1.532737   2.156710   2.180875   2.210763   0.000000
     6  O    2.368246   3.134443   3.018407   2.578244   1.197112
     7  O    2.349179   2.646894   2.618136   3.308227   1.327680
     8  C    3.685265   3.978072   3.976128   4.546210   2.358971
     9  C    4.756899   5.082664   4.784440   5.668787   3.566555
    10  C    4.961238   5.299203   4.661892   5.928038   4.125757
    11  O    4.224361   4.467395   3.757750   5.235867   3.779307
    12  O    6.173392   6.496330   5.807730   7.135824   5.352002
    13  C    5.993594   6.309240   6.103208   6.850109   4.675105
    14  H    6.896448   7.206826   6.894571   7.784242   5.649863
    15  C    6.426645   6.705931   6.749412   7.180748   4.976586
    16  H    7.499271   7.785218   7.820332   8.228267   6.033046
    17  C    5.730156   5.945559   6.251528   6.394092   4.256916
    18  H    6.339374   6.556739   6.970559   6.875774   4.862377
    19  C    4.317678   4.525634   4.883243   5.005378   2.872187
    20  H    4.007657   4.137979   4.777597   4.542938   2.659675
                    6          7          8          9         10
     6  O    0.000000
     7  O    2.262471   0.000000
     8  C    2.777596   1.407249   0.000000
     9  C    3.954187   2.465549   1.408844   0.000000
    10  C    4.699989   2.967316   2.541037   1.481849   0.000000
    11  O    4.603844   2.657280   2.884628   2.405774   1.329193
    12  O    5.869857   4.193275   3.627960   2.334883   1.233356
    13  C    4.847651   3.689039   2.382358   1.367472   2.452695
    14  H    5.856484   4.597511   3.382007   2.143694   2.674126
    15  C    4.939775   4.211817   2.805406   2.434340   3.767273
    16  H    5.915412   5.296731   3.890029   3.399954   4.601723
    17  C    4.145351   3.729254   2.458941   2.823173   4.301733
    18  H    4.553785   4.563208   3.408685   3.884633   5.364727
    19  C    2.924183   2.411075   1.399912   2.423415   3.804371
    20  H    2.606167   2.638682   2.164930   3.415030   4.698196
                   11         12         13         14         15
    11  O    0.000000
    12  O    2.221905   0.000000
    13  C    3.621798   2.729223   0.000000
    14  H    3.953642   2.430007   1.086605   0.000000
    15  C    4.822167   4.122686   1.395416   2.096740   0.000000
    16  H    5.749652   4.732399   2.149656   2.392490   1.086621
    17  C    5.085119   4.964079   2.390077   3.330449   1.377137
    18  H    6.137753   6.011067   3.369200   4.225849   2.139419
    19  C    4.264462   4.753061   2.740796   3.817725   2.409818
    20  H    4.948678   5.730933   3.827851   4.904149   3.384816
                   16         17         18         19         20
    16  H    0.000000
    17  C    2.153272   0.000000
    18  H    2.500783   1.087471   0.000000
    19  C    3.410858   1.425524   2.163089   0.000000
    20  H    4.301327   2.166268   2.472762   1.087221   0.000000
 Stoichiometry    C9H7O4(1-)
 Framework group  C1[X(C9H7O4)]
 Deg. of freedom    54
 Full point group                 C1      NOp   1
 Largest Abelian subgroup         C1      NOp   1
 Largest concise Abelian subgroup C1      NOp   1
                         Standard orientation:                         
 ---------------------------------------------------------------------
 Center     Atomic      Atomic             Coordinates (Angstroms)
 Number     Number       Type             X           Y           Z
 ---------------------------------------------------------------------
      1          6           0       -3.572853    0.657656   -0.203640
      2          1           0       -3.728716    0.664877   -1.285025
      3          1           0       -3.412208    1.688344    0.117543
      4          1           0       -4.500382    0.327014    0.268465
      5          6           0       -2.363969   -0.224059    0.128712
      6          8           0       -2.435001   -1.021622    1.018614
      7          8           0       -1.261332    0.289452   -0.403482
      8          6           0       -0.038798   -0.386701   -0.234433
      9          6           0        1.163754    0.293485    0.041349
     10          6           0        1.248806    1.768109    0.160207
     11          8           0        0.234769    2.483782   -0.315496
     12          8           0        2.362536    2.281446    0.291569
     13          6           0        2.305564   -0.445112    0.185311
     14          1           0        3.278211    0.030613    0.276713
     15          6           0        2.344217   -1.835282    0.070775
     16          1           0        3.276156   -2.361803    0.257892
     17          6           0        1.202159   -2.508454   -0.302116
     18          1           0        1.136932   -3.585482   -0.166661
     19          6           0       -0.011102   -1.771912   -0.434871
     20          1           0       -0.924438   -2.314403   -0.666325
 ---------------------------------------------------------------------
 Rotational constants (GHZ):           1.1036985           0.7077843           0.4544998
 Leave Link  202 at Sun Jul 18 13:42:45 2021, MaxMem=   104857600 cpu:               0.0 elap:               0.0
 (Enter /prod/apps/gaussian/g16b1/l301.exe)
 Standard basis: 6-31G(d) (6D, 7F)
 Ernie: Thresh=  0.10000D-02 Tol=  0.10000D-05 Strict=F.
 There are   209 symmetry adapted cartesian basis functions of A   symmetry.
 There are   209 symmetry adapted basis functions of A   symmetry.
   209 basis functions,   392 primitive gaussians,   209 cartesian basis functions
    47 alpha electrons       47 beta electrons
       nuclear repulsion energy       756.1244130982 Hartrees.
 IExCor=  402 DFT=T Ex+Corr=B3LYP ExCW=0 ScaHFX=  0.200000
 ScaDFX=  0.800000  0.720000  1.000000  0.810000 ScalE2=  1.000000  1.000000
 IRadAn=      5 IRanWt=     -1 IRanGd=            0 ICorTp=0 IEmpDi=  4
 NAtoms=   20 NActive=   20 NUniq=   20 SFac= 1.00D+00 NAtFMM=   60 NAOKFM=F Big=F
 Integral buffers will be    131072 words long.
 Raffenetti 2 integral format.
 Two-electron integral symmetry is turned on.
 Using the following non-standard input for PCM:
 MSTModel=DFT cav MSTCharged
 --- end of non-standard input.
 MST model for solvation energy: B3LYP parametrization.
 MST cavity parameters:
 ISph   IAn     Re0     Alpha   Atom Type   QCorr
 ------------------------------------------------
   1      6     1.50     1.25      CH3        F
   2      1     1.20     1.25      CH3        F
   3      1     1.20     1.25      CH3        F
   4      1     1.20     1.25      CH3        F
   5      6     1.50     1.25      C          F
   6      8     1.40     1.25      O          F
   7      8     1.40     1.25      O          F
   8      6     1.50     1.25      C          F
   9      6     1.50     1.25      C          F
  10      6     1.50     1.15      C          T
  11      8     1.40     1.15      O          T
  12      8     1.40     1.15      O          T
  13      6     1.50     1.25      CH         F
  14      1     1.20     1.25      CH         F
  15      6     1.50     1.25      CH         F
  16      1     1.20     1.25      CH         F
  17      6     1.50     1.25      CH         F
  18      1     1.20     1.25      CH         F
  19      6     1.50     1.25      CH         F
  20      1     1.20     1.25      CH         F
 ------------------------------------------------------------------------------
 Polarizable Continuum Model (PCM)
 =================================
 Model                : PCM.
 Atomic radii         : MST.
 Polarization charges : Total charges.
 Charge compensation  : None.
 Solution method      : On-the-fly selection.
 Cavity type          : Scaled VdW (van der Waals Surface) (Alpha=1.250).
 Cavity algorithm     : GePol (No added spheres)
                        Default sphere list used, NSphG=   20.
                        Lebedev-Laikov grids with approx.  5.0 points / Ang**2.
                        Smoothing algorithm: York/Karplus (Gamma=1.0000).
                        Polarization charges: spherical gaussians, with
                                              point-specific exponents (IZeta= 3).
                        Self-potential: point-specific (ISelfS= 7).
                        Self-field    : sphere-specific E.n sum rule (ISelfD= 2).
 1st derivatives      : Analytical E(r).r(x)/FMM algorithm (CHGder, D1EAlg=3).
                        Cavity 1st derivative terms included.
 Solvent              : Water, Eps=  78.355300 Eps(inf)=   1.777849
 ------------------------------------------------------------------------------
 Spheres list:
 ISph  on   Nord     Re0    Alpha      Xe            Ye            Ze
    1   C      1    1.5000  1.250     -3.572853      0.657656     -0.203640
    2   H      2    1.2000  1.250     -3.728716      0.664877     -1.285025
    3   H      3    1.2000  1.250     -3.412208      1.688344      0.117543
    4   H      4    1.2000  1.250     -4.500382      0.327014      0.268465
    5   C      5    1.5000  1.250     -2.363969     -0.224059      0.128712
    6   O      6    1.4000  1.250     -2.435001     -1.021622      1.018614
    7   O      7    1.4000  1.250     -1.261332      0.289452     -0.403482
    8   C      8    1.5000  1.250     -0.038798     -0.386701     -0.234433
    9   C      9    1.5000  1.250      1.163754      0.293485      0.041349
   10   C     10    1.5000  1.150      1.248806      1.768109      0.160207
   11   O     11    1.4000  1.150      0.234769      2.483782     -0.315496
   12   O     12    1.4000  1.150      2.362536      2.281446      0.291569
   13   C     13    1.5000  1.250      2.305564     -0.445112      0.185311
   14   H     14    1.2000  1.250      3.278211      0.030613      0.276713
   15   C     15    1.5000  1.250      2.344217     -1.835282      0.070775
   16   H     16    1.2000  1.250      3.276156     -2.361803      0.257892
   17   C     17    1.5000  1.250      1.202159     -2.508454     -0.302116
   18   H     18    1.2000  1.250      1.136932     -3.585482     -0.166661
   19   C     19    1.5000  1.250     -0.011102     -1.771912     -0.434871
   20   H     20    1.2000  1.250     -0.924438     -2.314403     -0.666325
 ------------------------------------------------------------------------------
 GePol: Number of generator spheres                  =      20
 GePol: Total number of spheres                      =      20
 GePol: Number of exposed spheres                    =      20 (100.00%)
 GePol: Number of points                             =    1615
 GePol: Average weight of points                     =       0.14
 GePol: Minimum weight of points                     =   0.39D-09
 GePol: Maximum weight of points                     =    0.22001
 GePol: Number of points with low weight             =      91
 GePol: Fraction of low-weight points (<1% of avg)   =       5.63%
 GePol: Cavity surface area                          =    218.640 Ang**2
 GePol: Cavity volume                                =    194.653 Ang**3
 PCM non-electrostatic energy =         0.0034096250 Hartrees.
 Nuclear repulsion after PCM non-electrostatic terms =      756.1278227233 Hartrees.
 Leave Link  301 at Sun Jul 18 13:42:45 2021, MaxMem=   104857600 cpu:               0.3 elap:               0.1
 (Enter /prod/apps/gaussian/g16b1/l302.exe)
 NPDir=0 NMtPBC=     1 NCelOv=     1 NCel=       1 NClECP=     1 NCelD=      1
         NCelK=      1 NCelE2=     1 NClLst=     1 CellRange=     0.0.
 One-electron integrals computed using PRISM.
 One-electron integral symmetry used in STVInt
 NBasis=   209 RedAO= T EigKep=  4.64D-04  NBF=   209
 NBsUse=   209 1.00D-06 EigRej= -1.00D+00 NBFU=   209
 Precomputing XC quadrature grid using
 IXCGrd= 4 IRadAn=           5 IRanWt=          -1 IRanGd=           0 AccXCQ= 0.00D+00.
 Generated NRdTot=       0 NPtTot=           0 NUsed=           0 NTot=          32
 NSgBfM=   208   208   208   208   208 MxSgAt=    20 MxSgA2=    20.
 Leave Link  302 at Sun Jul 18 13:42:45 2021, MaxMem=   104857600 cpu:               0.9 elap:               0.2
 (Enter /prod/apps/gaussian/g16b1/l303.exe)
 DipDrv:  MaxL=1.
 Leave Link  303 at Sun Jul 18 13:42:45 2021, MaxMem=   104857600 cpu:               0.1 elap:               0.0
 (Enter /prod/apps/gaussian/g16b1/l401.exe)
 ExpMin= 1.61D-01 ExpMax= 5.48D+03 ExpMxC= 8.25D+02 IAcc=3 IRadAn=         5 AccDes= 0.00D+00
 Harris functional with IExCor=  402 and IRadAn=       5 diagonalized for initial guess.
 HarFok:  IExCor=  402 AccDes= 0.00D+00 IRadAn=         5 IDoV= 1 UseB2=F ITyADJ=14
 ICtDFT=  3500011 ScaDFX=  1.000000  1.000000  1.000000  1.000000
 FoFCou: FMM=F IPFlag=           0 FMFlag=      100000 FMFlg1=           0
         NFxFlg=           0 DoJE=T BraDBF=F KetDBF=T FulRan=T
         wScrn=  0.000000 ICntrl=       500 IOpCl=  0 I1Cent=   200000004 NGrid=           0
         NMat0=    1 NMatS0=      1 NMatT0=    0 NMatD0=    1 NMtDS0=    0 NMtDT0=    0
 Petite list used in FoFCou.
 Harris En= -648.320638313518    
 JPrj=0 DoOrth=F DoCkMO=F.
 Leave Link  401 at Sun Jul 18 13:42:46 2021, MaxMem=   104857600 cpu:               4.4 elap:               1.1
 (Enter /prod/apps/gaussian/g16b1/l502.exe)
 Integral symmetry usage will be decided dynamically.
 Closed shell SCF:
 Using DIIS extrapolation, IDIIS=  1040.
 NGot=   104857600 LenX=   104766669 LenY=   104722547
 Requested convergence on RMS density matrix=1.00D-08 within 128 cycles.
 Requested convergence on MAX density matrix=1.00D-06.
 Requested convergence on             energy=1.00D-06.
 No special actions if energy rises.
 Fock matrices will be formed incrementally for  20 cycles.

 Cycle   1  Pass 1  IDiag  1:
 FoFJK:  IHMeth= 1 ICntrl=       0 DoSepK=F KAlg= 0 I1Cent=           0 FoldK=F
 IRaf= 870000000 NMat=       1 IRICut=       1 DoRegI=T DoRafI=F ISym2E= 0 IDoP0=0 IntGTp=1.
 FoFCou: FMM=F IPFlag=           0 FMFlag=      100000 FMFlg1=           0
         NFxFlg=           0 DoJE=F BraDBF=F KetDBF=F FulRan=T
         wScrn=  0.000000 ICntrl=         0 IOpCl=  0 I1Cent=           0 NGrid=           0
         NMat0=    1 NMatS0=      1 NMatT0=    0 NMatD0=    1 NMtDS0=    0 NMtDT0=    0
 Symmetry not used in FoFCou.
 Inv3:  Mode=1 IEnd=     7824675.
 Iteration    1 A*A^-1 deviation from unit magnitude is 3.33D-15 for   1461.
 Iteration    1 A*A^-1 deviation from orthogonality  is 3.71D-15 for    756    545.
 Iteration    1 A^-1*A deviation from unit magnitude is 3.11D-15 for   1461.
 Iteration    1 A^-1*A deviation from orthogonality  is 7.43D-14 for   1132   1082.
 E= -647.808068101472    
 DIIS: error= 2.73D-02 at cycle   1 NSaved=   1.
 NSaved= 1 IEnMin= 1 EnMin= -647.808068101472     IErMin= 1 ErrMin= 2.73D-02
 ErrMax= 2.73D-02  0.00D+00 EMaxC= 1.00D-01 BMatC= 4.68D-01 BMatP= 4.68D-01
 IDIUse=3 WtCom= 7.27D-01 WtEn= 2.73D-01
 Coeff-Com:  0.100D+01
 Coeff-En:   0.100D+01
 Coeff:      0.100D+01
 Gap=     0.232 Goal=   None    Shift=    0.000
 GapD=    0.232 DampG=1.000 DampE=0.500 DampFc=0.5000 IDamp=-1.
 Damping current iteration by 5.00D-01
 RMSDP=8.03D-03 MaxDP=1.90D-01              OVMax= 2.32D-01

 Cycle   2  Pass 1  IDiag  1:
 RMSU=  4.00D-03    CP:  9.87D-01
 E= -647.940235426146     Delta-E=       -0.132167324674 Rises=F Damp=T
 DIIS: error= 7.77D-03 at cycle   2 NSaved=   2.
 NSaved= 2 IEnMin= 2 EnMin= -647.940235426146     IErMin= 2 ErrMin= 7.77D-03
 ErrMax= 7.77D-03  0.00D+00 EMaxC= 1.00D-01 BMatC= 5.30D-02 BMatP= 4.68D-01
 IDIUse=3 WtCom= 9.22D-01 WtEn= 7.77D-02
 Coeff-Com:  0.183D+00 0.817D+00
 Coeff-En:   0.286D+00 0.714D+00
 Coeff:      0.191D+00 0.809D+00
 Gap=     0.179 Goal=   None    Shift=    0.000
 RMSDP=2.09D-03 MaxDP=5.38D-02 DE=-1.32D-01 OVMax= 1.43D-01

 Cycle   3  Pass 1  IDiag  1:
 RMSU=  1.87D-03    CP:  9.77D-01  7.74D-01
 E= -648.169370762144     Delta-E=       -0.229135335999 Rises=F Damp=F
 DIIS: error= 8.65D-03 at cycle   3 NSaved=   3.
 NSaved= 3 IEnMin= 3 EnMin= -648.169370762144     IErMin= 2 ErrMin= 7.77D-03
 ErrMax= 8.65D-03  0.00D+00 EMaxC= 1.00D-01 BMatC= 3.75D-02 BMatP= 5.30D-02
 IDIUse=3 WtCom= 9.13D-01 WtEn= 8.65D-02
 Coeff-Com:  0.523D-01 0.457D+00 0.491D+00
 Coeff-En:   0.000D+00 0.000D+00 0.100D+01
 Coeff:      0.478D-01 0.417D+00 0.535D+00
 Gap=     0.173 Goal=   None    Shift=    0.000
 RMSDP=1.12D-03 MaxDP=3.36D-02 DE=-2.29D-01 OVMax= 6.48D-02

 Cycle   4  Pass 1  IDiag  1:
 RMSU=  7.47D-04    CP:  9.80D-01  8.09D-01  5.61D-01
 E= -648.197520881169     Delta-E=       -0.028150119025 Rises=F Damp=F
 DIIS: error= 3.62D-03 at cycle   4 NSaved=   4.
 NSaved= 4 IEnMin= 4 EnMin= -648.197520881169     IErMin= 4 ErrMin= 3.62D-03
 ErrMax= 3.62D-03  0.00D+00 EMaxC= 1.00D-01 BMatC= 6.26D-03 BMatP= 3.75D-02
 IDIUse=3 WtCom= 9.64D-01 WtEn= 3.62D-02
 Coeff-Com:  0.102D-01 0.115D+00 0.307D+00 0.568D+00
 Coeff-En:   0.000D+00 0.000D+00 0.121D+00 0.879D+00
 Coeff:      0.984D-02 0.110D+00 0.300D+00 0.579D+00
 Gap=     0.172 Goal=   None    Shift=    0.000
 RMSDP=3.72D-04 MaxDP=1.29D-02 DE=-2.82D-02 OVMax= 2.07D-02

 Cycle   5  Pass 1  IDiag  1:
 RMSU=  2.31D-04    CP:  9.80D-01  7.99D-01  6.53D-01  6.89D-01
 E= -648.201711554319     Delta-E=       -0.004190673150 Rises=F Damp=F
 DIIS: error= 1.17D-03 at cycle   5 NSaved=   5.
 NSaved= 5 IEnMin= 5 EnMin= -648.201711554319     IErMin= 5 ErrMin= 1.17D-03
 ErrMax= 1.17D-03  0.00D+00 EMaxC= 1.00D-01 BMatC= 7.39D-04 BMatP= 6.26D-03
 IDIUse=3 WtCom= 9.88D-01 WtEn= 1.17D-02
 Coeff-Com:  0.155D-02 0.102D-01 0.117D+00 0.349D+00 0.523D+00
 Coeff-En:   0.000D+00 0.000D+00 0.000D+00 0.567D-01 0.943D+00
 Coeff:      0.153D-02 0.100D-01 0.115D+00 0.345D+00 0.528D+00
 Gap=     0.174 Goal=   None    Shift=    0.000
 RMSDP=1.34D-04 MaxDP=4.72D-03 DE=-4.19D-03 OVMax= 4.67D-03

 Cycle   6  Pass 1  IDiag  1:
 RMSU=  6.47D-05    CP:  9.80D-01  7.97D-01  6.57D-01  7.25D-01  5.10D-01
 E= -648.202259551303     Delta-E=       -0.000547996984 Rises=F Damp=F
 DIIS: error= 2.61D-04 at cycle   6 NSaved=   6.
 NSaved= 6 IEnMin= 6 EnMin= -648.202259551303     IErMin= 6 ErrMin= 2.61D-04
 ErrMax= 2.61D-04  0.00D+00 EMaxC= 1.00D-01 BMatC= 3.86D-05 BMatP= 7.39D-04
 IDIUse=3 WtCom= 9.97D-01 WtEn= 2.61D-03
 Coeff-Com:  0.320D-03-0.101D-02 0.440D-01 0.146D+00 0.282D+00 0.528D+00
 Coeff-En:   0.000D+00 0.000D+00 0.000D+00 0.000D+00 0.000D+00 0.100D+01
 Coeff:      0.319D-03-0.101D-02 0.439D-01 0.146D+00 0.282D+00 0.529D+00
 Gap=     0.174 Goal=   None    Shift=    0.000
 RMSDP=3.35D-05 MaxDP=1.24D-03 DE=-5.48D-04 OVMax= 1.78D-03

 Cycle   7  Pass 1  IDiag  1:
 RMSU=  1.94D-05    CP:  9.80D-01  7.98D-01  6.58D-01  7.27D-01  5.65D-01
                    CP:  6.33D-01
 E= -648.202289536484     Delta-E=       -0.000029985181 Rises=F Damp=F
 DIIS: error= 1.12D-04 at cycle   7 NSaved=   7.
 NSaved= 7 IEnMin= 7 EnMin= -648.202289536484     IErMin= 7 ErrMin= 1.12D-04
 ErrMax= 1.12D-04  0.00D+00 EMaxC= 1.00D-01 BMatC= 3.11D-06 BMatP= 3.86D-05
 IDIUse=3 WtCom= 9.99D-01 WtEn= 1.12D-03
 Coeff-Com:  0.102D-03-0.147D-02 0.146D-01 0.504D-01 0.112D+00 0.287D+00
 Coeff-Com:  0.537D+00
 Coeff-En:   0.000D+00 0.000D+00 0.000D+00 0.000D+00 0.000D+00 0.000D+00
 Coeff-En:   0.100D+01
 Coeff:      0.102D-03-0.147D-02 0.146D-01 0.503D-01 0.112D+00 0.287D+00
 Coeff:      0.538D+00
 Gap=     0.174 Goal=   None    Shift=    0.000
 RMSDP=1.03D-05 MaxDP=3.65D-04 DE=-3.00D-05 OVMax= 7.79D-04

 Cycle   8  Pass 1  IDiag  1:
 RMSU=  6.76D-06    CP:  9.80D-01  7.97D-01  6.58D-01  7.28D-01  5.63D-01
                    CP:  6.75D-01  6.34D-01
 E= -648.202291747063     Delta-E=       -0.000002210579 Rises=F Damp=F
 DIIS: error= 5.44D-05 at cycle   8 NSaved=   8.
 NSaved= 8 IEnMin= 8 EnMin= -648.202291747063     IErMin= 8 ErrMin= 5.44D-05
 ErrMax= 5.44D-05  0.00D+00 EMaxC= 1.00D-01 BMatC= 5.37D-07 BMatP= 3.11D-06
 IDIUse=1 WtCom= 1.00D+00 WtEn= 0.00D+00
 Coeff-Com:  0.553D-04-0.834D-03 0.451D-02 0.155D-01 0.402D-01 0.123D+00
 Coeff-Com:  0.339D+00 0.478D+00
 Coeff:      0.553D-04-0.834D-03 0.451D-02 0.155D-01 0.402D-01 0.123D+00
 Coeff:      0.339D+00 0.478D+00
 Gap=     0.174 Goal=   None    Shift=    0.000
 RMSDP=3.89D-06 MaxDP=1.66D-04 DE=-2.21D-06 OVMax= 3.03D-04

 Cycle   9  Pass 1  IDiag  1:
 RMSU=  2.03D-06    CP:  9.80D-01  7.97D-01  6.58D-01  7.28D-01  5.65D-01
                    CP:  6.74D-01  6.88D-01  5.65D-01
 E= -648.202292145818     Delta-E=       -0.000000398755 Rises=F Damp=F
 DIIS: error= 1.02D-05 at cycle   9 NSaved=   9.
 NSaved= 9 IEnMin= 9 EnMin= -648.202292145818     IErMin= 9 ErrMin= 1.02D-05
 ErrMax= 1.02D-05  0.00D+00 EMaxC= 1.00D-01 BMatC= 3.57D-08 BMatP= 5.37D-07
 IDIUse=1 WtCom= 1.00D+00 WtEn= 0.00D+00
 Coeff-Com:  0.224D-04-0.240D-03 0.272D-03 0.598D-03 0.472D-02 0.214D-01
 Coeff-Com:  0.938D-01 0.244D+00 0.635D+00
 Coeff:      0.224D-04-0.240D-03 0.272D-03 0.598D-03 0.472D-02 0.214D-01
 Coeff:      0.938D-01 0.244D+00 0.635D+00
 Gap=     0.174 Goal=   None    Shift=    0.000
 RMSDP=1.11D-06 MaxDP=3.17D-05 DE=-3.99D-07 OVMax= 5.43D-05

 Cycle  10  Pass 1  IDiag  1:
 RMSU=  8.58D-07    CP:  9.80D-01  7.97D-01  6.58D-01  7.28D-01  5.66D-01
                    CP:  6.76D-01  6.94D-01  6.23D-01  7.31D-01
 E= -648.202292168614     Delta-E=       -0.000000022796 Rises=F Damp=F
 DIIS: error= 4.16D-06 at cycle  10 NSaved=  10.
 NSaved=10 IEnMin=10 EnMin= -648.202292168614     IErMin=10 ErrMin= 4.16D-06
 ErrMax= 4.16D-06  0.00D+00 EMaxC= 1.00D-01 BMatC= 6.82D-09 BMatP= 3.57D-08
 IDIUse=1 WtCom= 1.00D+00 WtEn= 0.00D+00
 Coeff-Com:  0.907D-05-0.551D-04-0.290D-03-0.128D-02-0.155D-02-0.132D-02
 Coeff-Com:  0.157D-01 0.901D-01 0.377D+00 0.521D+00
 Coeff:      0.907D-05-0.551D-04-0.290D-03-0.128D-02-0.155D-02-0.132D-02
 Coeff:      0.157D-01 0.901D-01 0.377D+00 0.521D+00
 Gap=     0.174 Goal=   None    Shift=    0.000
 RMSDP=4.38D-07 MaxDP=1.33D-05 DE=-2.28D-08 OVMax= 3.46D-05

 Cycle  11  Pass 1  IDiag  1:
 RMSU=  1.92D-07    CP:  9.80D-01  7.97D-01  6.58D-01  7.28D-01  5.66D-01
                    CP:  6.77D-01  6.96D-01  6.35D-01  8.14D-01  6.29D-01
 E= -648.202292175316     Delta-E=       -0.000000006702 Rises=F Damp=F
 DIIS: error= 6.54D-07 at cycle  11 NSaved=  11.
 NSaved=11 IEnMin=11 EnMin= -648.202292175316     IErMin=11 ErrMin= 6.54D-07
 ErrMax= 6.54D-07  0.00D+00 EMaxC= 1.00D-01 BMatC= 1.76D-10 BMatP= 6.82D-09
 IDIUse=1 WtCom= 1.00D+00 WtEn= 0.00D+00
 Coeff-Com:  0.287D-05-0.553D-05-0.107D-03-0.474D-03-0.803D-03-0.166D-02
 Coeff-Com:  0.544D-03 0.202D-01 0.942D-01 0.198D+00 0.691D+00
 Coeff:      0.287D-05-0.553D-05-0.107D-03-0.474D-03-0.803D-03-0.166D-02
 Coeff:      0.544D-03 0.202D-01 0.942D-01 0.198D+00 0.691D+00
 Gap=     0.174 Goal=   None    Shift=    0.000
 RMSDP=8.19D-08 MaxDP=3.23D-06 DE=-6.70D-09 OVMax= 7.11D-06

 Cycle  12  Pass 1  IDiag  1:
 RMSU=  6.38D-08    CP:  9.80D-01  7.97D-01  6.58D-01  7.28D-01  5.66D-01
                    CP:  6.77D-01  6.97D-01  6.37D-01  8.19D-01  6.68D-01
                    CP:  8.27D-01
 E= -648.202292175444     Delta-E=       -0.000000000128 Rises=F Damp=F
 DIIS: error= 3.42D-07 at cycle  12 NSaved=  12.
 NSaved=12 IEnMin=12 EnMin= -648.202292175444     IErMin=12 ErrMin= 3.42D-07
 ErrMax= 3.42D-07  0.00D+00 EMaxC= 1.00D-01 BMatC= 4.90D-11 BMatP= 1.76D-10
 IDIUse=1 WtCom= 1.00D+00 WtEn= 0.00D+00
 Coeff-Com:  0.585D-06 0.312D-05-0.384D-04-0.161D-03-0.363D-03-0.101D-02
 Coeff-Com: -0.188D-02 0.107D-02 0.880D-02 0.561D-01 0.405D+00 0.533D+00
 Coeff:      0.585D-06 0.312D-05-0.384D-04-0.161D-03-0.363D-03-0.101D-02
 Coeff:     -0.188D-02 0.107D-02 0.880D-02 0.561D-01 0.405D+00 0.533D+00
 Gap=     0.174 Goal=   None    Shift=    0.000
 RMSDP=3.30D-08 MaxDP=1.26D-06 DE=-1.28D-10 OVMax= 1.99D-06

 Cycle  13  Pass 1  IDiag  1:
 RMSU=  1.70D-08    CP:  9.80D-01  7.97D-01  6.58D-01  7.28D-01  5.66D-01
                    CP:  6.77D-01  6.97D-01  6.38D-01  8.20D-01  6.77D-01
                    CP:  8.93D-01  6.77D-01
 E= -648.202292175486     Delta-E=       -0.000000000043 Rises=F Damp=F
 DIIS: error= 3.20D-08 at cycle  13 NSaved=  13.
 NSaved=13 IEnMin=13 EnMin= -648.202292175486     IErMin=13 ErrMin= 3.20D-08
 ErrMax= 3.20D-08  0.00D+00 EMaxC= 1.00D-01 BMatC= 5.65D-13 BMatP= 4.90D-11
 IDIUse=1 WtCom= 1.00D+00 WtEn= 0.00D+00
 Coeff-Com:  0.245D-07 0.747D-06 0.122D-05 0.507D-05-0.138D-04-0.917D-04
 Coeff-Com: -0.416D-03-0.123D-02-0.639D-02-0.158D-02 0.498D-01 0.114D+00
 Coeff-Com:  0.846D+00
 Coeff:      0.245D-07 0.747D-06 0.122D-05 0.507D-05-0.138D-04-0.917D-04
 Coeff:     -0.416D-03-0.123D-02-0.639D-02-0.158D-02 0.498D-01 0.114D+00
 Coeff:      0.846D+00
 Gap=     0.174 Goal=   None    Shift=    0.000
 RMSDP=6.25D-09 MaxDP=1.89D-07 DE=-4.27D-11 OVMax= 4.61D-07

 Error on total polarization charges =  0.01969
 SCF Done:  E(RB3LYP) =  -648.202292175     A.U. after   13 cycles
            NFock= 13  Conv=0.63D-08     -V/T= 2.0087
 KE= 6.426125961386D+02 PE=-3.043226510283D+03 EE= 9.962837992458D+02
 Leave Link  502 at Sun Jul 18 13:43:12 2021, MaxMem=   104857600 cpu:             103.1 elap:              25.8
 (Enter /prod/apps/gaussian/g16b1/l601.exe)
 Copying SCF densities to generalized density rwf, IOpCl= 0 IROHF=0.

 **********************************************************************

            Population analysis using the SCF Density.

 **********************************************************************

 Orbital symmetries:
       Occupied  (A) (A) (A) (A) (A) (A) (A) (A) (A) (A) (A) (A)
                 (A) (A) (A) (A) (A) (A) (A) (A) (A) (A) (A) (A)
                 (A) (A) (A) (A) (A) (A) (A) (A) (A) (A) (A) (A)
                 (A) (A) (A) (A) (A) (A) (A) (A) (A) (A) (A)
       Virtual   (A) (A) (A) (A) (A) (A) (A) (A) (A) (A) (A) (A)
                 (A) (A) (A) (A) (A) (A) (A) (A) (A) (A) (A) (A)
                 (A) (A) (A) (A) (A) (A) (A) (A) (A) (A) (A) (A)
                 (A) (A) (A) (A) (A) (A) (A) (A) (A) (A) (A) (A)
                 (A) (A) (A) (A) (A) (A) (A) (A) (A) (A) (A) (A)
                 (A) (A) (A) (A) (A) (A) (A) (A) (A) (A) (A) (A)
                 (A) (A) (A) (A) (A) (A) (A) (A) (A) (A) (A) (A)
                 (A) (A) (A) (A) (A) (A) (A) (A) (A) (A) (A) (A)
                 (A) (A) (A) (A) (A) (A) (A) (A) (A) (A) (A) (A)
                 (A) (A) (A) (A) (A) (A) (A) (A) (A) (A) (A) (A)
                 (A) (A) (A) (A) (A) (A) (A) (A) (A) (A) (A) (A)
                 (A) (A) (A) (A) (A) (A) (A) (A) (A) (A) (A) (A)
                 (A) (A) (A) (A) (A) (A) (A) (A) (A) (A) (A) (A)
                 (A) (A) (A) (A) (A) (A)
 The electronic state is 1-A.
 Alpha  occ. eigenvalues --  -19.20903 -19.14118 -19.07690 -19.05825 -10.32452
 Alpha  occ. eigenvalues --  -10.25956 -10.25847 -10.19683 -10.19462 -10.19303
 Alpha  occ. eigenvalues --  -10.18722 -10.18676 -10.18558  -1.12358  -1.03495
 Alpha  occ. eigenvalues --   -1.00707  -0.89230  -0.85891  -0.77098  -0.75429
 Alpha  occ. eigenvalues --   -0.72527  -0.64663  -0.62380  -0.57130  -0.53408
 Alpha  occ. eigenvalues --   -0.49333  -0.48896  -0.48348  -0.46793  -0.44602
 Alpha  occ. eigenvalues --   -0.43083  -0.42146  -0.40726  -0.40016  -0.39191
 Alpha  occ. eigenvalues --   -0.38573  -0.37056  -0.35838  -0.35703  -0.35197
 Alpha  occ. eigenvalues --   -0.32034  -0.27757  -0.25108  -0.24415  -0.23395
 Alpha  occ. eigenvalues --   -0.22500  -0.20109
 Alpha virt. eigenvalues --   -0.02705  -0.01188   0.01482   0.07609   0.10018
 Alpha virt. eigenvalues --    0.12373   0.14605   0.15520   0.17333   0.17773
 Alpha virt. eigenvalues --    0.17926   0.19505   0.20497   0.23985   0.26558
 Alpha virt. eigenvalues --    0.28588   0.31222   0.32859   0.33958   0.34762
 Alpha virt. eigenvalues --    0.36761   0.40123   0.41097   0.50598   0.50740
 Alpha virt. eigenvalues --    0.52915   0.53809   0.54968   0.55179   0.55953
 Alpha virt. eigenvalues --    0.56893   0.57862   0.58454   0.60686   0.61196
 Alpha virt. eigenvalues --    0.61591   0.62112   0.63071   0.64070   0.65204
 Alpha virt. eigenvalues --    0.67304   0.68604   0.70666   0.71291   0.74504
 Alpha virt. eigenvalues --    0.75901   0.78801   0.81365   0.82921   0.83571
 Alpha virt. eigenvalues --    0.84552   0.85979   0.87243   0.89642   0.90262
 Alpha virt. eigenvalues --    0.90600   0.91645   0.93567   0.95318   0.96354
 Alpha virt. eigenvalues --    0.97573   0.98875   0.99907   1.03349   1.04158
 Alpha virt. eigenvalues --    1.05705   1.08249   1.09182   1.10266   1.10734
 Alpha virt. eigenvalues --    1.13640   1.15295   1.19913   1.23450   1.25990
 Alpha virt. eigenvalues --    1.27680   1.29410   1.33853   1.37172   1.37282
 Alpha virt. eigenvalues --    1.42836   1.44202   1.46225   1.47644   1.51984
 Alpha virt. eigenvalues --    1.53048   1.54945   1.56328   1.60252   1.65998
 Alpha virt. eigenvalues --    1.69292   1.72514   1.73828   1.75174   1.76485
 Alpha virt. eigenvalues --    1.78252   1.78845   1.80480   1.82275   1.85150
 Alpha virt. eigenvalues --    1.85702   1.88837   1.90795   1.91081   1.92483
 Alpha virt. eigenvalues --    1.92828   1.96111   1.96748   1.96881   2.01357
 Alpha virt. eigenvalues --    2.03893   2.06172   2.08928   2.11015   2.13680
 Alpha virt. eigenvalues --    2.15046   2.19394   2.20266   2.21327   2.25713
 Alpha virt. eigenvalues --    2.26789   2.30299   2.31374   2.32394   2.36803
 Alpha virt. eigenvalues --    2.41210   2.48481   2.49740   2.52234   2.56063
 Alpha virt. eigenvalues --    2.59392   2.61820   2.62602   2.66529   2.69387
 Alpha virt. eigenvalues --    2.70915   2.74791   2.77966   2.81282   2.83133
 Alpha virt. eigenvalues --    2.86900   2.92440   2.96171   2.98004   3.05213
 Alpha virt. eigenvalues --    3.10228   3.13988   3.31079   3.43311   3.87256
 Alpha virt. eigenvalues --    4.01057   4.07596   4.09560   4.10537   4.14752
 Alpha virt. eigenvalues --    4.16567   4.28932   4.34314   4.40615   4.44717
 Alpha virt. eigenvalues --    4.54376   4.79148
          Condensed to atoms (all electrons):
               1          2          3          4          5          6
     1  C    5.256156   0.346275   0.361899   0.364535   0.381363  -0.083696
     2  H    0.346275   0.534513  -0.022605  -0.024384  -0.020596   0.002882
     3  H    0.361899  -0.022605   0.508092  -0.026083  -0.020207   0.000278
     4  H    0.364535  -0.024384  -0.026083   0.523359  -0.021581   0.002101
     5  C    0.381363  -0.020596  -0.020207  -0.021581   4.275358   0.567126
     6  O   -0.083696   0.002882   0.000278   0.002101   0.567126   8.076623
     7  O   -0.094366   0.003288   0.001421   0.002986   0.234589  -0.072272
     8  C    0.004116  -0.000065  -0.000023  -0.000067  -0.003239   0.002077
     9  C   -0.000328   0.000008  -0.000014   0.000002   0.000040  -0.000678
    10  C   -0.000080   0.000002   0.000072   0.000001   0.000384   0.000004
    11  O   -0.000263   0.000006   0.000653   0.000001   0.001075  -0.000005
    12  O   -0.000000   0.000000   0.000000   0.000000   0.000004  -0.000000
    13  C    0.000005  -0.000000  -0.000001  -0.000000  -0.000076  -0.000010
    14  H   -0.000000   0.000000  -0.000000   0.000000  -0.000002   0.000000
    15  C   -0.000000   0.000000   0.000000   0.000000   0.000016   0.000001
    16  H    0.000000  -0.000000   0.000000  -0.000000   0.000000   0.000000
    17  C   -0.000002  -0.000001   0.000000  -0.000000   0.000153  -0.000173
    18  H   -0.000000  -0.000000  -0.000000   0.000000  -0.000013   0.000008
    19  C    0.000302  -0.000007   0.000014   0.000012  -0.001131   0.001173
    20  H   -0.000234  -0.000009   0.000006   0.000015   0.005818   0.002556
               7          8          9         10         11         12
     1  C   -0.094366   0.004116  -0.000328  -0.000080  -0.000263  -0.000000
     2  H    0.003288  -0.000065   0.000008   0.000002   0.000006   0.000000
     3  H    0.001421  -0.000023  -0.000014   0.000072   0.000653   0.000000
     4  H    0.002986  -0.000067   0.000002   0.000001   0.000001   0.000000
     5  C    0.234589  -0.003239   0.000040   0.000384   0.001075   0.000004
     6  O   -0.072272   0.002077  -0.000678   0.000004  -0.000005  -0.000000
     7  O    8.329577   0.191456  -0.050540  -0.004327  -0.008135   0.000006
     8  C    0.191456   4.789661   0.431045  -0.042240  -0.001396   0.003744
     9  C   -0.050540   0.431045   5.338601   0.169886  -0.116169  -0.144891
    10  C   -0.004327  -0.042240   0.169886   4.476096   0.469383   0.526919
    11  O   -0.008135  -0.001396  -0.116169   0.469383   8.499626  -0.120258
    12  O    0.000006   0.003744  -0.144891   0.526919  -0.120258   8.335414
    13  C    0.004332  -0.044645   0.445824  -0.043952   0.005967   0.006106
    14  H   -0.000030   0.005757  -0.053127  -0.008101   0.000392   0.020258
    15  C   -0.000170  -0.043706  -0.016341   0.008213  -0.000010   0.001603
    16  H    0.000001   0.000562   0.004257  -0.000074   0.000000   0.000003
    17  C    0.004029   0.000262  -0.049920  -0.001276  -0.000035  -0.000030
    18  H   -0.000044   0.003253   0.000579   0.000004  -0.000000   0.000000
    19  C   -0.061656   0.461307  -0.030343   0.008524   0.000533  -0.000069
    20  H   -0.007208  -0.037341   0.004698  -0.000046   0.000008   0.000001
              13         14         15         16         17         18
     1  C    0.000005  -0.000000  -0.000000   0.000000  -0.000002  -0.000000
     2  H   -0.000000   0.000000   0.000000  -0.000000  -0.000001  -0.000000
     3  H   -0.000001  -0.000000   0.000000   0.000000   0.000000  -0.000000
     4  H   -0.000000   0.000000   0.000000  -0.000000  -0.000000   0.000000
     5  C   -0.000076  -0.000002   0.000016   0.000000   0.000153  -0.000013
     6  O   -0.000010   0.000000   0.000001   0.000000  -0.000173   0.000008
     7  O    0.004332  -0.000030  -0.000170   0.000001   0.004029  -0.000044
     8  C   -0.044645   0.005757  -0.043706   0.000562   0.000262   0.003253
     9  C    0.445824  -0.053127  -0.016341   0.004257  -0.049920   0.000579
    10  C   -0.043952  -0.008101   0.008213  -0.000074  -0.001276   0.000004
    11  O    0.005967   0.000392  -0.000010   0.000000  -0.000035  -0.000000
    12  O    0.006106   0.020258   0.001603   0.000003  -0.000030   0.000000
    13  C    5.134377   0.355839   0.457874  -0.037772  -0.019250   0.004401
    14  H    0.355839   0.578946  -0.044921  -0.006311   0.006386  -0.000216
    15  C    0.457874  -0.044921   4.949852   0.363280   0.523436  -0.039371
    16  H   -0.037772  -0.006311   0.363280   0.569225  -0.043983  -0.004588
    17  C   -0.019250   0.006386   0.523436  -0.043983   4.939938   0.360608
    18  H    0.004401  -0.000216  -0.039371  -0.004588   0.360608   0.559864
    19  C   -0.057950  -0.000159  -0.027426   0.004868   0.477338  -0.037024
    20  H    0.000535   0.000013   0.004546  -0.000158  -0.037913  -0.004751
              19         20
     1  C    0.000302  -0.000234
     2  H   -0.000007  -0.000009
     3  H    0.000014   0.000006
     4  H    0.000012   0.000015
     5  C   -0.001131   0.005818
     6  O    0.001173   0.002556
     7  O   -0.061656  -0.007208
     8  C    0.461307  -0.037341
     9  C   -0.030343   0.004698
    10  C    0.008524  -0.000046
    11  O    0.000533   0.000008
    12  O   -0.000069   0.000001
    13  C   -0.057950   0.000535
    14  H   -0.000159   0.000013
    15  C   -0.027426   0.004546
    16  H    0.004868  -0.000158
    17  C    0.477338  -0.037913
    18  H   -0.037024  -0.004751
    19  C    5.092416   0.354460
    20  H    0.354460   0.552958
 Mulliken charges:
               1
     1  C   -0.535682
     2  H    0.180694
     3  H    0.196496
     4  H    0.179105
     5  C    0.600918
     6  O   -0.497993
     7  O   -0.472937
     8  C    0.279482
     9  C    0.067412
    10  C    0.440610
    11  O   -0.731372
    12  O   -0.628809
    13  C   -0.211603
    14  H    0.145274
    15  C   -0.136875
    16  H    0.150690
    17  C   -0.159566
    18  H    0.157292
    19  C   -0.185182
    20  H    0.162048
 Sum of Mulliken charges =  -1.00000
 Mulliken charges with hydrogens summed into heavy atoms:
               1
     1  C    0.020612
     5  C    0.600918
     6  O   -0.497993
     7  O   -0.472937
     8  C    0.279482
     9  C    0.067412
    10  C    0.440610
    11  O   -0.731372
    12  O   -0.628809
    13  C   -0.066329
    15  C    0.013815
    17  C   -0.002274
    19  C   -0.023134
 Electronic spatial extent (au):  <R**2>=           2409.8217
 Charge=             -1.0000 electrons
 Dipole moment (field-independent basis, Debye):
    X=             -4.7941    Y=            -11.2462    Z=             -1.2906  Tot=             12.2934
 Quadrupole moment (field-independent basis, Debye-Ang):
   XX=            -81.3726   YY=           -102.5253   ZZ=            -78.0263
   XY=            -20.5672   XZ=              4.1443   YZ=              4.1077
 Traceless Quadrupole moment (field-independent basis, Debye-Ang):
   XX=              5.9355   YY=            -15.2172   ZZ=              9.2817
   XY=            -20.5672   XZ=              4.1443   YZ=              4.1077
 Octapole moment (field-independent basis, Debye-Ang**2):
  XXX=            -51.4874  YYY=            -88.6999  ZZZ=              0.0028  XYY=            -32.5813
  XXY=            -22.7483  XXZ=            -15.0472  XZZ=             -3.6161  YZZ=              8.4476
  YYZ=              1.0048  XYZ=            -13.7598
 Hexadecapole moment (field-independent basis, Debye-Ang**3):
 XXXX=          -1769.9270 YYYY=          -1287.2019 ZZZZ=           -142.0092 XXXY=           -140.4851
 XXXZ=             22.6309 YYYX=           -100.4337 YYYZ=              6.4396 ZZZX=              4.4690
 ZZZY=             -4.1106 XXYY=           -567.2009 XXZZ=           -345.5159 YYZZ=           -226.3648
 XXYZ=             -1.4792 YYXZ=              0.5984 ZZXY=              4.3182
 N-N= 7.561278227233D+02 E-N=-3.043226508908D+03  KE= 6.426125961386D+02
 No NMR shielding tensors so no spin-rotation constants.
 Leave Link  601 at Sun Jul 18 13:43:12 2021, MaxMem=   104857600 cpu:               0.5 elap:               0.1
 (Enter /prod/apps/gaussian/g16b1/l701.exe)
 ... and contract with generalized density number  0.
 Compute integral first derivatives.
 D1PCM: PCM CHGder 1st derivatives, ID1Alg=3 FixD1E=F DoIter=F DoCFld=F I1PDM=0.
 GePol: Maximum number of non-zero 1st derivatives   =     176
 Leave Link  701 at Sun Jul 18 13:43:13 2021, MaxMem=   104857600 cpu:               4.1 elap:               1.1
 (Enter /prod/apps/gaussian/g16b1/l702.exe)
 L702 exits ... SP integral derivatives will be done elsewhere.
 Leave Link  702 at Sun Jul 18 13:43:13 2021, MaxMem=   104857600 cpu:               0.1 elap:               0.0
 (Enter /prod/apps/gaussian/g16b1/l703.exe)
 Integral derivatives from FoFJK, PRISM(SPDF).
 Compute integral first derivatives, UseDBF=F ICtDFT=           0.
 Calling FoFJK, ICntrl=      2127 FMM=F ISym2X=0 I1Cent= 0 IOpClX= 0 NMat=1 NMatS=1 NMatT=0.
 FoFJK:  IHMeth= 1 ICntrl=    2127 DoSepK=F KAlg= 0 I1Cent=           0 FoldK=F
 IRaf=         0 NMat=       1 IRICut=       1 DoRegI=T DoRafI=F ISym2E= 0 IDoP0=0 IntGTp=1.
 FoFCou: FMM=F IPFlag=           0 FMFlag=      100000 FMFlg1=         800
         NFxFlg=           0 DoJE=F BraDBF=F KetDBF=F FulRan=T
         wScrn=  0.000000 ICntrl=      2127 IOpCl=  0 I1Cent=           0 NGrid=           0
         NMat0=    1 NMatS0=      1 NMatT0=    0 NMatD0=    1 NMtDS0=    0 NMtDT0=    0
 Symmetry not used in FoFCou.
 Leave Link  703 at Sun Jul 18 13:43:19 2021, MaxMem=   104857600 cpu:              22.6 elap:               5.7
 (Enter /prod/apps/gaussian/g16b1/l716.exe)
 Dipole        =-1.88614435D+00-4.42460568D+00-5.07773151D-01
 ***** Axes restored to original set *****
 -------------------------------------------------------------------
 Center     Atomic                   Forces (Hartrees/Bohr)
 Number     Number              X              Y              Z
 -------------------------------------------------------------------
      1        6          -0.001828552   -0.005338623    0.016900910
      2        1          -0.003259438   -0.002634667   -0.000506010
      3        1           0.005054944   -0.004468635   -0.000390559
      4        1           0.008757274    0.002472695    0.002006660
      5        6          -0.055052947    0.001957914   -0.041051311
      6        8           0.030467889    0.025655344    0.007454822
      7        8           0.022743106   -0.018205892    0.013443820
      8        6           0.010614931    0.008821120    0.016120675
      9        6          -0.026598111    0.020599227   -0.008163842
     10        6          -0.087098466   -0.043289722    0.037233073
     11        8           0.044998929    0.024693336   -0.012722012
     12        8           0.032741073   -0.010546487   -0.029517562
     13        6           0.037340617   -0.009692279    0.012331075
     14        1          -0.008600303    0.002425999   -0.010484615
     15        6           0.002301180   -0.007315348    0.000447587
     16        1          -0.000894682   -0.000236248    0.001306004
     17        6          -0.022119174    0.026064888   -0.017544189
     18        1          -0.001940038   -0.007812655    0.011140412
     19        6           0.012517635   -0.000575501    0.004667538
     20        1          -0.000145868   -0.002574466   -0.002672476
 -------------------------------------------------------------------
 Cartesian Forces:  Max     0.087098466 RMS     0.021967798
 Leave Link  716 at Sun Jul 18 13:43:19 2021, MaxMem=   104857600 cpu:               0.1 elap:               0.0
 (Enter /prod/apps/gaussian/g16b1/l103.exe)

 GradGradGradGradGradGradGradGradGradGradGradGradGradGradGradGradGradGrad
 Berny optimization.
 FormGI is forming the generalized inverse of G from B-inverse, IUseBI=4.
 Internal  Forces:  Max     0.048293300 RMS     0.011696072
 Search for a local minimum.
 Step number   1 out of a maximum of   99
 All quantities printed in internal units (Hartrees-Bohrs-Radians)
 RMS Force = .11696D-01 SwitMx=.10000D-02 MixMth= 1
 Mixed Optimization -- RFO/linear search
 Second derivative matrix not updated -- first step.
 ITU=  0
     Eigenvalues ---    0.00333   0.01006   0.01367   0.01596   0.01832
     Eigenvalues ---    0.01891   0.01949   0.01986   0.02002   0.02145
     Eigenvalues ---    0.02259   0.02332   0.02350   0.02408   0.02648
     Eigenvalues ---    0.06679   0.07101   0.15057   0.15887   0.15993
     Eigenvalues ---    0.15997   0.16000   0.16000   0.16000   0.22019
     Eigenvalues ---    0.22499   0.24171   0.24454   0.24929   0.24996
     Eigenvalues ---    0.25000   0.25000   0.25000   0.25000   0.29172
     Eigenvalues ---    0.34359   0.34516   0.34580   0.34645   0.35107
     Eigenvalues ---    0.35136   0.35206   0.35208   0.39826   0.41773
     Eigenvalues ---    0.44125   0.44440   0.46047   0.48378   0.50430
     Eigenvalues ---    0.59697   0.60057   0.89702   1.06288
 RFO step:  Lambda=-5.36737211D-02 EMin= 3.32902846D-03
 Linear search not attempted -- first point.
 Iteration  1 RMS(Cart)=  0.07953140 RMS(Int)=  0.01949041
 Iteration  2 RMS(Cart)=  0.01985279 RMS(Int)=  0.00894206
 Iteration  3 RMS(Cart)=  0.00117286 RMS(Int)=  0.00887275
 Iteration  4 RMS(Cart)=  0.00003652 RMS(Int)=  0.00887270
 Iteration  5 RMS(Cart)=  0.00000167 RMS(Int)=  0.00887270
 Iteration  6 RMS(Cart)=  0.00000008 RMS(Int)=  0.00887270
 ITry= 1 IFail=0 DXMaxC= 3.41D-01 DCOld= 1.00D+10 DXMaxT= 3.00D-01 DXLimC= 3.00D+00 Rises=F
 Variable       Old X    -DE/DX   Delta X   Delta X   Delta X     New X
                                 (Linear)    (Quad)   (Total)
    R1        2.06468   0.00185   0.00000   0.00463   0.00463   2.06932
    R2        2.06256   0.00131   0.00000   0.00326   0.00326   2.06582
    R3        2.06363  -0.00187   0.00000  -0.00467  -0.00467   2.05896
    R4        2.89645  -0.00916   0.00000  -0.02652  -0.02652   2.86993
    R5        2.26221   0.03419   0.00000   0.03062   0.03062   2.29283
    R6        2.50895   0.02297   0.00000   0.03510   0.03510   2.54406
    R7        2.65932  -0.00670   0.00000  -0.01346  -0.01346   2.64585
    R8        2.66233   0.00367   0.00000   0.00811   0.00793   2.67026
    R9        2.64545  -0.00660   0.00000  -0.01507  -0.01507   2.63038
   R10        2.80029   0.02620   0.00000   0.06596   0.06596   2.86625
   R11        2.58415   0.02414   0.00000   0.04499   0.04482   2.62897
   R12        2.51181  -0.04829   0.00000  -0.07422  -0.07422   2.43759
   R13        2.33070   0.03775   0.00000   0.03971   0.03971   2.37041
   R14        2.05339  -0.00219   0.00000  -0.00541  -0.00541   2.04798
   R15        2.63695   0.00409   0.00000   0.01003   0.01003   2.64699
   R16        2.05342  -0.00083   0.00000  -0.00205  -0.00205   2.05137
   R17        2.60241   0.01401   0.00000   0.02489   0.02506   2.62747
   R18        2.05502  -0.00191   0.00000  -0.00472  -0.00472   2.05030
   R19        2.69385  -0.01867   0.00000  -0.04274  -0.04257   2.65128
   R20        2.05455  -0.00314   0.00000  -0.00775  -0.00775   2.04680
    A1        1.88180  -0.00071   0.00000  -0.00391  -0.00362   1.87817
    A2        1.88465   0.00314   0.00000   0.01794   0.01842   1.90306
    A3        1.90808   0.00751   0.00000   0.03668   0.03708   1.94516
    A4        1.85846   0.00929   0.00000   0.04082   0.03980   1.89826
    A5        1.94264  -0.00681   0.00000  -0.03368  -0.03405   1.90859
    A6        1.98448  -0.01178   0.00000  -0.05489  -0.05514   1.92934
    A7        2.09168   0.02155   0.00000   0.08909   0.08033   2.17201
    A8        1.92369  -0.00297   0.00000   0.00817  -0.00098   1.92270
    A9        2.22049  -0.01341   0.00000  -0.02568  -0.03526   2.18522
   A10        2.08002   0.00885   0.00000   0.02913   0.02913   2.10915
   A11        2.13303  -0.01219   0.00000  -0.03861  -0.03866   2.09437
   A12        2.06624   0.00102   0.00000   0.00491   0.00486   2.07110
   A13        2.08159   0.01121   0.00000   0.03431   0.03437   2.11595
   A14        2.14735   0.01105   0.00000   0.03361   0.03366   2.18101
   A15        2.06298  -0.00875   0.00000  -0.02329  -0.02339   2.03960
   A16        2.07272  -0.00229   0.00000  -0.01033  -0.01028   2.06245
   A17        2.05252  -0.00062   0.00000   0.04682   0.00031   2.05283
   A18        2.06525  -0.00374   0.00000   0.03651  -0.01000   2.05525
   A19        2.09777   0.01791   0.00000   0.11190   0.06467   2.16244
   A20        2.11741  -0.00755   0.00000  -0.04235  -0.04260   2.07481
   A21        2.15625  -0.00701   0.00000  -0.01645  -0.01650   2.13975
   A22        2.00234   0.01480   0.00000   0.06238   0.06225   2.06459
   A23        2.08558  -0.00009   0.00000  -0.00065  -0.00087   2.08472
   A24        2.07857   0.00152   0.00000   0.00765   0.00808   2.08665
   A25        2.11884  -0.00142   0.00000  -0.00692  -0.00713   2.11171
   A26        2.09456   0.00113   0.00000   0.01942   0.01730   2.11185
   A27        2.06970   0.00315   0.00000   0.01018   0.00887   2.07858
   A28        2.06266  -0.00145   0.00000   0.00603   0.00371   2.06638
   A29        2.11152   0.00017   0.00000  -0.00894  -0.00856   2.10296
   A30        2.10318  -0.00204   0.00000  -0.00458  -0.00483   2.09835
   A31        2.06803   0.00191   0.00000   0.01397   0.01373   2.08176
    D1       -2.33607   0.00566   0.00000   0.09845   0.10100  -2.23506
    D2        1.10818  -0.00733   0.00000  -0.11641  -0.11883   0.98936
    D3        1.87015   0.00594   0.00000   0.10059   0.10361   1.97376
    D4       -0.96878  -0.00706   0.00000  -0.11427  -0.11622  -1.08501
    D5       -0.22863   0.00720   0.00000   0.11108   0.11296  -0.11566
    D6       -3.06756  -0.00580   0.00000  -0.10378  -0.10687   3.10875
    D7       -3.12093   0.01094   0.00000   0.12930   0.12261  -2.99832
    D8        0.35133  -0.01109   0.00000  -0.13115  -0.12446   0.22687
    D9       -2.42553   0.00342   0.00000   0.04638   0.04626  -2.37927
   D10        0.78999   0.00226   0.00000   0.03521   0.03533   0.82532
   D11       -0.01322   0.00019   0.00000   0.00338   0.00333  -0.00989
   D12       -3.13735   0.00031   0.00000   0.00371   0.00369  -3.13367
   D13        3.05382   0.00094   0.00000   0.01341   0.01323   3.06705
   D14       -0.07031   0.00105   0.00000   0.01374   0.01359  -0.05672
   D15        3.12163   0.00015   0.00000   0.00351   0.00359   3.12522
   D16       -0.05269   0.00141   0.00000   0.01999   0.01997  -0.03272
   D17        0.05173   0.00003   0.00000  -0.00419  -0.00430   0.04743
   D18       -3.12259   0.00128   0.00000   0.01229   0.01209  -3.11051
   D19       -0.28071   0.01985   0.00000   0.26756   0.26394  -0.01677
   D20       -3.03674  -0.02106   0.00000  -0.28881  -0.28516   2.96129
   D21        2.84333   0.01968   0.00000   0.26711   0.26346   3.10679
   D22        0.08730  -0.02124   0.00000  -0.28926  -0.28564  -0.19834
   D23        3.00883   0.00322   0.00000   0.04016   0.03958   3.04841
   D24        0.00266  -0.00013   0.00000   0.00190   0.00219   0.00485
   D25       -0.11607   0.00319   0.00000   0.04001   0.03945  -0.07662
   D26       -3.12223  -0.00015   0.00000   0.00176   0.00206  -3.12018
   D27       -3.07632  -0.00218   0.00000  -0.02500  -0.02470  -3.10102
   D28        0.08595  -0.00264   0.00000  -0.02950  -0.02923   0.05672
   D29        0.19260  -0.00386   0.00000  -0.05397  -0.05454   0.13806
   D30       -2.92832  -0.00433   0.00000  -0.05847  -0.05907  -2.98738
   D31       -2.88339  -0.00567   0.00000  -0.07516  -0.07559  -2.95898
   D32       -0.10208   0.00277   0.00000   0.03586   0.03604  -0.06605
   D33        0.27929  -0.00616   0.00000  -0.07983  -0.08027   0.19902
   D34        3.06060   0.00228   0.00000   0.03119   0.03136   3.09195
   D35        0.03591  -0.00172   0.00000  -0.02045  -0.02037   0.01554
   D36       -3.07360  -0.00288   0.00000  -0.03627  -0.03627  -3.10986
   D37        2.82384   0.00708   0.00000   0.09130   0.09113   2.91497
   D38       -0.28567   0.00592   0.00000   0.07547   0.07524  -0.21043
         Item               Value     Threshold  Converged?
 Maximum Force            0.048293     0.000450     NO 
 RMS     Force            0.011696     0.000300     NO 
 Maximum Displacement     0.341376     0.001800     NO 
 RMS     Displacement     0.088600     0.001200     NO 
 Predicted change in Energy=-4.152401D-02
 Lowest energy point so far.  Saving SCF results.
 GradGradGradGradGradGradGradGradGradGradGradGradGradGradGradGradGradGrad

 Leave Link  103 at Sun Jul 18 13:43:19 2021, MaxMem=   104857600 cpu:               0.1 elap:               0.0
 (Enter /prod/apps/gaussian/g16b1/l202.exe)
                          Input orientation:                          
 ---------------------------------------------------------------------
 Center     Atomic      Atomic             Coordinates (Angstroms)
 Number     Number       Type             X           Y           Z
 ---------------------------------------------------------------------
      1          6           0       -3.246255    1.236385    0.029440
      2          1           0       -3.561620    0.796477    0.981348
      3          1           0       -3.618565    0.592687   -0.771867
      4          1           0       -3.698981    2.222026   -0.073887
      5          6           0       -1.733465    1.332348   -0.063896
      6          8           0       -1.125972    2.344594   -0.343975
      7          8           0       -1.180049    0.116873    0.105683
      8          6           0        0.206662   -0.029190    0.232377
      9          6           0        0.874149   -1.064667   -0.459675
     10          6           0        0.200550   -2.085206   -1.357065
     11          8           0       -1.081018   -2.014991   -1.485649
     12          8           0        0.934938   -2.820253   -2.059789
     13          6           0        2.250584   -1.155728   -0.279257
     14          1           0        2.782694   -1.988821   -0.723455
     15          6           0        2.962874   -0.278427    0.548403
     16          1           0        4.041804   -0.372292    0.622498
     17          6           0        2.276440    0.686389    1.277199
     18          1           0        2.807085    1.481148    1.790946
     19          6           0        0.889646    0.812275    1.105851
     20          1           0        0.356498    1.582374    1.649768
 ---------------------------------------------------------------------
                    Distance matrix (angstroms):
                    1          2          3          4          5
     1  C    0.000000
     2  H    1.095035   0.000000
     3  H    1.093186   1.765937   0.000000
     4  H    1.089553   1.778926   1.774370   0.000000
     5  C    1.518702   2.172980   2.145209   2.157518   0.000000
     6  O    2.421397   3.175772   3.076571   2.590047   1.213315
     7  O    2.351240   2.626887   2.634929   3.287695   1.346256
     8  C    3.683137   3.929711   4.003448   4.518387   2.388651
     9  C    4.744661   5.021599   4.798829   5.644883   3.563982
    10  C    4.983556   5.284524   4.700979   5.950221   4.134292
    11  O    4.189892   4.488186   3.707912   5.176786   3.694826
    12  O    6.188988   6.522905   5.834491   7.130329   5.324289
    13  C    6.002728   6.259548   6.143820   6.844613   4.702079
    14  H    6.878738   7.135444   6.902365   7.756629   5.644543
    15  C    6.412274   6.626604   6.768846   7.142816   5.002509
    16  H    7.487013   7.701094   7.845807   8.193607   6.060583
    17  C    5.688546   5.846588   6.241677   6.315795   4.277281
    18  H    6.309179   6.456363   6.974693   6.808480   4.907053
    19  C    4.294672   4.453035   4.888559   4.943145   2.918817
    20  H    3.965476   4.051675   4.758668   4.452758   2.714240
                    6          7          8          9         10
     6  O    0.000000
     7  O    2.273292   0.000000
     8  C    2.782614   1.400125   0.000000
     9  C    3.954356   2.436267   1.413043   0.000000
    10  C    4.733829   2.982421   2.598763   1.516754   0.000000
    11  O    4.506819   2.662139   2.924575   2.403833   1.289915
    12  O    5.819537   4.217718   3.684352   2.376161   1.254369
    13  C    4.863905   3.679257   2.389242   1.391193   2.495645
    14  H    5.848090   4.563414   3.374865   2.136863   2.660493
    15  C    4.939154   4.185220   2.785443   2.448911   3.811258
    16  H    5.917892   5.270116   3.870172   3.418263   4.648438
    17  C    4.117555   3.693794   2.426456   2.837138   4.350909
    18  H    4.557671   4.538567   3.387102   3.909311   5.424286
    19  C    2.917655   2.401574   1.391936   2.444182   3.864739
    20  H    2.598790   2.625427   2.151415   3.424112   4.745156
                   11         12         13         14         15
    11  O    0.000000
    12  O    2.245476   0.000000
    13  C    3.645996   2.769813   0.000000
    14  H    3.938261   2.427194   1.083742   0.000000
    15  C    4.848307   4.168461   1.400726   2.139050   0.000000
    16  H    5.778066   4.779100   2.152998   2.451553   1.085537
    17  C    5.118916   5.023112   2.411766   3.378706   1.390397
    18  H    6.170608   6.069197   3.398315   4.285265   2.159697
    19  C    4.311939   4.818567   2.764726   3.843973   2.408039
    20  H    4.983806   5.786064   3.847843   4.926667   3.386559
                   16         17         18         19         20
    16  H    0.000000
    17  C    2.160081   0.000000
    18  H    2.514964   1.084971   0.000000
    19  C    3.401900   1.402998   2.143203   0.000000
    20  H    4.296217   2.151226   2.456736   1.083118   0.000000
 Stoichiometry    C9H7O4(1-)
 Framework group  C1[X(C9H7O4)]
 Deg. of freedom    54
 Full point group                 C1      NOp   1
 RotChk:  IX=0 Diff= 3.27D-02
 Largest Abelian subgroup         C1      NOp   1
 Largest concise Abelian subgroup C1      NOp   1
                         Standard orientation:                         
 ---------------------------------------------------------------------
 Center     Atomic      Atomic             Coordinates (Angstroms)
 Number     Number       Type             X           Y           Z
 ---------------------------------------------------------------------
      1          6           0       -3.562653    0.627008   -0.307344
      2          1           0       -3.669641    0.538441   -1.393536
      3          1           0       -3.429432    1.686527   -0.073410
      4          1           0       -4.476810    0.275042    0.169690
      5          6           0       -2.362728   -0.154763    0.198095
      6          8           0       -2.402189   -0.965537    1.099883
      7          8           0       -1.243577    0.258043   -0.426002
      8          6           0       -0.033545   -0.425779   -0.256999
      9          6           0        1.163642    0.296560   -0.052894
     10          6           0        1.269511    1.808980   -0.009086
     11          8           0        0.188630    2.489553   -0.189080
     12          8           0        2.354554    2.307777    0.374744
     13          6           0        2.329122   -0.448025    0.097662
     14          1           0        3.277168    0.072289    0.168228
     15          6           0        2.342167   -1.847784    0.047286
     16          1           0        3.274971   -2.378923    0.209021
     17          6           0        1.165338   -2.535169   -0.227995
     18          1           0        1.106143   -3.611931   -0.108655
     19          6           0       -0.029059   -1.813055   -0.370722
     20          1           0       -0.952521   -2.347974   -0.555724
 ---------------------------------------------------------------------
 Rotational constants (GHZ):           1.0842123           0.7104998           0.4540826
 Leave Link  202 at Sun Jul 18 13:43:19 2021, MaxMem=   104857600 cpu:               0.0 elap:               0.0
 (Enter /prod/apps/gaussian/g16b1/l301.exe)
 Standard basis: 6-31G(d) (6D, 7F)
 Ernie: Thresh=  0.10000D-02 Tol=  0.10000D-05 Strict=F.
 There are   209 symmetry adapted cartesian basis functions of A   symmetry.
 There are   209 symmetry adapted basis functions of A   symmetry.
   209 basis functions,   392 primitive gaussians,   209 cartesian basis functions
    47 alpha electrons       47 beta electrons
       nuclear repulsion energy       753.9056200187 Hartrees.
 IExCor=  402 DFT=T Ex+Corr=B3LYP ExCW=0 ScaHFX=  0.200000
 ScaDFX=  0.800000  0.720000  1.000000  0.810000 ScalE2=  1.000000  1.000000
 IRadAn=      5 IRanWt=     -1 IRanGd=            0 ICorTp=0 IEmpDi=  4
 NAtoms=   20 NActive=   20 NUniq=   20 SFac= 1.00D+00 NAtFMM=   60 NAOKFM=F Big=F
 Integral buffers will be    131072 words long.
 Raffenetti 2 integral format.
 Two-electron integral symmetry is turned on.
 ------------------------------------------------------------------------------
 Polarizable Continuum Model (PCM)
 =================================
 Model                : PCM.
 Atomic radii         : MST.
 Polarization charges : Total charges.
 Charge compensation  : None.
 Solution method      : On-the-fly selection.
 Cavity type          : Scaled VdW (van der Waals Surface) (Alpha=1.250).
 Cavity algorithm     : GePol (No added spheres)
                        Default sphere list used, NSphG=   20.
                        Lebedev-Laikov grids with approx.  5.0 points / Ang**2.
                        Smoothing algorithm: York/Karplus (Gamma=1.0000).
                        Polarization charges: spherical gaussians, with
                                              point-specific exponents (IZeta= 3).
                        Self-potential: point-specific (ISelfS= 7).
                        Self-field    : sphere-specific E.n sum rule (ISelfD= 2).
 1st derivatives      : Analytical E(r).r(x)/FMM algorithm (CHGder, D1EAlg=3).
                        Cavity 1st derivative terms included.
 Solvent              : Water, Eps=  78.355300 Eps(inf)=   1.777849
 ------------------------------------------------------------------------------
 Spheres list:
 ISph  on   Nord     Re0    Alpha      Xe            Ye            Ze
    1   C      1    1.5000  1.250     -3.562653      0.627008     -0.307344
    2   H      2    1.2000  1.250     -3.669641      0.538441     -1.393536
    3   H      3    1.2000  1.250     -3.429432      1.686527     -0.073410
    4   H      4    1.2000  1.250     -4.476810      0.275042      0.169690
    5   C      5    1.5000  1.250     -2.362728     -0.154763      0.198095
    6   O      6    1.4000  1.250     -2.402189     -0.965537      1.099883
    7   O      7    1.4000  1.250     -1.243577      0.258043     -0.426002
    8   C      8    1.5000  1.250     -0.033545     -0.425779     -0.256999
    9   C      9    1.5000  1.250      1.163642      0.296560     -0.052894
   10   C     10    1.5000  1.150      1.269511      1.808980     -0.009086
   11   O     11    1.4000  1.150      0.188630      2.489553     -0.189080
   12   O     12    1.4000  1.150      2.354554      2.307777      0.374744
   13   C     13    1.5000  1.250      2.329122     -0.448025      0.097662
   14   H     14    1.2000  1.250      3.277168      0.072289      0.168228
   15   C     15    1.5000  1.250      2.342167     -1.847784      0.047286
[...]
 KE= 6.435783680485D+02 PE=-3.062170740855D+03 EE= 1.007320935405D+03
 Leave Link  502 at Sun Jul 18 14:05:16 2021, MaxMem=   262144000 cpu:             674.3 elap:             168.6
 (Enter /prod/apps/gaussian/g16b1/l801.exe)
 ExpMin= 2.97D-02 ExpMax= 1.17D+04 ExpMxC= 4.01D+02 IAcc=3 IRadAn=         5 AccDes= 0.00D+00
 HarFok:  IExCor=  205 AccDes= 0.00D+00 IRadAn=         5 IDoV=-2 UseB2=F ITyADJ=14
 ICtDFT= 12500011 ScaDFX=  1.000000  1.000000  1.000000  1.000000
 Largest valence mixing into a core orbital is  1.19D-04
 Largest core mixing into a valence orbital is  4.16D-05
 Range of M.O.s used for correlation:    14   362
 NBasis=   362 NAE=    47 NBE=    47 NFC=    13 NFV=     0
 NROrb=    349 NOA=    34 NOB=    34 NVA=   315 NVB=   315

 **** Warning!!: The largest alpha MO coefficient is  0.10851195D+03

 Leave Link  801 at Sun Jul 18 14:05:16 2021, MaxMem=   262144000 cpu:               0.8 elap:               0.2
 (Enter /prod/apps/gaussian/g16b1/l906.exe)
 FulOut=F Deriv=F AODrv=F NAtomX=    20
   MMem=          14  MDisk=          34 MDiskD=          34
  W3Min=     4155480 MinDsk=     4703468 NBas6D=         388
 NBas2D=       76015    NTT=       75466    LW2=     2000000
    MDV=   261164167 MDiskM=        9277 NBas2p=       73213
 Disk-based method using OVN memory for 34 occupieds at a time.
 Estimated scratch disk usage=  2155912830 words.
 IMap=   1   2   3   4   5   6   7   8   9  10  11  12  13  14  15  16  17  18  19  20
 IMap=  21  22  23  24  25  26  27  28  29  30  31  32  33  34
 Actual    scratch disk usage=  1964893822 words.
 JobTyp=1 Pass  1:  I=   1 to  34 NPSUse=  4 ParTrn=T ParDer=T DoDerP=F.
 Spin components of T(2) and E(2):
     alpha-alpha T2 =       0.9616477974D-01 E2=     -0.2749686572D+00
     alpha-beta  T2 =       0.4827680616D+00 E2=     -0.1456021564D+01
     beta-beta   T2 =       0.9616477974D-01 E2=     -0.2749686572D+00
 The integrals were generated   1 times.
 ANorm=    0.1294255624D+01
 E2 =    -0.2005958879D+01 EUMP2 =    -0.64649531508377D+03
 Leave Link  906 at Sun Jul 18 14:07:28 2021, MaxMem=   262144000 cpu:             485.4 elap:             131.8
 (Enter /prod/apps/gaussian/g16b1/l601.exe)
 Copying SCF densities to generalized density rwf, IOpCl= 0 IROHF=0.

 **********************************************************************

            Population analysis using the SCF Density.

 **********************************************************************

 Orbital symmetries:
       Occupied  (A) (A) (A) (A) (A) (A) (A) (A) (A) (A) (A) (A)
                 (A) (A) (A) (A) (A) (A) (A) (A) (A) (A) (A) (A)
                 (A) (A) (A) (A) (A) (A) (A) (A) (A) (A) (A) (A)
                 (A) (A) (A) (A) (A) (A) (A) (A) (A) (A) (A)
       Virtual   (A) (A) (A) (A) (A) (A) (A) (A) (A) (A) (A) (A)
                 (A) (A) (A) (A) (A) (A) (A) (A) (A) (A) (A) (A)
                 (A) (A) (A) (A) (A) (A) (A) (A) (A) (A) (A) (A)
                 (A) (A) (A) (A) (A) (A) (A) (A) (A) (A) (A) (A)
                 (A) (A) (A) (A) (A) (A) (A) (A) (A) (A) (A) (A)
                 (A) (A) (A) (A) (A) (A) (A) (A) (A) (A) (A) (A)
                 (A) (A) (A) (A) (A) (A) (A) (A) (A) (A) (A) (A)
                 (A) (A) (A) (A) (A) (A) (A) (A) (A) (A) (A) (A)
                 (A) (A) (A) (A) (A) (A) (A) (A) (A) (A) (A) (A)
                 (A) (A) (A) (A) (A) (A) (A) (A) (A) (A) (A) (A)
                 (A) (A) (A) (A) (A) (A) (A) (A) (A) (A) (A) (A)
                 (A) (A) (A) (A) (A) (A) (A) (A) (A) (A) (A) (A)
                 (A) (A) (A) (A) (A) (A) (A) (A) (A) (A) (A) (A)
                 (A) (A) (A) (A) (A) (A) (A) (A) (A) (A) (A) (A)
                 (A) (A) (A) (A) (A) (A) (A) (A) (A) (A) (A) (A)
                 (A) (A) (A) (A) (A) (A) (A) (A) (A) (A) (A) (A)
                 (A) (A) (A) (A) (A) (A) (A) (A) (A) (A) (A) (A)
                 (A) (A) (A) (A) (A) (A) (A) (A) (A) (A) (A) (A)
                 (A) (A) (A) (A) (A) (A) (A) (A) (A) (A) (A) (A)
                 (A) (A) (A) (A) (A) (A) (A) (A) (A) (A) (A) (A)
                 (A) (A) (A) (A) (A) (A) (A) (A) (A) (A) (A) (A)
                 (A) (A) (A) (A) (A) (A) (A) (A) (A) (A) (A) (A)
                 (A) (A) (A) (A) (A) (A) (A) (A) (A) (A) (A) (A)
                 (A) (A) (A) (A) (A) (A) (A) (A) (A) (A) (A) (A)
                 (A) (A) (A) (A) (A) (A) (A) (A) (A) (A) (A) (A)
                 (A) (A) (A) (A) (A) (A) (A) (A) (A) (A) (A) (A)
                 (A) (A) (A)
 The electronic state is 1-A.
 Alpha  occ. eigenvalues --  -20.48924 -20.42810 -20.32368 -20.32289 -11.27158
 Alpha  occ. eigenvalues --  -11.18548 -11.17545 -11.13435 -11.13329 -11.12667
 Alpha  occ. eigenvalues --  -11.12407 -11.11636 -11.11208  -1.33980  -1.23896
 Alpha  occ. eigenvalues --   -1.19368  -1.08936  -1.03312  -0.92256  -0.90214
 Alpha  occ. eigenvalues --   -0.87753  -0.74060  -0.72163  -0.65765  -0.60270
 Alpha  occ. eigenvalues --   -0.57217  -0.56053  -0.54836  -0.52889  -0.49845
 Alpha  occ. eigenvalues --   -0.48346  -0.46564  -0.46075  -0.44827  -0.42571
 Alpha  occ. eigenvalues --   -0.41574  -0.40493  -0.39553  -0.37810  -0.36127
 Alpha  occ. eigenvalues --   -0.34043  -0.32409  -0.23528  -0.23184  -0.21649
 Alpha  occ. eigenvalues --   -0.21011  -0.20621
 Alpha virt. eigenvalues --    0.10888   0.11499   0.12176   0.13231   0.14080
 Alpha virt. eigenvalues --    0.15513   0.15958   0.18377   0.20045   0.20565
 Alpha virt. eigenvalues --    0.21201   0.21547   0.21849   0.22391   0.22999
 Alpha virt. eigenvalues --    0.23206   0.23302   0.23831   0.24012   0.24961
 Alpha virt. eigenvalues --    0.25321   0.25756   0.26706   0.26884   0.27476
 Alpha virt. eigenvalues --    0.27718   0.28597   0.29300   0.29378   0.30006
 Alpha virt. eigenvalues --    0.30090   0.30291   0.31560   0.32341   0.32938
 Alpha virt. eigenvalues --    0.33987   0.35222   0.35438   0.36031   0.37728
 Alpha virt. eigenvalues --    0.38431   0.39316   0.39955   0.41093   0.41428
 Alpha virt. eigenvalues --    0.41871   0.42589   0.43930   0.43936   0.44653
 Alpha virt. eigenvalues --    0.44923   0.46125   0.46744   0.47510   0.47705
 Alpha virt. eigenvalues --    0.48381   0.48751   0.49309   0.49567   0.49967
 Alpha virt. eigenvalues --    0.50383   0.50696   0.51592   0.51972   0.52796
 Alpha virt. eigenvalues --    0.53026   0.53845   0.54447   0.54711   0.55553
 Alpha virt. eigenvalues --    0.56032   0.56584   0.57501   0.58435   0.58818
 Alpha virt. eigenvalues --    0.59140   0.60163   0.61474   0.62156   0.62353
 Alpha virt. eigenvalues --    0.64400   0.65691   0.66304   0.66647   0.67218
 Alpha virt. eigenvalues --    0.67698   0.67829   0.68752   0.69678   0.70191
 Alpha virt. eigenvalues --    0.71278   0.71909   0.72288   0.73392   0.73711
 Alpha virt. eigenvalues --    0.74256   0.74844   0.75638   0.77089   0.77581
 Alpha virt. eigenvalues --    0.78019   0.79323   0.79956   0.80332   0.80940
 Alpha virt. eigenvalues --    0.81683   0.82437   0.82736   0.83753   0.84730
 Alpha virt. eigenvalues --    0.85030   0.85590   0.86725   0.87383   0.88346
 Alpha virt. eigenvalues --    0.88766   0.89464   0.90512   0.91986   0.92864
 Alpha virt. eigenvalues --    0.93240   0.95337   0.96047   0.96978   0.98555
 Alpha virt. eigenvalues --    0.98655   0.99709   1.00291   1.01828   1.02596
 Alpha virt. eigenvalues --    1.03895   1.04281   1.05216   1.05928   1.06858
 Alpha virt. eigenvalues --    1.07955   1.08102   1.08821   1.08932   1.10888
 Alpha virt. eigenvalues --    1.11403   1.12396   1.12659   1.13695   1.15036
 Alpha virt. eigenvalues --    1.16435   1.17204   1.17659   1.18833   1.19883
 Alpha virt. eigenvalues --    1.21653   1.22154   1.22969   1.23769   1.25015
 Alpha virt. eigenvalues --    1.25193   1.27702   1.28684   1.30002   1.31883
 Alpha virt. eigenvalues --    1.32435   1.33838   1.34765   1.37520   1.40310
 Alpha virt. eigenvalues --    1.40943   1.42189   1.43803   1.45241   1.46693
 Alpha virt. eigenvalues --    1.48793   1.51300   1.51967   1.52528   1.54508
 Alpha virt. eigenvalues --    1.56938   1.57115   1.59000   1.60291   1.61945
 Alpha virt. eigenvalues --    1.63752   1.64863   1.65195   1.65581   1.66541
 Alpha virt. eigenvalues --    1.67435   1.67986   1.69678   1.70837   1.71266
 Alpha virt. eigenvalues --    1.72694   1.73912   1.74422   1.76002   1.76659
 Alpha virt. eigenvalues --    1.78002   1.80108   1.82267   1.83585   1.84510
 Alpha virt. eigenvalues --    1.85337   1.86310   1.87556   1.87891   1.89864
 Alpha virt. eigenvalues --    1.90335   1.91378   1.92925   1.94031   1.96604
 Alpha virt. eigenvalues --    1.97232   1.98823   2.00375   2.01649   2.02875
 Alpha virt. eigenvalues --    2.03872   2.05585   2.05819   2.06872   2.07214
 Alpha virt. eigenvalues --    2.07880   2.09932   2.10090   2.11825   2.13091
 Alpha virt. eigenvalues --    2.13749   2.16452   2.17122   2.19200   2.20527
 Alpha virt. eigenvalues --    2.22832   2.23210   2.24300   2.26142   2.27312
 Alpha virt. eigenvalues --    2.28491   2.31057   2.32752   2.33138   2.34837
 Alpha virt. eigenvalues --    2.37066   2.37531   2.38166   2.39964   2.40379
 Alpha virt. eigenvalues --    2.41507   2.43367   2.45630   2.46763   2.47072
 Alpha virt. eigenvalues --    2.49171   2.50314   2.50533   2.52359   2.53467
 Alpha virt. eigenvalues --    2.54806   2.55970   2.58847   2.61090   2.62988
 Alpha virt. eigenvalues --    2.64065   2.70039   2.71222   2.74589   2.76869
 Alpha virt. eigenvalues --    2.78555   2.80945   2.84490   2.85755   2.90668
 Alpha virt. eigenvalues --    2.93728   2.94701   2.96892   2.98279   3.01269
 Alpha virt. eigenvalues --    3.05393   3.08015   3.11494   3.12144   3.13257
 Alpha virt. eigenvalues --    3.16650   3.25853   3.27933   3.32859   3.38157
 Alpha virt. eigenvalues --    3.41393   3.42856   3.45976   3.48332   3.58308
 Alpha virt. eigenvalues --    3.75436   3.77637   3.78945   3.90483   3.94096
 Alpha virt. eigenvalues --    3.97090   3.97363   3.99775   4.00738   4.01070
 Alpha virt. eigenvalues --    4.04407   4.05267   4.08046   4.10275   4.13431
 Alpha virt. eigenvalues --    4.14657   4.16644   4.18976   4.25871   4.28578
 Alpha virt. eigenvalues --    4.34441   4.38317   4.43033   4.46275   4.90040
          Condensed to atoms (all electrons):
               1          2          3          4          5          6
     1  C    4.712859   0.310810   0.414273   0.305411   0.019209  -0.005911
     2  H    0.310810   0.894013  -0.055261  -0.110421   0.051065  -0.001607
     3  H    0.414273  -0.055261   0.708688  -0.090800  -0.043857   0.003514
     4  H    0.305411  -0.110421  -0.090800   0.923809  -0.062007   0.020190
     5  C    0.019209   0.051065  -0.043857  -0.062007   5.348923   0.145109
     6  O   -0.005911  -0.001607   0.003514   0.020190   0.145109   8.642023
     7  O   -0.061467  -0.062244  -0.021179   0.060019   0.186812  -0.013693
     8  C    0.114635  -0.039515  -0.002096  -0.017368  -0.656711   0.062857
     9  C   -0.011313  -0.018636   0.026676   0.011230   0.160385  -0.094150
    10  C    0.058868  -0.002335  -0.001853   0.004236  -0.184466   0.018273
    11  O    0.008496   0.002016  -0.000295   0.004162  -0.039077   0.004788
    12  O    0.004410   0.000313   0.001067   0.000192  -0.014047  -0.000490
    13  C    0.051678  -0.000200   0.005006   0.001658  -0.129898   0.005113
    14  H   -0.000313  -0.000043   0.000174  -0.000203   0.000314   0.000544
    15  C   -0.013436  -0.002369  -0.000193   0.001016   0.048612  -0.005012
    16  H   -0.000280  -0.000012  -0.000006   0.000040   0.001918  -0.000210
    17  C    0.013123   0.008047  -0.000344  -0.002601  -0.003367   0.027328
    18  H   -0.000855   0.000026  -0.000059  -0.000096   0.000263   0.000233
    19  C   -0.163834   0.023822  -0.026472  -0.004440   0.417224   0.004224
    20  H    0.005460   0.003197   0.000693  -0.001125   0.014827  -0.002887
               7          8          9         10         11         12
     1  C   -0.061467   0.114635  -0.011313   0.058868   0.008496   0.004410
     2  H   -0.062244  -0.039515  -0.018636  -0.002335   0.002016   0.000313
     3  H   -0.021179  -0.002096   0.026676  -0.001853  -0.000295   0.001067
     4  H    0.060019  -0.017368   0.011230   0.004236   0.004162   0.000192
     5  C    0.186812  -0.656711   0.160385  -0.184466  -0.039077  -0.014047
     6  O   -0.013693   0.062857  -0.094150   0.018273   0.004788  -0.000490
     7  O   10.015212  -1.115235   0.338926  -0.059577  -0.041272  -0.003982
     8  C   -1.115235  18.651879  -4.758240  -0.231715   0.089704  -0.005045
     9  C    0.338926  -4.758240  14.050915  -1.358642   0.167812   0.047522
    10  C   -0.059577  -0.231715  -1.358642   7.352159   0.134766   0.197042
    11  O   -0.041272   0.089704   0.167812   0.134766   8.972939  -0.137596
    12  O   -0.003982  -0.005045   0.047522   0.197042  -0.137596   8.993986
    13  C   -0.069587   0.517170  -3.846238  -0.482322  -0.120069   0.073093
    14  H   -0.009366  -0.046071   0.715617   0.086386   0.001766  -0.028444
    15  C    0.104913  -3.603380   1.587468  -0.376556  -0.028922  -0.115770
    16  H    0.004889   0.023246  -0.062956   0.021023   0.000310   0.000901
    17  C   -0.183952   1.822365  -3.014241   0.282162  -0.008255  -0.003413
    18  H   -0.007288  -0.041731   0.018691  -0.011528  -0.000204   0.000042
    19  C    0.278079  -6.522326   1.730733  -0.328787  -0.053640  -0.020860
    20  H   -0.157872   0.969480  -0.255539   0.000597   0.000467   0.000060
              13         14         15         16         17         18
     1  C    0.051678  -0.000313  -0.013436  -0.000280   0.013123  -0.000855
     2  H   -0.000200  -0.000043  -0.002369  -0.000012   0.008047   0.000026
     3  H    0.005006   0.000174  -0.000193  -0.000006  -0.000344  -0.000059
     4  H    0.001658  -0.000203   0.001016   0.000040  -0.002601  -0.000096
     5  C   -0.129898   0.000314   0.048612   0.001918  -0.003367   0.000263
     6  O    0.005113   0.000544  -0.005012  -0.000210   0.027328   0.000233
     7  O   -0.069587  -0.009366   0.104913   0.004889  -0.183952  -0.007288
     8  C    0.517170  -0.046071  -3.603380   0.023246   1.822365  -0.041731
     9  C   -3.846238   0.715617   1.587468  -0.062956  -3.014241   0.018691
    10  C   -0.482322   0.086386  -0.376556   0.021023   0.282162  -0.011528
    11  O   -0.120069   0.001766  -0.028922   0.000310  -0.008255  -0.000204
    12  O    0.073093  -0.028444  -0.115770   0.000901  -0.003413   0.000042
    13  C   15.679844  -1.104985  -3.870876   0.607674   2.925498  -0.181652
    14  H   -1.104985   1.884221   0.281683  -0.088535  -0.210944  -0.013033
    15  C   -3.870876   0.281683  11.780205  -0.840985  -3.130461   0.413299
    16  H    0.607674  -0.088535  -0.840985   1.694707   0.366725  -0.058600
    17  C    2.925498  -0.210944  -3.130461   0.366725  10.513062  -0.794429
    18  H   -0.181652  -0.013033   0.413299  -0.058600  -0.794429   1.705582
    19  C   -4.945506   0.139444   3.534558  -0.178674  -3.420253   0.502311
    20  H    0.182938   0.010729  -0.226319  -0.017356   0.439881  -0.069252
              19         20
     1  C   -0.163834   0.005460
     2  H    0.023822   0.003197
     3  H   -0.026472   0.000693
     4  H   -0.004440  -0.001125
     5  C    0.417224   0.014827
     6  O    0.004224  -0.002887
     7  O    0.278079  -0.157872
     8  C   -6.522326   0.969480
     9  C    1.730733  -0.255539
    10  C   -0.328787   0.000597
    11  O   -0.053640   0.000467
    12  O   -0.020860   0.000060
    13  C   -4.945506   0.182938
    14  H    0.139444   0.010729
    15  C    3.534558  -0.226319
    16  H   -0.178674  -0.017356
    17  C   -3.420253   0.439881
    18  H    0.502311  -0.069252
    19  C   16.015810  -1.293780
    20  H   -1.293780   2.002739
 Mulliken charges:
               1
     1  C    0.238177
     2  H   -0.000668
     3  H    0.082323
     4  H   -0.042901
     5  C    0.738768
     6  O   -0.810234
     7  O   -1.182136
     8  C    0.788098
     9  C    0.563982
    10  C    0.882268
    11  O   -0.957896
    12  O   -0.988981
    13  C    0.701660
    14  H   -0.618941
    15  C    0.462524
    16  H   -0.473819
    17  C    0.374069
    18  H   -0.461718
    19  C    0.312366
    20  H   -0.606939
 Sum of Mulliken charges =  -1.00000
 Mulliken charges with hydrogens summed into heavy atoms:
               1
     1  C    0.276931
     5  C    0.738768
     6  O   -0.810234
     7  O   -1.182136
     8  C    0.788098
     9  C    0.563982
    10  C    0.882268
    11  O   -0.957896
    12  O   -0.988981
    13  C    0.082719
    15  C   -0.011296
    17  C   -0.087649
    19  C   -0.294573
 Electronic spatial extent (au):  <R**2>=           2268.8018
 Charge=             -1.0000 electrons
 Dipole moment (field-independent basis, Debye):
    X=              0.0775    Y=             -9.2713    Z=             -1.6973  Tot=              9.4257
 Quadrupole moment (field-independent basis, Debye-Ang):
   XX=            -79.2711   YY=           -107.8481   ZZ=            -85.6802
   XY=             -1.3053   XZ=              6.0978   YZ=              3.5065
 Traceless Quadrupole moment (field-independent basis, Debye-Ang):
   XX=             11.6621   YY=            -16.9150   ZZ=              5.2530
   XY=             -1.3053   XZ=              6.0978   YZ=              3.5065
 Octapole moment (field-independent basis, Debye-Ang**2):
  XXX=            -30.4023  YYY=            -95.3855  ZZZ=             -5.4798  XYY=            -14.8516
  XXY=             -9.3622  XXZ=             -2.4887  XZZ=             -3.7441  YZZ=             10.6024
  YYZ=              0.1717  XYZ=             -2.0933
 Hexadecapole moment (field-independent basis, Debye-Ang**3):
 XXXX=          -1717.5634 YYYY=          -1348.2419 ZZZZ=           -221.1896 XXXY=             16.3864
 XXXZ=             32.1772 YYYX=            -41.1663 YYYZ=             16.2239 ZZZX=             10.4637
 ZZZY=              3.2852 XXYY=           -512.4837 XXZZ=           -368.9158 YYZZ=           -227.7488
 XXYZ=              7.1586 YYXZ=              9.2876 ZZXY=              4.3390
 N-N= 7.667820811965D+02 E-N=-3.062170740525D+03  KE= 6.435783680485D+02
 Leave Link  601 at Sun Jul 18 14:07:28 2021, MaxMem=   262144000 cpu:               0.5 elap:               0.2
 (Enter /prod/apps/gaussian/g16b1/l9999.exe)
 1\1\GINC-PIRINEUS38\SP\RMP2-FC\Aug-CC-pVDZ\C9H7O4(1-)\UBATOR02\18-Jul-
 2021\0\\#p mp2/aug-cc-pVDZ scf=tight maxdisk=180GB geom=allcheck\\SET_
 328_BBB272_conf1.geo_165_045_180 geometry\\-1,1\C,0,-3.2272144414,1.01
 64185312,-0.1416034877\H,0,-3.5207806381,1.1032111537,0.9068867165\H,0
 ,-3.5592297405,0.0393166295,-0.5023416992\H,0,-3.6985235108,1.80236413
 48,-0.730525968\C,0,-1.7328024825,1.0967473919,-0.2815425073\O,0,-1.12
 49728071,1.7954206953,-1.0637695342\O,0,-1.1256615317,0.2896697631,0.6
 307531374\C,0,0.2563936719,0.1030353648,0.515119769\C,0,0.7876425368,-
 0.8420402263,-0.3747283143\C,0,-0.0426895919,-1.6837768641,-1.35416391
 97\O,0,-1.2261223794,-1.3179841666,-1.5951486338\O,0,0.543474544,-2.68
 19056439,-1.8545308348\C,0,2.1790285248,-1.021062204,-0.3444216106\H,0
 ,2.5980555726,-1.7595714053,-1.0185602796\C,0,3.0021077908,-0.29432705
 7,0.5131216953\H,0,4.0750813689,-0.4560648757,0.5030824943\C,0,2.43949
 19685,0.6354684486,1.3896648803\H,0,3.0652630555,1.2032586601,2.068429
 6769\C,0,1.0590966646,0.8297826751,1.3910674357\H,0,0.5903614246,1.536
 0389948,2.0682109839\\Version=ES64L-G16RevB.01\State=1-A\HF=-644.48935
 62\MP2=-646.4953151\RMSD=5.978e-09\PG=C01 [X(C9H7O4)]\\@


 IN THE FIGHT BETWEEN YOU AND THE WORLD, BACK THE WORLD

                                        -- FRANZ KAFKA
 Job cpu time:       0 days  0 hours 19 minutes 29.6 seconds.
 Elapsed time:       0 days  0 hours  5 minutes  3.1 seconds.
 File lengths (MBytes):  RWF=  15064 Int=      0 D2E=      0 Chk=     11 Scr=      1
 Normal termination of Gaussian 16 at Sun Jul 18 14:07:30 2021.
