 Entering Gaussian System, Link 0=g16
 Initial command:
 /prod/apps/gaussian/g16b1/l1.exe "/tmp/ubator02/1839675/Gau-71818.inp" -scrdir="/tmp/ubator02/1839675/"
 Entering Link 1 = /prod/apps/gaussian/g16b1/l1.exe PID=     71822.
  
 Copyright (c) 1988-2017, Gaussian, Inc.  All Rights Reserved.
  
 This is part of the Gaussian(R) 16 program.  It is based on
 the Gaussian(R) 09 system (copyright 2009, Gaussian, Inc.),
 the Gaussian(R) 03 system (copyright 2003, Gaussian, Inc.),
 the Gaussian(R) 98 system (copyright 1998, Gaussian, Inc.),
 the Gaussian(R) 94 system (copyright 1995, Gaussian, Inc.),
 the Gaussian 92(TM) system (copyright 1992, Gaussian, Inc.),
 the Gaussian 90(TM) system (copyright 1990, Gaussian, Inc.),
 the Gaussian 88(TM) system (copyright 1988, Gaussian, Inc.),
 the Gaussian 86(TM) system (copyright 1986, Carnegie Mellon
 University), and the Gaussian 82(TM) system (copyright 1983,
 Carnegie Mellon University). Gaussian is a federally registered
 trademark of Gaussian, Inc.
  
 This software contains proprietary and confidential information,
 including trade secrets, belonging to Gaussian, Inc.
  
 This software is provided under written license and may be
 used, copied, transmitted, or stored only in accord with that
 written license.
  
 The following legend is applicable only to US Government
 contracts under FAR:
  
                    RESTRICTED RIGHTS LEGEND
  
 Use, reproduction and disclosure by the US Government is
 subject to restrictions as set forth in subparagraphs (a)
 and (c) of the Commercial Computer Software - Restricted
 Rights clause in FAR 52.227-19.
  
 Gaussian, Inc.
 340 Quinnipiac St., Bldg. 40, Wallingford CT 06492
  
  
 ---------------------------------------------------------------
 Warning -- This program may not be used in any manner that
 competes with the business of Gaussian, Inc. or will provide
 assistance to any competitor of Gaussian, Inc.  The licensee
 of this program is prohibited from giving any competitor of
 Gaussian, Inc. access to this program.  By using this program,
 the user acknowledges that Gaussian, Inc. is engaged in the
 business of creating and licensing software in the field of
 computational chemistry and represents and warrants to the
 licensee that it is not a competitor of Gaussian, Inc. and that
 it will not use this program in any manner prohibited above.
 ---------------------------------------------------------------
  

 Cite this work as:
 Gaussian 16, Revision B.01,
 M. J. Frisch, G. W. Trucks, H. B. Schlegel, G. E. Scuseria, 
 M. A. Robb, J. R. Cheeseman, G. Scalmani, V. Barone, 
 G. A. Petersson, H. Nakatsuji, X. Li, M. Caricato, A. V. Marenich, 
 J. Bloino, B. G. Janesko, R. Gomperts, B. Mennucci, H. P. Hratchian, 
 J. V. Ortiz, A. F. Izmaylov, J. L. Sonnenberg, D. Williams-Young, 
 F. Ding, F. Lipparini, F. Egidi, J. Goings, B. Peng, A. Petrone, 
 T. Henderson, D. Ranasinghe, V. G. Zakrzewski, J. Gao, N. Rega, 
 G. Zheng, W. Liang, M. Hada, M. Ehara, K. Toyota, R. Fukuda, 
 J. Hasegawa, M. Ishida, T. Nakajima, Y. Honda, O. Kitao, H. Nakai, 
 T. Vreven, K. Throssell, J. A. Montgomery, Jr., J. E. Peralta, 
 F. Ogliaro, M. J. Bearpark, J. J. Heyd, E. N. Brothers, K. N. Kudin, 
 V. N. Staroverov, T. A. Keith, R. Kobayashi, J. Normand, 
 K. Raghavachari, A. P. Rendell, J. C. Burant, S. S. Iyengar, 
 J. Tomasi, M. Cossi, J. M. Millam, M. Klene, C. Adamo, R. Cammi, 
 J. W. Ochterski, R. L. Martin, K. Morokuma, O. Farkas, 
 J. B. Foresman, and D. J. Fox, Gaussian, Inc., Wallingford CT, 2016.
 
 ******************************************
 Gaussian 16:  ES64L-G16RevB.01 20-Dec-2017
                18-Jul-2021 
 ******************************************
 %mem=800MB
 %nproc=4
 Will use up to    4 processors via shared memory.
 %chk=SET_328_BBB321_conf1.geo_195_330_315.chk
 -----------------------------------------------------------
 #p b3lyp/6-31G(d) opt freq scrf=(iefpcm,read,solvent=water)
 -----------------------------------------------------------
 1/18=20,19=15,26=3,38=1,40=2/1,3;
 2/9=110,12=2,17=6,18=5,40=1/2;
 3/5=1,6=6,7=1,11=2,25=1,30=1,70=2203,71=1,72=1,74=-5/1,2,3;
 4//1;
 5/5=2,38=5,53=1/2;
 6/7=2,8=2,9=2,10=2,28=1/1;
 7//1,2,3,16;
 1/18=20,19=15,26=3/3(2);
 2/9=110/2;
 99//99;
 2/9=110/2;
 3/5=1,6=6,7=1,11=2,25=1,30=1,70=2205,71=1,72=1,74=-5/1,2,3;
 4/5=5,16=3,69=1/1;
 5/5=2,38=5,53=1/2;
 7//1,2,3,16;
 1/18=20,19=15,26=3/3(-5);
 2/9=110/2;
 6/7=2,8=2,9=2,10=2,19=2,28=1/1;
 99/9=1/99;
 Leave Link    1 at Sun Jul 18 15:48:38 2021, MaxMem=   104857600 cpu:               0.1 elap:               0.0
 (Enter /prod/apps/gaussian/g16b1/l101.exe)
 ---------------------------------------------
 SET_328_BBB321_conf1.geo_195_330_315 geometry
 ---------------------------------------------
 Symbolic Z-matrix:
 Charge =  1 Multiplicity = 1
 C                    -1.235    -2.806    -4.094 
 H                    -2.062    -3.318    -3.597 
 H                    -0.544    -3.551    -4.495 
 H                    -1.637    -2.271    -4.957 
 C                    -0.549    -1.956    -3.07 
 O                    -0.101    -2.514    -2.09 
 N                    -0.288    -0.649    -3.322 
 H                    -0.431    -0.282    -4.251 
 C                     0.482     0.205    -2.564 
 C                     1.363     1.137    -3.199 
 C                     2.16      1.89     -2.405 
 C                     2.045     1.917    -1. 
 H                     2.547     2.646    -0.369 
 H                     2.897     2.522    -2.894 
 H                     1.48      1.132    -4.28 
 C                     0.381     0.206    -1.183 
 H                    -0.203    -0.595    -0.738 
 C                     1.159     1.07     -0.409 
 C                     0.991     1.094     1.048 
 N                    -0.188     0.826     1.688 
 C                     2.187     1.027     1.716 
 H                     3.212     1.107     1.377 
 S                     1.85      1.076     3.426 
 C                     0.16      0.713     2.996 
 N                    -0.681     0.544     4.124 
 C                    -1.797     0.016     3.947 
 N                    -2.65      0.525     4.802 
 H                    -2.076     1.155     5.351 
 H                    -3.254     1.056     4.185 
 N                    -1.934    -1.175     4.423 
 H                    -1.056    -1.681     4.446 
 H                    -2.226    -1.069     5.388 
 H                    -0.389     0.839     5.034 
 
 ITRead=  0  0  0  0  0  0  0  0  0  0  0  0  0  0  0  0  0  0  0  0
 ITRead=  0  0  0  0  0  0  0  0  0  0  0  0  0
 MicOpt= -1 -1 -1 -1 -1 -1 -1 -1 -1 -1 -1 -1 -1 -1 -1 -1 -1 -1 -1 -1
 MicOpt= -1 -1 -1 -1 -1 -1 -1 -1 -1 -1 -1 -1 -1
 NAtoms=     33 NQM=       33 NQMF=       0 NMMI=      0 NMMIF=      0
                NMic=       0 NMicF=      0.
                    Isotopes and Nuclear Properties:
 (Nuclear quadrupole moments (NQMom) in fm**2, nuclear magnetic moments (NMagM)
  in nuclear magnetons)

  Atom         1           2           3           4           5           6           7           8           9          10
 IAtWgt=          12           1           1           1          12          16          14           1          12          12
 AtmWgt=  12.0000000   1.0078250   1.0078250   1.0078250  12.0000000  15.9949146  14.0030740   1.0078250  12.0000000  12.0000000
 NucSpn=           0           1           1           1           0           0           2           1           0           0
 AtZEff=  -0.0000000  -0.0000000  -0.0000000  -0.0000000  -0.0000000  -0.0000000  -0.0000000  -0.0000000  -0.0000000  -0.0000000
 NQMom=    0.0000000   0.0000000   0.0000000   0.0000000   0.0000000   0.0000000   2.0440000   0.0000000   0.0000000   0.0000000
 NMagM=    0.0000000   2.7928460   2.7928460   2.7928460   0.0000000   0.0000000   0.4037610   2.7928460   0.0000000   0.0000000
 AtZNuc=   6.0000000   1.0000000   1.0000000   1.0000000   6.0000000   8.0000000   7.0000000   1.0000000   6.0000000   6.0000000

  Atom        11          12          13          14          15          16          17          18          19          20
 IAtWgt=          12          12           1           1           1          12           1          12          12          14
 AtmWgt=  12.0000000  12.0000000   1.0078250   1.0078250   1.0078250  12.0000000   1.0078250  12.0000000  12.0000000  14.0030740
 NucSpn=           0           0           1           1           1           0           1           0           0           2
 AtZEff=  -0.0000000  -0.0000000  -0.0000000  -0.0000000  -0.0000000  -0.0000000  -0.0000000  -0.0000000  -0.0000000  -0.0000000
 NQMom=    0.0000000   0.0000000   0.0000000   0.0000000   0.0000000   0.0000000   0.0000000   0.0000000   0.0000000   2.0440000
 NMagM=    0.0000000   0.0000000   2.7928460   2.7928460   2.7928460   0.0000000   2.7928460   0.0000000   0.0000000   0.4037610
 AtZNuc=   6.0000000   6.0000000   1.0000000   1.0000000   1.0000000   6.0000000   1.0000000   6.0000000   6.0000000   7.0000000

  Atom        21          22          23          24          25          26          27          28          29          30
 IAtWgt=          12           1          32          12          14          12          14           1           1          14
 AtmWgt=  12.0000000   1.0078250  31.9720718  12.0000000  14.0030740  12.0000000  14.0030740   1.0078250   1.0078250  14.0030740
 NucSpn=           0           1           0           0           2           0           2           1           1           2
 AtZEff=  -0.0000000  -0.0000000  -0.0000000  -0.0000000  -0.0000000  -0.0000000  -0.0000000  -0.0000000  -0.0000000  -0.0000000
 NQMom=    0.0000000   0.0000000   0.0000000   0.0000000   2.0440000   0.0000000   2.0440000   0.0000000   0.0000000   2.0440000
 NMagM=    0.0000000   2.7928460   0.0000000   0.0000000   0.4037610   0.0000000   0.4037610   2.7928460   2.7928460   0.4037610
 AtZNuc=   6.0000000   1.0000000  16.0000000   6.0000000   7.0000000   6.0000000   7.0000000   1.0000000   1.0000000   7.0000000

  Atom        31          32          33
 IAtWgt=           1           1           1
 AtmWgt=   1.0078250   1.0078250   1.0078250
 NucSpn=           1           1           1
 AtZEff=  -0.0000000  -0.0000000  -0.0000000
 NQMom=    0.0000000   0.0000000   0.0000000
 NMagM=    2.7928460   2.7928460   2.7928460
 AtZNuc=   1.0000000   1.0000000   1.0000000
 Leave Link  101 at Sun Jul 18 15:48:38 2021, MaxMem=   104857600 cpu:               0.5 elap:               0.1
 (Enter /prod/apps/gaussian/g16b1/l103.exe)

 GradGradGradGradGradGradGradGradGradGradGradGradGradGradGradGradGradGrad
 Berny optimization.
 Initialization pass.
                           ----------------------------
                           !    Initial Parameters    !
                           ! (Angstroms and Degrees)  !
 --------------------------                            --------------------------
 ! Name  Definition              Value          Derivative Info.                !
 --------------------------------------------------------------------------------
 ! R1    R(1,2)                  1.0923         estimate D2E/DX2                !
 ! R2    R(1,3)                  1.0924         estimate D2E/DX2                !
 ! R3    R(1,4)                  1.0921         estimate D2E/DX2                !
 ! R4    R(1,5)                  1.4972         estimate D2E/DX2                !
 ! R5    R(5,6)                  1.2135         estimate D2E/DX2                !
 ! R6    R(5,7)                  1.3564         estimate D2E/DX2                !
 ! R7    R(7,8)                  1.009          estimate D2E/DX2                !
 ! R8    R(7,9)                  1.3772         estimate D2E/DX2                !
 ! R9    R(9,10)                 1.4311         estimate D2E/DX2                !
 ! R10   R(9,16)                 1.3847         estimate D2E/DX2                !
 ! R11   R(10,11)                1.3538         estimate D2E/DX2                !
 ! R12   R(10,15)                1.0873         estimate D2E/DX2                !
 ! R13   R(11,12)                1.41           estimate D2E/DX2                !
 ! R14   R(11,14)                1.0871         estimate D2E/DX2                !
 ! R15   R(12,13)                1.087          estimate D2E/DX2                !
 ! R16   R(12,18)                1.3608         estimate D2E/DX2                !
 ! R17   R(16,17)                1.0866         estimate D2E/DX2                !
 ! R18   R(16,18)                1.3967         estimate D2E/DX2                !
 ! R19   R(18,19)                1.4669         estimate D2E/DX2                !
 ! R20   R(19,20)                1.368          estimate D2E/DX2                !
 ! R21   R(19,21)                1.3715         estimate D2E/DX2                !
 ! R22   R(20,24)                1.3582         estimate D2E/DX2                !
 ! R23   R(21,22)                1.0826         estimate D2E/DX2                !
 ! R24   R(21,23)                1.7436         estimate D2E/DX2                !
 ! R25   R(23,24)                1.7812         estimate D2E/DX2                !
 ! R26   R(24,25)                1.4171         estimate D2E/DX2                !
 ! R27   R(25,26)                1.2472         estimate D2E/DX2                !
 ! R28   R(25,33)                1.0002         estimate D2E/DX2                !
 ! R29   R(26,27)                1.3106         estimate D2E/DX2                !
 ! R30   R(26,30)                1.2899         estimate D2E/DX2                !
 ! R31   R(27,28)                1.0138         estimate D2E/DX2                !
 ! R32   R(27,29)                1.0136         estimate D2E/DX2                !
 ! R33   R(30,31)                1.0136         estimate D2E/DX2                !
 ! R34   R(30,32)                1.0138         estimate D2E/DX2                !
 ! A1    A(2,1,3)              109.0431         estimate D2E/DX2                !
 ! A2    A(2,1,4)              108.0894         estimate D2E/DX2                !
 ! A3    A(2,1,5)              107.567          estimate D2E/DX2                !
 ! A4    A(3,1,4)              106.0735         estimate D2E/DX2                !
 ! A5    A(3,1,5)              110.3904         estimate D2E/DX2                !
 ! A6    A(4,1,5)              115.532          estimate D2E/DX2                !
 ! A7    A(1,5,6)              117.4161         estimate D2E/DX2                !
 ! A8    A(1,5,7)              120.5396         estimate D2E/DX2                !
 ! A9    A(6,5,7)              121.4727         estimate D2E/DX2                !
 ! A10   A(5,7,8)              119.6192         estimate D2E/DX2                !
 ! A11   A(5,7,9)              127.072          estimate D2E/DX2                !
 ! A12   A(8,7,9)              111.1259         estimate D2E/DX2                !
 ! A13   A(7,9,10)             120.2519         estimate D2E/DX2                !
 ! A14   A(7,9,16)             120.5692         estimate D2E/DX2                !
 ! A15   A(10,9,16)            119.1416         estimate D2E/DX2                !
 ! A16   A(9,10,11)            117.6734         estimate D2E/DX2                !
 ! A17   A(9,10,15)            120.2906         estimate D2E/DX2                !
 ! A18   A(11,10,15)           121.4875         estimate D2E/DX2                !
 ! A19   A(10,11,12)           123.1674         estimate D2E/DX2                !
 ! A20   A(10,11,14)           117.3026         estimate D2E/DX2                !
 ! A21   A(12,11,14)           119.4996         estimate D2E/DX2                !
 ! A22   A(11,12,13)           123.6159         estimate D2E/DX2                !
 ! A23   A(11,12,18)           118.2925         estimate D2E/DX2                !
 ! A24   A(13,12,18)           117.7757         estimate D2E/DX2                !
 ! A25   A(9,16,17)            116.5588         estimate D2E/DX2                !
 ! A26   A(9,16,18)            120.83           estimate D2E/DX2                !
 ! A27   A(17,16,18)           121.8995         estimate D2E/DX2                !
 ! A28   A(12,18,16)           120.4665         estimate D2E/DX2                !
 ! A29   A(12,18,19)           119.7215         estimate D2E/DX2                !
 ! A30   A(16,18,19)           119.7856         estimate D2E/DX2                !
 ! A31   A(18,19,20)           124.069          estimate D2E/DX2                !
 ! A32   A(18,19,21)           112.5259         estimate D2E/DX2                !
 ! A33   A(20,19,21)           120.9376         estimate D2E/DX2                !
 ! A34   A(19,20,24)           104.2419         estimate D2E/DX2                !
 ! A35   A(19,21,22)           132.0298         estimate D2E/DX2                !
 ! A36   A(19,21,23)           107.9235         estimate D2E/DX2                !
 ! A37   A(22,21,23)           119.2119         estimate D2E/DX2                !
 ! A38   A(21,23,24)            86.6117         estimate D2E/DX2                !
 ! A39   A(20,24,23)           117.2984         estimate D2E/DX2                !
 ! A40   A(20,24,25)           128.6397         estimate D2E/DX2                !
 ! A41   A(23,24,25)           113.2792         estimate D2E/DX2                !
 ! A42   A(24,25,26)           117.9397         estimate D2E/DX2                !
 ! A43   A(24,25,33)           121.0491         estimate D2E/DX2                !
 ! A44   A(26,25,33)           121.0112         estimate D2E/DX2                !
 ! A45   A(25,26,27)           108.988          estimate D2E/DX2                !
 ! A46   A(25,26,30)           115.693          estimate D2E/DX2                !
 ! A47   A(27,26,30)            92.793          estimate D2E/DX2                !
 ! A48   A(26,27,28)           103.0687         estimate D2E/DX2                !
 ! A49   A(26,27,29)           101.1964         estimate D2E/DX2                !
 ! A50   A(28,27,29)           109.9663         estimate D2E/DX2                !
 ! A51   A(26,30,31)           112.1664         estimate D2E/DX2                !
 ! A52   A(26,30,32)           106.5779         estimate D2E/DX2                !
 ! A53   A(31,30,32)           106.2656         estimate D2E/DX2                !
 ! D1    D(2,1,5,6)             58.4776         estimate D2E/DX2                !
 ! D2    D(2,1,5,7)           -130.0654         estimate D2E/DX2                !
 ! D3    D(3,1,5,6)            -60.3904         estimate D2E/DX2                !
 ! D4    D(3,1,5,7)            111.0666         estimate D2E/DX2                !
 ! D5    D(4,1,5,6)            179.2852         estimate D2E/DX2                !
 ! D6    D(4,1,5,7)             -9.2579         estimate D2E/DX2                !
 ! D7    D(1,5,7,8)             -9.1238         estimate D2E/DX2                !
 ! D8    D(1,5,7,9)           -170.7747         estimate D2E/DX2                !
 ! D9    D(6,5,7,8)            161.9818         estimate D2E/DX2                !
 ! D10   D(6,5,7,9)              0.3309         estimate D2E/DX2                !
 ! D11   D(5,7,9,10)           139.5803         estimate D2E/DX2                !
 ! D12   D(5,7,9,16)           -42.6591         estimate D2E/DX2                !
 ! D13   D(8,7,9,10)           -23.3588         estimate D2E/DX2                !
 ! D14   D(8,7,9,16)           154.4019         estimate D2E/DX2                !
 ! D15   D(7,9,10,11)         -175.7351         estimate D2E/DX2                !
 ! D16   D(7,9,10,15)           -4.1019         estimate D2E/DX2                !
 ! D17   D(16,9,10,11)           6.4724         estimate D2E/DX2                !
 ! D18   D(16,9,10,15)         178.1056         estimate D2E/DX2                !
 ! D19   D(7,9,16,17)            9.5035         estimate D2E/DX2                !
 ! D20   D(7,9,16,18)         -179.9832         estimate D2E/DX2                !
 ! D21   D(10,9,16,17)        -172.7112         estimate D2E/DX2                !
 ! D22   D(10,9,16,18)          -2.1979         estimate D2E/DX2                !
 ! D23   D(9,10,11,12)          -8.0683         estimate D2E/DX2                !
 ! D24   D(9,10,11,14)         173.9501         estimate D2E/DX2                !
 ! D25   D(15,10,11,12)       -179.5955         estimate D2E/DX2                !
 ! D26   D(15,10,11,14)          2.4229         estimate D2E/DX2                !
 ! D27   D(10,11,12,13)       -168.2582         estimate D2E/DX2                !
 ! D28   D(10,11,12,18)          5.1345         estimate D2E/DX2                !
 ! D29   D(14,11,12,13)          9.681          estimate D2E/DX2                !
 ! D30   D(14,11,12,18)       -176.9263         estimate D2E/DX2                !
 ! D31   D(11,12,18,16)         -0.4326         estimate D2E/DX2                !
 ! D32   D(11,12,18,19)       -178.5601         estimate D2E/DX2                !
 ! D33   D(13,12,18,16)        173.35           estimate D2E/DX2                !
 ! D34   D(13,12,18,19)         -4.7774         estimate D2E/DX2                !
 ! D35   D(9,16,18,12)          -0.8294         estimate D2E/DX2                !
 ! D36   D(9,16,18,19)         177.2969         estimate D2E/DX2                !
 ! D37   D(17,16,18,12)        169.1704         estimate D2E/DX2                !
 ! D38   D(17,16,18,19)        -12.7033         estimate D2E/DX2                !
 ! D39   D(12,18,19,20)        147.7688         estimate D2E/DX2                !
 ! D40   D(12,18,19,21)        -49.9877         estimate D2E/DX2                !
 ! D41   D(16,18,19,20)        -30.3715         estimate D2E/DX2                !
 ! D42   D(16,18,19,21)        131.8719         estimate D2E/DX2                !
 ! D43   D(18,19,20,24)        168.9587         estimate D2E/DX2                !
 ! D44   D(21,19,20,24)          8.1323         estimate D2E/DX2                !
 ! D45   D(18,19,21,22)         10.4402         estimate D2E/DX2                !
 ! D46   D(18,19,21,23)        179.5772         estimate D2E/DX2                !
 ! D47   D(20,19,21,22)        173.3108         estimate D2E/DX2                !
 ! D48   D(20,19,21,23)        -17.5522         estimate D2E/DX2                !
 ! D49   D(19,20,24,23)          5.3912         estimate D2E/DX2                !
 ! D50   D(19,20,24,25)        174.4958         estimate D2E/DX2                !
 ! D51   D(19,21,23,24)         15.153          estimate D2E/DX2                !
 ! D52   D(22,21,23,24)       -174.0764         estimate D2E/DX2                !
 ! D53   D(21,23,24,20)        -12.6577         estimate D2E/DX2                !
 ! D54   D(21,23,24,25)        176.5912         estimate D2E/DX2                !
 ! D55   D(20,24,25,26)         25.4125         estimate D2E/DX2                !
 ! D56   D(20,24,25,33)       -154.58           estimate D2E/DX2                !
 ! D57   D(23,24,25,26)       -165.1234         estimate D2E/DX2                !
 ! D58   D(23,24,25,33)         14.8841         estimate D2E/DX2                !
 ! D59   D(24,25,26,27)       -147.7828         estimate D2E/DX2                !
 ! D60   D(24,25,26,30)        109.3475         estimate D2E/DX2                !
 ! D61   D(33,25,26,27)         32.2098         estimate D2E/DX2                !
 ! D62   D(33,25,26,30)        -70.66           estimate D2E/DX2                !
 ! D63   D(25,26,27,28)         -2.6389         estimate D2E/DX2                !
 ! D64   D(25,26,27,29)        111.1454         estimate D2E/DX2                !
 ! D65   D(30,26,27,28)        115.7745         estimate D2E/DX2                !
 ! D66   D(30,26,27,29)       -130.4412         estimate D2E/DX2                !
 ! D67   D(25,26,30,31)        -28.9107         estimate D2E/DX2                !
 ! D68   D(25,26,30,32)         86.9919         estimate D2E/DX2                !
 ! D69   D(27,26,30,31)       -141.5526         estimate D2E/DX2                !
 ! D70   D(27,26,30,32)        -25.65           estimate D2E/DX2                !
 --------------------------------------------------------------------------------
 Trust Radius=3.00D-01 FncErr=1.00D-07 GrdErr=1.00D-06 EigMax=2.50D+02 EigMin=1.00D-04
 Number of steps in this run=    167 maximum allowed number of steps=    198.
 GradGradGradGradGradGradGradGradGradGradGradGradGradGradGradGradGradGrad

 Leave Link  103 at Sun Jul 18 15:48:38 2021, MaxMem=   104857600 cpu:               0.1 elap:               0.0
 (Enter /prod/apps/gaussian/g16b1/l202.exe)
                          Input orientation:                          
 ---------------------------------------------------------------------
 Center     Atomic      Atomic             Coordinates (Angstroms)
 Number     Number       Type             X           Y           Z
 ---------------------------------------------------------------------
      1          6           0       -1.235000   -2.806000   -4.094000
      2          1           0       -2.062000   -3.318000   -3.597000
      3          1           0       -0.544000   -3.551000   -4.495000
      4          1           0       -1.637000   -2.271000   -4.957000
      5          6           0       -0.549000   -1.956000   -3.070000
      6          8           0       -0.101000   -2.514000   -2.090000
      7          7           0       -0.288000   -0.649000   -3.322000
      8          1           0       -0.431000   -0.282000   -4.251000
      9          6           0        0.482000    0.205000   -2.564000
     10          6           0        1.363000    1.137000   -3.199000
     11          6           0        2.160000    1.890000   -2.405000
     12          6           0        2.045000    1.917000   -1.000000
     13          1           0        2.547000    2.646000   -0.369000
     14          1           0        2.897000    2.522000   -2.894000
     15          1           0        1.480000    1.132000   -4.280000
     16          6           0        0.381000    0.206000   -1.183000
     17          1           0       -0.203000   -0.595000   -0.738000
     18          6           0        1.159000    1.070000   -0.409000
     19          6           0        0.991000    1.094000    1.048000
     20          7           0       -0.188000    0.826000    1.688000
     21          6           0        2.187000    1.027000    1.716000
     22          1           0        3.212000    1.107000    1.377000
     23         16           0        1.850000    1.076000    3.426000
     24          6           0        0.160000    0.713000    2.996000
     25          7           0       -0.681000    0.544000    4.124000
     26          6           0       -1.797000    0.016000    3.947000
     27          7           0       -2.650000    0.525000    4.802000
     28          1           0       -2.076000    1.155000    5.351000
     29          1           0       -3.254000    1.056000    4.185000
     30          7           0       -1.934000   -1.175000    4.423000
     31          1           0       -1.056000   -1.681000    4.446000
     32          1           0       -2.226000   -1.069000    5.388000
     33          1           0       -0.389000    0.839000    5.034000
 ---------------------------------------------------------------------
                    Distance matrix (angstroms):
                    1          2          3          4          5
     1  C    0.000000
     2  H    1.092283   0.000000
     3  H    1.092386   1.779049   0.000000
     4  H    1.092061   1.768173   1.745421   0.000000
     5  C    1.497221   2.102841   2.138849   2.200849   0.000000
     6  O    2.321042   2.600574   2.656246   3.261600   1.213453
     7  N    2.479000   3.216561   3.140552   2.669065   1.356420
     8  H    2.653609   3.507873   3.280041   2.430842   2.052063
     9  C    3.788814   4.466604   4.346145   4.043165   2.447227
    10  C    4.806025   5.633476   5.224329   4.868781   3.638548
    11  C    6.035823   6.809509   6.425278   6.184160   4.751065
    12  C    6.529775   7.142624   6.986914   6.837713   5.100379
    13  H    7.609432   8.199522   8.061077   7.920384   6.169199
    14  H    6.848431   7.693601   7.161355   6.912740   5.653174
    15  H    4.786822   5.728416   5.106201   4.664164   3.888018
    16  C    4.489713   4.920795   5.093134   4.944788   3.016606
    17  H    4.149251   4.363999   4.792626   4.760808   2.722179
    18  C    5.859508   6.308148   6.399160   6.297952   4.376627
    19  C    6.826803   7.096660   7.393044   7.368150   5.350890
    20  N    6.907905   6.972506   7.583822   7.473087   5.523442
    21  C    7.756164   8.072236   8.184923   8.368316   6.268156
    22  H    8.063450   8.493314   8.383608   8.662750   6.580494
    23  S    9.007638   9.161523   9.480644   9.676583   7.559513
    24  C    8.037256   8.040765   8.648260   8.682377   6.665028
    25  N    8.891847   8.742771   9.543320   9.555246   7.617156
    26  C    8.540328   8.252134   9.249911   9.194411   7.394902
    27  N    9.603989   9.255139  10.367411  10.202052   8.516921
    28  H   10.276421  10.003731  11.019854  10.871295   9.106223
    29  H    9.355920   9.006235  10.193672   9.862037   8.308080
    30  N    8.699888   8.302363   9.333177   9.448483   7.659846
    31  H    8.615641   8.269320   9.148799   9.439389   7.538099
    32  H    9.690592   9.263645  10.327785  10.431239   8.668152
    33  H    9.865198   9.724903  10.492758  10.538011   8.573940
                    6          7          8          9         10
     6  O    0.000000
     7  N    2.242993   0.000000
     8  H    3.124203   1.009049   0.000000
     9  C    2.820909   1.377236   1.979067   0.000000
    10  C    4.086928   2.435308   2.517678   1.431087   0.000000
    11  C    4.960500   3.644189   3.852088   2.383315   1.353756
    12  C    5.042537   4.173599   4.640601   2.796428   2.430869
    13  H    6.049739   5.254946   5.701894   3.878238   3.418748
    14  H    5.915718   4.514715   4.558448   3.362977   2.089116
    15  H    4.537508   2.686177   2.377427   2.190888   1.087325
    16  C    2.907468   2.398730   3.210936   1.384689   2.428032
    17  H    2.349653   2.585962   3.534278   2.107961   3.392448
    18  C    4.154325   3.678905   4.372296   2.418797   2.798250
    19  C    4.904811   4.875530   5.656400   3.754457   4.263478
    20  N    5.043456   5.223574   6.046357   4.349028   5.136642
    21  C    5.679724   5.857990   6.646239   4.679862   4.984807
    22  H    6.008968   6.116710   6.846543   4.878318   4.935532
    23  S    6.864456   7.285751   8.123020   6.205656   6.643156
    24  C    6.029017   6.478647   7.338822   5.592437   6.324951
    25  N    6.949932   7.551200   8.419347   6.796825   7.626002
    26  C    6.761855   7.453702   8.316367   6.900919   7.893514
    27  N    7.951892   8.541469   9.355855   8.010604   8.971885
    28  H    8.528228   9.037272   9.847304   8.372162   9.215723
    29  H    7.877940   8.249802   8.995870   7.760857   8.709001
    30  N    6.897244   7.935428   8.848431   7.520613   8.620350
    31  H    6.657718   7.873797   8.830948   7.420414   8.499336
    32  H    7.907220   8.932880   9.836245   8.496508   9.564723
    33  H    7.878891   8.488055   9.352520   7.673995   8.422624
                   11         12         13         14         15
    11  C    0.000000
    12  C    1.409957   0.000000
    13  H    2.206037   1.087017   0.000000
    14  H    1.087067   2.163138   2.552156   0.000000
    15  H    2.133680   3.419627   4.327425   2.420947   0.000000
    16  C    2.737514   2.393722   3.362700   3.823824   3.414189
    17  H    3.812858   3.381167   4.266467   4.896328   4.284948
    18  C    2.378743   1.360767   2.100457   3.362168   3.884781
    19  C    3.731405   2.445925   2.614905   4.605582   5.350528
    20  N    4.837132   3.660862   3.876064   5.778267   6.204263
    21  C    4.210480   2.861629   2.664205   4.898084   6.038451
    22  H    4.002914   2.769137   2.420591   4.510309   5.916257
    23  S    5.895698   4.509410   4.165661   6.567307   7.715081
    24  C    5.878446   4.579395   4.556038   6.742088   7.406628
    25  N    7.246436   5.964192   5.918229   8.122000   8.697292
    26  C    7.714767   6.545806   6.664465   8.666773   8.925677
    27  N    8.771555   7.592358   7.631952   9.694619   9.995403
    28  H    8.867889   7.609105   7.504239   9.725196  10.266539
    29  H    8.569425   7.463575   7.544443   9.491902   9.699111
    30  N    8.530923   7.402826   7.592277   9.515506   9.629115
    31  H    8.368447   7.226391   7.408695   9.336328   9.512483
    32  H    9.419317   8.244039   8.350198  10.379400  10.585323
    33  H    7.933519   6.595119   6.409193   8.745483   9.504189
                   16         17         18         19         20
    16  C    0.000000
    17  H    1.086592   0.000000
    18  C    1.396730   2.176123   0.000000
    19  C    2.477500   2.732792   1.466850   0.000000
    20  N    2.991789   2.811573   2.504267   1.368015   0.000000
    21  C    3.512816   3.790132   2.360987   1.371543   2.383655
    22  H    3.921729   4.362597   2.721392   2.245273   3.425738
    23  S    4.915053   4.934161   3.896760   2.528456   2.690091
    24  C    4.215440   3.973083   3.566437   2.151842   1.358211
    25  N    5.422761   5.016458   4.920403   3.543989   2.501333
    26  C    5.576440   4.986319   5.368760   4.164040   2.889301
    27  N    6.716319   6.159043   6.477656   5.260528   3.981085
    28  H    7.044899   6.606554   6.606818   5.284507   4.134048
    29  H    6.538436   6.022485   6.370212   5.278469   3.960841
    30  N    6.220420   5.474366   6.160755   5.009452   3.812183
    31  H    6.108304   5.364780   6.003770   4.841202   3.826883
    32  H    7.183322   6.468777   7.045478   5.819215   4.629737
    33  H    6.296402   5.950373   5.663560   4.225828   3.352057
                   21         22         23         24         25
    21  C    0.000000
    22  H    1.082565   0.000000
    23  S    1.743580   2.460570   0.000000
    24  C    2.417793   3.477226   1.781227   0.000000
    25  N    3.775868   4.797752   2.678841   1.417119   0.000000
    26  C    4.676723   5.734567   3.833491   2.284745   1.247225
    27  N    5.759511   6.814132   4.737824   3.345606   2.082548
    28  H    5.603818   6.614977   4.373253   3.277359   1.955729
    29  H    5.975055   7.049583   5.160164   3.631359   2.624156
    30  N    5.399935   6.400543   4.514384   3.160017   2.148109
    31  H    5.030230   5.950423   4.133556   3.051621   2.279240
    32  H    6.111577   7.098939   5.006420   3.819710   2.566416
    33  H    4.204788   5.139326   2.766759   2.114408   1.000194
                   26         27         28         29         30
    26  C    0.000000
    27  N    1.310616   0.000000
    28  H    1.829311   1.013793   0.000000
    29  H    1.805850   1.013640   1.660434   0.000000
    30  N    1.289894   1.883161   2.512021   2.603153   0.000000
    31  H    1.917783   2.744815   3.146795   3.520013   1.013632
    32  H    1.854116   1.750431   2.229360   2.649456   1.013768
    33  H    1.959939   2.294459   1.745369   2.996017   2.610851
                   31         32         33
    31  H    0.000000
    32  H    1.621977   0.000000
    33  H    2.672271   2.672143   0.000000
 Stoichiometry    C12H14N5OS(1+)
 Framework group  C1[X(C12H14N5OS)]
 Deg. of freedom    93
 Full point group                 C1      NOp   1
 Largest Abelian subgroup         C1      NOp   1
 Largest concise Abelian subgroup C1      NOp   1
                         Standard orientation:                         
 ---------------------------------------------------------------------
 Center     Atomic      Atomic             Coordinates (Angstroms)
 Number     Number       Type             X           Y           Z
 ---------------------------------------------------------------------
      1          6           0       -4.796153    2.949555    0.358058
      2          1           0       -4.293795    3.917554    0.297260
      3          1           0       -5.387233    2.911771    1.275938
      4          1           0       -5.511252    2.886358   -0.464885
      5          6           0       -3.737251    1.891210    0.375554
      6          8           0       -2.916390    1.936827    1.268064
      7          7           0       -3.808097    0.831325   -0.467949
      8          1           0       -4.644499    0.682272   -1.012369
      9          6           0       -3.019145   -0.297412   -0.450988
     10          6           0       -3.596719   -1.584452   -0.691713
     11          6           0       -2.791556   -2.666550   -0.575818
     12          6           0       -1.396207   -2.574040   -0.395757
     13          1           0       -0.720465   -3.420816   -0.484909
     14          1           0       -3.256669   -3.645465   -0.660132
     15          1           0       -4.671108   -1.687485   -0.823419
     16          6           0       -1.653062   -0.198767   -0.247394
     17          1           0       -1.275544    0.775192    0.051883
     18          6           0       -0.847768   -1.339836   -0.229501
     19          6           0        0.604244   -1.204544   -0.071372
     20          7           0        1.326205   -0.129268   -0.511848
     21          6           0        1.110003   -2.050490    0.882417
     22          1           0        0.671354   -2.881112    1.420562
     23         16           0        2.833657   -1.800036    0.962165
     24          6           0        2.550620   -0.295253    0.052062
     25          7           0        3.727563    0.468469   -0.147343
     26          6           0        3.599980    1.653427   -0.514992
     27          7           0        4.617748    1.976010   -1.275127
     28          1           0        5.189087    1.138668   -1.260741
     29          1           0        4.166669    2.071783   -2.177802
     30          7           0        3.894431    2.547402    0.367012
     31          1           0        3.735207    2.218758    1.312576
     32          1           0        4.891325    2.713972    0.288387
     33          1           0        4.632665    0.069850    0.001929
 ---------------------------------------------------------------------
 Rotational constants (GHZ):           0.5005058           0.1793433           0.1418794
 Leave Link  202 at Sun Jul 18 15:48:38 2021, MaxMem=   104857600 cpu:               0.0 elap:               0.0
 (Enter /prod/apps/gaussian/g16b1/l301.exe)
 Standard basis: 6-31G(d) (6D, 7F)
 Ernie: Thresh=  0.10000D-02 Tol=  0.10000D-05 Strict=F.
 There are   317 symmetry adapted cartesian basis functions of A   symmetry.
 There are   317 symmetry adapted basis functions of A   symmetry.
   317 basis functions,   612 primitive gaussians,   317 cartesian basis functions
    72 alpha electrons       72 beta electrons
       nuclear repulsion energy      1477.6615859623 Hartrees.
 IExCor=  402 DFT=T Ex+Corr=B3LYP ExCW=0 ScaHFX=  0.200000
 ScaDFX=  0.800000  0.720000  1.000000  0.810000 ScalE2=  1.000000  1.000000
 IRadAn=      5 IRanWt=     -1 IRanGd=            0 ICorTp=0 IEmpDi=  4
 NAtoms=   33 NActive=   33 NUniq=   33 SFac= 1.00D+00 NAtFMM=   60 NAOKFM=F Big=F
 Integral buffers will be    131072 words long.
 Raffenetti 2 integral format.
 Two-electron integral symmetry is turned on.
 Using the following non-standard input for PCM:
 MSTModel=DFT cav MSTCharged
 --- end of non-standard input.
 MST model for solvation energy: B3LYP parametrization.
 MST cavity parameters:
 ISph   IAn     Re0     Alpha   Atom Type   QCorr
 ------------------------------------------------
   1      6     1.50     1.25      CH3        F
   2      1     1.20     1.25      CH3        F
   3      1     1.20     1.25      CH3        F
   4      1     1.20     1.25      CH3        F
   5      6     1.50     1.25      C          F
   6      8     1.40     1.25      O          F
   7      7     1.50     1.25      NH         F
   8      1     0.90     1.25      NH         F
   9      6     1.50     1.25      C          F
  10      6     1.50     1.25      CH         F
  11      6     1.50     1.25      CH         F
  12      6     1.50     1.25      CH         F
  13      1     1.20     1.25      CH         F
  14      1     1.20     1.25      CH         F
  15      1     1.20     1.25      CH         F
  16      6     1.50     1.25      CH         F
  17      1     1.20     1.25      CH         F
  18      6     1.50     1.25      C          F
  19      6     1.50     1.25      C          F
  20      7     1.40     1.25      N          F
  21      6     1.50     1.25      CH         F
  22      1     1.20     1.25      CH         F
  23     16     1.75     1.25      S          F
  24      6     1.50     1.25      C          F
  25      7     1.50     1.15      NH         T
  26      6     1.50     1.15      C          T
  27      7     1.55     1.15      NH         T
  28      1     0.90     1.15      NH         T
  29      1     0.90     1.15      NH         T
  30      7     1.55     1.15      NH         T
  31      1     0.90     1.15      NH         T
  32      1     0.90     1.15      NH         T
  33      1     0.90     1.15      NH         T
 ------------------------------------------------------------------------------
 Polarizable Continuum Model (PCM)
 =================================
 Model                : PCM.
 Atomic radii         : MST.
 Polarization charges : Total charges.
 Charge compensation  : None.
 Solution method      : On-the-fly selection.
 Cavity type          : Scaled VdW (van der Waals Surface) (Alpha=1.250).
 Cavity algorithm     : GePol (No added spheres)
                        Default sphere list used, NSphG=   33.
                        Lebedev-Laikov grids with approx.  5.0 points / Ang**2.
                        Smoothing algorithm: York/Karplus (Gamma=1.0000).
                        Polarization charges: spherical gaussians, with
                                              point-specific exponents (IZeta= 3).
                        Self-potential: point-specific (ISelfS= 7).
                        Self-field    : sphere-specific E.n sum rule (ISelfD= 2).
 1st derivatives      : Analytical E(r).r(x)/FMM algorithm (CHGder, D1EAlg=3).
                        Cavity 1st derivative terms included.
 Solvent              : Water, Eps=  78.355300 Eps(inf)=   1.777849
 ------------------------------------------------------------------------------
 GePol: Number of generator spheres                  =      33
 GePol: Total number of spheres                      =      33
 GePol: Number of exposed spheres                    =      33 (100.00%)
 GePol: Number of points                             =    2485
 GePol: Average weight of points                     =       0.13
 GePol: Minimum weight of points                     =   0.53D-11
 GePol: Maximum weight of points                     =    0.22001
 GePol: Number of points with low weight             =     151
 GePol: Fraction of low-weight points (<1% of avg)   =       6.08%
 GePol: Cavity surface area                          =    317.903 Ang**2
 GePol: Cavity volume                                =    295.053 Ang**3
 PCM non-electrostatic energy =         0.0015613242 Hartrees.
 Nuclear repulsion after PCM non-electrostatic terms =     1477.6631472865 Hartrees.
 Leave Link  301 at Sun Jul 18 15:48:38 2021, MaxMem=   104857600 cpu:               0.3 elap:               0.1
 (Enter /prod/apps/gaussian/g16b1/l302.exe)
 NPDir=0 NMtPBC=     1 NCelOv=     1 NCel=       1 NClECP=     1 NCelD=      1
         NCelK=      1 NCelE2=     1 NClLst=     1 CellRange=     0.0.
 One-electron integrals computed using PRISM.
 One-electron integral symmetry used in STVInt
 NBasis=   317 RedAO= T EigKep=  4.90D-04  NBF=   317
 NBsUse=   317 1.00D-06 EigRej= -1.00D+00 NBFU=   317
 Precomputing XC quadrature grid using
 IXCGrd= 4 IRadAn=           5 IRanWt=          -1 IRanGd=           0 AccXCQ= 0.00D+00.
 Generated NRdTot=       0 NPtTot=           0 NUsed=           0 NTot=          32
 NSgBfM=   313   313   313   313   313 MxSgAt=    33 MxSgA2=    33.
 Leave Link  302 at Sun Jul 18 15:48:39 2021, MaxMem=   104857600 cpu:               1.5 elap:               0.4
 (Enter /prod/apps/gaussian/g16b1/l303.exe)
 DipDrv:  MaxL=1.
 Leave Link  303 at Sun Jul 18 15:48:39 2021, MaxMem=   104857600 cpu:               0.1 elap:               0.1
 (Enter /prod/apps/gaussian/g16b1/l401.exe)
 ExpMin= 1.17D-01 ExpMax= 2.19D+04 ExpMxC= 3.30D+03 IAcc=3 IRadAn=         5 AccDes= 0.00D+00
 Harris functional with IExCor=  402 and IRadAn=       5 diagonalized for initial guess.
 HarFok:  IExCor=  402 AccDes= 0.00D+00 IRadAn=         5 IDoV= 1 UseB2=F ITyADJ=14
 ICtDFT=  3500011 ScaDFX=  1.000000  1.000000  1.000000  1.000000
 FoFCou: FMM=F IPFlag=           0 FMFlag=      100000 FMFlg1=           0
         NFxFlg=           0 DoJE=T BraDBF=F KetDBF=T FulRan=T
         wScrn=  0.000000 ICntrl=       500 IOpCl=  0 I1Cent=   200000004 NGrid=           0
         NMat0=    1 NMatS0=      1 NMatT0=    0 NMatD0=    1 NMtDS0=    0 NMtDT0=    0
 Petite list used in FoFCou.
 Harris En= -1212.37108035126    
 JPrj=0 DoOrth=F DoCkMO=F.
 Leave Link  401 at Sun Jul 18 15:48:41 2021, MaxMem=   104857600 cpu:               7.0 elap:               1.8
 (Enter /prod/apps/gaussian/g16b1/l502.exe)
 Integral symmetry usage will be decided dynamically.
 Closed shell SCF:
 Using DIIS extrapolation, IDIIS=  1040.
 NGot=   104857600 LenX=   104651207 LenY=   104550277
 Requested convergence on RMS density matrix=1.00D-08 within 128 cycles.
 Requested convergence on MAX density matrix=1.00D-06.
 Requested convergence on             energy=1.00D-06.
 No special actions if energy rises.
 Fock matrices will be formed incrementally for  20 cycles.

 Cycle   1  Pass 1  IDiag  1:
 FoFJK:  IHMeth= 1 ICntrl=       0 DoSepK=F KAlg= 0 I1Cent=           0 FoldK=F
 IRaf= 740000000 NMat=       1 IRICut=       1 DoRegI=T DoRafI=F ISym2E= 0 IDoP0=0 IntGTp=1.
 FoFCou: FMM=F IPFlag=           0 FMFlag=      100000 FMFlg1=           0
         NFxFlg=           0 DoJE=F BraDBF=F KetDBF=F FulRan=T
         wScrn=  0.000000 ICntrl=         0 IOpCl=  0 I1Cent=           0 NGrid=           0
         NMat0=    1 NMatS0=      1 NMatT0=    0 NMatD0=    1 NMtDS0=    0 NMtDT0=    0
 Symmetry not used in FoFCou.
 Inv3:  Mode=1 IEnd=    18525675.
 Iteration    1 A*A^-1 deviation from unit magnitude is 3.33D-15 for    375.
 Iteration    1 A*A^-1 deviation from orthogonality  is 3.06D-15 for   1635    444.
 Iteration    1 A^-1*A deviation from unit magnitude is 3.22D-15 for    745.
 Iteration    1 A^-1*A deviation from orthogonality  is 1.40D-13 for   1673   1665.
 E= -1211.97890470427    
 DIIS: error= 2.05D-02 at cycle   1 NSaved=   1.
 NSaved= 1 IEnMin= 1 EnMin= -1211.97890470427     IErMin= 1 ErrMin= 2.05D-02
 ErrMax= 2.05D-02  0.00D+00 EMaxC= 1.00D-01 BMatC= 5.48D-01 BMatP= 5.48D-01
 IDIUse=3 WtCom= 7.95D-01 WtEn= 2.05D-01
 Coeff-Com:  0.100D+01
 Coeff-En:   0.100D+01
 Coeff:      0.100D+01
 Gap=     0.038 Goal=   None    Shift=    0.000
 GapD=    0.038 DampG=0.250 DampE=0.500 DampFc=0.2500 IDamp=-1.
 Damping current iteration by 2.50D-01
 RMSDP=6.83D-03 MaxDP=3.52D-01              OVMax= 7.86D-01

 Cycle   2  Pass 1  IDiag  1:
 RMSU=  1.69D-03    CP:  9.88D-01
 E= -1212.10804825365     Delta-E=       -0.129143549386 Rises=F Damp=T
 DIIS: error= 1.25D-02 at cycle   2 NSaved=   2.
 NSaved= 2 IEnMin= 2 EnMin= -1212.10804825365     IErMin= 2 ErrMin= 1.25D-02
 ErrMax= 1.25D-02  0.00D+00 EMaxC= 1.00D-01 BMatC= 1.23D-01 BMatP= 5.48D-01
 IDIUse=3 WtCom= 8.75D-01 WtEn= 1.25D-01
 Coeff-Com: -0.390D+00 0.139D+01
 Coeff-En:   0.124D+00 0.876D+00
 Coeff:     -0.326D+00 0.133D+01
 Gap=    -0.157 Goal=   None    Shift=    0.000
 RMSDP=2.70D-03 MaxDP=1.15D-01 DE=-1.29D-01 OVMax= 6.26D-01

 Cycle   3  Pass 1  IDiag  1:
 RMSU=  2.67D-03    CP:  9.70D-01  1.10D+00
 E= -1212.19911329075     Delta-E=       -0.091065037101 Rises=F Damp=F
 DIIS: error= 2.54D-02 at cycle   3 NSaved=   3.
 NSaved= 3 IEnMin= 3 EnMin= -1212.19911329075     IErMin= 2 ErrMin= 1.25D-02
 ErrMax= 2.54D-02  0.00D+00 EMaxC= 1.00D-01 BMatC= 3.22D-01 BMatP= 1.23D-01
 IDIUse=2 WtCom= 0.00D+00 WtEn= 1.00D+00
 Coeff-En:   0.000D+00 0.392D+00 0.608D+00
 Coeff:      0.000D+00 0.392D+00 0.608D+00
 Gap=     0.035 Goal=   None    Shift=    0.000
 RMSDP=5.00D-03 MaxDP=4.00D-01 DE=-9.11D-02 OVMax= 6.88D-01

 Cycle   4  Pass 1  IDiag  1:
 RMSU=  2.08D-03    CP:  9.63D-01  2.62D+00 -4.08D-01
 E= -1210.90637864096     Delta-E=        1.292734649796 Rises=F Damp=F
 DIIS: error= 4.60D-02 at cycle   4 NSaved=   4.
 NSaved= 4 IEnMin= 3 EnMin= -1212.19911329075     IErMin= 2 ErrMin= 1.25D-02
 ErrMax= 4.60D-02  0.00D+00 EMaxC= 1.00D-01 BMatC= 1.08D+00 BMatP= 1.23D-01
 IDIUse=2 WtCom= 0.00D+00 WtEn= 1.00D+00
 EnCoef did     1 forward-backward iterations
 Coeff-En:   0.381D-01 0.000D+00 0.736D+00 0.226D+00
 Coeff:      0.381D-01 0.000D+00 0.736D+00 0.226D+00
 Gap=    -0.044 Goal=   None    Shift=    0.000
 RMSDP=4.47D-03 MaxDP=2.89D-01 DE= 1.29D+00 OVMax= 9.40D-01

 Cycle   5  Pass 1  IDiag  1:
 RMSU=  1.58D-03    CP:  9.80D-01  7.89D-01  3.52D-01  6.85D-02
 E= -1212.44295193674     Delta-E=       -1.536573295781 Rises=F Damp=F
 DIIS: error= 6.68D-03 at cycle   5 NSaved=   5.
 NSaved= 5 IEnMin= 5 EnMin= -1212.44295193674     IErMin= 5 ErrMin= 6.68D-03
 ErrMax= 6.68D-03  0.00D+00 EMaxC= 1.00D-01 BMatC= 5.26D-02 BMatP= 1.23D-01
 IDIUse=3 WtCom= 9.33D-01 WtEn= 6.68D-02
 Coeff-Com: -0.236D+00 0.498D+00 0.291D+00 0.131D-01 0.434D+00
 Coeff-En:   0.000D+00 0.000D+00 0.835D-01 0.000D+00 0.916D+00
 Coeff:     -0.220D+00 0.464D+00 0.277D+00 0.122D-01 0.466D+00
 Gap=     0.050 Goal=   None    Shift=    0.000
 RMSDP=9.37D-04 MaxDP=3.46D-02 DE=-1.54D+00 OVMax= 7.42D-02

 Cycle   6  Pass 1  IDiag  1:
 RMSU=  5.52D-04    CP:  9.77D-01  8.70D-01  5.52D-01  4.83D-02  6.76D-01
 E= -1212.47352017232     Delta-E=       -0.030568235582 Rises=F Damp=F
 DIIS: error= 6.65D-03 at cycle   6 NSaved=   6.
 NSaved= 6 IEnMin= 6 EnMin= -1212.47352017232     IErMin= 6 ErrMin= 6.65D-03
 ErrMax= 6.65D-03  0.00D+00 EMaxC= 1.00D-01 BMatC= 1.69D-02 BMatP= 5.26D-02
 IDIUse=3 WtCom= 9.33D-01 WtEn= 6.65D-02
 Coeff-Com: -0.175D+00 0.256D+00 0.413D-01-0.999D-02 0.312D+00 0.576D+00
 Coeff-En:   0.000D+00 0.000D+00 0.000D+00 0.000D+00 0.234D+00 0.766D+00
 Coeff:     -0.163D+00 0.239D+00 0.385D-01-0.932D-02 0.307D+00 0.588D+00
 Gap=     0.049 Goal=   None    Shift=    0.000
 RMSDP=4.46D-04 MaxDP=1.73D-02 DE=-3.06D-02 OVMax= 4.98D-02

 Cycle   7  Pass 1  IDiag  1:
 RMSU=  1.93D-04    CP:  9.77D-01  9.36D-01  4.87D-01 -3.11D-03  8.67D-01
                    CP:  7.75D-01
 E= -1212.48841956721     Delta-E=       -0.014899394891 Rises=F Damp=F
 DIIS: error= 1.24D-03 at cycle   7 NSaved=   7.
 NSaved= 7 IEnMin= 7 EnMin= -1212.48841956721     IErMin= 7 ErrMin= 1.24D-03
 ErrMax= 1.24D-03  0.00D+00 EMaxC= 1.00D-01 BMatC= 9.13D-04 BMatP= 1.69D-02
 IDIUse=3 WtCom= 9.88D-01 WtEn= 1.24D-02
 Coeff-Com: -0.717D-01 0.976D-01-0.255D-01-0.263D-02 0.936D-01 0.312D+00
 Coeff-Com:  0.597D+00
 Coeff-En:   0.000D+00 0.000D+00 0.000D+00 0.000D+00 0.000D+00 0.000D+00
 Coeff-En:   0.100D+01
 Coeff:     -0.708D-01 0.964D-01-0.252D-01-0.259D-02 0.925D-01 0.308D+00
 Coeff:      0.602D+00
 Gap=     0.051 Goal=   None    Shift=    0.000
 RMSDP=1.04D-04 MaxDP=4.38D-03 DE=-1.49D-02 OVMax= 7.80D-03

 Cycle   8  Pass 1  IDiag  1:
 RMSU=  7.15D-05    CP:  9.78D-01  9.25D-01  4.76D-01  2.19D-03  8.86D-01
                    CP:  8.74D-01  8.85D-01
 E= -1212.48915056919     Delta-E=       -0.000731001982 Rises=F Damp=F
 DIIS: error= 3.74D-04 at cycle   8 NSaved=   8.
 NSaved= 8 IEnMin= 8 EnMin= -1212.48915056919     IErMin= 8 ErrMin= 3.74D-04
 ErrMax= 3.74D-04  0.00D+00 EMaxC= 1.00D-01 BMatC= 1.56D-04 BMatP= 9.13D-04
 IDIUse=3 WtCom= 9.96D-01 WtEn= 3.74D-03
 Coeff-Com: -0.110D-01 0.142D-01-0.306D-01 0.875D-03-0.188D-01 0.617D-01
 Coeff-Com:  0.342D+00 0.641D+00
 Coeff-En:   0.000D+00 0.000D+00 0.000D+00 0.000D+00 0.000D+00 0.000D+00
 Coeff-En:   0.000D+00 0.100D+01
 Coeff:     -0.110D-01 0.141D-01-0.305D-01 0.871D-03-0.187D-01 0.615D-01
 Coeff:      0.341D+00 0.643D+00
 Gap=     0.051 Goal=   None    Shift=    0.000
 RMSDP=7.86D-05 MaxDP=2.55D-03 DE=-7.31D-04 OVMax= 1.38D-02

 Cycle   9  Pass 1  IDiag  1:
 RMSU=  4.38D-05    CP:  9.78D-01  9.29D-01  4.64D-01 -2.46D-03  9.07D-01
                    CP:  9.16D-01  1.09D+00  8.64D-01
 E= -1212.48933704806     Delta-E=       -0.000186478869 Rises=F Damp=F
 DIIS: error= 1.93D-04 at cycle   9 NSaved=   9.
 NSaved= 9 IEnMin= 9 EnMin= -1212.48933704806     IErMin= 9 ErrMin= 1.93D-04
 ErrMax= 1.93D-04  0.00D+00 EMaxC= 1.00D-01 BMatC= 1.56D-05 BMatP= 1.56D-04
 IDIUse=3 WtCom= 9.98D-01 WtEn= 1.93D-03
 Coeff-Com: -0.106D-02 0.301D-02-0.750D-02 0.463D-04-0.134D-01-0.940D-02
 Coeff-Com:  0.239D-01 0.304D+00 0.700D+00
 Coeff-En:   0.000D+00 0.000D+00 0.000D+00 0.000D+00 0.000D+00 0.000D+00
 Coeff-En:   0.000D+00 0.000D+00 0.100D+01
 Coeff:     -0.106D-02 0.301D-02-0.748D-02 0.462D-04-0.134D-01-0.939D-02
 Coeff:      0.239D-01 0.303D+00 0.701D+00
 Gap=     0.051 Goal=   None    Shift=    0.000
 RMSDP=2.13D-05 MaxDP=8.75D-04 DE=-1.86D-04 OVMax= 1.72D-03

 Cycle  10  Pass 1  IDiag  1:
 RMSU=  1.58D-05    CP:  9.78D-01  9.30D-01  4.63D-01 -4.38D-03  9.08D-01
                    CP:  9.27D-01  1.12D+00  1.01D+00  1.01D+00
 E= -1212.48935281227     Delta-E=       -0.000015764204 Rises=F Damp=F
 DIIS: error= 3.51D-05 at cycle  10 NSaved=  10.
 NSaved=10 IEnMin=10 EnMin= -1212.48935281227     IErMin=10 ErrMin= 3.51D-05
 ErrMax= 3.51D-05  0.00D+00 EMaxC= 1.00D-01 BMatC= 2.01D-06 BMatP= 1.56D-05
 IDIUse=1 WtCom= 1.00D+00 WtEn= 0.00D+00
 Coeff-Com:  0.329D-04 0.666D-03 0.867D-03-0.274D-04-0.132D-02-0.966D-02
 Coeff-Com: -0.409D-01 0.825D-01 0.318D+00 0.649D+00
 Coeff:      0.329D-04 0.666D-03 0.867D-03-0.274D-04-0.132D-02-0.966D-02
 Coeff:     -0.409D-01 0.825D-01 0.318D+00 0.649D+00
 Gap=     0.051 Goal=   None    Shift=    0.000
 RMSDP=1.36D-05 MaxDP=3.47D-04 DE=-1.58D-05 OVMax= 2.75D-03

 Cycle  11  Pass 1  IDiag  1:
 RMSU=  7.45D-06    CP:  9.78D-01  9.31D-01  4.62D-01 -4.92D-03  9.10D-01
                    CP:  9.29D-01  1.14D+00  1.03D+00  1.22D+00  8.85D-01
 E= -1212.48935565891     Delta-E=       -0.000002846643 Rises=F Damp=F
 DIIS: error= 2.31D-05 at cycle  11 NSaved=  11.
 NSaved=11 IEnMin=11 EnMin= -1212.48935565891     IErMin=11 ErrMin= 2.31D-05
 ErrMax= 2.31D-05  0.00D+00 EMaxC= 1.00D-01 BMatC= 7.56D-07 BMatP= 2.01D-06
 IDIUse=1 WtCom= 1.00D+00 WtEn= 0.00D+00
 Coeff-Com:  0.200D-03-0.253D-03 0.171D-02-0.525D-04 0.197D-02-0.259D-02
 Coeff-Com: -0.246D-01 0.493D-02-0.172D-01 0.364D+00 0.672D+00
 Coeff:      0.200D-03-0.253D-03 0.171D-02-0.525D-04 0.197D-02-0.259D-02
 Coeff:     -0.246D-01 0.493D-02-0.172D-01 0.364D+00 0.672D+00
 Gap=     0.051 Goal=   None    Shift=    0.000
 RMSDP=5.85D-06 MaxDP=1.88D-04 DE=-2.85D-06 OVMax= 9.15D-04

 Cycle  12  Pass 1  IDiag  1:
 RMSU=  2.54D-06    CP:  9.78D-01  9.31D-01  4.62D-01 -5.09D-03  9.10D-01
                    CP:  9.29D-01  1.15D+00  1.06D+00  1.29D+00  1.06D+00
                    CP:  1.04D+00
 E= -1212.48935662242     Delta-E=       -0.000000963507 Rises=F Damp=F
 DIIS: error= 1.13D-05 at cycle  12 NSaved=  12.
 NSaved=12 IEnMin=12 EnMin= -1212.48935662242     IErMin=12 ErrMin= 1.13D-05
 ErrMax= 1.13D-05  0.00D+00 EMaxC= 1.00D-01 BMatC= 1.64D-07 BMatP= 7.56D-07
 IDIUse=1 WtCom= 1.00D+00 WtEn= 0.00D+00
 Coeff-Com:  0.313D-04-0.115D-03 0.853D-03-0.430D-04 0.144D-02 0.128D-02
 Coeff-Com: -0.202D-02-0.864D-02-0.113D+00 0.543D-01 0.277D+00 0.789D+00
 Coeff:      0.313D-04-0.115D-03 0.853D-03-0.430D-04 0.144D-02 0.128D-02
 Coeff:     -0.202D-02-0.864D-02-0.113D+00 0.543D-01 0.277D+00 0.789D+00
 Gap=     0.052 Goal=   None    Shift=    0.000
 RMSDP=3.41D-06 MaxDP=9.50D-05 DE=-9.64D-07 OVMax= 5.67D-04

 Cycle  13  Pass 1  IDiag  1:
 RMSU=  1.02D-06    CP:  9.78D-01  9.31D-01  4.62D-01 -5.34D-03  9.10D-01
                    CP:  9.30D-01  1.16D+00  1.08D+00  1.34D+00  1.17D+00
                    CP:  1.22D+00  1.08D+00
 E= -1212.48935683861     Delta-E=       -0.000000216188 Rises=F Damp=F
 DIIS: error= 4.75D-06 at cycle  13 NSaved=  13.
 NSaved=13 IEnMin=13 EnMin= -1212.48935683861     IErMin=13 ErrMin= 4.75D-06
 ErrMax= 4.75D-06  0.00D+00 EMaxC= 1.00D-01 BMatC= 2.49D-08 BMatP= 1.64D-07
 IDIUse=1 WtCom= 1.00D+00 WtEn= 0.00D+00
 Coeff-Com:  0.212D-04-0.715D-04 0.121D-03-0.916D-05 0.303D-03 0.124D-02
 Coeff-Com:  0.434D-02-0.231D-02-0.650D-01-0.361D-01 0.184D-01 0.414D+00
 Coeff-Com:  0.665D+00
 Coeff:      0.212D-04-0.715D-04 0.121D-03-0.916D-05 0.303D-03 0.124D-02
 Coeff:      0.434D-02-0.231D-02-0.650D-01-0.361D-01 0.184D-01 0.414D+00
 Coeff:      0.665D+00
 Gap=     0.052 Goal=   None    Shift=    0.000
 RMSDP=1.40D-06 MaxDP=4.69D-05 DE=-2.16D-07 OVMax= 1.97D-04

 Cycle  14  Pass 1  IDiag  1:
 RMSU=  5.75D-07    CP:  9.78D-01  9.31D-01  4.62D-01 -5.43D-03  9.09D-01
                    CP:  9.30D-01  1.16D+00  1.08D+00  1.35D+00  1.21D+00
                    CP:  1.28D+00  1.24D+00  8.86D-01
 E= -1212.48935687294     Delta-E=       -0.000000034338 Rises=F Damp=F
 DIIS: error= 2.24D-06 at cycle  14 NSaved=  14.
 NSaved=14 IEnMin=14 EnMin= -1212.48935687294     IErMin=14 ErrMin= 2.24D-06
 ErrMax= 2.24D-06  0.00D+00 EMaxC= 1.00D-01 BMatC= 4.28D-09 BMatP= 2.49D-08
 IDIUse=1 WtCom= 1.00D+00 WtEn= 0.00D+00
 Coeff-Com:  0.137D-04-0.206D-04-0.568D-04 0.655D-07-0.887D-04 0.429D-03
 Coeff-Com:  0.264D-02 0.109D-02-0.189D-01-0.250D-01-0.255D-01 0.904D-01
 Coeff-Com:  0.390D+00 0.585D+00
 Coeff:      0.137D-04-0.206D-04-0.568D-04 0.655D-07-0.887D-04 0.429D-03
 Coeff:      0.264D-02 0.109D-02-0.189D-01-0.250D-01-0.255D-01 0.904D-01
 Coeff:      0.390D+00 0.585D+00
 Gap=     0.052 Goal=   None    Shift=    0.000
 RMSDP=4.38D-07 MaxDP=2.04D-05 DE=-3.43D-08 OVMax= 6.68D-05

 Cycle  15  Pass 1  IDiag  1:
 RMSU=  2.07D-07    CP:  9.78D-01  9.31D-01  4.62D-01 -5.44D-03  9.09D-01
                    CP:  9.30D-01  1.16D+00  1.08D+00  1.36D+00  1.22D+00
                    CP:  1.30D+00  1.30D+00  1.07D+00  8.44D-01
 E= -1212.48935687836     Delta-E=       -0.000000005417 Rises=F Damp=F
 DIIS: error= 5.54D-07 at cycle  15 NSaved=  15.
 NSaved=15 IEnMin=15 EnMin= -1212.48935687836     IErMin=15 ErrMin= 5.54D-07
 ErrMax= 5.54D-07  0.00D+00 EMaxC= 1.00D-01 BMatC= 3.25D-10 BMatP= 4.28D-09
 IDIUse=1 WtCom= 1.00D+00 WtEn= 0.00D+00
 Coeff-Com:  0.444D-05-0.745D-05-0.397D-04 0.976D-07-0.651D-04 0.103D-03
 Coeff-Com:  0.932D-03 0.634D-03-0.396D-02-0.107D-01-0.141D-01 0.283D-03
 Coeff-Com:  0.130D+00 0.284D+00 0.613D+00
 Coeff:      0.444D-05-0.745D-05-0.397D-04 0.976D-07-0.651D-04 0.103D-03
 Coeff:      0.932D-03 0.634D-03-0.396D-02-0.107D-01-0.141D-01 0.283D-03
 Coeff:      0.130D+00 0.284D+00 0.613D+00
 Gap=     0.052 Goal=   None    Shift=    0.000
 RMSDP=1.63D-07 MaxDP=7.67D-06 DE=-5.42D-09 OVMax= 2.04D-05

 Cycle  16  Pass 1  IDiag  1:
 RMSU=  7.75D-08    CP:  9.78D-01  9.31D-01  4.62D-01 -5.45D-03  9.09D-01
                    CP:  9.30D-01  1.16D+00  1.08D+00  1.36D+00  1.22D+00
                    CP:  1.31D+00  1.32D+00  1.12D+00  9.94D-01  1.07D+00
 E= -1212.48935687897     Delta-E=       -0.000000000614 Rises=F Damp=F
 DIIS: error= 3.00D-07 at cycle  16 NSaved=  16.
 NSaved=16 IEnMin=16 EnMin= -1212.48935687897     IErMin=16 ErrMin= 3.00D-07
 ErrMax= 3.00D-07  0.00D+00 EMaxC= 1.00D-01 BMatC= 4.32D-11 BMatP= 3.25D-10
 IDIUse=1 WtCom= 1.00D+00 WtEn= 0.00D+00
 Coeff-Com: -0.790D-05 0.122D-04-0.373D-05-0.242D-06-0.367D-05-0.464D-04
 Coeff-Com: -0.203D-03 0.210D-03 0.227D-02 0.194D-02 0.284D-02-0.192D-01
 Coeff-Com: -0.269D-01-0.153D-01 0.226D+00 0.828D+00
 Coeff:     -0.790D-05 0.122D-04-0.373D-05-0.242D-06-0.367D-05-0.464D-04
 Coeff:     -0.203D-03 0.210D-03 0.227D-02 0.194D-02 0.284D-02-0.192D-01
 Coeff:     -0.269D-01-0.153D-01 0.226D+00 0.828D+00
 Gap=     0.052 Goal=   None    Shift=    0.000
 RMSDP=9.27D-08 MaxDP=4.11D-06 DE=-6.14D-10 OVMax= 1.76D-05

 Cycle  17  Pass 1  IDiag  1:
 RMSU=  3.00D-08    CP:  9.78D-01  9.31D-01  4.62D-01 -5.46D-03  9.09D-01
                    CP:  9.30D-01  1.16D+00  1.08D+00  1.36D+00  1.22D+00
                    CP:  1.31D+00  1.33D+00  1.16D+00  1.07D+00  1.31D+00
                    CP:  1.09D+00
 E= -1212.48935687912     Delta-E=       -0.000000000147 Rises=F Damp=F
 DIIS: error= 1.63D-07 at cycle  17 NSaved=  17.
 NSaved=17 IEnMin=17 EnMin= -1212.48935687912     IErMin=17 ErrMin= 1.63D-07
 ErrMax= 1.63D-07  0.00D+00 EMaxC= 1.00D-01 BMatC= 1.45D-11 BMatP= 4.32D-11
 IDIUse=1 WtCom= 1.00D+00 WtEn= 0.00D+00
 Coeff-Com: -0.616D-05 0.923D-05 0.320D-05-0.173D-06 0.885D-05-0.347D-04
 Coeff-Com: -0.235D-03-0.965D-04 0.150D-02 0.210D-02 0.289D-02-0.971D-02
 Coeff-Com: -0.337D-01-0.586D-01-0.248D-01 0.360D+00 0.760D+00
 Coeff:     -0.616D-05 0.923D-05 0.320D-05-0.173D-06 0.885D-05-0.347D-04
 Coeff:     -0.235D-03-0.965D-04 0.150D-02 0.210D-02 0.289D-02-0.971D-02
 Coeff:     -0.337D-01-0.586D-01-0.248D-01 0.360D+00 0.760D+00
 Gap=     0.052 Goal=   None    Shift=    0.000
 RMSDP=5.42D-08 MaxDP=2.59D-06 DE=-1.47D-10 OVMax= 8.95D-06

 Cycle  18  Pass 1  IDiag  1:
 RMSU=  1.36D-08    CP:  9.78D-01  9.31D-01  4.62D-01 -5.46D-03  9.09D-01
                    CP:  9.30D-01  1.16D+00  1.08D+00  1.36D+00  1.22D+00
                    CP:  1.31D+00  1.33D+00  1.18D+00  1.11D+00  1.42D+00
                    CP:  1.31D+00  1.12D+00
 E= -1212.48935687915     Delta-E=       -0.000000000030 Rises=F Damp=F
 DIIS: error= 8.46D-08 at cycle  18 NSaved=  18.
 NSaved=18 IEnMin=18 EnMin= -1212.48935687915     IErMin=18 ErrMin= 8.46D-08
 ErrMax= 8.46D-08  0.00D+00 EMaxC= 1.00D-01 BMatC= 5.46D-12 BMatP= 1.45D-11
 IDIUse=1 WtCom= 1.00D+00 WtEn= 0.00D+00
 Coeff-Com: -0.146D-05 0.175D-05 0.348D-05 0.126D-08 0.738D-05-0.117D-04
 Coeff-Com: -0.111D-03-0.103D-03 0.199D-03 0.121D-02 0.190D-02-0.903D-05
 Coeff-Com: -0.122D-01-0.317D-01-0.745D-01 0.461D-01 0.484D+00 0.585D+00
 Coeff:     -0.146D-05 0.175D-05 0.348D-05 0.126D-08 0.738D-05-0.117D-04
 Coeff:     -0.111D-03-0.103D-03 0.199D-03 0.121D-02 0.190D-02-0.903D-05
 Coeff:     -0.122D-01-0.317D-01-0.745D-01 0.461D-01 0.484D+00 0.585D+00
 Gap=     0.052 Goal=   None    Shift=    0.000
 RMSDP=1.68D-08 MaxDP=6.35D-07 DE=-3.00D-11 OVMax= 2.55D-06

 Cycle  19  Pass 1  IDiag  1:
 RMSU=  4.79D-09    CP:  9.78D-01  9.31D-01  4.62D-01 -5.46D-03  9.09D-01
                    CP:  9.30D-01  1.16D+00  1.08D+00  1.36D+00  1.22D+00
                    CP:  1.31D+00  1.33D+00  1.19D+00  1.12D+00  1.45D+00
                    CP:  1.37D+00  1.31D+00  7.61D-01
 E= -1212.48935687916     Delta-E=       -0.000000000013 Rises=F Damp=F
 DIIS: error= 1.98D-08 at cycle  19 NSaved=  19.
 NSaved=19 IEnMin=19 EnMin= -1212.48935687916     IErMin=19 ErrMin= 1.98D-08
 ErrMax= 1.98D-08  0.00D+00 EMaxC= 1.00D-01 BMatC= 3.58D-13 BMatP= 5.46D-12
 IDIUse=1 WtCom= 1.00D+00 WtEn= 0.00D+00
 Coeff-Com:  0.331D-07-0.114D-06 0.820D-06-0.118D-07 0.154D-05-0.566D-06
 Coeff-Com: -0.123D-04-0.493D-04-0.114D-03 0.135D-03 0.159D-03 0.840D-03
 Coeff-Com: -0.110D-02-0.652D-02-0.299D-01-0.127D-01 0.103D+00 0.252D+00
 Coeff-Com:  0.694D+00
 Coeff:      0.331D-07-0.114D-06 0.820D-06-0.118D-07 0.154D-05-0.566D-06
 Coeff:     -0.123D-04-0.493D-04-0.114D-03 0.135D-03 0.159D-03 0.840D-03
 Coeff:     -0.110D-02-0.652D-02-0.299D-01-0.127D-01 0.103D+00 0.252D+00
 Coeff:      0.694D+00
 Gap=     0.052 Goal=   None    Shift=    0.000
 RMSDP=6.99D-09 MaxDP=2.99D-07 DE=-1.27D-11 OVMax= 9.73D-07

 Error on total polarization charges =  0.02600
 SCF Done:  E(RB3LYP) =  -1212.48935688     A.U. after   19 cycles
            NFock= 19  Conv=0.70D-08     -V/T= 2.0060
 KE= 1.205266235310D+03 PE=-5.777428530565D+03 EE= 1.882009791090D+03
 Leave Link  502 at Sun Jul 18 15:49:59 2021, MaxMem=   104857600 cpu:             314.7 elap:              78.7
 (Enter /prod/apps/gaussian/g16b1/l601.exe)
 Copying SCF densities to generalized density rwf, IOpCl= 0 IROHF=0.

 **********************************************************************

            Population analysis using the SCF Density.

 **********************************************************************

 Orbital symmetries:
       Occupied  (A) (A) (A) (A) (A) (A) (A) (A) (A) (A) (A) (A)
                 (A) (A) (A) (A) (A) (A) (A) (A) (A) (A) (A) (A)
                 (A) (A) (A) (A) (A) (A) (A) (A) (A) (A) (A) (A)
                 (A) (A) (A) (A) (A) (A) (A) (A) (A) (A) (A) (A)
                 (A) (A) (A) (A) (A) (A) (A) (A) (A) (A) (A) (A)
                 (A) (A) (A) (A) (A) (A) (A) (A) (A) (A) (A) (A)
       Virtual   (A) (A) (A) (A) (A) (A) (A) (A) (A) (A) (A) (A)
                 (A) (A) (A) (A) (A) (A) (A) (A) (A) (A) (A) (A)
                 (A) (A) (A) (A) (A) (A) (A) (A) (A) (A) (A) (A)
                 (A) (A) (A) (A) (A) (A) (A) (A) (A) (A) (A) (A)
                 (A) (A) (A) (A) (A) (A) (A) (A) (A) (A) (A) (A)
                 (A) (A) (A) (A) (A) (A) (A) (A) (A) (A) (A) (A)
                 (A) (A) (A) (A) (A) (A) (A) (A) (A) (A) (A) (A)
                 (A) (A) (A) (A) (A) (A) (A) (A) (A) (A) (A) (A)
                 (A) (A) (A) (A) (A) (A) (A) (A) (A) (A) (A) (A)
                 (A) (A) (A) (A) (A) (A) (A) (A) (A) (A) (A) (A)
                 (A) (A) (A) (A) (A) (A) (A) (A) (A) (A) (A) (A)
                 (A) (A) (A) (A) (A) (A) (A) (A) (A) (A) (A) (A)
                 (A) (A) (A) (A) (A) (A) (A) (A) (A) (A) (A) (A)
                 (A) (A) (A) (A) (A) (A) (A) (A) (A) (A) (A) (A)
                 (A) (A) (A) (A) (A) (A) (A) (A) (A) (A) (A) (A)
                 (A) (A) (A) (A) (A) (A) (A) (A) (A) (A) (A) (A)
                 (A) (A) (A) (A) (A) (A) (A) (A) (A) (A) (A) (A)
                 (A) (A) (A) (A) (A) (A) (A) (A) (A) (A) (A) (A)
                 (A) (A) (A) (A) (A) (A) (A) (A) (A) (A) (A) (A)
                 (A) (A) (A) (A) (A) (A) (A) (A) (A) (A) (A) (A)
                 (A) (A) (A) (A) (A)
 The electronic state is 1-A.
 Alpha  occ. eigenvalues --  -88.92884 -19.11732 -14.40638 -14.37580 -14.36948
 Alpha  occ. eigenvalues --  -14.36818 -14.33054 -10.34858 -10.32239 -10.29537
 Alpha  occ. eigenvalues --  -10.24134 -10.23576 -10.23051 -10.20143 -10.19477
 Alpha  occ. eigenvalues --  -10.19356 -10.18888 -10.18619 -10.18586  -7.99060
 Alpha  occ. eigenvalues --   -5.95440  -5.95114  -5.94743  -1.12095  -1.05100
 Alpha  occ. eigenvalues --   -0.99821  -0.95287  -0.94767  -0.89949  -0.86258
 Alpha  occ. eigenvalues --   -0.82018  -0.79104  -0.76073  -0.73584  -0.72259
 Alpha  occ. eigenvalues --   -0.67818  -0.65599  -0.63749  -0.62443  -0.60910
 Alpha  occ. eigenvalues --   -0.58519  -0.56868  -0.55377  -0.53762  -0.53049
 Alpha  occ. eigenvalues --   -0.51043  -0.49661  -0.48427  -0.46949  -0.46219
 Alpha  occ. eigenvalues --   -0.45208  -0.44896  -0.43925  -0.42652  -0.41601
 Alpha  occ. eigenvalues --   -0.41016  -0.39937  -0.39612  -0.39383  -0.38852
 Alpha  occ. eigenvalues --   -0.36407  -0.36184  -0.34236  -0.32031  -0.31766
 Alpha  occ. eigenvalues --   -0.30501  -0.29557  -0.27874  -0.26498  -0.25570
 Alpha  occ. eigenvalues --   -0.22734  -0.21722
 Alpha virt. eigenvalues --   -0.16566  -0.04649  -0.02268  -0.01660   0.00628
 Alpha virt. eigenvalues --    0.03366   0.05241   0.08874   0.09328   0.10051
 Alpha virt. eigenvalues --    0.11269   0.12604   0.13384   0.13736   0.13991
 Alpha virt. eigenvalues --    0.14751   0.15749   0.16071   0.17277   0.17710
 Alpha virt. eigenvalues --    0.17976   0.18768   0.19937   0.20495   0.21848
 Alpha virt. eigenvalues --    0.22932   0.25395   0.26404   0.27343   0.29676
 Alpha virt. eigenvalues --    0.30114   0.30638   0.31968   0.32875   0.33868
 Alpha virt. eigenvalues --    0.34913   0.35619   0.35983   0.37997   0.39462
 Alpha virt. eigenvalues --    0.40537   0.41913   0.43718   0.45111   0.49902
 Alpha virt. eigenvalues --    0.50506   0.50862   0.51964   0.52799   0.53623
 Alpha virt. eigenvalues --    0.53803   0.54553   0.54788   0.56170   0.57574
 Alpha virt. eigenvalues --    0.58158   0.58574   0.59123   0.60135   0.61087
 Alpha virt. eigenvalues --    0.61269   0.62609   0.62903   0.63687   0.65169
 Alpha virt. eigenvalues --    0.65919   0.66213   0.67486   0.68008   0.68446
 Alpha virt. eigenvalues --    0.70231   0.70632   0.71464   0.73854   0.74500
 Alpha virt. eigenvalues --    0.75127   0.75152   0.75947   0.78973   0.79814
 Alpha virt. eigenvalues --    0.80549   0.81075   0.81313   0.82298   0.82715
 Alpha virt. eigenvalues --    0.83676   0.83870   0.84527   0.85399   0.85726
 Alpha virt. eigenvalues --    0.87296   0.87570   0.87813   0.88315   0.89351
 Alpha virt. eigenvalues --    0.89947   0.91419   0.91878   0.92151   0.93193
 Alpha virt. eigenvalues --    0.93827   0.95730   0.95970   0.96163   0.96503
 Alpha virt. eigenvalues --    0.96827   0.97782   0.98611   1.00482   1.02574
 Alpha virt. eigenvalues --    1.03224   1.04275   1.05607   1.07061   1.08224
 Alpha virt. eigenvalues --    1.10696   1.13259   1.15116   1.15902   1.18395
 Alpha virt. eigenvalues --    1.19583   1.21137   1.24207   1.25472   1.27138
 Alpha virt. eigenvalues --    1.28038   1.30678   1.31633   1.33249   1.34485
 Alpha virt. eigenvalues --    1.36782   1.39337   1.40178   1.42528   1.45228
 Alpha virt. eigenvalues --    1.46872   1.48189   1.49513   1.51226   1.52211
 Alpha virt. eigenvalues --    1.54693   1.55283   1.57592   1.59026   1.62864
 Alpha virt. eigenvalues --    1.65776   1.69151   1.69890   1.73173   1.75679
 Alpha virt. eigenvalues --    1.77484   1.78693   1.79352   1.79823   1.81225
 Alpha virt. eigenvalues --    1.82540   1.83665   1.85906   1.87185   1.87478
 Alpha virt. eigenvalues --    1.89565   1.92051   1.92876   1.93066   1.93660
 Alpha virt. eigenvalues --    1.96492   1.97482   1.99138   2.02114   2.03198
 Alpha virt. eigenvalues --    2.06131   2.08322   2.10258   2.12025   2.13421
 Alpha virt. eigenvalues --    2.14762   2.18315   2.18640   2.19316   2.21317
 Alpha virt. eigenvalues --    2.21900   2.22442   2.22798   2.24028   2.27329
 Alpha virt. eigenvalues --    2.28669   2.28883   2.31943   2.32989   2.33808
 Alpha virt. eigenvalues --    2.35253   2.37308   2.38445   2.39579   2.42264
 Alpha virt. eigenvalues --    2.43083   2.44703   2.46758   2.50081   2.51135
 Alpha virt. eigenvalues --    2.53976   2.56677   2.59290   2.61945   2.64261
 Alpha virt. eigenvalues --    2.64839   2.66294   2.68835   2.71254   2.72731
 Alpha virt. eigenvalues --    2.74436   2.75784   2.77703   2.79788   2.80667
 Alpha virt. eigenvalues --    2.83345   2.85215   2.92825   2.94174   2.98561
 Alpha virt. eigenvalues --    2.99961   3.03268   3.13992   3.17894   3.27333
 Alpha virt. eigenvalues --    3.44608   3.78712   3.87416   3.92033   3.99316
 Alpha virt. eigenvalues --    4.05859   4.08272   4.08638   4.10663   4.14096
 Alpha virt. eigenvalues --    4.15153   4.17036   4.19422   4.29400   4.32493
 Alpha virt. eigenvalues --    4.35995   4.43670   4.52099   4.53316   4.75187
          Condensed to atoms (all electrons):
               1          2          3          4          5          6
     1  C    5.272257   0.362243   0.369415   0.338066   0.372141  -0.090706
     2  H    0.362243   0.515197  -0.021928  -0.024678  -0.021832   0.000344
     3  H    0.369415  -0.021928   0.505728  -0.027151  -0.021002  -0.001094
     4  H    0.338066  -0.024678  -0.027151   0.555194  -0.021749   0.004168
     5  C    0.372141  -0.021832  -0.021002  -0.021749   4.272651   0.576933
     6  O   -0.090706   0.000344  -0.001094   0.004168   0.576933   8.148182
     7  N   -0.098586   0.002266   0.000252   0.005929   0.286335  -0.102442
     8  H    0.000373  -0.000006  -0.000011   0.001160  -0.015425   0.002961
     9  C    0.006608  -0.000091  -0.000136  -0.000090  -0.020807   0.002396
    10  C   -0.000303   0.000002   0.000013  -0.000001   0.003788   0.000353
    11  C   -0.000000   0.000000  -0.000000   0.000000  -0.000133  -0.000033
    12  C    0.000001  -0.000000  -0.000000  -0.000000   0.000050   0.000041
    13  H    0.000000  -0.000000   0.000000  -0.000000   0.000000   0.000000
    14  H   -0.000000  -0.000000   0.000000   0.000000   0.000001  -0.000000
    15  H    0.000013   0.000000  -0.000000  -0.000007   0.000006   0.000010
    16  C    0.000268  -0.000006   0.000010  -0.000016  -0.004931  -0.005911
    17  H    0.000297  -0.000003   0.000006  -0.000022   0.005231   0.018669
    18  C   -0.000007  -0.000000   0.000000   0.000000   0.000023  -0.000072
    19  C   -0.000000   0.000000   0.000000   0.000000  -0.000017  -0.000055
    20  N   -0.000000   0.000000  -0.000000  -0.000000  -0.000002   0.000001
    21  C   -0.000000   0.000000  -0.000000  -0.000000  -0.000000   0.000000
    22  H   -0.000000   0.000000  -0.000000  -0.000000   0.000000  -0.000000
    23  S   -0.000000   0.000000  -0.000000  -0.000000  -0.000000   0.000000
    24  C   -0.000000   0.000000  -0.000000   0.000000  -0.000000  -0.000000
    25  N   -0.000000   0.000000  -0.000000   0.000000  -0.000000  -0.000000
    26  C    0.000000  -0.000000   0.000000  -0.000000  -0.000000  -0.000000
    27  N   -0.000000   0.000000  -0.000000  -0.000000  -0.000000   0.000000
    28  H   -0.000000  -0.000000  -0.000000   0.000000  -0.000000  -0.000000
    29  H    0.000000  -0.000000   0.000000  -0.000000   0.000000  -0.000000
    30  N   -0.000000   0.000000  -0.000000  -0.000000  -0.000000   0.000000
    31  H   -0.000000  -0.000000  -0.000000   0.000000  -0.000000  -0.000000
    32  H    0.000000  -0.000000  -0.000000   0.000000  -0.000000  -0.000000
    33  H    0.000000  -0.000000   0.000000   0.000000   0.000000  -0.000000
               7          8          9         10         11         12
     1  C   -0.098586   0.000373   0.006608  -0.000303  -0.000000   0.000001
     2  H    0.002266  -0.000006  -0.000091   0.000002   0.000000  -0.000000
     3  H    0.000252  -0.000011  -0.000136   0.000013  -0.000000  -0.000000
     4  H    0.005929   0.001160  -0.000090  -0.000001   0.000000  -0.000000
     5  C    0.286335  -0.015425  -0.020807   0.003788  -0.000133   0.000050
     6  O   -0.102442   0.002961   0.002396   0.000353  -0.000033   0.000041
     7  N    7.207744   0.302233   0.209556  -0.061062   0.005492   0.000939
     8  H    0.302233   0.339421  -0.027678  -0.005073   0.000057  -0.000007
     9  C    0.209556  -0.027678   4.625851   0.502309  -0.001678  -0.047493
    10  C   -0.061062  -0.005073   0.502309   4.997593   0.547581  -0.043524
    11  C    0.005492   0.000057  -0.001678   0.547581   4.898270   0.486893
    12  C    0.000939  -0.000007  -0.047493  -0.043524   0.486893   5.038366
    13  H    0.000006  -0.000000   0.000175   0.004175  -0.035988   0.355398
    14  H   -0.000151  -0.000011   0.004101  -0.041037   0.357945  -0.038079
    15  H   -0.005518   0.005057  -0.041355   0.356748  -0.039028   0.004704
    16  C   -0.055630   0.005053   0.513539  -0.064088  -0.055122  -0.059869
    17  H   -0.014360  -0.000116  -0.038654   0.006413  -0.000227   0.006094
    18  C    0.004078   0.000005   0.005643  -0.036596  -0.008539   0.539910
    19  C   -0.000188   0.000004   0.006610   0.001041   0.006466  -0.044657
    20  N   -0.000004   0.000000   0.000376  -0.000002  -0.000114   0.003327
    21  C    0.000001  -0.000000  -0.000240   0.000003   0.000472  -0.014646
    22  H    0.000000  -0.000000  -0.000005  -0.000005   0.000141   0.003573
    23  S   -0.000000   0.000000   0.000019  -0.000002   0.000004   0.000361
    24  C   -0.000000   0.000000  -0.000005   0.000001  -0.000001   0.000148
    25  N    0.000000  -0.000000  -0.000000   0.000000  -0.000000   0.000002
    26  C    0.000000  -0.000000  -0.000000  -0.000000   0.000000   0.000000
    27  N   -0.000000  -0.000000   0.000000   0.000000  -0.000000  -0.000000
    28  H    0.000000   0.000000  -0.000000  -0.000000   0.000000   0.000000
    29  H   -0.000000   0.000000   0.000000  -0.000000   0.000000  -0.000000
    30  N   -0.000000   0.000000   0.000000  -0.000000   0.000000   0.000000
    31  H    0.000000  -0.000000  -0.000000  -0.000000   0.000000   0.000000
    32  H    0.000000  -0.000000  -0.000000  -0.000000   0.000000   0.000000
    33  H    0.000000   0.000000  -0.000000  -0.000000   0.000000   0.000000
              13         14         15         16         17         18
     1  C    0.000000  -0.000000   0.000013   0.000268   0.000297  -0.000007
     2  H   -0.000000  -0.000000   0.000000  -0.000006  -0.000003  -0.000000
     3  H    0.000000   0.000000  -0.000000   0.000010   0.000006   0.000000
     4  H   -0.000000   0.000000  -0.000007  -0.000016  -0.000022   0.000000
     5  C    0.000000   0.000001   0.000006  -0.004931   0.005231   0.000023
     6  O    0.000000  -0.000000   0.000010  -0.005911   0.018669  -0.000072
     7  N    0.000006  -0.000151  -0.005518  -0.055630  -0.014360   0.004078
     8  H   -0.000000  -0.000011   0.005057   0.005053  -0.000116   0.000005
     9  C    0.000175   0.004101  -0.041355   0.513539  -0.038654   0.005643
    10  C    0.004175  -0.041037   0.356748  -0.064088   0.006413  -0.036596
    11  C   -0.035988   0.357945  -0.039028  -0.055122  -0.000227  -0.008539
    12  C    0.355398  -0.038079   0.004704  -0.059869   0.006094   0.539910
    13  H    0.564632  -0.004271  -0.000121   0.007006  -0.000144  -0.046547
    14  H   -0.004271   0.573673  -0.006573   0.001156   0.000015   0.003814
    15  H   -0.000121  -0.006573   0.558272   0.005742  -0.000139   0.000170
    16  C    0.007006   0.001156   0.005742   5.151828   0.345449   0.474539
    17  H   -0.000144   0.000015  -0.000139   0.345449   0.559956  -0.043046
    18  C   -0.046547   0.003814   0.000170   0.474539  -0.043046   4.805529
    19  C   -0.009585  -0.000193   0.000007  -0.052643  -0.009835   0.332310
    20  N   -0.000031   0.000001  -0.000000  -0.002283   0.006401  -0.059077
    21  C    0.007832  -0.000001   0.000000   0.006052   0.000625  -0.061162
    22  H    0.001576  -0.000001  -0.000000   0.000003  -0.000014  -0.007122
    23  S   -0.000261  -0.000001  -0.000000   0.000025  -0.000020   0.007578
    24  C   -0.000057  -0.000000  -0.000000  -0.000054  -0.000044   0.005873
    25  N    0.000000   0.000000  -0.000000  -0.000009  -0.000004  -0.000174
    26  C    0.000000   0.000000  -0.000000   0.000004   0.000016  -0.000058
    27  N   -0.000000   0.000000  -0.000000  -0.000000  -0.000000   0.000000
    28  H    0.000000  -0.000000  -0.000000  -0.000000   0.000000  -0.000000
    29  H   -0.000000  -0.000000   0.000000   0.000000   0.000000  -0.000000
    30  N    0.000000  -0.000000   0.000000   0.000000  -0.000000  -0.000000
    31  H    0.000000  -0.000000  -0.000000   0.000000   0.000000  -0.000000
    32  H    0.000000  -0.000000  -0.000000   0.000000   0.000000  -0.000000
    33  H    0.000000  -0.000000  -0.000000   0.000000  -0.000000   0.000000
              19         20         21         22         23         24
     1  C   -0.000000  -0.000000  -0.000000  -0.000000  -0.000000  -0.000000
     2  H    0.000000   0.000000   0.000000   0.000000   0.000000   0.000000
     3  H    0.000000  -0.000000  -0.000000  -0.000000  -0.000000  -0.000000
     4  H    0.000000  -0.000000  -0.000000  -0.000000  -0.000000   0.000000
     5  C   -0.000017  -0.000002  -0.000000   0.000000  -0.000000  -0.000000
     6  O   -0.000055   0.000001   0.000000  -0.000000   0.000000  -0.000000
     7  N   -0.000188  -0.000004   0.000001   0.000000  -0.000000  -0.000000
     8  H    0.000004   0.000000  -0.000000  -0.000000   0.000000   0.000000
     9  C    0.006610   0.000376  -0.000240  -0.000005   0.000019  -0.000005
    10  C    0.001041  -0.000002   0.000003  -0.000005  -0.000002   0.000001
    11  C    0.006466  -0.000114   0.000472   0.000141   0.000004  -0.000001
    12  C   -0.044657   0.003327  -0.014646   0.003573   0.000361   0.000148
    13  H   -0.009585  -0.000031   0.007832   0.001576  -0.000261  -0.000057
[...]
 Alpha virt. eigenvalues --    3.66908   3.69686   3.72670   3.72735   3.74564
 Alpha virt. eigenvalues --    3.80863   3.83787   3.92853   3.95574   4.05114
 Alpha virt. eigenvalues --    4.12583   4.20318   4.26175   4.98028
          Condensed to atoms (all electrons):
               1          2          3          4          5          6
     1  C    4.880426   0.355125   0.334837   0.178246  -0.201299  -0.075192
     2  H    0.355125   0.745080  -0.038130  -0.107772  -0.094860   0.015173
     3  H    0.334837  -0.038130   0.729853  -0.089256  -0.055271   0.004141
     4  H    0.178246  -0.107772  -0.089256   1.174817   0.319177   0.011912
     5  C   -0.201299  -0.094860  -0.055271   0.319177   6.275735   0.066815
     6  O   -0.075192   0.015173   0.004141   0.011912   0.066815   8.896712
     7  N   -0.010981   0.076909   0.060918  -0.223662   0.050468  -0.091978
     8  H   -0.096143  -0.002515  -0.000513  -0.017928  -0.082500  -0.020218
     9  C    0.292253  -0.002640  -0.012212  -0.091784  -1.385364   0.268284
    10  C   -0.212238   0.001235  -0.003438  -0.006785  -0.326843   0.087231
    11  C    0.054923   0.001313   0.000698   0.006687  -0.100806   0.004484
    12  C   -0.066940  -0.000550  -0.000499  -0.011255   0.264546  -0.033456
    13  H   -0.001332  -0.000038  -0.000052   0.000082   0.005436  -0.000549
    14  H    0.000527   0.000007   0.000029  -0.000373  -0.000266  -0.000392
    15  H    0.002140   0.000150  -0.000463   0.003070  -0.008259   0.003515
    16  C   -0.147876   0.001528   0.004976   0.049431   0.576906  -0.042458
    17  H    0.040524   0.002504   0.003022  -0.001822   0.046661  -0.073546
    18  C    0.069803  -0.001674   0.000238   0.008392   0.213601  -0.089104
    19  C   -0.003157  -0.000110  -0.000293   0.001230   0.072235   0.006297
    20  N    0.003194   0.000325   0.000312  -0.000221   0.001945  -0.002022
    21  C    0.004525   0.000195   0.000213   0.000049  -0.007161   0.000734
    22  H    0.000635   0.000028   0.000027   0.000040   0.001581  -0.000145
    23  S    0.000036  -0.000001  -0.000002   0.000016   0.001446  -0.000016
    24  C   -0.000913   0.000351   0.000326  -0.000542   0.004024  -0.010379
    25  N    0.000307  -0.000003   0.000001   0.000045   0.000644   0.000574
    26  C   -0.001799  -0.000032  -0.000084  -0.000139  -0.014842  -0.000963
    27  N   -0.000009   0.000011   0.000000   0.000003   0.000524  -0.000175
    28  H    0.000018   0.000002   0.000001   0.000002   0.000065  -0.000053
    29  H   -0.000126  -0.000009  -0.000008  -0.000007  -0.000274   0.000122
    30  N   -0.001834   0.000095  -0.000044   0.000021   0.003820  -0.001987
    31  H   -0.009239  -0.000943  -0.000788   0.000188   0.017812   0.006097
    32  H   -0.000251  -0.000200  -0.000137   0.000119  -0.000143  -0.000083
    33  H   -0.000031   0.000001   0.000001  -0.000005  -0.000114   0.000041
               7          8          9         10         11         12
     1  C   -0.010981  -0.096143   0.292253  -0.212238   0.054923  -0.066940
     2  H    0.076909  -0.002515  -0.002640   0.001235   0.001313  -0.000550
     3  H    0.060918  -0.000513  -0.012212  -0.003438   0.000698  -0.000499
     4  H   -0.223662  -0.017928  -0.091784  -0.006785   0.006687  -0.011255
     5  C    0.050468  -0.082500  -1.385364  -0.326843  -0.100806   0.264546
     6  O   -0.091978  -0.020218   0.268284   0.087231   0.004484  -0.033456
     7  N    8.418269   0.245728  -2.009229   1.105159  -0.830156   0.608052
     8  H    0.245728   0.997466   0.194181  -0.067435   0.035384   0.070725
     9  C   -2.009229   0.194181  25.144062 -10.628181   5.267427  -5.209503
    10  C    1.105159  -0.067435 -10.628181  20.507971  -6.003075   3.461008
    11  C   -0.830156   0.035384   5.267427  -6.003075  15.829800  -4.935160
    12  C    0.608052   0.070725  -5.209503   3.461008  -4.935160  26.222677
    13  H    0.018384  -0.005097  -0.190422  -0.107752   0.122754  -1.797603
    14  H    0.000548   0.011461  -0.199358   0.522950  -1.102765   0.823345
    15  H   -0.281488   0.011710   1.698185  -2.096401   0.739312  -0.314623
    16  C    1.359117  -0.238657 -10.800310   5.193572  -4.422971  -0.795053
    17  H   -0.265500   0.007728   1.186529  -0.688559   0.303816  -0.656476
    18  C   -0.724485  -0.001705   3.647604  -6.231838   1.580404 -11.281088
    19  C    0.157552  -0.014545  -1.684633   0.665688  -0.519576   1.701802
    20  N   -0.009893   0.001221   0.279710  -0.103787   0.143719  -0.195195
    21  C   -0.050960   0.003391   0.545283  -0.107671  -0.087523  -2.786429
    22  H   -0.004516  -0.000008   0.041367  -0.030445   0.124174   0.275791
    23  S   -0.000539   0.000033  -0.023535   0.014297  -0.046220  -0.004368
    24  C    0.008650   0.002720   0.143537  -0.071131   0.029733   0.118982
    25  N    0.000291  -0.000185  -0.032618   0.006303  -0.007459   0.012710
    26  C   -0.001966   0.000622   0.093514   0.004186  -0.015269  -0.100474
    27  N    0.000031  -0.000024  -0.005016   0.000008   0.000250   0.004187
    28  H    0.000007  -0.000007  -0.000452  -0.000021   0.000098   0.000365
    29  H    0.000005   0.000012   0.001039   0.000142  -0.000132  -0.000515
    30  N    0.001609  -0.000123  -0.046806  -0.000764   0.003280   0.027627
    31  H    0.011241   0.000447  -0.136641   0.069971  -0.046336   0.118005
    32  H   -0.001163   0.000053   0.006223  -0.003081   0.001403  -0.003182
    33  H   -0.000082   0.000033   0.002855   0.000105  -0.001092  -0.004683
              13         14         15         16         17         18
     1  C   -0.001332   0.000527   0.002140  -0.147876   0.040524   0.069803
     2  H   -0.000038   0.000007   0.000150   0.001528   0.002504  -0.001674
     3  H   -0.000052   0.000029  -0.000463   0.004976   0.003022   0.000238
     4  H    0.000082  -0.000373   0.003070   0.049431  -0.001822   0.008392
     5  C    0.005436  -0.000266  -0.008259   0.576906   0.046661   0.213601
     6  O   -0.000549  -0.000392   0.003515  -0.042458  -0.073546  -0.089104
     7  N    0.018384   0.000548  -0.281488   1.359117  -0.265500  -0.724485
     8  H   -0.005097   0.011461   0.011710  -0.238657   0.007728  -0.001705
     9  C   -0.190422  -0.199358   1.698185 -10.800310   1.186529   3.647604
    10  C   -0.107752   0.522950  -2.096401   5.193572  -0.688559  -6.231838
    11  C    0.122754  -1.102765   0.739312  -4.422971   0.303816   1.580404
    12  C   -1.797603   0.823345  -0.314623  -0.795053  -0.656476 -11.281088
    13  H    2.151068  -0.085337  -0.007567   0.343940  -0.007792   1.115274
    14  H   -0.085337   1.726041  -0.106370   0.019663   0.007414  -0.100300
    15  H   -0.007567  -0.106370   2.180244  -0.200453  -0.010256   0.075290
    16  C    0.343940   0.019663  -0.200453  24.416529  -2.361611  -7.237351
    17  H   -0.007792   0.007414  -0.010256  -2.361611   3.036107   1.312360
    18  C    1.115274  -0.100300   0.075290  -7.237351   1.312360  28.693774
    19  C    0.176601  -0.128643   0.014227   0.196249  -0.033645 -12.165138
    20  N   -0.014358   0.006135   0.000125  -0.161012  -0.107398   0.892120
    21  C    0.011713   0.087827  -0.007261  -1.086293   0.113752   4.793749
    22  H   -0.070760   0.003543   0.000173   0.017510   0.021009  -0.523283
    23  S   -0.004210   0.000057   0.000063  -0.014248   0.005223  -0.152984
    24  C   -0.008663   0.003586  -0.001824  -0.186348  -0.165232   0.229005
    25  N    0.003208  -0.000368   0.000235   0.009960   0.001452  -0.154244
    26  C   -0.000546  -0.000090  -0.000284   0.010621   0.041913  -0.018988
    27  N    0.000118  -0.000001   0.000014  -0.004772  -0.000405   0.000589
    28  H    0.000002   0.000000   0.000002   0.000190  -0.000287   0.000565
    29  H    0.000017  -0.000002  -0.000001   0.000661   0.000573  -0.001476
    30  N   -0.000259   0.000079   0.000078  -0.001432  -0.002604   0.038964
    31  H    0.001636  -0.000732   0.000255   0.071844  -0.093002  -0.089773
    32  H   -0.000121   0.000037  -0.000073   0.004152   0.008620  -0.001149
    33  H   -0.000231   0.000012  -0.000012   0.004008  -0.001952   0.000702
              19         20         21         22         23         24
     1  C   -0.003157   0.003194   0.004525   0.000635   0.000036  -0.000913
     2  H   -0.000110   0.000325   0.000195   0.000028  -0.000001   0.000351
     3  H   -0.000293   0.000312   0.000213   0.000027  -0.000002   0.000326
     4  H    0.001230  -0.000221   0.000049   0.000040   0.000016  -0.000542
     5  C    0.072235   0.001945  -0.007161   0.001581   0.001446   0.004024
     6  O    0.006297  -0.002022   0.000734  -0.000145  -0.000016  -0.010379
     7  N    0.157552  -0.009893  -0.050960  -0.004516  -0.000539   0.008650
     8  H   -0.014545   0.001221   0.003391  -0.000008   0.000033   0.002720
     9  C   -1.684633   0.279710   0.545283   0.041367  -0.023535   0.143537
    10  C    0.665688  -0.103787  -0.107671  -0.030445   0.014297  -0.071131
    11  C   -0.519576   0.143719  -0.087523   0.124174  -0.046220   0.029733
    12  C    1.701802  -0.195195  -2.786429   0.275791  -0.004368   0.118982
    13  H    0.176601  -0.014358   0.011713  -0.070760  -0.004210  -0.008663
    14  H   -0.128643   0.006135   0.087827   0.003543   0.000057   0.003586
    15  H    0.014227   0.000125  -0.007261   0.000173   0.000063  -0.001824
    16  C    0.196249  -0.161012  -1.086293   0.017510  -0.014248  -0.186348
    17  H   -0.033645  -0.107398   0.113752   0.021009   0.005223  -0.165232
    18  C  -12.165138   0.892120   4.793749  -0.523283  -0.152984   0.229005
    19  C   32.605681  -2.066486 -11.836952   1.112227   0.010266  -1.423182
    20  N   -2.066486   8.125857   0.924689   0.004545  -0.170168   0.175209
    21  C  -11.836952   0.924689  16.042323  -0.656828   0.244705  -0.628202
    22  H    1.112227   0.004545  -0.656828   1.640679  -0.233524  -0.100773
    23  S    0.010266  -0.170168   0.244705  -0.233524  15.923199   0.173123
    24  C   -1.423182   0.175209  -0.628202  -0.100773   0.173123   7.958573
    25  N    0.575126  -0.136817  -0.089482  -0.014638  -0.112182  -0.240900
    26  C    0.032497   0.085350  -0.149536  -0.009955  -0.080298  -0.542497
    27  N    0.024974   0.001886   0.000581  -0.000137   0.009094   0.030938
    28  H   -0.001751   0.001199   0.001013   0.000107  -0.001988  -0.035162
    29  H    0.003147   0.002669  -0.003542  -0.000191  -0.000538  -0.013428
    30  N   -0.083864  -0.027005   0.066180   0.002637  -0.007653   0.041753
    31  H    0.040055  -0.037660  -0.070300  -0.009202  -0.000355  -0.001122
    32  H    0.003158  -0.003981  -0.000248   0.000191  -0.000355   0.010077
    33  H   -0.067636  -0.009770  -0.001878   0.000195   0.012088  -0.110251
              25         26         27         28         29         30
     1  C    0.000307  -0.001799  -0.000009   0.000018  -0.000126  -0.001834
     2  H   -0.000003  -0.000032   0.000011   0.000002  -0.000009   0.000095
     3  H    0.000001  -0.000084   0.000000   0.000001  -0.000008  -0.000044
     4  H    0.000045  -0.000139   0.000003   0.000002  -0.000007   0.000021
     5  C    0.000644  -0.014842   0.000524   0.000065  -0.000274   0.003820
     6  O    0.000574  -0.000963  -0.000175  -0.000053   0.000122  -0.001987
     7  N    0.000291  -0.001966   0.000031   0.000007   0.000005   0.001609
     8  H   -0.000185   0.000622  -0.000024  -0.000007   0.000012  -0.000123
     9  C   -0.032618   0.093514  -0.005016  -0.000452   0.001039  -0.046806
    10  C    0.006303   0.004186   0.000008  -0.000021   0.000142  -0.000764
    11  C   -0.007459  -0.015269   0.000250   0.000098  -0.000132   0.003280
    12  C    0.012710  -0.100474   0.004187   0.000365  -0.000515   0.027627
    13  H    0.003208  -0.000546   0.000118   0.000002   0.000017  -0.000259
    14  H   -0.000368  -0.000090  -0.000001   0.000000  -0.000002   0.000079
    15  H    0.000235  -0.000284   0.000014   0.000002  -0.000001   0.000078
    16  C    0.009960   0.010621  -0.004772   0.000190   0.000661  -0.001432
    17  H    0.001452   0.041913  -0.000405  -0.000287   0.000573  -0.002604
    18  C   -0.154244  -0.018988   0.000589   0.000565  -0.001476   0.038964
    19  C    0.575126   0.032497   0.024974  -0.001751   0.003147  -0.083864
    20  N   -0.136817   0.085350   0.001886   0.001199   0.002669  -0.027005
    21  C   -0.089482  -0.149536   0.000581   0.001013  -0.003542   0.066180
    22  H   -0.014638  -0.009955  -0.000137   0.000107  -0.000191   0.002637
    23  S   -0.112182  -0.080298   0.009094  -0.001988  -0.000538  -0.007653
    24  C   -0.240900  -0.542497   0.030938  -0.035162  -0.013428   0.041753
    25  N    7.432238   0.174948  -0.102508   0.018220  -0.024214  -0.024142
    26  C    0.174948   5.543316   0.111573  -0.075298  -0.054543   0.056046
    27  N   -0.102508   0.111573   6.385550   0.453781   0.453540  -0.106868
    28  H    0.018220  -0.075298   0.453781   0.787003  -0.145965   0.004605
    29  H   -0.024214  -0.054543   0.453540  -0.145965   0.784102  -0.019190
    30  N   -0.024142   0.056046  -0.106868   0.004605  -0.019190   6.282250
    31  H   -0.031704  -0.191239   0.015631   0.003306  -0.003330   0.429396
    32  H    0.011543  -0.133700  -0.004922   0.002824  -0.008647   0.444580
    33  H    0.436791  -0.098940  -0.006785  -0.006253   0.002955   0.011186
              31         32         33
     1  C   -0.009239  -0.000251  -0.000031
     2  H   -0.000943  -0.000200   0.000001
     3  H   -0.000788  -0.000137   0.000001
     4  H    0.000188   0.000119  -0.000005
     5  C    0.017812  -0.000143  -0.000114
     6  O    0.006097  -0.000083   0.000041
     7  N    0.011241  -0.001163  -0.000082
     8  H    0.000447   0.000053   0.000033
     9  C   -0.136641   0.006223   0.002855
    10  C    0.069971  -0.003081   0.000105
    11  C   -0.046336   0.001403  -0.001092
    12  C    0.118005  -0.003182  -0.004683
    13  H    0.001636  -0.000121  -0.000231
    14  H   -0.000732   0.000037   0.000012
    15  H    0.000255  -0.000073  -0.000012
    16  C    0.071844   0.004152   0.004008
    17  H   -0.093002   0.008620  -0.001952
    18  C   -0.089773  -0.001149   0.000702
    19  C    0.040055   0.003158  -0.067636
    20  N   -0.037660  -0.003981  -0.009770
    21  C   -0.070300  -0.000248  -0.001878
    22  H   -0.009202   0.000191   0.000195
    23  S   -0.000355  -0.000355   0.012088
    24  C   -0.001122   0.010077  -0.110251
    25  N   -0.031704   0.011543   0.436791
    26  C   -0.191239  -0.133700  -0.098940
    27  N    0.015631  -0.004922  -0.006785
    28  H    0.003306   0.002824  -0.006253
    29  H   -0.003330  -0.008647   0.002955
    30  N    0.429396   0.444580   0.011186
    31  H    1.051240  -0.214469   0.002719
    32  H   -0.214469   0.869353  -0.001715
    33  H    0.002719  -0.001715   0.847010
 Mulliken charges:
               1
     1  C    0.611842
     2  H    0.049444
     3  H    0.061595
     4  H   -0.201975
     5  C    0.354561
     6  O   -0.929414
     7  N   -0.616338
     8  H   -0.035312
     9  C   -0.353345
    10  C    1.049620
    11  C   -0.131118
    12  C    0.487226
    13  H   -0.647541
    14  H   -0.488263
    15  H   -0.693452
    16  C    1.419992
    17  H   -0.669120
    18  C    2.102146
    19  C   -1.369400
    20  N   -0.604439
    21  C    0.729346
    22  H   -0.592057
    23  S    0.459539
    24  C    0.609962
    25  N   -0.713132
    26  C    1.336894
    27  N   -0.261659
    28  H   -0.006139
    29  H    0.027156
    30  N   -0.089629
    31  H    0.096994
    32  H    0.015288
    33  H   -0.009273
 Sum of Mulliken charges =   1.00000
 Mulliken charges with hydrogens summed into heavy atoms:
               1
     1  C    0.520907
     5  C    0.354561
     6  O   -0.929414
     7  N   -0.651649
     9  C   -0.353345
    10  C    0.356168
    11  C   -0.619381
    12  C   -0.160314
    16  C    0.750872
    18  C    2.102146
    19  C   -1.369400
    20  N   -0.604439
    21  C    0.137289
    23  S    0.459539
    24  C    0.609962
    25  N   -0.722404
    26  C    1.336894
    27  N   -0.240641
    30  N    0.022652
 Electronic spatial extent (au):  <R**2>=           6836.2306
 Charge=              1.0000 electrons
 Dipole moment (field-independent basis, Debye):
    X=              9.1254    Y=              6.2013    Z=             -0.1730  Tot=             11.0344
 Quadrupole moment (field-independent basis, Debye-Ang):
   XX=            -14.8944   YY=            -67.4755   ZZ=           -124.5561
   XY=             26.8632   XZ=             -0.0505   YZ=             -0.8248
 Traceless Quadrupole moment (field-independent basis, Debye-Ang):
   XX=             54.0809   YY=              1.4998   ZZ=            -55.5808
   XY=             26.8632   XZ=             -0.0505   YZ=             -0.8248
 Octapole moment (field-independent basis, Debye-Ang**2):
  XXX=            118.0698  YYY=             98.0118  ZZZ=              0.7449  XYY=             95.7667
  XXY=            170.0448  XXZ=              0.2540  XZZ=              4.2777  YZZ=             20.3800
  YYZ=             -3.7383  XYZ=             -3.5122
 Hexadecapole moment (field-independent basis, Debye-Ang**3):
 XXXX=          -3583.0354 YYYY=          -2238.2752 ZZZZ=           -144.1741 XXXY=            455.5725
 XXXZ=              2.8145 YYYX=            370.0299 YYYZ=            -14.7566 ZZZX=             -3.6235
 ZZZY=              0.4145 XXYY=           -853.0796 XXZZ=          -1082.0173 YYZZ=           -567.6432
 XXYZ=             -0.2949 YYXZ=             -5.5300 ZZXY=            -26.4719
 N-N= 1.484624871581D+03 E-N=-5.789895645476D+03  KE= 1.206004697729D+03
 Leave Link  601 at Sun Jul 18 17:09:27 2021, MaxMem=   262144000 cpu:               0.6 elap:               0.2
 (Enter /prod/apps/gaussian/g16b1/l9999.exe)
 1\1\GINC-PIRINEUS32\SP\RMP2-FC\Aug-CC-pVDZ\C12H14N5O1S1(1+)\UBATOR02\1
 8-Jul-2021\0\\#p mp2/aug-cc-pVDZ scf=tight maxdisk=180GB geom=allcheck
 \\SET_328_BBB321_conf1.geo_195_330_315 geometry\\1,1\C,0,-1.851691189,
 -2.6170114988,-3.4511950855\H,0,-2.9246908616,-2.4123797093,-3.4202751
 652\H,0,-1.7068213267,-3.6586631862,-3.1513968559\H,0,-1.4925396767,-2
 .4898503725,-4.4732806639\C,0,-1.156400915,-1.7204373577,-2.4467395764
 \O,0,-1.5002818506,-1.6996698332,-1.2630181154\N,0,-0.1382771054,-0.96
 52169783,-2.9620260435\H,0,0.0417469389,-1.0774862384,-3.9519607769\C,
 0,0.7048898992,-0.0507173563,-2.3023966206\C,0,1.684079068,0.602750017
 7,-3.0674305329\C,0,2.5420457384,1.516400852,-2.4582299992\C,0,2.44236
 46879,1.7922139552,-1.0969139315\H,0,3.1172357751,2.5080941557,-0.6420
 30564\H,0,3.2959565411,2.0186762585,-3.0552600281\H,0,1.771562529,0.39
 70553341,-4.129507254\C,0,0.6018304474,0.2236941941,-0.9338241863\H,0,
 -0.1486973396,-0.2802305278,-0.3508514833\C,0,1.4664653487,1.142854152
 1,-0.3255676292\C,0,1.3293628469,1.4059178389,1.118439837\N,0,0.319454
 3555,0.768903072,1.8307347367\C,0,2.1138989122,2.236214289,1.870196303
 \H,0,2.9567381649,2.8360990481,1.562729648\S,0,1.5995968993,2.24802677
 4,3.5283733042\C,0,0.3364605191,1.1077797029,3.086404331\N,0,-0.542922
 2134,0.6452310383,4.0504907484\C,0,-1.5823668015,-0.219928155,3.855041
 0803\N,0,-2.3143313493,-0.5489653992,4.9147923271\H,0,-2.1135885087,-0
 .1588400796,5.8293874937\H,0,-3.1000815001,-1.183586667,4.814625093\N,
 0,-1.8459523288,-0.7089197887,2.6539759002\H,0,-1.2578960688,-0.447312
 3328,1.8646085804\H,0,-2.6182459777,-1.3566796051,2.5330367223\H,0,-0.
 4159036585,0.9819844032,5.0030684064\\Version=ES64L-G16RevB.01\State=1
 -A\HF=-1207.1660046\MP2=-1209.9823537\RMSD=5.749e-09\PG=C01 [X(C12H14N
 5O1S1)]\\@


 PATIENCE IS THE ABILITY TO IDLE YOUR MOTOR WHEN
 YOU FEEL LIKE STRIPPING YOUR GEARS.
 Job cpu time:       0 days  2 hours  1 minutes  4.0 seconds.
 Elapsed time:       0 days  0 hours 32 minutes 35.3 seconds.
 File lengths (MBytes):  RWF=  91028 Int=      0 D2E=      0 Chk=     27 Scr=      1
 Normal termination of Gaussian 16 at Sun Jul 18 17:09:30 2021.
