 Entering Gaussian System, Link 0=g16
 Initial command:
 /prod/apps/gaussian/g16b1/l1.exe "/tmp/ubator02/1839485/Gau-161055.inp" -scrdir="/tmp/ubator02/1839485/"
 Entering Link 1 = /prod/apps/gaussian/g16b1/l1.exe PID=    161056.
  
 Copyright (c) 1988-2017, Gaussian, Inc.  All Rights Reserved.
  
 This is part of the Gaussian(R) 16 program.  It is based on
 the Gaussian(R) 09 system (copyright 2009, Gaussian, Inc.),
 the Gaussian(R) 03 system (copyright 2003, Gaussian, Inc.),
 the Gaussian(R) 98 system (copyright 1998, Gaussian, Inc.),
 the Gaussian(R) 94 system (copyright 1995, Gaussian, Inc.),
 the Gaussian 92(TM) system (copyright 1992, Gaussian, Inc.),
 the Gaussian 90(TM) system (copyright 1990, Gaussian, Inc.),
 the Gaussian 88(TM) system (copyright 1988, Gaussian, Inc.),
 the Gaussian 86(TM) system (copyright 1986, Carnegie Mellon
 University), and the Gaussian 82(TM) system (copyright 1983,
 Carnegie Mellon University). Gaussian is a federally registered
 trademark of Gaussian, Inc.
  
 This software contains proprietary and confidential information,
 including trade secrets, belonging to Gaussian, Inc.
  
 This software is provided under written license and may be
 used, copied, transmitted, or stored only in accord with that
 written license.
  
 The following legend is applicable only to US Government
 contracts under FAR:
  
                    RESTRICTED RIGHTS LEGEND
  
 Use, reproduction and disclosure by the US Government is
 subject to restrictions as set forth in subparagraphs (a)
 and (c) of the Commercial Computer Software - Restricted
 Rights clause in FAR 52.227-19.
  
 Gaussian, Inc.
 340 Quinnipiac St., Bldg. 40, Wallingford CT 06492
  
  
 ---------------------------------------------------------------
 Warning -- This program may not be used in any manner that
 competes with the business of Gaussian, Inc. or will provide
 assistance to any competitor of Gaussian, Inc.  The licensee
 of this program is prohibited from giving any competitor of
 Gaussian, Inc. access to this program.  By using this program,
 the user acknowledges that Gaussian, Inc. is engaged in the
 business of creating and licensing software in the field of
 computational chemistry and represents and warrants to the
 licensee that it is not a competitor of Gaussian, Inc. and that
 it will not use this program in any manner prohibited above.
 ---------------------------------------------------------------
  

 Cite this work as:
 Gaussian 16, Revision B.01,
 M. J. Frisch, G. W. Trucks, H. B. Schlegel, G. E. Scuseria, 
 M. A. Robb, J. R. Cheeseman, G. Scalmani, V. Barone, 
 G. A. Petersson, H. Nakatsuji, X. Li, M. Caricato, A. V. Marenich, 
 J. Bloino, B. G. Janesko, R. Gomperts, B. Mennucci, H. P. Hratchian, 
 J. V. Ortiz, A. F. Izmaylov, J. L. Sonnenberg, D. Williams-Young, 
 F. Ding, F. Lipparini, F. Egidi, J. Goings, B. Peng, A. Petrone, 
 T. Henderson, D. Ranasinghe, V. G. Zakrzewski, J. Gao, N. Rega, 
 G. Zheng, W. Liang, M. Hada, M. Ehara, K. Toyota, R. Fukuda, 
 J. Hasegawa, M. Ishida, T. Nakajima, Y. Honda, O. Kitao, H. Nakai, 
 T. Vreven, K. Throssell, J. A. Montgomery, Jr., J. E. Peralta, 
 F. Ogliaro, M. J. Bearpark, J. J. Heyd, E. N. Brothers, K. N. Kudin, 
 V. N. Staroverov, T. A. Keith, R. Kobayashi, J. Normand, 
 K. Raghavachari, A. P. Rendell, J. C. Burant, S. S. Iyengar, 
 J. Tomasi, M. Cossi, J. M. Millam, M. Klene, C. Adamo, R. Cammi, 
 J. W. Ochterski, R. L. Martin, K. Morokuma, O. Farkas, 
 J. B. Foresman, and D. J. Fox, Gaussian, Inc., Wallingford CT, 2016.
 
 ******************************************
 Gaussian 16:  ES64L-G16RevB.01 20-Dec-2017
                18-Jul-2021 
 ******************************************
 %mem=800MB
 %nproc=4
 Will use up to    4 processors via shared memory.
 %chk=SET_328_BBB20_conf1.geo_060_180_060.chk
 -----------------------------------------------------------
 #p b3lyp/6-31G(d) opt freq scrf=(iefpcm,read,solvent=water)
 -----------------------------------------------------------
 1/18=20,19=15,26=3,38=1,40=2/1,3;
 2/9=110,12=2,17=6,18=5,40=1/2;
 3/5=1,6=6,7=1,11=2,25=1,30=1,70=2203,71=1,72=1,74=-5/1,2,3;
 4//1;
 5/5=2,38=5,53=1/2;
 6/7=2,8=2,9=2,10=2,28=1/1;
 7//1,2,3,16;
 1/18=20,19=15,26=3/3(2);
 2/9=110/2;
 99//99;
 2/9=110/2;
 3/5=1,6=6,7=1,11=2,25=1,30=1,70=2205,71=1,72=1,74=-5/1,2,3;
 4/5=5,16=3,69=1/1;
 5/5=2,38=5,53=1/2;
 7//1,2,3,16;
 1/18=20,19=15,26=3/3(-5);
 2/9=110/2;
 6/7=2,8=2,9=2,10=2,19=2,28=1/1;
 99/9=1/99;
 Leave Link    1 at Sun Jul 18 13:28:47 2021, MaxMem=   104857600 cpu:               0.1 elap:               0.0
 (Enter /prod/apps/gaussian/g16b1/l101.exe)
 --------------------------------------------
 SET_328_BBB20_conf1.geo_060_180_060 geometry
 --------------------------------------------
 Symbolic Z-matrix:
 Charge =  1 Multiplicity = 1
 N                     0.955    -0.707    -4.311 
 H                     0.415    -1.512    -4.065 
 H                     1.89     -0.817    -3.974 
 C                     0.364     0.468    -3.716 
 H                    -0.512     0.766    -4.298 
 H                     1.116     1.261    -3.712 
 C                    -0.214     0.357    -2.261 
 H                    -1.128    -0.241    -2.262 
 H                    -0.537     1.368    -2.007 
 C                     0.961    -0.062    -1.258 
 H                     1.792     0.632    -1.413 
 H                     1.295    -1.067    -1.528 
 N                     0.502    -0.192     0.132 
 C                    -0.452    -1.139     0.358 
 C                    -0.22     -2.526     0.048 
 H                     0.727    -2.865    -0.364 
 C                    -1.197    -3.478     0.263 
 H                    -1.079    -4.532     0.027 
 C                    -2.507    -2.989     0.547 
 H                    -3.299    -3.733     0.562 
 C                    -2.741    -1.65      0.721 
 H                    -3.735    -1.228     0.843 
 C                    -1.775    -0.702     0.673 
 C                    -2.1       0.739     1.017 
 H                    -3.147     0.729     1.328 
 H                    -2.139     1.408     0.155 
 C                    -1.236     1.31      2.189 
 H                    -1.402     0.674     3.061 
 H                    -1.566     2.325     2.418 
 C                     0.316     1.412     2.033 
 C                     0.984     2.282     2.841 
 H                     0.441     2.771     3.646 
 C                     2.39      2.461     2.799 
 H                     2.931     3.054     3.532 
 C                     3.1       1.708     1.9 
 H                     4.179     1.792     1.8 
 C                     2.444     0.884     1.025 
 H                     3.07      0.394     0.284 
 C                     1.069     0.675     1.049 
 H                     0.969    -0.606    -5.306 
 
 ITRead=  0  0  0  0  0  0  0  0  0  0  0  0  0  0  0  0  0  0  0  0
 ITRead=  0  0  0  0  0  0  0  0  0  0  0  0  0  0  0  0  0  0  0  0
 MicOpt= -1 -1 -1 -1 -1 -1 -1 -1 -1 -1 -1 -1 -1 -1 -1 -1 -1 -1 -1 -1
 MicOpt= -1 -1 -1 -1 -1 -1 -1 -1 -1 -1 -1 -1 -1 -1 -1 -1 -1 -1 -1 -1
 NAtoms=     40 NQM=       40 NQMF=       0 NMMI=      0 NMMIF=      0
                NMic=       0 NMicF=      0.
                    Isotopes and Nuclear Properties:
 (Nuclear quadrupole moments (NQMom) in fm**2, nuclear magnetic moments (NMagM)
  in nuclear magnetons)

  Atom         1           2           3           4           5           6           7           8           9          10
 IAtWgt=          14           1           1          12           1           1          12           1           1          12
 AtmWgt=  14.0030740   1.0078250   1.0078250  12.0000000   1.0078250   1.0078250  12.0000000   1.0078250   1.0078250  12.0000000
 NucSpn=           2           1           1           0           1           1           0           1           1           0
 AtZEff=  -0.0000000  -0.0000000  -0.0000000  -0.0000000  -0.0000000  -0.0000000  -0.0000000  -0.0000000  -0.0000000  -0.0000000
 NQMom=    2.0440000   0.0000000   0.0000000   0.0000000   0.0000000   0.0000000   0.0000000   0.0000000   0.0000000   0.0000000
 NMagM=    0.4037610   2.7928460   2.7928460   0.0000000   2.7928460   2.7928460   0.0000000   2.7928460   2.7928460   0.0000000
 AtZNuc=   7.0000000   1.0000000   1.0000000   6.0000000   1.0000000   1.0000000   6.0000000   1.0000000   1.0000000   6.0000000

  Atom        11          12          13          14          15          16          17          18          19          20
 IAtWgt=           1           1          14          12          12           1          12           1          12           1
 AtmWgt=   1.0078250   1.0078250  14.0030740  12.0000000  12.0000000   1.0078250  12.0000000   1.0078250  12.0000000   1.0078250
 NucSpn=           1           1           2           0           0           1           0           1           0           1
 AtZEff=  -0.0000000  -0.0000000  -0.0000000  -0.0000000  -0.0000000  -0.0000000  -0.0000000  -0.0000000  -0.0000000  -0.0000000
 NQMom=    0.0000000   0.0000000   2.0440000   0.0000000   0.0000000   0.0000000   0.0000000   0.0000000   0.0000000   0.0000000
 NMagM=    2.7928460   2.7928460   0.4037610   0.0000000   0.0000000   2.7928460   0.0000000   2.7928460   0.0000000   2.7928460
 AtZNuc=   1.0000000   1.0000000   7.0000000   6.0000000   6.0000000   1.0000000   6.0000000   1.0000000   6.0000000   1.0000000

  Atom        21          22          23          24          25          26          27          28          29          30
 IAtWgt=          12           1          12          12           1           1          12           1           1          12
 AtmWgt=  12.0000000   1.0078250  12.0000000  12.0000000   1.0078250   1.0078250  12.0000000   1.0078250   1.0078250  12.0000000
 NucSpn=           0           1           0           0           1           1           0           1           1           0
 AtZEff=  -0.0000000  -0.0000000  -0.0000000  -0.0000000  -0.0000000  -0.0000000  -0.0000000  -0.0000000  -0.0000000  -0.0000000
 NQMom=    0.0000000   0.0000000   0.0000000   0.0000000   0.0000000   0.0000000   0.0000000   0.0000000   0.0000000   0.0000000
 NMagM=    0.0000000   2.7928460   0.0000000   0.0000000   2.7928460   2.7928460   0.0000000   2.7928460   2.7928460   0.0000000
 AtZNuc=   6.0000000   1.0000000   6.0000000   6.0000000   1.0000000   1.0000000   6.0000000   1.0000000   1.0000000   6.0000000

  Atom        31          32          33          34          35          36          37          38          39          40
 IAtWgt=          12           1          12           1          12           1          12           1          12           1
 AtmWgt=  12.0000000   1.0078250  12.0000000   1.0078250  12.0000000   1.0078250  12.0000000   1.0078250  12.0000000   1.0078250
 NucSpn=           0           1           0           1           0           1           0           1           0           1
 AtZEff=  -0.0000000  -0.0000000  -0.0000000  -0.0000000  -0.0000000  -0.0000000  -0.0000000  -0.0000000  -0.0000000  -0.0000000
 NQMom=    0.0000000   0.0000000   0.0000000   0.0000000   0.0000000   0.0000000   0.0000000   0.0000000   0.0000000   0.0000000
 NMagM=    0.0000000   2.7928460   0.0000000   2.7928460   0.0000000   2.7928460   0.0000000   2.7928460   0.0000000   2.7928460
 AtZNuc=   6.0000000   1.0000000   6.0000000   1.0000000   6.0000000   1.0000000   6.0000000   1.0000000   6.0000000   1.0000000
 Leave Link  101 at Sun Jul 18 13:28:47 2021, MaxMem=   104857600 cpu:               0.5 elap:               0.1
 (Enter /prod/apps/gaussian/g16b1/l103.exe)

 GradGradGradGradGradGradGradGradGradGradGradGradGradGradGradGradGradGrad
 Berny optimization.
 Initialization pass.
                           ----------------------------
                           !    Initial Parameters    !
                           ! (Angstroms and Degrees)  !
 --------------------------                            --------------------------
 ! Name  Definition              Value          Derivative Info.                !
 --------------------------------------------------------------------------------
 ! R1    R(1,2)                  1.0001         estimate D2E/DX2                !
 ! R2    R(1,3)                  0.9999         estimate D2E/DX2                !
 ! R3    R(1,4)                  1.4436         estimate D2E/DX2                !
 ! R4    R(1,40)                 1.0002         estimate D2E/DX2                !
 ! R5    R(4,5)                  1.0931         estimate D2E/DX2                !
 ! R6    R(4,6)                  1.0929         estimate D2E/DX2                !
 ! R7    R(4,7)                  1.5695         estimate D2E/DX2                !
 ! R8    R(7,8)                  1.0922         estimate D2E/DX2                !
 ! R9    R(7,9)                  1.0913         estimate D2E/DX2                !
 ! R10   R(7,10)                 1.6007         estimate D2E/DX2                !
 ! R11   R(10,11)                1.0937         estimate D2E/DX2                !
 ! R12   R(10,12)                1.0929         estimate D2E/DX2                !
 ! R13   R(10,13)                1.4696         estimate D2E/DX2                !
 ! R14   R(13,14)                1.3631         estimate D2E/DX2                !
 ! R15   R(13,39)                1.3835         estimate D2E/DX2                !
 ! R16   R(14,15)                1.44           estimate D2E/DX2                !
 ! R17   R(14,23)                1.4285         estimate D2E/DX2                !
 ! R18   R(15,16)                1.087          estimate D2E/DX2                !
 ! R19   R(15,17)                1.381          estimate D2E/DX2                !
 ! R20   R(17,18)                1.0865         estimate D2E/DX2                !
 ! R21   R(17,19)                1.4268         estimate D2E/DX2                !
 ! R22   R(19,20)                1.0867         estimate D2E/DX2                !
 ! R23   R(19,21)                1.3704         estimate D2E/DX2                !
 ! R24   R(21,22)                1.0867         estimate D2E/DX2                !
 ! R25   R(21,23)                1.3543         estimate D2E/DX2                !
 ! R26   R(23,24)                1.5167         estimate D2E/DX2                !
 ! R27   R(24,25)                1.0923         estimate D2E/DX2                !
 ! R28   R(24,26)                1.0918         estimate D2E/DX2                !
 ! R29   R(24,27)                1.564          estimate D2E/DX2                !
 ! R30   R(27,28)                1.092          estimate D2E/DX2                !
 ! R31   R(27,29)                1.0916         estimate D2E/DX2                !
 ! R32   R(27,30)                1.5632         estimate D2E/DX2                !
 ! R33   R(30,31)                1.3623         estimate D2E/DX2                !
 ! R34   R(30,39)                1.4417         estimate D2E/DX2                !
 ! R35   R(31,32)                1.0872         estimate D2E/DX2                !
 ! R36   R(31,33)                1.418          estimate D2E/DX2                !
 ! R37   R(33,34)                1.087          estimate D2E/DX2                !
 ! R38   R(33,35)                1.3709         estimate D2E/DX2                !
 ! R39   R(35,36)                1.0869         estimate D2E/DX2                !
 ! R40   R(35,37)                1.3693         estimate D2E/DX2                !
 ! R41   R(37,38)                1.0868         estimate D2E/DX2                !
 ! R42   R(37,39)                1.391          estimate D2E/DX2                !
 ! A1    A(2,1,3)              109.4778         estimate D2E/DX2                !
 ! A2    A(2,1,4)              109.4349         estimate D2E/DX2                !
 ! A3    A(2,1,40)             109.4838         estimate D2E/DX2                !
 ! A4    A(3,1,4)              109.4776         estimate D2E/DX2                !
 ! A5    A(3,1,40)             109.4681         estimate D2E/DX2                !
 ! A6    A(4,1,40)             109.485          estimate D2E/DX2                !
 ! A7    A(1,4,5)              109.3009         estimate D2E/DX2                !
 ! A8    A(1,4,6)              108.0841         estimate D2E/DX2                !
 ! A9    A(1,4,7)              118.3785         estimate D2E/DX2                !
 ! A10   A(5,4,6)              110.8278         estimate D2E/DX2                !
 ! A11   A(5,4,7)              102.5759         estimate D2E/DX2                !
 ! A12   A(6,4,7)              107.5371         estimate D2E/DX2                !
 ! A13   A(4,7,8)              110.2451         estimate D2E/DX2                !
 ! A14   A(4,7,9)              105.0251         estimate D2E/DX2                !
 ! A15   A(4,7,10)             109.2122         estimate D2E/DX2                !
 ! A16   A(8,7,9)              105.0549         estimate D2E/DX2                !
 ! A17   A(8,7,10)             118.1335         estimate D2E/DX2                !
 ! A18   A(9,7,10)             108.2956         estimate D2E/DX2                !
 ! A19   A(7,10,11)            107.628          estimate D2E/DX2                !
 ! A20   A(7,10,12)            108.0735         estimate D2E/DX2                !
 ! A21   A(7,10,13)            112.7404         estimate D2E/DX2                !
 ! A22   A(11,10,12)           108.4381         estimate D2E/DX2                !
 ! A23   A(11,10,13)           115.3079         estimate D2E/DX2                !
 ! A24   A(12,10,13)           104.3457         estimate D2E/DX2                !
 ! A25   A(10,13,14)           115.9047         estimate D2E/DX2                !
 ! A26   A(10,13,39)           116.326          estimate D2E/DX2                !
 ! A27   A(14,13,39)           127.7573         estimate D2E/DX2                !
 ! A28   A(13,14,15)           121.3801         estimate D2E/DX2                !
 ! A29   A(13,14,23)           118.1792         estimate D2E/DX2                !
 ! A30   A(15,14,23)           119.4286         estimate D2E/DX2                !
 ! A31   A(14,15,16)           121.4903         estimate D2E/DX2                !
 ! A32   A(14,15,17)           121.0972         estimate D2E/DX2                !
 ! A33   A(16,15,17)           117.4125         estimate D2E/DX2                !
 ! A34   A(15,17,18)           123.9236         estimate D2E/DX2                !
 ! A35   A(15,17,19)           116.3768         estimate D2E/DX2                !
 ! A36   A(18,17,19)           118.3853         estimate D2E/DX2                !
 ! A37   A(17,19,20)           115.9267         estimate D2E/DX2                !
 ! A38   A(17,19,21)           121.1253         estimate D2E/DX2                !
 ! A39   A(20,19,21)           122.8701         estimate D2E/DX2                !
 ! A40   A(19,21,22)           123.3575         estimate D2E/DX2                !
 ! A41   A(19,21,23)           123.8941         estimate D2E/DX2                !
 ! A42   A(22,21,23)           112.617          estimate D2E/DX2                !
 ! A43   A(14,23,21)           117.0191         estimate D2E/DX2                !
 ! A44   A(14,23,24)           122.6238         estimate D2E/DX2                !
 ! A45   A(21,23,24)           120.2757         estimate D2E/DX2                !
 ! A46   A(23,24,25)           105.146          estimate D2E/DX2                !
 ! A47   A(23,24,26)           114.2506         estimate D2E/DX2                !
 ! A48   A(23,24,27)           113.4811         estimate D2E/DX2                !
 ! A49   A(25,24,26)           101.3126         estimate D2E/DX2                !
 ! A50   A(25,24,27)           108.6335         estimate D2E/DX2                !
 ! A51   A(26,24,27)           112.8079         estimate D2E/DX2                !
 ! A52   A(24,27,28)           107.5646         estimate D2E/DX2                !
 ! A53   A(24,27,29)           109.2488         estimate D2E/DX2                !
 ! A54   A(24,27,30)           119.8363         estimate D2E/DX2                !
 ! A55   A(28,27,29)           109.1523         estimate D2E/DX2                !
 ! A56   A(28,27,30)           105.5828         estimate D2E/DX2                !
 ! A57   A(29,27,30)           105.0948         estimate D2E/DX2                !
 ! A58   A(27,30,31)           117.9897         estimate D2E/DX2                !
 ! A59   A(27,30,39)           123.5965         estimate D2E/DX2                !
 ! A60   A(31,30,39)           118.3702         estimate D2E/DX2                !
 ! A61   A(30,31,32)           118.7825         estimate D2E/DX2                !
 ! A62   A(30,31,33)           123.3148         estimate D2E/DX2                !
 ! A63   A(32,31,33)           117.412          estimate D2E/DX2                !
 ! A64   A(31,33,34)           122.8458         estimate D2E/DX2                !
 ! A65   A(31,33,35)           117.6215         estimate D2E/DX2                !
 ! A66   A(34,33,35)           118.9531         estimate D2E/DX2                !
 ! A67   A(33,35,36)           122.1439         estimate D2E/DX2                !
 ! A68   A(33,35,37)           120.0979         estimate D2E/DX2                !
 ! A69   A(36,35,37)           117.6019         estimate D2E/DX2                !
 ! A70   A(35,37,38)           115.5359         estimate D2E/DX2                !
 ! A71   A(35,37,39)           123.5706         estimate D2E/DX2                !
 ! A72   A(38,37,39)           120.8916         estimate D2E/DX2                !
 ! A73   A(13,39,30)           123.9658         estimate D2E/DX2                !
 ! A74   A(13,39,37)           119.1986         estimate D2E/DX2                !
 ! A75   A(30,39,37)           116.825          estimate D2E/DX2                !
 ! D1    D(2,1,4,5)            -77.523          estimate D2E/DX2                !
 ! D2    D(2,1,4,6)            161.7684         estimate D2E/DX2                !
 ! D3    D(2,1,4,7)             39.3105         estimate D2E/DX2                !
 ! D4    D(3,1,4,5)            162.4872         estimate D2E/DX2                !
 ! D5    D(3,1,4,6)             41.7787         estimate D2E/DX2                !
 ! D6    D(3,1,4,7)            -80.6793         estimate D2E/DX2                !
 ! D7    D(40,1,4,5)            42.4787         estimate D2E/DX2                !
 ! D8    D(40,1,4,6)           -78.2299         estimate D2E/DX2                !
 ! D9    D(40,1,4,7)           159.3121         estimate D2E/DX2                !
 ! D10   D(1,4,7,8)            -71.0628         estimate D2E/DX2                !
 ! D11   D(1,4,7,9)            176.2534         estimate D2E/DX2                !
 ! D12   D(1,4,7,10)            60.2937         estimate D2E/DX2                !
 ! D13   D(5,4,7,8)             49.2966         estimate D2E/DX2                !
 ! D14   D(5,4,7,9)            -63.3872         estimate D2E/DX2                !
 ! D15   D(5,4,7,10)          -179.3469         estimate D2E/DX2                !
 ! D16   D(6,4,7,8)            166.2044         estimate D2E/DX2                !
 ! D17   D(6,4,7,9)             53.5206         estimate D2E/DX2                !
 ! D18   D(6,4,7,10)           -62.4391         estimate D2E/DX2                !
 ! D19   D(4,7,10,11)           51.8678         estimate D2E/DX2                !
 ! D20   D(4,7,10,12)          -65.0546         estimate D2E/DX2                !
 ! D21   D(4,7,10,13)         -179.85           estimate D2E/DX2                !
 ! D22   D(8,7,10,11)          178.8718         estimate D2E/DX2                !
 ! D23   D(8,7,10,12)           61.9493         estimate D2E/DX2                !
 ! D24   D(8,7,10,13)          -52.846          estimate D2E/DX2                !
 ! D25   D(9,7,10,11)          -61.9836         estimate D2E/DX2                !
 ! D26   D(9,7,10,12)         -178.906          estimate D2E/DX2                !
 ! D27   D(9,7,10,13)           66.2986         estimate D2E/DX2                !
 ! D28   D(7,10,13,14)          61.4188         estimate D2E/DX2                !
 ! D29   D(7,10,13,39)        -117.4224         estimate D2E/DX2                !
 ! D30   D(11,10,13,14)       -174.4273         estimate D2E/DX2                !
 ! D31   D(11,10,13,39)          6.7315         estimate D2E/DX2                !
 ! D32   D(12,10,13,14)        -55.6078         estimate D2E/DX2                !
 ! D33   D(12,10,13,39)        125.551          estimate D2E/DX2                !
 ! D34   D(10,13,14,15)         58.9395         estimate D2E/DX2                !
 ! D35   D(10,13,14,23)       -109.4847         estimate D2E/DX2                !
 ! D36   D(39,13,14,15)       -122.3742         estimate D2E/DX2                !
 ! D37   D(39,13,14,23)         69.2016         estimate D2E/DX2                !
 ! D38   D(10,13,39,30)        133.9294         estimate D2E/DX2                !
 ! D39   D(10,13,39,37)        -44.8487         estimate D2E/DX2                !
 ! D40   D(14,13,39,30)        -44.7521         estimate D2E/DX2                !
 ! D41   D(14,13,39,37)        136.4698         estimate D2E/DX2                !
 ! D42   D(13,14,15,16)          0.7992         estimate D2E/DX2                !
 ! D43   D(13,14,15,17)       -179.1407         estimate D2E/DX2                !
 ! D44   D(23,14,15,16)        169.0818         estimate D2E/DX2                !
 ! D45   D(23,14,15,17)        -10.8581         estimate D2E/DX2                !
 ! D46   D(13,14,23,21)        171.6145         estimate D2E/DX2                !
 ! D47   D(13,14,23,24)        -11.6618         estimate D2E/DX2                !
 ! D48   D(15,14,23,21)          2.9581         estimate D2E/DX2                !
 ! D49   D(15,14,23,24)        179.6818         estimate D2E/DX2                !
 ! D50   D(14,15,17,18)        178.6838         estimate D2E/DX2                !
 ! D51   D(14,15,17,19)         12.0222         estimate D2E/DX2                !
 ! D52   D(16,15,17,18)         -1.2585         estimate D2E/DX2                !
 ! D53   D(16,15,17,19)       -167.9201         estimate D2E/DX2                !
 ! D54   D(15,17,19,20)        170.8408         estimate D2E/DX2                !
 ! D55   D(15,17,19,21)         -6.0389         estimate D2E/DX2                !
 ! D56   D(18,17,19,20)          3.4084         estimate D2E/DX2                !
 ! D57   D(18,17,19,21)       -173.4712         estimate D2E/DX2                !
 ! D58   D(17,19,21,22)        173.8972         estimate D2E/DX2                !
 ! D59   D(17,19,21,23)         -1.6251         estimate D2E/DX2                !
 ! D60   D(20,19,21,22)         -2.7613         estimate D2E/DX2                !
 ! D61   D(20,19,21,23)       -178.2836         estimate D2E/DX2                !
 ! D62   D(19,21,23,14)          3.0852         estimate D2E/DX2                !
 ! D63   D(19,21,23,24)       -173.7197         estimate D2E/DX2                !
 ! D64   D(22,21,23,14)       -172.8639         estimate D2E/DX2                !
 ! D65   D(22,21,23,24)         10.3312         estimate D2E/DX2                !
 ! D66   D(14,23,24,25)       -173.0017         estimate D2E/DX2                !
 ! D67   D(14,23,24,26)         76.8271         estimate D2E/DX2                !
 ! D68   D(14,23,24,27)        -54.4151         estimate D2E/DX2                !
 ! D69   D(21,23,24,25)          3.6185         estimate D2E/DX2                !
 ! D70   D(21,23,24,26)       -106.5527         estimate D2E/DX2                !
 ! D71   D(21,23,24,27)        122.2052         estimate D2E/DX2                !
 ! D72   D(23,24,27,28)        -58.268          estimate D2E/DX2                !
 ! D73   D(23,24,27,29)       -176.6296         estimate D2E/DX2                !
 ! D74   D(23,24,27,30)         62.1544         estimate D2E/DX2                !
 ! D75   D(25,24,27,28)         58.2903         estimate D2E/DX2                !
 ! D76   D(25,24,27,29)        -60.0713         estimate D2E/DX2                !
 ! D77   D(25,24,27,30)        178.7127         estimate D2E/DX2                !
 ! D78   D(26,24,27,28)        169.7822         estimate D2E/DX2                !
 ! D79   D(26,24,27,29)         51.4206         estimate D2E/DX2                !
 ! D80   D(26,24,27,30)        -69.7954         estimate D2E/DX2                !
 ! D81   D(24,27,30,31)        158.9694         estimate D2E/DX2                !
 ! D82   D(24,27,30,39)        -18.5859         estimate D2E/DX2                !
 ! D83   D(28,27,30,31)        -79.6232         estimate D2E/DX2                !
 ! D84   D(28,27,30,39)        102.8216         estimate D2E/DX2                !
 ! D85   D(29,27,30,31)         35.717          estimate D2E/DX2                !
 ! D86   D(29,27,30,39)       -141.8382         estimate D2E/DX2                !
 ! D87   D(27,30,31,32)          8.0031         estimate D2E/DX2                !
 ! D88   D(27,30,31,33)        179.7498         estimate D2E/DX2                !
 ! D89   D(39,30,31,32)       -174.3111         estimate D2E/DX2                !
 ! D90   D(39,30,31,33)         -2.5644         estimate D2E/DX2                !
 ! D91   D(27,30,39,13)          0.5109         estimate D2E/DX2                !
 ! D92   D(27,30,39,37)        179.3157         estimate D2E/DX2                !
 ! D93   D(31,30,39,13)       -177.0357         estimate D2E/DX2                !
 ! D94   D(31,30,39,37)          1.7691         estimate D2E/DX2                !
 ! D95   D(30,31,33,34)       -171.5485         estimate D2E/DX2                !
 ! D96   D(30,31,33,35)         -0.3805         estimate D2E/DX2                !
 ! D97   D(32,31,33,34)          0.3036         estimate D2E/DX2                !
 ! D98   D(32,31,33,35)        171.4716         estimate D2E/DX2                !
 ! D99   D(31,33,35,36)        179.4761         estimate D2E/DX2                !
 ! D100  D(31,33,35,37)          4.1296         estimate D2E/DX2                !
 ! D101  D(34,33,35,36)         -9.0012         estimate D2E/DX2                !
 ! D102  D(34,33,35,37)        175.6523         estimate D2E/DX2                !
 ! D103  D(33,35,37,38)        174.4187         estimate D2E/DX2                !
 ! D104  D(33,35,37,39)         -5.0713         estimate D2E/DX2                !
 ! D105  D(36,35,37,38)         -1.1355         estimate D2E/DX2                !
 ! D106  D(36,35,37,39)        179.3745         estimate D2E/DX2                !
 ! D107  D(35,37,39,13)       -179.1444         estimate D2E/DX2                !
 ! D108  D(35,37,39,30)          1.9912         estimate D2E/DX2                !
 ! D109  D(38,37,39,13)          1.3919         estimate D2E/DX2                !
 ! D110  D(38,37,39,30)       -177.4725         estimate D2E/DX2                !
 --------------------------------------------------------------------------------
 Trust Radius=3.00D-01 FncErr=1.00D-07 GrdErr=1.00D-06 EigMax=2.50D+02 EigMin=1.00D-04
 Number of steps in this run=    237 maximum allowed number of steps=    240.
 GradGradGradGradGradGradGradGradGradGradGradGradGradGradGradGradGradGrad

 Leave Link  103 at Sun Jul 18 13:28:47 2021, MaxMem=   104857600 cpu:               0.1 elap:               0.0
 (Enter /prod/apps/gaussian/g16b1/l202.exe)
                          Input orientation:                          
 ---------------------------------------------------------------------
 Center     Atomic      Atomic             Coordinates (Angstroms)
 Number     Number       Type             X           Y           Z
 ---------------------------------------------------------------------
      1          7           0        0.955000   -0.707000   -4.311000
      2          1           0        0.415000   -1.512000   -4.065000
      3          1           0        1.890000   -0.817000   -3.974000
      4          6           0        0.364000    0.468000   -3.716000
      5          1           0       -0.512000    0.766000   -4.298000
      6          1           0        1.116000    1.261000   -3.712000
      7          6           0       -0.214000    0.357000   -2.261000
      8          1           0       -1.128000   -0.241000   -2.262000
      9          1           0       -0.537000    1.368000   -2.007000
     10          6           0        0.961000   -0.062000   -1.258000
     11          1           0        1.792000    0.632000   -1.413000
     12          1           0        1.295000   -1.067000   -1.528000
     13          7           0        0.502000   -0.192000    0.132000
     14          6           0       -0.452000   -1.139000    0.358000
     15          6           0       -0.220000   -2.526000    0.048000
     16          1           0        0.727000   -2.865000   -0.364000
     17          6           0       -1.197000   -3.478000    0.263000
     18          1           0       -1.079000   -4.532000    0.027000
     19          6           0       -2.507000   -2.989000    0.547000
     20          1           0       -3.299000   -3.733000    0.562000
     21          6           0       -2.741000   -1.650000    0.721000
     22          1           0       -3.735000   -1.228000    0.843000
     23          6           0       -1.775000   -0.702000    0.673000
     24          6           0       -2.100000    0.739000    1.017000
     25          1           0       -3.147000    0.729000    1.328000
     26          1           0       -2.139000    1.408000    0.155000
     27          6           0       -1.236000    1.310000    2.189000
     28          1           0       -1.402000    0.674000    3.061000
     29          1           0       -1.566000    2.325000    2.418000
     30          6           0        0.316000    1.412000    2.033000
     31          6           0        0.984000    2.282000    2.841000
     32          1           0        0.441000    2.771000    3.646000
     33          6           0        2.390000    2.461000    2.799000
     34          1           0        2.931000    3.054000    3.532000
     35          6           0        3.100000    1.708000    1.900000
     36          1           0        4.179000    1.792000    1.800000
     37          6           0        2.444000    0.884000    1.025000
     38          1           0        3.070000    0.394000    0.284000
     39          6           0        1.069000    0.675000    1.049000
     40          1           0        0.969000   -0.606000   -5.306000
 ---------------------------------------------------------------------
                    Distance matrix (angstroms):
                    1          2          3          4          5
     1  N    0.000000
     2  H    1.000070   0.000000
     3  H    0.999947   1.633074   0.000000
     4  C    1.443583   2.011169   2.011583   0.000000
     5  H    2.078939   2.470405   2.894904   1.093117   0.000000
     6  H    2.063431   2.881933   2.232891   1.092872   1.799668
     7  C    2.588659   2.672680   2.956258   1.569532   2.098917
     8  H    2.958791   2.692044   3.517249   2.200650   2.353466
     9  H    3.440945   3.665524   3.812302   2.131310   2.368905
    10  C    3.120396   3.206223   2.968118   2.584390   3.478062
    11  H    3.300287   3.677767   2.944134   2.714754   3.694536
    12  H    2.826710   2.721910   2.529712   2.830253   3.781275
    13  N    4.495629   4.400543   4.379087   3.906629   4.644444
    14  C    4.895491   4.522582   4.935066   4.454860   5.031000
    15  C    4.867265   4.283479   4.852758   4.844872   5.459876
    16  H    4.504193   3.952892   4.310333   4.740945   5.495056
    17  C    5.764635   5.019490   5.879002   5.817223   6.267654
    18  H    6.130744   5.300651   6.214836   6.410327   6.862647
    19  C    6.386950   5.655984   6.670130   6.194083   6.446245
    20  H    7.141381   6.335279   7.483587   7.026183   7.185261
    21  C    6.314324   5.734560   6.647035   5.814974   5.999655
    22  H    6.987937   6.433632   7.417077   6.361030   6.386990
    23  C    5.682709   5.282125   5.919464   5.020711   5.334888
    24  C    6.309637   6.100734   6.576573   5.342848   5.547224
    25  H    7.119468   6.840641   7.474804   6.151193   6.212606
    26  H    5.830199   5.732165   6.183212   4.704599   4.784193
    27  C    7.149739   7.057053   7.230392   6.175596   6.549907
    28  H    7.861870   7.672025   7.908955   7.006349   7.413194
    29  H    7.799225   7.789494   7.916676   6.693228   6.974672
    30  C    6.718989   6.763518   6.597724   5.826186   6.417512
    31  C    7.751520   7.900065   7.541145   6.831489   7.449939
    32  H    8.699111   8.820674   8.546212   7.714194   8.248356
    33  C    7.915020   8.173118   7.541141   7.107879   7.852518
    34  H    8.919773   9.213741   8.509310   8.112360   8.854270
    35  C    7.000698   7.291012   6.507196   6.368889   7.235269
    36  H    7.347346   7.712479   6.736874   6.836187   7.761685
    37  C    5.763792   5.980448   5.309456   5.193894   6.089843
    38  H    5.176819   5.440190   4.581428   4.829898   5.827850
    39  C    5.536472   5.600329   5.303832   4.821317   5.576581
    40  H    1.000211   1.633350   1.633091   2.011865   2.256504
                    6          7          8          9         10
     6  H    0.000000
     7  C    2.165991   0.000000
     8  H    3.064970   1.092246   0.000000
     9  H    2.377159   1.091314   1.732971   0.000000
    10  C    2.792216   1.600686   2.324646   2.202250   0.000000
    11  H    2.477502   2.195169   3.163753   2.513717   1.093719
    12  H    3.197105   2.200488   2.663074   3.084622   1.092923
    13  N    4.155062   2.557441   2.896642   2.844019   1.469585
    14  C    4.978305   3.025528   2.850926   3.447535   2.401657
    15  C    5.501260   3.693671   3.373691   4.414380   3.028480
    16  H    5.327692   3.855564   3.732131   4.713325   2.951407
    17  C    6.603689   4.695113   4.105917   5.391866   4.317344
    18  H    7.235813   5.466762   4.863600   6.264257   5.078752
    19  C    7.023369   4.933399   4.164568   5.421002   4.883890
    20  H    7.918291   5.849329   4.988214   6.344179   5.910689
    21  C    6.557580   4.393871   3.672239   4.626870   4.488094
    22  H    7.104600   4.954239   4.172726   5.008884   5.275052
    23  C    5.607091   3.488059   3.040618   3.605544   3.409407
    24  C    5.742698   3.801079   3.557671   3.461674   3.897043
    25  H    6.622522   4.649924   4.231473   4.282832   4.918205
    26  H    5.056711   3.263017   3.095676   2.691143   3.710454
    27  C    6.352646   4.664246   4.714729   4.254219   4.311728
    28  H    7.249719   5.462190   5.408015   5.187917   4.977874
    29  H    6.775110   5.252996   5.355240   4.642770   5.059296
    30  C    5.802398   4.453354   4.823336   4.129303   3.663247
    31  C    6.633376   5.583120   6.071794   5.162552   4.721935
    32  H    7.541611   6.414754   6.814570   5.906039   5.687311
    33  C    6.742121   6.067226   6.729848   5.732331   4.986664
    34  H    7.680144   7.122056   7.804034   6.749084   6.044374
    35  C    5.969138   5.488326   6.244744   5.348646   4.204900
    36  H    6.328197   6.152186   6.985498   6.075663   4.810842
    37  C    4.934053   4.259165   4.982889   4.279444   2.882064
    38  H    4.531867   4.154883   4.950611   4.382671   2.652090
    39  C    4.797158   3.564171   4.077816   3.521168   2.424269
    40  H    2.459295   3.405713   3.714373   4.128936   4.084398
                   11         12         13         14         15
    11  H    0.000000
    12  H    1.773932   0.000000
    13  N    2.174880   2.037173   0.000000
    14  C    3.362799   2.571807   1.363085   0.000000
    15  C    4.019407   2.628247   2.444565   1.440032   0.000000
    16  H    3.803109   2.215925   2.727924   2.211425   1.086956
    17  C    5.351187   3.902649   3.701562   2.456618   1.380963
    18  H    6.081376   4.478853   4.620193   3.466286   2.182283
    19  C    5.952700   4.738662   4.129106   2.771506   2.386156
    20  H    6.990861   5.707932   5.212598   3.856924   3.346832
    21  C    5.505413   4.656950   3.604127   2.373270   2.752407
    22  H    6.252749   5.563134   4.419388   3.319825   3.830412
    23  C    4.342170   3.795066   2.395310   1.428469   2.477020
    24  C    4.589555   4.611365   2.901791   2.584003   3.890191
    25  H    5.649443   5.577967   3.948906   3.419554   4.560784
    26  H    4.302739   4.555268   3.087946   3.061762   4.378398
    27  C    4.754248   5.086470   3.083488   3.156710   4.508995
    28  H    5.497279   5.600340   3.599196   3.390528   4.551406
    29  H    5.368331   5.938173   3.979662   4.181374   5.564245
    30  C    3.829085   4.447989   2.494236   3.146911   4.442450
    31  C    4.633776   5.513681   3.700227   4.464373   5.689229
    32  H    5.656324   6.498449   4.596878   5.186183   6.437448
    33  C    4.630744   5.689353   4.209019   5.195714   6.265004
    34  H    5.622849   6.727759   5.291177   6.253016   7.294070
    35  C    3.720834   4.765484   3.672251   4.806233   5.690260
    36  H    4.167342   5.250421   4.498756   5.667123   6.408263
    37  C    2.536228   3.412391   2.393029   3.595029   4.436161
    38  H    2.137694   2.927198   2.638394   3.841881   4.405246
    39  C    2.566325   3.118745   1.383498   2.466073   3.593038
    40  H    4.167184   3.819958   5.473694   5.863806   5.810803
                   16         17         18         19         20
    16  H    0.000000
    17  C    2.114397   0.000000
    18  H    2.488655   1.086525   0.000000
    19  C    3.362150   1.426842   2.165741   0.000000
    20  H    4.221324   2.138418   2.419303   1.086750   0.000000
    21  C    3.831511   2.436244   3.398500   1.370384   2.162298
    22  H    4.903678   3.440980   4.317014   2.167192   2.558140
    23  C    3.466113   2.865024   3.945964   2.404593   3.394386
    24  C    4.784131   4.378015   5.459486   3.779488   4.652248
    25  H    5.548655   4.757686   5.800633   3.852672   4.529824
    26  H    5.171252   4.977150   6.035195   4.429751   5.285937
    27  C    5.272742   5.161002   6.231200   4.774202   5.686383
    28  H    5.365425   5.010981   6.034229   4.578077   5.409737
    29  H    6.319294   6.201209   7.278221   5.711805   6.568667
    30  C    4.920087   5.416103   6.426601   5.435653   6.457793
    31  C    6.068746   6.676859   7.655401   6.725545   7.727752
    32  H    6.922889   7.292306   8.291042   7.174406   8.111761
    33  C    6.413768   7.387123   8.283719   7.665156   8.702559
    34  H    7.420983   8.390099   9.268901   8.660249   9.679730
    35  C    5.627535   6.930987   7.740140   7.438472   8.505406
    36  H    6.187637   7.683531   8.413267   8.314479   9.379699
    37  C    4.351139   5.732763   6.537629   6.304047   7.383299
    38  H    4.065788   5.761954   6.445597   6.528153   7.594312
    39  C    3.826896   4.795827   5.724617   5.144383   6.224713
    40  H    5.439210   6.629759   6.931715   7.212411   7.901100
                   21         22         23         24         25
    21  C    0.000000
    22  H    1.086740   0.000000
    23  C    1.354313   2.036462   0.000000
    24  C    2.491148   2.563706   1.516721   0.000000
    25  H    2.488559   2.100195   2.087863   1.092259   0.000000
    26  H    3.167669   3.157381   2.202934   1.091845   1.689093
    27  C    3.630654   3.807645   2.576222   1.564008   2.175041
    28  H    3.559424   3.738986   2.781196   2.160871   2.459947
    29  H    4.478957   4.450730   3.500205   2.182511   2.496974
    30  C    4.521331   4.979588   3.269691   2.705964   3.599428
    31  C    5.816412   6.211366   4.606144   3.901138   4.665419
    32  H    6.182717   6.425557   5.080464   4.182983   4.734621
    33  C    6.895329   7.412846   5.645500   5.128441   5.985151
    34  H    7.886756   8.366708   6.665422   6.082385   6.870613
    35  C    6.839845   7.513626   5.574877   5.362709   6.349066
    36  H    7.803717   8.524532   6.552883   6.414650   7.417751
    37  C    5.779083   6.532512   4.520980   4.546320   5.601349
    38  H    6.175486   7.017933   4.982626   5.233088   6.312943
    39  C    4.475412   5.171292   3.182113   3.169808   4.225567
    40  H    7.153934   7.766898   6.579300   7.155985   7.920457
                   26         27         28         29         30
    26  H    0.000000
    27  C    2.227593   0.000000
    28  H    3.086545   1.091987   0.000000
    29  H    2.508064   1.091589   1.779367   0.000000
    30  C    3.090942   1.563152   2.133765   2.126903   0.000000
    31  C    4.210891   2.509639   2.885665   2.585204   1.362347
    32  H    4.549863   2.658891   2.852417   2.394775   2.112883
    33  C    5.348961   3.852892   4.200152   3.976631   2.447168
    34  H    6.310178   4.712650   4.965997   4.689930   3.432403
    35  C    5.530113   4.363808   4.762886   4.735036   2.802849
    36  H    6.539924   5.450309   5.829889   5.802675   3.888632
    37  C    4.694184   3.883139   4.356732   4.482971   2.413137
    38  H    5.308344   4.796844   5.271519   5.456667   3.417578
    39  C    3.409954   2.648745   3.186532   3.397041   1.441677
    40  H    6.598362   8.044135   8.790150   8.641595   7.639349
                   31         32         33         34         35
    31  C    0.000000
    32  H    1.087196   0.000000
    33  C    1.417971   2.147582   0.000000
    34  H    2.205510   2.508622   1.087023   0.000000
    35  C    2.385878   3.353918   1.370879   2.122192   0.000000
    36  H    3.395851   4.282383   2.155477   2.479914   1.086875
    37  C    2.717326   3.800318   2.374220   3.351286   1.369283
    38  H    3.801867   4.885163   3.325675   4.200527   2.083015
    39  C    2.408514   3.395881   2.827956   3.910495   2.432334
    40  H    8.643748   9.582339   8.781615   9.765003   7.862709
                   36         37         38         39         40
    36  H    0.000000
    37  C    2.106019   0.000000
    38  H    2.341483   1.086764   0.000000
    39  C    3.388774   1.391000   2.160599   0.000000
    40  H    8.157802   6.669129   6.054940   6.483594   0.000000
 Stoichiometry    C17H21N2(1+)
 Framework group  C1[X(C17H21N2)]
 Deg. of freedom   114
 Full point group                 C1      NOp   1
 Largest Abelian subgroup         C1      NOp   1
 Largest concise Abelian subgroup C1      NOp   1
                         Standard orientation:                         
 ---------------------------------------------------------------------
 Center     Atomic      Atomic             Coordinates (Angstroms)
 Number     Number       Type             X           Y           Z
 ---------------------------------------------------------------------
      1          7           0       -3.256204    3.251366    0.095297
      2          1           0       -3.750606    2.437685   -0.210693
      3          1           0       -2.727109    3.625984   -0.666027
      4          6           0       -2.363578    2.894382    1.172197
      5          1           0       -2.937546    2.785125    2.096063
      6          1           0       -1.616535    3.686025    1.270161
      7          6           0       -1.596049    1.528221    1.083131
      8          1           0       -2.287919    0.695773    1.229234
      9          1           0       -0.944447    1.512207    1.958416
     10          6           0       -0.677141    1.524781   -0.227514
     11          1           0       -0.072839    2.436242   -0.210738
     12          1           0       -1.332655    1.560681   -1.101295
     13          7           0        0.077041    0.273889   -0.389257
     14          6           0       -0.669693   -0.857706   -0.530263
     15          6           0       -1.615007   -1.002990   -1.606816
     16          1           0       -1.754854   -0.221265   -2.348990
     17          6           0       -2.381203   -2.144842   -1.734000
     18          1           0       -3.121710   -2.294325   -2.514923
     19          6           0       -2.382160   -3.035053   -0.618922
     20          1           0       -3.101921   -3.848208   -0.660717
     21          6           0       -1.563618   -2.820989    0.459095
     22          1           0       -1.602024   -3.417909    1.366407
     23          6           0       -0.683497   -1.795426    0.547241
     24          6           0        0.282969   -1.715270    1.713414
     25          1           0        0.109039   -2.625667    2.291304
     26          1           0        0.037101   -0.945352    2.447513
     27          6           0        1.784459   -1.679541    1.277096
     28          1           0        1.979971   -2.582343    0.694722
     29          1           0        2.417749   -1.682754    2.166196
     30          6           0        2.312972   -0.494710    0.405148
     31          6           0        3.652994   -0.249088    0.404932
     32          1           0        4.314963   -0.956680    0.897990
     33          6           0        4.253881    0.791692   -0.347631
     34          1           0        5.330734    0.899716   -0.449298
     35          6           0        3.432781    1.577060   -1.114641
     36          1           0        3.813947    2.400083   -1.713509
     37          6           0        2.075783    1.399259   -1.071285
     38          1           0        1.490462    2.121350   -1.634349
     39          6           0        1.456043    0.380140   -0.355604
     40          1           0       -3.909294    3.937323    0.416791
 ---------------------------------------------------------------------
 Rotational constants (GHZ):           0.4414643           0.3216573           0.2292286
 Leave Link  202 at Sun Jul 18 13:28:47 2021, MaxMem=   104857600 cpu:               0.0 elap:               0.0
 (Enter /prod/apps/gaussian/g16b1/l301.exe)
 Standard basis: 6-31G(d) (6D, 7F)
 Ernie: Thresh=  0.10000D-02 Tol=  0.10000D-05 Strict=F.
 There are   327 symmetry adapted cartesian basis functions of A   symmetry.
 There are   327 symmetry adapted basis functions of A   symmetry.
   327 basis functions,   616 primitive gaussians,   327 cartesian basis functions
    68 alpha electrons       68 beta electrons
       nuclear repulsion energy      1425.6524150319 Hartrees.
 IExCor=  402 DFT=T Ex+Corr=B3LYP ExCW=0 ScaHFX=  0.200000
 ScaDFX=  0.800000  0.720000  1.000000  0.810000 ScalE2=  1.000000  1.000000
 IRadAn=      5 IRanWt=     -1 IRanGd=            0 ICorTp=0 IEmpDi=  4
 NAtoms=   40 NActive=   40 NUniq=   40 SFac= 1.00D+00 NAtFMM=   60 NAOKFM=F Big=F
 Integral buffers will be    131072 words long.
 Raffenetti 2 integral format.
 Two-electron integral symmetry is turned on.
 Using the following non-standard input for PCM:
 MSTModel=DFT cav MSTCharged
 --- end of non-standard input.
 MST model for solvation energy: B3LYP parametrization.
 MST cavity parameters:
 ISph   IAn     Re0     Alpha   Atom Type   QCorr
 ------------------------------------------------
   1      7     1.70     1.15      NH         T
   2      1     0.90     1.15      NH         T
   3      1     0.90     1.15      NH         T
   4      6     1.50     1.25      CH2        F
   5      1     1.20     1.25      CH2        F
   6      1     1.20     1.25      CH2        F
   7      6     1.50     1.25      CH2        F
   8      1     1.20     1.25      CH2        F
   9      1     1.20     1.25      CH2        F
  10      6     1.50     1.25      CH2        F
  11      1     1.20     1.25      CH2        F
  12      1     1.20     1.25      CH2        F
  13      7     1.40     1.25      N          F
  14      6     1.50     1.25      C          F
  15      6     1.50     1.25      CH         F
  16      1     1.20     1.25      CH         F
  17      6     1.50     1.25      CH         F
  18      1     1.20     1.25      CH         F
  19      6     1.50     1.25      CH         F
  20      1     1.20     1.25      CH         F
  21      6     1.50     1.25      CH         F
  22      1     1.20     1.25      CH         F
  23      6     1.50     1.25      C          F
  24      6     1.50     1.25      CH2        F
  25      1     1.20     1.25      CH2        F
  26      1     1.20     1.25      CH2        F
  27      6     1.50     1.25      CH2        F
  28      1     1.20     1.25      CH2        F
  29      1     1.20     1.25      CH2        F
  30      6     1.50     1.25      C          F
  31      6     1.50     1.25      CH         F
  32      1     1.20     1.25      CH         F
  33      6     1.50     1.25      CH         F
  34      1     1.20     1.25      CH         F
  35      6     1.50     1.25      CH         F
  36      1     1.20     1.25      CH         F
  37      6     1.50     1.25      CH         F
  38      1     1.20     1.25      CH         F
  39      6     1.50     1.25      C          F
  40      1     0.90     1.15      NH         T
 ------------------------------------------------------------------------------
 Polarizable Continuum Model (PCM)
 =================================
 Model                : PCM.
 Atomic radii         : MST.
 Polarization charges : Total charges.
 Charge compensation  : None.
 Solution method      : On-the-fly selection.
 Cavity type          : Scaled VdW (van der Waals Surface) (Alpha=1.250).
 Cavity algorithm     : GePol (No added spheres)
                        Default sphere list used, NSphG=   40.
                        Lebedev-Laikov grids with approx.  5.0 points / Ang**2.
                        Smoothing algorithm: York/Karplus (Gamma=1.0000).
                        Polarization charges: spherical gaussians, with
                                              point-specific exponents (IZeta= 3).
                        Self-potential: point-specific (ISelfS= 7).
                        Self-field    : sphere-specific E.n sum rule (ISelfD= 2).
 1st derivatives      : Analytical E(r).r(x)/FMM algorithm (CHGder, D1EAlg=3).
                        Cavity 1st derivative terms included.
 Solvent              : Water, Eps=  78.355300 Eps(inf)=   1.777849
 ------------------------------------------------------------------------------
 GePol: Number of generator spheres                  =      40
 GePol: Total number of spheres                      =      40
 GePol: Number of exposed spheres                    =      40 (100.00%)
 GePol: Number of points                             =    2675
 GePol: Average weight of points                     =       0.13
 GePol: Minimum weight of points                     =   0.30D-10
 GePol: Maximum weight of points                     =    0.21416
 GePol: Number of points with low weight             =     178
 GePol: Fraction of low-weight points (<1% of avg)   =       6.65%
 GePol: Cavity surface area                          =    335.270 Ang**2
 GePol: Cavity volume                                =    329.328 Ang**3
 PCM non-electrostatic energy =         0.0016031346 Hartrees.
 Nuclear repulsion after PCM non-electrostatic terms =     1425.6540181665 Hartrees.
 Leave Link  301 at Sun Jul 18 13:28:48 2021, MaxMem=   104857600 cpu:               0.3 elap:               0.1
 (Enter /prod/apps/gaussian/g16b1/l302.exe)
 NPDir=0 NMtPBC=     1 NCelOv=     1 NCel=       1 NClECP=     1 NCelD=      1
         NCelK=      1 NCelE2=     1 NClLst=     1 CellRange=     0.0.
 One-electron integrals computed using PRISM.
 One-electron integral symmetry used in STVInt
 NBasis=   327 RedAO= T EigKep=  3.90D-04  NBF=   327
 NBsUse=   327 1.00D-06 EigRej= -1.00D+00 NBFU=   327
 Precomputing XC quadrature grid using
 IXCGrd= 4 IRadAn=           5 IRanWt=          -1 IRanGd=           0 AccXCQ= 0.00D+00.
 Generated NRdTot=       0 NPtTot=           0 NUsed=           0 NTot=          32
 NSgBfM=   326   326   326   326   326 MxSgAt=    40 MxSgA2=    40.
 Leave Link  302 at Sun Jul 18 13:28:48 2021, MaxMem=   104857600 cpu:               2.1 elap:               0.5
 (Enter /prod/apps/gaussian/g16b1/l303.exe)
 DipDrv:  MaxL=1.
 Leave Link  303 at Sun Jul 18 13:28:48 2021, MaxMem=   104857600 cpu:               0.2 elap:               0.1
 (Enter /prod/apps/gaussian/g16b1/l401.exe)
 ExpMin= 1.61D-01 ExpMax= 4.17D+03 ExpMxC= 6.27D+02 IAcc=3 IRadAn=         5 AccDes= 0.00D+00
 Harris functional with IExCor=  402 and IRadAn=       5 diagonalized for initial guess.
 HarFok:  IExCor=  402 AccDes= 0.00D+00 IRadAn=         5 IDoV= 1 UseB2=F ITyADJ=14
 ICtDFT=  3500011 ScaDFX=  1.000000  1.000000  1.000000  1.000000
 FoFCou: FMM=F IPFlag=           0 FMFlag=      100000 FMFlg1=           0
         NFxFlg=           0 DoJE=T BraDBF=F KetDBF=T FulRan=T
         wScrn=  0.000000 ICntrl=       500 IOpCl=  0 I1Cent=   200000004 NGrid=           0
         NMat0=    1 NMatS0=      1 NMatT0=    0 NMatD0=    1 NMtDS0=    0 NMtDT0=    0
 Petite list used in FoFCou.
 Harris En= -769.730691136606    
 JPrj=0 DoOrth=F DoCkMO=F.
 Leave Link  401 at Sun Jul 18 13:28:51 2021, MaxMem=   104857600 cpu:              11.6 elap:               2.9
 (Enter /prod/apps/gaussian/g16b1/l502.exe)
 Integral symmetry usage will be decided dynamically.
 Closed shell SCF:
 Using DIIS extrapolation, IDIIS=  1040.
 NGot=   104857600 LenX=   104637967 LenY=   104530597
 Requested convergence on RMS density matrix=1.00D-08 within 128 cycles.
 Requested convergence on MAX density matrix=1.00D-06.
 Requested convergence on             energy=1.00D-06.
 No special actions if energy rises.
 Fock matrices will be formed incrementally for  20 cycles.

 Cycle   1  Pass 1  IDiag  1:
 FoFJK:  IHMeth= 1 ICntrl=       0 DoSepK=F KAlg= 0 I1Cent=           0 FoldK=F
 IRaf= 840000000 NMat=       1 IRICut=       1 DoRegI=T DoRafI=F ISym2E= 0 IDoP0=0 IntGTp=1.
 FoFCou: FMM=F IPFlag=           0 FMFlag=      100000 FMFlg1=           0
         NFxFlg=           0 DoJE=F BraDBF=F KetDBF=F FulRan=T
         wScrn=  0.000000 ICntrl=         0 IOpCl=  0 I1Cent=           0 NGrid=           0
         NMat0=    1 NMatS0=      1 NMatT0=    0 NMatD0=    1 NMtDS0=    0 NMtDT0=    0
 Symmetry not used in FoFCou.
 Inv3:  Mode=1 IEnd=    21466875.
 Iteration    1 A*A^-1 deviation from unit magnitude is 4.11D-15 for   2012.
 Iteration    1 A*A^-1 deviation from orthogonality  is 2.66D-15 for   2012   1148.
 Iteration    1 A^-1*A deviation from unit magnitude is 3.44D-15 for   1814.
 Iteration    1 A^-1*A deviation from orthogonality  is 8.73D-15 for   2176   2128.
 E= -769.375318941043    
 DIIS: error= 2.48D-02 at cycle   1 NSaved=   1.
 NSaved= 1 IEnMin= 1 EnMin= -769.375318941043     IErMin= 1 ErrMin= 2.48D-02
 ErrMax= 2.48D-02  0.00D+00 EMaxC= 1.00D-01 BMatC= 3.76D-01 BMatP= 3.76D-01
 IDIUse=3 WtCom= 7.52D-01 WtEn= 2.48D-01
 Coeff-Com:  0.100D+01
 Coeff-En:   0.100D+01
 Coeff:      0.100D+01
 Gap=     0.193 Goal=   None    Shift=    0.000
 GapD=    0.193 DampG=1.000 DampE=0.500 DampFc=0.5000 IDamp=-1.
 Damping current iteration by 5.00D-01
 RMSDP=4.13D-03 MaxDP=1.08D-01              OVMax= 1.82D-01

 Cycle   2  Pass 1  IDiag  1:
 RMSU=  2.01D-03    CP:  9.74D-01
 E= -769.572159500281     Delta-E=       -0.196840559238 Rises=F Damp=T
 DIIS: error= 6.89D-03 at cycle   2 NSaved=   2.
 NSaved= 2 IEnMin= 2 EnMin= -769.572159500281     IErMin= 2 ErrMin= 6.89D-03
 ErrMax= 6.89D-03  0.00D+00 EMaxC= 1.00D-01 BMatC= 2.45D-02 BMatP= 3.76D-01
 IDIUse=3 WtCom= 9.31D-01 WtEn= 6.89D-02
 Coeff-Com: -0.140D-01 0.101D+01
 Coeff-En:   0.000D+00 0.100D+01
 Coeff:     -0.131D-01 0.101D+01
 Gap=     0.174 Goal=   None    Shift=    0.000
 RMSDP=1.15D-03 MaxDP=4.25D-02 DE=-1.97D-01 OVMax= 1.46D-01

 Cycle   3  Pass 1  IDiag  1:
 RMSU=  1.14D-03    CP:  9.65D-01  9.93D-01
 E= -769.760417904666     Delta-E=       -0.188258404385 Rises=F Damp=F
 DIIS: error= 4.90D-03 at cycle   3 NSaved=   3.
 NSaved= 3 IEnMin= 3 EnMin= -769.760417904666     IErMin= 3 ErrMin= 4.90D-03
 ErrMax= 4.90D-03  0.00D+00 EMaxC= 1.00D-01 BMatC= 2.14D-02 BMatP= 2.45D-02
 IDIUse=3 WtCom= 9.51D-01 WtEn= 4.90D-02
 Coeff-Com: -0.560D-01 0.513D+00 0.543D+00
 Coeff-En:   0.000D+00 0.000D+00 0.100D+01
 Coeff:     -0.533D-01 0.488D+00 0.565D+00
 Gap=     0.187 Goal=   None    Shift=    0.000
 RMSDP=7.91D-04 MaxDP=3.89D-02 DE=-1.88D-01 OVMax= 9.06D-02

 Cycle   4  Pass 1  IDiag  1:
 RMSU=  6.03D-04    CP:  9.64D-01  1.06D+00  5.67D-01
 E= -769.776433044064     Delta-E=       -0.016015139398 Rises=F Damp=F
 DIIS: error= 2.75D-03 at cycle   4 NSaved=   4.
 NSaved= 4 IEnMin= 4 EnMin= -769.776433044064     IErMin= 4 ErrMin= 2.75D-03
 ErrMax= 2.75D-03  0.00D+00 EMaxC= 1.00D-01 BMatC= 6.31D-03 BMatP= 2.14D-02
 IDIUse=3 WtCom= 9.73D-01 WtEn= 2.75D-02
 Coeff-Com: -0.254D-01 0.105D+00 0.367D+00 0.553D+00
 Coeff-En:   0.000D+00 0.000D+00 0.267D+00 0.733D+00
 Coeff:     -0.247D-01 0.102D+00 0.364D+00 0.558D+00
 Gap=     0.177 Goal=   None    Shift=    0.000
 RMSDP=3.25D-04 MaxDP=1.60D-02 DE=-1.60D-02 OVMax= 3.34D-02

 Cycle   5  Pass 1  IDiag  1:
 RMSU=  1.01D-04    CP:  9.64D-01  1.05D+00  7.01D-01  5.55D-01
 E= -769.783134080637     Delta-E=       -0.006701036573 Rises=F Damp=F
 DIIS: error= 2.92D-04 at cycle   5 NSaved=   5.
 NSaved= 5 IEnMin= 5 EnMin= -769.783134080637     IErMin= 5 ErrMin= 2.92D-04
 ErrMax= 2.92D-04  0.00D+00 EMaxC= 1.00D-01 BMatC= 1.12D-04 BMatP= 6.31D-03
 IDIUse=3 WtCom= 9.97D-01 WtEn= 2.92D-03
 Coeff-Com: -0.745D-02 0.195D-01 0.127D+00 0.233D+00 0.628D+00
 Coeff-En:   0.000D+00 0.000D+00 0.000D+00 0.000D+00 0.100D+01
 Coeff:     -0.743D-02 0.194D-01 0.127D+00 0.232D+00 0.629D+00
 Gap=     0.177 Goal=   None    Shift=    0.000
 RMSDP=4.59D-05 MaxDP=1.69D-03 DE=-6.70D-03 OVMax= 3.56D-03

 Cycle   6  Pass 1  IDiag  1:
 RMSU=  3.43D-05    CP:  9.64D-01  1.05D+00  7.04D-01  5.83D-01  7.53D-01
 E= -769.783225127913     Delta-E=       -0.000091047276 Rises=F Damp=F
 DIIS: error= 1.53D-04 at cycle   6 NSaved=   6.
 NSaved= 6 IEnMin= 6 EnMin= -769.783225127913     IErMin= 6 ErrMin= 1.53D-04
 ErrMax= 1.53D-04  0.00D+00 EMaxC= 1.00D-01 BMatC= 1.94D-05 BMatP= 1.12D-04
 IDIUse=3 WtCom= 9.98D-01 WtEn= 1.53D-03
 Coeff-Com: -0.215D-02 0.285D-02 0.408D-01 0.821D-01 0.349D+00 0.527D+00
 Coeff-En:   0.000D+00 0.000D+00 0.000D+00 0.000D+00 0.106D+00 0.894D+00
 Coeff:     -0.215D-02 0.285D-02 0.408D-01 0.819D-01 0.349D+00 0.528D+00
 Gap=     0.177 Goal=   None    Shift=    0.000
 RMSDP=1.62D-05 MaxDP=4.39D-04 DE=-9.10D-05 OVMax= 1.30D-03

 Cycle   7  Pass 1  IDiag  1:
 RMSU=  7.68D-06    CP:  9.64D-01  1.05D+00  7.05D-01  5.86D-01  7.89D-01
                    CP:  6.04D-01
 E= -769.783244097367     Delta-E=       -0.000018969454 Rises=F Damp=F
 DIIS: error= 3.64D-05 at cycle   7 NSaved=   7.
 NSaved= 7 IEnMin= 7 EnMin= -769.783244097367     IErMin= 7 ErrMin= 3.64D-05
 ErrMax= 3.64D-05  0.00D+00 EMaxC= 1.00D-01 BMatC= 7.43D-07 BMatP= 1.94D-05
 IDIUse=1 WtCom= 1.00D+00 WtEn= 0.00D+00
 Coeff-Com: -0.642D-03 0.426D-03 0.131D-01 0.264D-01 0.136D+00 0.249D+00
 Coeff-Com:  0.576D+00
 Coeff:     -0.642D-03 0.426D-03 0.131D-01 0.264D-01 0.136D+00 0.249D+00
 Coeff:      0.576D+00
 Gap=     0.177 Goal=   None    Shift=    0.000
 RMSDP=3.86D-06 MaxDP=1.33D-04 DE=-1.90D-05 OVMax= 3.30D-04

 Cycle   8  Pass 1  IDiag  1:
 RMSU=  2.75D-06    CP:  9.64D-01  1.05D+00  7.05D-01  5.86D-01  7.90D-01
                    CP:  6.37D-01  6.93D-01
 E= -769.783244785625     Delta-E=       -0.000000688258 Rises=F Damp=F
 DIIS: error= 1.10D-05 at cycle   8 NSaved=   8.
 NSaved= 8 IEnMin= 8 EnMin= -769.783244785625     IErMin= 8 ErrMin= 1.10D-05
 ErrMax= 1.10D-05  0.00D+00 EMaxC= 1.00D-01 BMatC= 1.14D-07 BMatP= 7.43D-07
 IDIUse=1 WtCom= 1.00D+00 WtEn= 0.00D+00
 Coeff-Com:  0.620D-04-0.339D-03-0.324D-03-0.134D-02 0.102D-01 0.349D-01
 Coeff-Com:  0.297D+00 0.660D+00
 Coeff:      0.620D-04-0.339D-03-0.324D-03-0.134D-02 0.102D-01 0.349D-01
 Coeff:      0.297D+00 0.660D+00
 Gap=     0.177 Goal=   None    Shift=    0.000
 RMSDP=1.29D-06 MaxDP=3.65D-05 DE=-6.88D-07 OVMax= 1.01D-04

 Cycle   9  Pass 1  IDiag  1:
 RMSU=  6.62D-07    CP:  9.64D-01  1.05D+00  7.05D-01  5.86D-01  7.94D-01
                    CP:  6.39D-01  7.84D-01  7.56D-01
 E= -769.783244906097     Delta-E=       -0.000000120472 Rises=F Damp=F
 DIIS: error= 1.72D-06 at cycle   9 NSaved=   9.
 NSaved= 9 IEnMin= 9 EnMin= -769.783244906097     IErMin= 9 ErrMin= 1.72D-06
 ErrMax= 1.72D-06  0.00D+00 EMaxC= 1.00D-01 BMatC= 3.52D-09 BMatP= 1.14D-07
 IDIUse=1 WtCom= 1.00D+00 WtEn= 0.00D+00
 Coeff-Com:  0.518D-04-0.143D-03-0.634D-03-0.177D-02-0.163D-02 0.222D-02
 Coeff-Com:  0.839D-01 0.239D+00 0.679D+00
 Coeff:      0.518D-04-0.143D-03-0.634D-03-0.177D-02-0.163D-02 0.222D-02
 Coeff:      0.839D-01 0.239D+00 0.679D+00
 Gap=     0.177 Goal=   None    Shift=    0.000
 RMSDP=2.47D-07 MaxDP=7.58D-06 DE=-1.20D-07 OVMax= 1.64D-05

 Cycle  10  Pass 1  IDiag  1:
 RMSU=  1.84D-07    CP:  9.64D-01  1.05D+00  7.05D-01  5.86D-01  7.95D-01
                    CP:  6.40D-01  7.91D-01  7.93D-01  9.01D-01
 E= -769.783244909066     Delta-E=       -0.000000002970 Rises=F Damp=F
 DIIS: error= 6.47D-07 at cycle  10 NSaved=  10.
 NSaved=10 IEnMin=10 EnMin= -769.783244909066     IErMin=10 ErrMin= 6.47D-07
 ErrMax= 6.47D-07  0.00D+00 EMaxC= 1.00D-01 BMatC= 6.28D-10 BMatP= 3.52D-09
 IDIUse=1 WtCom= 1.00D+00 WtEn= 0.00D+00
 Coeff-Com:  0.197D-04-0.361D-04-0.254D-03-0.767D-03-0.165D-02-0.237D-02
 Coeff-Com:  0.114D-01 0.515D-01 0.339D+00 0.603D+00
 Coeff:      0.197D-04-0.361D-04-0.254D-03-0.767D-03-0.165D-02-0.237D-02
 Coeff:      0.114D-01 0.515D-01 0.339D+00 0.603D+00
 Gap=     0.177 Goal=   None    Shift=    0.000
 RMSDP=8.92D-08 MaxDP=3.02D-06 DE=-2.97D-09 OVMax= 5.98D-06

 Cycle  11  Pass 1  IDiag  1:
 RMSU=  5.25D-08    CP:  9.64D-01  1.05D+00  7.05D-01  5.86D-01  7.95D-01
                    CP:  6.40D-01  7.95D-01  8.02D-01  9.53D-01  7.80D-01
 E= -769.783244909718     Delta-E=       -0.000000000652 Rises=F Damp=F
 DIIS: error= 1.47D-07 at cycle  11 NSaved=  11.
 NSaved=11 IEnMin=11 EnMin= -769.783244909718     IErMin=11 ErrMin= 1.47D-07
 ErrMax= 1.47D-07  0.00D+00 EMaxC= 1.00D-01 BMatC= 2.67D-11 BMatP= 6.28D-10
 IDIUse=1 WtCom= 1.00D+00 WtEn= 0.00D+00
 Coeff-Com:  0.204D-05 0.851D-06-0.183D-04-0.938D-04-0.350D-03-0.101D-02
 Coeff-Com: -0.484D-02-0.715D-02 0.352D-01 0.171D+00 0.807D+00
 Coeff:      0.204D-05 0.851D-06-0.183D-04-0.938D-04-0.350D-03-0.101D-02
 Coeff:     -0.484D-02-0.715D-02 0.352D-01 0.171D+00 0.807D+00
 Gap=     0.177 Goal=   None    Shift=    0.000
 RMSDP=2.93D-08 MaxDP=8.04D-07 DE=-6.52D-10 OVMax= 3.14D-06

 Cycle  12  Pass 1  IDiag  1:
 RMSU=  1.74D-08    CP:  9.64D-01  1.05D+00  7.05D-01  5.86D-01  7.95D-01
                    CP:  6.40D-01  7.95D-01  8.04D-01  9.75D-01  8.44D-01
                    CP:  9.15D-01
 E= -769.783244909745     Delta-E=       -0.000000000027 Rises=F Damp=F
 DIIS: error= 6.21D-08 at cycle  12 NSaved=  12.
 NSaved=12 IEnMin=12 EnMin= -769.783244909745     IErMin=12 ErrMin= 6.21D-08
 ErrMax= 6.21D-08  0.00D+00 EMaxC= 1.00D-01 BMatC= 5.19D-12 BMatP= 2.67D-11
 IDIUse=1 WtCom= 1.00D+00 WtEn= 0.00D+00
 Coeff-Com: -0.253D-06 0.283D-05 0.104D-04 0.530D-05-0.545D-04-0.365D-03
 Coeff-Com: -0.341D-02-0.741D-02-0.552D-02 0.482D-01 0.433D+00 0.535D+00
 Coeff:     -0.253D-06 0.283D-05 0.104D-04 0.530D-05-0.545D-04-0.365D-03
 Coeff:     -0.341D-02-0.741D-02-0.552D-02 0.482D-01 0.433D+00 0.535D+00
 Gap=     0.177 Goal=   None    Shift=    0.000
 RMSDP=9.69D-09 MaxDP=3.11D-07 DE=-2.68D-11 OVMax= 1.07D-06

 Error on total polarization charges =  0.01975
 SCF Done:  E(RB3LYP) =  -769.783244910     A.U. after   12 cycles
            NFock= 12  Conv=0.97D-08     -V/T= 2.0094
 KE= 7.625843855392D+02 PE=-4.617813088318D+03 EE= 1.659791439703D+03
 Leave Link  502 at Sun Jul 18 13:30:15 2021, MaxMem=   104857600 cpu:             336.5 elap:              84.2
 (Enter /prod/apps/gaussian/g16b1/l601.exe)
 Copying SCF densities to generalized density rwf, IOpCl= 0 IROHF=0.

 **********************************************************************

            Population analysis using the SCF Density.

 **********************************************************************

 Orbital symmetries:
       Occupied  (A) (A) (A) (A) (A) (A) (A) (A) (A) (A) (A) (A)
                 (A) (A) (A) (A) (A) (A) (A) (A) (A) (A) (A) (A)
                 (A) (A) (A) (A) (A) (A) (A) (A) (A) (A) (A) (A)
                 (A) (A) (A) (A) (A) (A) (A) (A) (A) (A) (A) (A)
                 (A) (A) (A) (A) (A) (A) (A) (A) (A) (A) (A) (A)
                 (A) (A) (A) (A) (A) (A) (A) (A)
       Virtual   (A) (A) (A) (A) (A) (A) (A) (A) (A) (A) (A) (A)
                 (A) (A) (A) (A) (A) (A) (A) (A) (A) (A) (A) (A)
                 (A) (A) (A) (A) (A) (A) (A) (A) (A) (A) (A) (A)
                 (A) (A) (A) (A) (A) (A) (A) (A) (A) (A) (A) (A)
                 (A) (A) (A) (A) (A) (A) (A) (A) (A) (A) (A) (A)
                 (A) (A) (A) (A) (A) (A) (A) (A) (A) (A) (A) (A)
                 (A) (A) (A) (A) (A) (A) (A) (A) (A) (A) (A) (A)
                 (A) (A) (A) (A) (A) (A) (A) (A) (A) (A) (A) (A)
                 (A) (A) (A) (A) (A) (A) (A) (A) (A) (A) (A) (A)
                 (A) (A) (A) (A) (A) (A) (A) (A) (A) (A) (A) (A)
                 (A) (A) (A) (A) (A) (A) (A) (A) (A) (A) (A) (A)
                 (A) (A) (A) (A) (A) (A) (A) (A) (A) (A) (A) (A)
                 (A) (A) (A) (A) (A) (A) (A) (A) (A) (A) (A) (A)
                 (A) (A) (A) (A) (A) (A) (A) (A) (A) (A) (A) (A)
                 (A) (A) (A) (A) (A) (A) (A) (A) (A) (A) (A) (A)
                 (A) (A) (A) (A) (A) (A) (A) (A) (A) (A) (A) (A)
                 (A) (A) (A) (A) (A) (A) (A) (A) (A) (A) (A) (A)
                 (A) (A) (A) (A) (A) (A) (A) (A) (A) (A) (A) (A)
                 (A) (A) (A) (A) (A) (A) (A) (A) (A) (A) (A) (A)
                 (A) (A) (A) (A) (A) (A) (A) (A) (A) (A) (A) (A)
                 (A) (A) (A) (A) (A) (A) (A) (A) (A) (A) (A) (A)
                 (A) (A) (A) (A) (A) (A) (A)
 The electronic state is 1-A.
 Alpha  occ. eigenvalues --  -14.44932 -14.34447 -10.24710 -10.22673 -10.22657
 Alpha  occ. eigenvalues --  -10.22598 -10.20310 -10.19420 -10.19294 -10.19275
 Alpha  occ. eigenvalues --  -10.19190 -10.19174 -10.19077 -10.18786 -10.18272
 Alpha  occ. eigenvalues --  -10.18059 -10.18055 -10.17944 -10.17701  -1.02063
 Alpha  occ. eigenvalues --   -0.96446  -0.85831  -0.84637  -0.79401  -0.78562
 Alpha  occ. eigenvalues --   -0.75980  -0.75387  -0.72693  -0.71424  -0.68048
 Alpha  occ. eigenvalues --   -0.65228  -0.63458  -0.60774  -0.60109  -0.59175
 Alpha  occ. eigenvalues --   -0.58638  -0.57881  -0.56890  -0.52407  -0.50647
 Alpha  occ. eigenvalues --   -0.50002  -0.48041  -0.47363  -0.47018  -0.45994
 Alpha  occ. eigenvalues --   -0.45012  -0.43875  -0.43334  -0.42617  -0.41501
 Alpha  occ. eigenvalues --   -0.40596  -0.40017  -0.39179  -0.38241  -0.37603
 Alpha  occ. eigenvalues --   -0.36995  -0.36083  -0.35491  -0.35102  -0.34802
 Alpha  occ. eigenvalues --   -0.33743  -0.33621  -0.32067  -0.27653  -0.25362
 Alpha  occ. eigenvalues --   -0.24701  -0.23941  -0.18996
 Alpha virt. eigenvalues --   -0.01287  -0.00295   0.00295   0.01003   0.04932
 Alpha virt. eigenvalues --    0.09220   0.09777   0.10438   0.10700   0.11426
 Alpha virt. eigenvalues --    0.11612   0.12344   0.13189   0.13510   0.14199
 Alpha virt. eigenvalues --    0.14859   0.15307   0.16286   0.16934   0.17207
 Alpha virt. eigenvalues --    0.17833   0.18214   0.18736   0.19045   0.19665
 Alpha virt. eigenvalues --    0.19799   0.21514   0.21648   0.22257   0.22852
 Alpha virt. eigenvalues --    0.23392   0.24204   0.26012   0.26534   0.28118
 Alpha virt. eigenvalues --    0.29713   0.32566   0.32611   0.34570   0.34610
 Alpha virt. eigenvalues --    0.35541   0.36674   0.38131   0.41312   0.46760
 Alpha virt. eigenvalues --    0.48054   0.49323   0.49541   0.51025   0.51505
 Alpha virt. eigenvalues --    0.51941   0.52825   0.52938   0.53434   0.53868
 Alpha virt. eigenvalues --    0.54355   0.55450   0.56005   0.57185   0.58288
 Alpha virt. eigenvalues --    0.58749   0.59162   0.59551   0.59742   0.61003
 Alpha virt. eigenvalues --    0.61391   0.61750   0.61908   0.62096   0.62870
 Alpha virt. eigenvalues --    0.63133   0.63444   0.65095   0.65867   0.66954
 Alpha virt. eigenvalues --    0.68144   0.69069   0.70605   0.70705   0.71916
 Alpha virt. eigenvalues --    0.72460   0.74651   0.74833   0.78103   0.78607
 Alpha virt. eigenvalues --    0.79199   0.80852   0.82280   0.83615   0.83909
 Alpha virt. eigenvalues --    0.84198   0.84712   0.84722   0.84898   0.85136
 Alpha virt. eigenvalues --    0.85487   0.86371   0.86543   0.87452   0.88062
 Alpha virt. eigenvalues --    0.89807   0.90705   0.91324   0.91651   0.93859
 Alpha virt. eigenvalues --    0.94006   0.94226   0.95504   0.95961   0.96698
 Alpha virt. eigenvalues --    0.97555   0.98605   0.99570   1.00682   1.02374
 Alpha virt. eigenvalues --    1.03075   1.03349   1.04866   1.07068   1.07516
 Alpha virt. eigenvalues --    1.09142   1.11561   1.12021   1.14064   1.16343
 Alpha virt. eigenvalues --    1.16875   1.19904   1.20243   1.21630   1.23079
 Alpha virt. eigenvalues --    1.23231   1.25348   1.27674   1.29324   1.31516
 Alpha virt. eigenvalues --    1.34446   1.35745   1.36747   1.39053   1.41065
 Alpha virt. eigenvalues --    1.41955   1.43862   1.46650   1.49201   1.49541
 Alpha virt. eigenvalues --    1.50816   1.50914   1.52834   1.53748   1.55713
 Alpha virt. eigenvalues --    1.58404   1.59666   1.64084   1.65891   1.67638
 Alpha virt. eigenvalues --    1.69350   1.72720   1.73653   1.76616   1.77711
 Alpha virt. eigenvalues --    1.78162   1.79711   1.80319   1.82137   1.83574
 Alpha virt. eigenvalues --    1.84024   1.85403   1.86971   1.87563   1.90009
 Alpha virt. eigenvalues --    1.91255   1.91734   1.92810   1.93416   1.95649
 Alpha virt. eigenvalues --    1.97066   1.97961   1.99510   1.99684   2.00743
 Alpha virt. eigenvalues --    2.02098   2.03312   2.03989   2.07713   2.09061
 Alpha virt. eigenvalues --    2.09907   2.13355   2.14133   2.15673   2.16838
 Alpha virt. eigenvalues --    2.20009   2.20358   2.20874   2.21819   2.23501
 Alpha virt. eigenvalues --    2.24456   2.26404   2.26875   2.27660   2.29653
 Alpha virt. eigenvalues --    2.31442   2.32745   2.33399   2.34360   2.35757
 Alpha virt. eigenvalues --    2.36185   2.38962   2.40397   2.40439   2.42450
 Alpha virt. eigenvalues --    2.43828   2.47604   2.49654   2.55566   2.56579
 Alpha virt. eigenvalues --    2.58406   2.59583   2.61423   2.62060   2.63739
 Alpha virt. eigenvalues --    2.64843   2.66410   2.66947   2.70038   2.73625
 Alpha virt. eigenvalues --    2.74236   2.75793   2.76923   2.78597   2.81314
 Alpha virt. eigenvalues --    2.82429   2.82749   2.87300   2.90003   2.99423
 Alpha virt. eigenvalues --    3.01010   3.16990   3.22326   3.40366   3.43466
 Alpha virt. eigenvalues --    3.76941   4.08681   4.09933   4.10368   4.12887
 Alpha virt. eigenvalues --    4.14046   4.14973   4.19122   4.23505   4.30980
 Alpha virt. eigenvalues --    4.33806   4.37716   4.41546   4.41997   4.44522
 Alpha virt. eigenvalues --    4.48754   4.53418   4.73232   4.76895
          Condensed to atoms (all electrons):
               1          2          3          4          5          6
     1  N    6.667068   0.302205   0.305559   0.231239  -0.037008  -0.041426
     2  H    0.302205   0.274777  -0.010474  -0.022584  -0.000786   0.004088
     3  H    0.305559  -0.010474   0.269872  -0.020047   0.003497  -0.004845
     4  C    0.231239  -0.022584  -0.020047   5.022989   0.386598   0.388925
     5  H   -0.037008  -0.000786   0.003497   0.386598   0.500805  -0.022803
     6  H   -0.041426   0.004088  -0.004845   0.388925  -0.022803   0.500092
     7  C   -0.036770  -0.002065  -0.002430   0.346713  -0.035653  -0.034265
     8  H   -0.002544   0.002907  -0.000077  -0.033817  -0.002952   0.004155
     9  H    0.003558  -0.000056  -0.000004  -0.027564  -0.001963  -0.004460
    10  C   -0.002490  -0.000236   0.002599  -0.041376   0.003577  -0.004276
    11  H   -0.000524   0.000098   0.000294  -0.000298   0.000031   0.004111
    12  H    0.002569   0.000481   0.001200  -0.003733  -0.000115  -0.000177
    13  N   -0.000024  -0.000033  -0.000049   0.003503  -0.000095   0.000019
    14  C   -0.000011   0.000015   0.000007   0.000056   0.000011  -0.000000
    15  C   -0.000013   0.000086  -0.000002  -0.000035   0.000002  -0.000002
    16  H   -0.000004   0.000011  -0.000009  -0.000002   0.000000   0.000000
    17  C   -0.000001   0.000007  -0.000000  -0.000004  -0.000000  -0.000000
    18  H   -0.000000   0.000000   0.000000   0.000000  -0.000000   0.000000
    19  C   -0.000000  -0.000000   0.000000   0.000000  -0.000000   0.000000
    20  H    0.000000  -0.000000   0.000000  -0.000000   0.000000  -0.000000
    21  C    0.000000  -0.000001   0.000000   0.000006  -0.000000  -0.000000
    22  H   -0.000000   0.000000  -0.000000  -0.000000  -0.000000  -0.000000
    23  C    0.000001  -0.000003  -0.000000  -0.000012   0.000004  -0.000002
    24  C   -0.000000  -0.000000   0.000000   0.000024   0.000000  -0.000000
    25  H    0.000000   0.000000   0.000000  -0.000000  -0.000000   0.000000
    26  H    0.000000   0.000000  -0.000000  -0.000006  -0.000001   0.000001
    27  C   -0.000000  -0.000000  -0.000000  -0.000001   0.000000   0.000000
    28  H   -0.000000   0.000000  -0.000000  -0.000000   0.000000  -0.000000
    29  H   -0.000000   0.000000  -0.000000   0.000000  -0.000000   0.000000
    30  C    0.000000  -0.000000  -0.000000  -0.000004   0.000000  -0.000000
    31  C    0.000000   0.000000   0.000000   0.000000  -0.000000   0.000000
    32  H   -0.000000  -0.000000  -0.000000  -0.000000  -0.000000  -0.000000
    33  C   -0.000000  -0.000000   0.000000   0.000000  -0.000000   0.000000
    34  H   -0.000000   0.000000   0.000000  -0.000000   0.000000   0.000000
    35  C    0.000000  -0.000000  -0.000000  -0.000000   0.000000  -0.000000
    36  H   -0.000000   0.000000   0.000000   0.000000  -0.000000   0.000000
    37  C    0.000000  -0.000000   0.000000  -0.000029   0.000000  -0.000017
    38  H    0.000000  -0.000000  -0.000001   0.000002  -0.000000  -0.000003
    39  C    0.000001   0.000000   0.000001  -0.000108   0.000001  -0.000010
    40  H    0.308255  -0.010241  -0.010396  -0.019108  -0.005015  -0.000819
               7          8          9         10         11         12
     1  N   -0.036770  -0.002544   0.003558  -0.002490  -0.000524   0.002569
     2  H   -0.002065   0.002907  -0.000056  -0.000236   0.000098   0.000481
     3  H   -0.002430  -0.000077  -0.000004   0.002599   0.000294   0.001200
     4  C    0.346713  -0.033817  -0.027564  -0.041376  -0.000298  -0.003733
     5  H   -0.035653  -0.002952  -0.001963   0.003577   0.000031  -0.000115
     6  H   -0.034265   0.004155  -0.004460  -0.004276   0.004111  -0.000177
     7  C    5.103688   0.375580   0.368672   0.349231  -0.034843  -0.053631
     8  H    0.375580   0.534588  -0.036563  -0.023671   0.003351  -0.003870
     9  H    0.368672  -0.036563   0.543553  -0.031315  -0.004000   0.004821
    10  C    0.349231  -0.023671  -0.031315   4.944457   0.370670   0.374353
    11  H   -0.034843   0.003351  -0.004000   0.370670   0.529907  -0.033104
    12  H   -0.053631  -0.003870   0.004821   0.374353  -0.033104   0.599951
    13  N   -0.059222  -0.004185   0.001838   0.314315  -0.026124  -0.050553
    14  C   -0.000771   0.005112  -0.001017  -0.048328   0.004462  -0.007363
    15  C   -0.001044   0.000560   0.000082  -0.006599   0.000143   0.006907
    16  H    0.000210   0.000037  -0.000008  -0.000311  -0.000081   0.001861
    17  C   -0.000007  -0.000120   0.000004   0.000480  -0.000004  -0.000207
    18  H   -0.000002  -0.000002   0.000000   0.000000  -0.000000   0.000022
    19  C    0.000006   0.000020  -0.000001  -0.000023  -0.000000   0.000008
    20  H   -0.000000  -0.000001   0.000000   0.000000   0.000000  -0.000000
    21  C   -0.000219   0.000183   0.000017  -0.000216   0.000002   0.000070
    22  H   -0.000006  -0.000003  -0.000002   0.000007  -0.000000  -0.000000
[...]
     7  C    1.019176  -2.785324   1.113186   0.035371  -0.172026  -0.004265
     8  H   -0.250337   0.263572  -0.006099  -0.011264  -0.037530  -0.000266
     9  H   -0.201400   0.400252  -0.097737  -0.012145  -0.005744  -0.000985
    10  C   -1.617871   0.631358  -0.829753   0.107571   0.059539   0.016787
    11  H   -0.438655  -0.689928   0.063021   0.041957  -0.022289   0.001085
    12  H    0.107390   0.762629  -0.249879  -0.159228   0.066044   0.011387
    13  N   13.275695  -3.481289   2.444835  -0.285372  -0.515560  -0.011458
    14  C   -3.481289  36.086599 -10.578636   0.898289  -1.413876   0.558874
    15  C    2.444835 -10.578636  20.173634  -1.968092  -2.537043   0.070022
    16  H   -0.285372   0.898289  -1.968092   2.749669   0.332589  -0.101942
    17  C   -0.515560  -1.413876  -2.537043   0.332589  11.779318  -0.930718
    18  H   -0.011458   0.558874   0.070022  -0.101942  -0.930718   1.803389
    19  C    0.427151  -0.128533   1.683435  -0.264222  -3.092062   0.461510
    20  H   -0.014383  -0.305078   0.021852  -0.014177   0.548087  -0.052042
    21  C   -0.490958  -4.324910  -2.642403   0.052805   1.848121   0.004300
    22  H    0.006756   0.438867   0.088007   0.005938  -0.212579  -0.012660
    23  C   -0.990750   0.607221  -3.359069   0.296948  -0.527789  -0.253890
    24  C   -0.705356   1.886100  -1.671259   0.051266   1.296162  -0.011565
    25  H   -0.022082  -0.050627  -0.080590  -0.000999   0.011506   0.001282
    26  H   -0.114582   0.083806   0.012887   0.001192   0.041275  -0.001511
    27  C   -0.345586  -1.967732   0.221360   0.006119  -0.071943  -0.004526
    28  H    0.026580  -0.112089   0.084985  -0.000155  -0.017935  -0.000638
    29  H    0.059537  -0.054198  -0.011352  -0.001111  -0.003204  -0.000234
    30  C   -0.555456   0.629676  -0.194464  -0.070597   0.014868  -0.001265
    31  C   -0.016978  -0.194309  -0.142196   0.005451   0.121488   0.003107
    32  H    0.012624   0.002373  -0.013264   0.000823   0.005223   0.000109
    33  C    0.165901   0.371922  -0.134065  -0.003851  -0.035420  -0.000636
    34  H   -0.003834  -0.011958   0.001215   0.000154  -0.001137  -0.000048
    35  C    0.085910  -0.109935   0.201145   0.008502   0.087501   0.001411
    36  H   -0.008168   0.015879  -0.006703  -0.000442   0.002714   0.000153
    37  C    0.432298   1.376588   0.021997  -0.077620  -0.167608  -0.009270
    38  H   -0.345093  -0.139671   0.081469   0.001571   0.013940  -0.001635
    39  C   -0.363648 -10.999991   2.892316   0.108669  -0.660618   0.006447
    40  H    0.005318  -0.003388   0.000584   0.001505  -0.002875   0.000194
              19         20         21         22         23         24
     1  N    0.001968   0.000001   0.001411   0.000059  -0.006593  -0.002056
     2  H    0.000509  -0.000011  -0.002790  -0.000019  -0.001952   0.000589
     3  H    0.003412  -0.000042   0.000066  -0.000063  -0.004801  -0.000506
     4  C   -0.017690   0.000406  -0.008867  -0.000646   0.007082   0.023651
     5  H    0.000582   0.000062  -0.000326   0.000059  -0.008912  -0.001095
     6  H   -0.002594  -0.000037   0.000628  -0.000026   0.004376   0.006679
     7  C    0.153771   0.000861  -0.190422  -0.002084   0.075564  -0.229672
     8  H    0.005156  -0.003373   0.060906  -0.001556   0.038510   0.027614
     9  H    0.016548  -0.000505  -0.022216   0.001231  -0.029944   0.008238
    10  C   -0.025798  -0.000258   0.117300   0.003254  -0.056337  -0.100307
    11  H    0.008776   0.000034   0.005842   0.000650   0.051380  -0.045429
    12  H   -0.043041   0.001514   0.009790  -0.001579   0.033269   0.055441
    13  N    0.427151  -0.014383  -0.490958   0.006756  -0.990750  -0.705356
    14  C   -0.128533  -0.305078  -4.324910   0.438867   0.607221   1.886100
    15  C    1.683435   0.021852  -2.642403   0.088007  -3.359069  -1.671259
    16  H   -0.264222  -0.014177   0.052805   0.005938   0.296948   0.051266
    17  C   -3.092062   0.548087   1.848121  -0.212579  -0.527789   1.296162
    18  H    0.461510  -0.052042   0.004300  -0.012660  -0.253890  -0.011565
    19  C   10.330682  -0.767989  -1.800952   0.038124  -0.963772  -1.296534
    20  H   -0.767989   1.686528   0.092675  -0.069106   0.256868   0.087775
    21  C   -1.800952   0.092675  17.917774  -1.265908  -5.410131   0.338298
    22  H    0.038124  -0.069106  -1.265908   1.948776   0.788894  -0.130735
    23  C   -0.963772   0.256868  -5.410131   0.788894  17.313642  -1.310075
    24  C   -1.296534   0.087775   0.338298  -0.130735  -1.310075   9.465863
    25  H    0.095813   0.002507   0.299854  -0.035129  -0.150073  -0.428658
    26  H   -0.094405   0.002745  -0.008392   0.004992  -0.129346   0.597717
    27  C    0.286898   0.002586   0.580930  -0.006763  -0.176698  -0.706649
    28  H    0.008102  -0.001681  -0.075212  -0.005521   0.011254  -0.128748
    29  H    0.012027   0.000050   0.007846   0.005124   0.144524  -0.159732
    30  C   -0.122546   0.008860   0.236121  -0.034378  -0.188370   0.323986
    31  C   -0.076296  -0.000906   0.254011  -0.011502  -0.383866   0.227776
    32  H   -0.005478  -0.000015   0.008630  -0.000860  -0.023099  -0.003213
    33  C    0.020352   0.000307   0.043104  -0.000970   0.106610  -0.487185
    34  H    0.000771   0.000014  -0.000479   0.000028   0.004080  -0.000508
    35  C   -0.017165  -0.000354  -0.024558  -0.000181  -0.268999   0.374295
    36  H   -0.001047  -0.000021   0.001055  -0.000024  -0.002264   0.004288
    37  C    0.128713   0.001940  -0.278971   0.006056   0.419521  -0.452845
    38  H    0.011484  -0.000052  -0.020093   0.000908  -0.057011   0.012472
    39  C    0.373665  -0.023724   0.057817   0.065447  -0.597217  -1.679978
    40  H   -0.000622   0.000014   0.000099   0.000005   0.001518  -0.000188
              25         26         27         28         29         30
     1  N   -0.000040   0.000900  -0.000853   0.000000  -0.000112  -0.000994
     2  H   -0.000014  -0.000058   0.000319   0.000024   0.000015   0.000124
     3  H    0.000052   0.000301  -0.000320   0.000060  -0.000047  -0.002542
     4  C    0.000019   0.000967  -0.020905  -0.000714   0.000620  -0.014873
     5  H   -0.000104   0.001770  -0.001576   0.000003  -0.000092  -0.000473
     6  H   -0.000083   0.001173  -0.001542  -0.000008   0.000181   0.000942
     7  C   -0.002210  -0.051361   0.021340   0.004559   0.004805   0.045114
     8  H    0.003639   0.006942  -0.009296   0.000351   0.000642   0.022801
     9  H    0.006513  -0.021892   0.026961  -0.001076   0.000816   0.021319
    10  C   -0.005347   0.083683  -0.093922  -0.002572   0.014646  -0.153977
    11  H    0.001049  -0.001256   0.004559   0.001479  -0.000602  -0.133937
    12  H   -0.000430   0.000703  -0.028101  -0.004111   0.001115  -0.046770
    13  N   -0.022082  -0.114582  -0.345586   0.026580   0.059537  -0.555456
    14  C   -0.050627   0.083806  -1.967732  -0.112089  -0.054198   0.629676
    15  C   -0.080590   0.012887   0.221360   0.084985  -0.011352  -0.194464
    16  H   -0.000999   0.001192   0.006119  -0.000155  -0.001111  -0.070597
    17  C    0.011506   0.041275  -0.071943  -0.017935  -0.003204   0.014868
    18  H    0.001282  -0.001511  -0.004526  -0.000638  -0.000234  -0.001265
    19  C    0.095813  -0.094405   0.286898   0.008102   0.012027  -0.122546
    20  H    0.002507   0.002745   0.002586  -0.001681   0.000050   0.008860
    21  C    0.299854  -0.008392   0.580930  -0.075212   0.007846   0.236121
    22  H   -0.035129   0.004992  -0.006763  -0.005521   0.005124  -0.034378
    23  C   -0.150073  -0.129346  -0.176698   0.011254   0.144524  -0.188370
    24  C   -0.428658   0.597717  -0.706649  -0.128748  -0.159732   0.323986
    25  H    1.530365  -0.300362   0.296724  -0.049046  -0.013046  -0.035335
    26  H   -0.300362   1.277390  -0.382963   0.050103  -0.035292   0.192044
    27  C    0.296724  -0.382963  11.286726   0.252044  -0.273622  -0.057003
    28  H   -0.049046   0.050103   0.252044   1.082043  -0.212537   0.056549
    29  H   -0.013046  -0.035292  -0.273622  -0.212537   1.212612   0.251398
    30  C   -0.035335   0.192044  -0.057003   0.056549   0.251398  22.677131
    31  C    0.057421  -0.010584  -1.976476  -0.033706  -0.033192 -11.259764
    32  H   -0.000517   0.000991  -0.186785  -0.037357  -0.009635   1.227916
    33  C   -0.011958  -0.029921  -0.316985  -0.001434   0.045986   3.283893
    34  H    0.000266  -0.000290   0.071849  -0.000433  -0.001725   0.037652
    35  C    0.013634   0.029066   0.192008   0.015514  -0.028854  -4.838278
    36  H    0.000053   0.000011  -0.019277   0.000802   0.000250  -0.035505
    37  C   -0.036590   0.015298   0.330864   0.002602   0.019447   6.176651
    38  H    0.001310   0.002211  -0.015061  -0.002868  -0.002062  -0.814574
    39  C    0.043680  -0.152998  -1.248469   0.014319   0.080574 -10.483830
    40  H   -0.000002  -0.000090   0.000040  -0.000010   0.000002   0.000024
              31         32         33         34         35         36
     1  N   -0.000429  -0.000010  -0.000294  -0.000017   0.000303  -0.000011
     2  H    0.000106   0.000001  -0.000169  -0.000004   0.000100  -0.000016
     3  H    0.002472   0.000050  -0.001368  -0.000023   0.005432   0.000033
     4  C    0.003417   0.000207  -0.005408  -0.000167   0.017635   0.001142
     5  H    0.000712   0.000035  -0.000314  -0.000006  -0.000052   0.000049
     6  H    0.001041  -0.000046  -0.000686   0.000021   0.003875   0.000138
     7  C   -0.033838  -0.002801   0.005483   0.000679  -0.091499  -0.000490
     8  H   -0.005162  -0.000430   0.004066   0.000109  -0.002296   0.000246
     9  H   -0.004339  -0.000458   0.004451   0.000014  -0.015662   0.000435
    10  C   -0.017020   0.018556   0.219175  -0.001487  -0.833916   0.050051
    11  H   -0.002223   0.002222   0.003775  -0.000426   0.108947  -0.001740
    12  H   -0.048789   0.000509   0.022088  -0.000699   0.007390   0.005332
    13  N   -0.016978   0.012624   0.165901  -0.003834   0.085910  -0.008168
    14  C   -0.194309   0.002373   0.371922  -0.011958  -0.109935   0.015879
    15  C   -0.142196  -0.013264  -0.134065   0.001215   0.201145  -0.006703
    16  H    0.005451   0.000823  -0.003851   0.000154   0.008502  -0.000442
    17  C    0.121488   0.005223  -0.035420  -0.001137   0.087501   0.002714
    18  H    0.003107   0.000109  -0.000636  -0.000048   0.001411   0.000153
    19  C   -0.076296  -0.005478   0.020352   0.000771  -0.017165  -0.001047
    20  H   -0.000906  -0.000015   0.000307   0.000014  -0.000354  -0.000021
    21  C    0.254011   0.008630   0.043104  -0.000479  -0.024558   0.001055
    22  H   -0.011502  -0.000860  -0.000970   0.000028  -0.000181  -0.000024
    23  C   -0.383866  -0.023099   0.106610   0.004080  -0.268999  -0.002264
    24  C    0.227776  -0.003213  -0.487185  -0.000508   0.374295   0.004288
    25  H    0.057421  -0.000517  -0.011958   0.000266   0.013634   0.000053
    26  H   -0.010584   0.000991  -0.029921  -0.000290   0.029066   0.000011
    27  C   -1.976476  -0.186785  -0.316985   0.071849   0.192008  -0.019277
    28  H   -0.033706  -0.037357  -0.001434  -0.000433   0.015514   0.000802
    29  H   -0.033192  -0.009635   0.045986  -0.001725  -0.028854   0.000250
    30  C  -11.259764   1.227916   3.283893   0.037652  -4.838278  -0.035505
    31  C   24.556150  -1.748113  -7.255634   0.689035   6.509290  -0.340838
    32  H   -1.748113   2.071546   0.663577  -0.066532  -0.288578  -0.022447
    33  C   -7.255634   0.663577  14.421220  -0.990224  -6.055711   0.334310
    34  H    0.689035  -0.066532  -0.990224   1.674371   0.469922  -0.040825
    35  C    6.509290  -0.288578  -6.055711   0.469922  16.458999  -1.311261
    36  H   -0.340838  -0.022447   0.334310  -0.040825  -1.311261   1.760953
    37  C   -8.882545   0.231319   6.612248  -0.237648  -9.585720   1.093337
    38  H    0.325377   0.016904  -0.198346  -0.023173   0.770396  -0.080131
    39  C    5.049431  -0.108668  -4.830553  -0.108254   3.727144   0.113051
    40  H   -0.000210  -0.000004   0.000045  -0.000001  -0.000275  -0.000003
              37         38         39         40
     1  N   -0.002047   0.001768   0.006029   0.463630
     2  H   -0.000910   0.000071   0.003539  -0.058798
     3  H    0.003764   0.001777  -0.009589  -0.060042
     4  C   -0.081952  -0.005970   0.052458  -0.072453
     5  H    0.000117  -0.001345  -0.012370  -0.009582
     6  H   -0.008276   0.004908   0.000617  -0.027722
     7  C   -0.356654   0.084574   1.542039   0.061928
     8  H    0.041064   0.001019  -0.219112  -0.008699
     9  H   -0.001549  -0.008824  -0.235044   0.002920
    10  C    0.268074   0.085139  -0.342134  -0.039008
    11  H   -0.167649   0.055129   0.804330  -0.002682
    12  H    0.199461  -0.130047  -0.683512   0.000045
    13  N    0.432298  -0.345093  -0.363648   0.005318
    14  C    1.376588  -0.139671 -10.999991  -0.003388
    15  C    0.021997   0.081469   2.892316   0.000584
    16  H   -0.077620   0.001571   0.108669   0.001505
    17  C   -0.167608   0.013940  -0.660618  -0.002875
    18  H   -0.009270  -0.001635   0.006447   0.000194
    19  C    0.128713   0.011484   0.373665  -0.000622
    20  H    0.001940  -0.000052  -0.023724   0.000014
    21  C   -0.278971  -0.020093   0.057817   0.000099
    22  H    0.006056   0.000908   0.065447   0.000005
    23  C    0.419521  -0.057011  -0.597217   0.001518
    24  C   -0.452845   0.012472  -1.679978  -0.000188
    25  H   -0.036590   0.001310   0.043680  -0.000002
    26  H    0.015298   0.002211  -0.152998  -0.000090
    27  C    0.330864  -0.015061  -1.248469   0.000040
    28  H    0.002602  -0.002868   0.014319  -0.000010
    29  H    0.019447  -0.002062   0.080574   0.000002
    30  C    6.176651  -0.814574 -10.483830   0.000024
    31  C   -8.882545   0.325377   5.049431  -0.000210
    32  H    0.231319   0.016904  -0.108668  -0.000004
    33  C    6.612248  -0.198346  -4.830553   0.000045
    34  H   -0.237648  -0.023173  -0.108254  -0.000001
    35  C   -9.585720   0.770396   3.727144  -0.000275
    36  H    1.093337  -0.080131   0.113051  -0.000003
    37  C   24.415769  -2.458952 -13.709845  -0.001599
    38  H   -2.458952   2.938434   1.786227   0.000153
    39  C  -13.709845   1.786227  35.097678   0.003887
    40  H   -0.001599   0.000153   0.003887   0.572538
 Mulliken charges:
               1
     1  N   -0.508976
     2  H    0.260393
     3  H    0.251884
     4  C    1.244230
     5  H   -0.118562
     6  H   -0.106875
     7  C    0.482513
     8  H   -0.244672
     9  H   -0.145358
    10  C    0.653203
    11  H   -0.537273
    12  H   -0.433785
    13  N   -0.277721
    14  C   -1.595343
    15  C    1.445183
    16  H   -0.750109
    17  C    0.188863
    18  H   -0.541502
    19  C    0.651297
    20  H   -0.461933
    21  C    0.628205
    22  H   -0.610885
    23  C    0.739699
    24  C    0.764082
    25  H   -0.142443
    26  H   -0.072865
    27  C    0.331727
    28  H    0.076478
    29  H   -0.021565
    30  C   -0.162140
    31  C    0.672630
    32  H   -0.745305
    33  C    0.032619
    34  H   -0.460282
    35  C    0.384873
    36  H   -0.513071
    37  C    0.721122
    38  H   -0.892332
    39  C    0.640190
    40  H    0.173806
 Sum of Mulliken charges =   1.00000
 Mulliken charges with hydrogens summed into heavy atoms:
               1
     1  N    0.177107
     4  C    1.018794
     7  C    0.092484
    10  C   -0.317855
    13  N   -0.277721
    14  C   -1.595343
    15  C    0.695074
    17  C   -0.352639
    19  C    0.189364
    21  C    0.017320
    23  C    0.739699
    24  C    0.548774
    27  C    0.386640
    30  C   -0.162140
    31  C   -0.072675
    33  C   -0.427663
    35  C   -0.128198
    37  C   -0.171211
    39  C    0.640190
 Electronic spatial extent (au):  <R**2>=           5222.5089
 Charge=              1.0000 electrons
 Dipole moment (field-independent basis, Debye):
    X=            -16.2843    Y=              8.2201    Z=              0.4744  Tot=             18.2476
 Quadrupole moment (field-independent basis, Debye-Ang):
   XX=            -28.1920   YY=            -78.0370   ZZ=           -108.7254
   XY=            -39.1818   XZ=              5.0052   YZ=             -3.9752
 Traceless Quadrupole moment (field-independent basis, Debye-Ang):
   XX=             43.4595   YY=             -6.3855   ZZ=            -37.0740
   XY=            -39.1818   XZ=              5.0052   YZ=             -3.9752
 Octapole moment (field-independent basis, Debye-Ang**2):
  XXX=           -317.6181  YYY=             43.8942  ZZZ=             14.5230  XYY=           -104.5520
  XXY=            179.9331  XXZ=            -11.3686  XZZ=            -36.7541  YZZ=             12.2139
  YYZ=            -10.1345  XYZ=            -19.9135
 Hexadecapole moment (field-independent basis, Debye-Ang**3):
 XXXX=          -1934.0733 YYYY=          -2253.2491 ZZZZ=           -719.0159 XXXY=           -778.9444
 XXXZ=             43.9564 YYYX=           -280.2708 YYYZ=            -29.6402 ZZZX=             20.3847
 ZZZY=              3.4310 XXYY=           -615.3538 XXZZ=           -685.1509 YYZZ=           -523.0916
 XXYZ=            -41.8064 YYXZ=             15.1491 ZZXY=            -49.9302
 N-N= 1.422637453984D+03 E-N=-4.610290925562D+03  KE= 7.639232691214D+02
 Leave Link  601 at Sun Jul 18 15:37:06 2021, MaxMem=   262144000 cpu:               1.0 elap:               0.3
 (Enter /prod/apps/gaussian/g16b1/l9999.exe)
 1\1\GINC-PIRINEUS10\SP\RMP2-FC\Aug-CC-pVDZ\C17H21N2(1+)\UBATOR02\18-Ju
 l-2021\0\\#p mp2/aug-cc-pVDZ scf=tight maxdisk=180GB geom=allcheck\\SE
 T_328_BBB20_conf1.geo_060_180_060 geometry\\1,1\N,0,1.1253202928,-1.04
 91055165,-4.3135355219\H,0,0.4370260149,-1.8144654118,-4.2531209895\H,
 0,1.9171130023,-1.2895263012,-3.6948106725\C,0,0.4999039573,0.27629461
 15,-3.9631407986\H,0,-0.2540755521,0.4620490217,-4.7281176029\H,0,1.28
 77366256,1.0244365237,-4.0600793122\C,0,-0.128363689,0.2669154011,-2.5
 751107331\H,0,-0.8092195035,-0.5846983203,-2.488128529\H,0,-0.74352808
 3,1.1684686196,-2.4928218688\C,0,0.8868049075,0.2642495085,-1.42690155
 44\H,0,1.484519204,1.1749734293,-1.4912515992\H,0,1.5878096387,-0.5792
 430787,-1.5200359207\N,0,0.2120127398,0.2780730758,-0.125445325\C,0,-0
 .6668228982,-0.8187970254,0.1484239163\C,0,-0.363365246,-2.1207326695,
 -0.2679657914\H,0,0.566834579,-2.3159001295,-0.7888567203\C,0,-1.24724
 15248,-3.1683786209,-0.0115088098\H,0,-0.9980379624,-4.1720820609,-0.3
 390932594\C,0,-2.4388369609,-2.9255111508,0.6720945145\H,0,-3.12934984
 26,-3.7370339926,0.8763232108\C,0,-2.7412669256,-1.6268375466,1.085324
 7918\H,0,-3.6729076208,-1.4260277414,1.6081902633\C,0,-1.8747504026,-0
 .5620276311,0.8200936746\C,0,-2.1764221765,0.8450620846,1.2521547506\H
 ,0,-3.2128989482,0.911814863,1.5941706792\H,0,-2.0674462118,1.52589769
 7,0.4006394677\C,0,-1.2608633503,1.3013003244,2.3919310639\H,0,-1.4335
 923206,0.6394504084,3.2500614798\H,0,-1.5774391432,2.2972524821,2.7216
 334933\C,0,0.2346368333,1.3571800893,2.1230608673\C,0,1.0028822021,1.9
 588059356,3.1301747348\H,0,0.478054997,2.3335515186,4.0042113429\C,0,2
 .3837122351,2.1085636739,3.0432830299\H,0,2.9353707814,2.5903813612,3.
 8433302355\C,0,3.0370694326,1.6311777159,1.9094998533\H,0,4.1145532988
 ,1.7212631081,1.8110196285\C,0,2.3047887527,1.0167426358,0.8982078793\
 H,0,2.8316808526,0.6233376775,0.0384225841\C,0,0.9042884464,0.87564761
 62,0.9716804962\H,0,1.4883095683,-1.0385221855,-5.2780069485\\Version=
 ES64L-G16RevB.01\State=1-A\HF=-764.7455885\MP2=-767.4598377\RMSD=5.696
 e-09\PG=C01 [X(C17H21N2)]\\@


 THE PROMISED LAND ALWAYS LIES ON THE OTHER SIDE OF A WILDERNESS.

                         -- HAVELOCK ELLIS
 Job cpu time:       0 days  4 hours 23 minutes 16.3 seconds.
 Elapsed time:       0 days  1 hours 14 minutes 23.4 seconds.
 File lengths (MBytes):  RWF= 129256 Int=      0 D2E=      0 Chk=     32 Scr=      1
 Normal termination of Gaussian 16 at Sun Jul 18 15:37:09 2021.
