 Entering Gaussian System, Link 0=g16
 Initial command:
 /prod/apps/gaussian/g16b1/l1.exe "/tmp/ubator02/1839579/Gau-224424.inp" -scrdir="/tmp/ubator02/1839579/"
 Entering Link 1 = /prod/apps/gaussian/g16b1/l1.exe PID=    224428.
  
 Copyright (c) 1988-2017, Gaussian, Inc.  All Rights Reserved.
  
 This is part of the Gaussian(R) 16 program.  It is based on
 the Gaussian(R) 09 system (copyright 2009, Gaussian, Inc.),
 the Gaussian(R) 03 system (copyright 2003, Gaussian, Inc.),
 the Gaussian(R) 98 system (copyright 1998, Gaussian, Inc.),
 the Gaussian(R) 94 system (copyright 1995, Gaussian, Inc.),
 the Gaussian 92(TM) system (copyright 1992, Gaussian, Inc.),
 the Gaussian 90(TM) system (copyright 1990, Gaussian, Inc.),
 the Gaussian 88(TM) system (copyright 1988, Gaussian, Inc.),
 the Gaussian 86(TM) system (copyright 1986, Carnegie Mellon
 University), and the Gaussian 82(TM) system (copyright 1983,
 Carnegie Mellon University). Gaussian is a federally registered
 trademark of Gaussian, Inc.
  
 This software contains proprietary and confidential information,
 including trade secrets, belonging to Gaussian, Inc.
  
 This software is provided under written license and may be
 used, copied, transmitted, or stored only in accord with that
 written license.
  
 The following legend is applicable only to US Government
 contracts under FAR:
  
                    RESTRICTED RIGHTS LEGEND
  
 Use, reproduction and disclosure by the US Government is
 subject to restrictions as set forth in subparagraphs (a)
 and (c) of the Commercial Computer Software - Restricted
 Rights clause in FAR 52.227-19.
  
 Gaussian, Inc.
 340 Quinnipiac St., Bldg. 40, Wallingford CT 06492
  
  
 ---------------------------------------------------------------
 Warning -- This program may not be used in any manner that
 competes with the business of Gaussian, Inc. or will provide
 assistance to any competitor of Gaussian, Inc.  The licensee
 of this program is prohibited from giving any competitor of
 Gaussian, Inc. access to this program.  By using this program,
 the user acknowledges that Gaussian, Inc. is engaged in the
 business of creating and licensing software in the field of
 computational chemistry and represents and warrants to the
 licensee that it is not a competitor of Gaussian, Inc. and that
 it will not use this program in any manner prohibited above.
 ---------------------------------------------------------------
  

 Cite this work as:
 Gaussian 16, Revision B.01,
 M. J. Frisch, G. W. Trucks, H. B. Schlegel, G. E. Scuseria, 
 M. A. Robb, J. R. Cheeseman, G. Scalmani, V. Barone, 
 G. A. Petersson, H. Nakatsuji, X. Li, M. Caricato, A. V. Marenich, 
 J. Bloino, B. G. Janesko, R. Gomperts, B. Mennucci, H. P. Hratchian, 
 J. V. Ortiz, A. F. Izmaylov, J. L. Sonnenberg, D. Williams-Young, 
 F. Ding, F. Lipparini, F. Egidi, J. Goings, B. Peng, A. Petrone, 
 T. Henderson, D. Ranasinghe, V. G. Zakrzewski, J. Gao, N. Rega, 
 G. Zheng, W. Liang, M. Hada, M. Ehara, K. Toyota, R. Fukuda, 
 J. Hasegawa, M. Ishida, T. Nakajima, Y. Honda, O. Kitao, H. Nakai, 
 T. Vreven, K. Throssell, J. A. Montgomery, Jr., J. E. Peralta, 
 F. Ogliaro, M. J. Bearpark, J. J. Heyd, E. N. Brothers, K. N. Kudin, 
 V. N. Staroverov, T. A. Keith, R. Kobayashi, J. Normand, 
 K. Raghavachari, A. P. Rendell, J. C. Burant, S. S. Iyengar, 
 J. Tomasi, M. Cossi, J. M. Millam, M. Klene, C. Adamo, R. Cammi, 
 J. W. Ochterski, R. L. Martin, K. Morokuma, O. Farkas, 
 J. B. Foresman, and D. J. Fox, Gaussian, Inc., Wallingford CT, 2016.
 
 ******************************************
 Gaussian 16:  ES64L-G16RevB.01 20-Dec-2017
                18-Jul-2021 
 ******************************************
 %mem=800MB
 %nproc=4
 Will use up to    4 processors via shared memory.
 %chk=SET_328_BBB292_conf1.geo_105_165_120.chk
 -----------------------------------------------------------
 #p b3lyp/6-31G(d) opt freq scrf=(iefpcm,read,solvent=water)
 -----------------------------------------------------------
 1/18=20,19=15,26=3,38=1,40=2/1,3;
 2/9=110,12=2,17=6,18=5,40=1/2;
 3/5=1,6=6,7=1,11=2,25=1,30=1,70=2203,71=1,72=1,74=-5/1,2,3;
 4//1;
 5/5=2,38=5,53=1/2;
 6/7=2,8=2,9=2,10=2,28=1/1;
 7//1,2,3,16;
 1/18=20,19=15,26=3/3(2);
 2/9=110/2;
 99//99;
 2/9=110/2;
 3/5=1,6=6,7=1,11=2,25=1,30=1,70=2205,71=1,72=1,74=-5/1,2,3;
 4/5=5,16=3,69=1/1;
 5/5=2,38=5,53=1/2;
 7//1,2,3,16;
 1/18=20,19=15,26=3/3(-5);
 2/9=110/2;
 6/7=2,8=2,9=2,10=2,19=2,28=1/1;
 99/9=1/99;
 Leave Link    1 at Sun Jul 18 13:46:45 2021, MaxMem=   104857600 cpu:               0.1 elap:               0.0
 (Enter /prod/apps/gaussian/g16b1/l101.exe)
 ---------------------------------------------
 SET_328_BBB292_conf1.geo_105_165_120 geometry
 ---------------------------------------------
 Symbolic Z-matrix:
 Charge =  1 Multiplicity = 1
 N                    -2.126    -0.393    -1.152 
 H                    -2.989    -0.626    -0.705 
 H                    -1.408    -1.012    -0.834 
 C                    -1.76      0.994    -0.821 
 C                    -2.424     2.066    -1.667 
 O                    -3.174     1.598    -2.594 
 H                    -2.979     0.673    -2.358 
 O                    -1.967     3.195    -1.868 
 H                    -1.989     1.29      0.206 
 C                    -0.261     1.052    -0.919 
 H                    -0.001     2.105    -0.79 
 H                    -0.036     0.756    -1.946 
 C                     0.542     0.231     0.128 
 C                     1.131    -0.936    -0.285 
 H                     0.835    -1.345    -1.248 
 C                     1.903    -1.606     0.666 
 O                     2.541    -2.731     0.255 
 H                     2.159    -2.977    -0.606 
 C                     1.964    -1.148     2.019 
 O                     2.677    -1.843     2.996 
 H                     3.329    -2.3       2.434 
 C                     1.401     0.039     2.388 
 H                     1.508     0.355     3.422 
 C                     0.703     0.745     1.396 
 H                     0.357     1.765     1.539 
 H                    -2.229    -0.483    -2.143 
 
 ITRead=  0  0  0  0  0  0  0  0  0  0  0  0  0  0  0  0  0  0  0  0
 ITRead=  0  0  0  0  0  0
 MicOpt= -1 -1 -1 -1 -1 -1 -1 -1 -1 -1 -1 -1 -1 -1 -1 -1 -1 -1 -1 -1
 MicOpt= -1 -1 -1 -1 -1 -1
 NAtoms=     26 NQM=       26 NQMF=       0 NMMI=      0 NMMIF=      0
                NMic=       0 NMicF=      0.
                    Isotopes and Nuclear Properties:
 (Nuclear quadrupole moments (NQMom) in fm**2, nuclear magnetic moments (NMagM)
  in nuclear magnetons)

  Atom         1           2           3           4           5           6           7           8           9          10
 IAtWgt=          14           1           1          12          12          16           1          16           1          12
 AtmWgt=  14.0030740   1.0078250   1.0078250  12.0000000  12.0000000  15.9949146   1.0078250  15.9949146   1.0078250  12.0000000
 NucSpn=           2           1           1           0           0           0           1           0           1           0
 AtZEff=  -0.0000000  -0.0000000  -0.0000000  -0.0000000  -0.0000000  -0.0000000  -0.0000000  -0.0000000  -0.0000000  -0.0000000
 NQMom=    2.0440000   0.0000000   0.0000000   0.0000000   0.0000000   0.0000000   0.0000000   0.0000000   0.0000000   0.0000000
 NMagM=    0.4037610   2.7928460   2.7928460   0.0000000   0.0000000   0.0000000   2.7928460   0.0000000   2.7928460   0.0000000
 AtZNuc=   7.0000000   1.0000000   1.0000000   6.0000000   6.0000000   8.0000000   1.0000000   8.0000000   1.0000000   6.0000000

  Atom        11          12          13          14          15          16          17          18          19          20
 IAtWgt=           1           1          12          12           1          12          16           1          12          16
 AtmWgt=   1.0078250   1.0078250  12.0000000  12.0000000   1.0078250  12.0000000  15.9949146   1.0078250  12.0000000  15.9949146
 NucSpn=           1           1           0           0           1           0           0           1           0           0
 AtZEff=  -0.0000000  -0.0000000  -0.0000000  -0.0000000  -0.0000000  -0.0000000  -0.0000000  -0.0000000  -0.0000000  -0.0000000
 NQMom=    0.0000000   0.0000000   0.0000000   0.0000000   0.0000000   0.0000000   0.0000000   0.0000000   0.0000000   0.0000000
 NMagM=    2.7928460   2.7928460   0.0000000   0.0000000   2.7928460   0.0000000   0.0000000   2.7928460   0.0000000   0.0000000
 AtZNuc=   1.0000000   1.0000000   6.0000000   6.0000000   1.0000000   6.0000000   8.0000000   1.0000000   6.0000000   8.0000000

  Atom        21          22          23          24          25          26
 IAtWgt=           1          12           1          12           1           1
 AtmWgt=   1.0078250  12.0000000   1.0078250  12.0000000   1.0078250   1.0078250
 NucSpn=           1           0           1           0           1           1
 AtZEff=  -0.0000000  -0.0000000  -0.0000000  -0.0000000  -0.0000000  -0.0000000
 NQMom=    0.0000000   0.0000000   0.0000000   0.0000000   0.0000000   0.0000000
 NMagM=    2.7928460   0.0000000   2.7928460   0.0000000   2.7928460   2.7928460
 AtZNuc=   1.0000000   6.0000000   1.0000000   6.0000000   1.0000000   1.0000000
 Leave Link  101 at Sun Jul 18 13:46:45 2021, MaxMem=   104857600 cpu:               0.5 elap:               0.1
 (Enter /prod/apps/gaussian/g16b1/l103.exe)

 GradGradGradGradGradGradGradGradGradGradGradGradGradGradGradGradGradGrad
 Berny optimization.
 Initialization pass.
                           ----------------------------
                           !    Initial Parameters    !
                           ! (Angstroms and Degrees)  !
 --------------------------                            --------------------------
 ! Name  Definition              Value          Derivative Info.                !
 --------------------------------------------------------------------------------
 ! R1    R(1,2)                  0.9994         estimate D2E/DX2                !
 ! R2    R(1,3)                  0.9999         estimate D2E/DX2                !
 ! R3    R(1,4)                  1.4722         estimate D2E/DX2                !
 ! R4    R(1,26)                 1.0004         estimate D2E/DX2                !
 ! R5    R(4,5)                  1.5185         estimate D2E/DX2                !
 ! R6    R(4,9)                  1.0931         estimate D2E/DX2                !
 ! R7    R(4,10)                 1.5033         estimate D2E/DX2                !
 ! R8    R(5,6)                  1.281          estimate D2E/DX2                !
 ! R9    R(5,8)                  1.2345         estimate D2E/DX2                !
 ! R10   R(6,7)                  0.9743         estimate D2E/DX2                !
 ! R11   R(10,11)                1.0923         estimate D2E/DX2                !
 ! R12   R(10,12)                1.0922         estimate D2E/DX2                !
 ! R13   R(10,13)                1.554          estimate D2E/DX2                !
 ! R14   R(13,14)                1.3709         estimate D2E/DX2                !
 ! R15   R(13,24)                1.3777         estimate D2E/DX2                !
 ! R16   R(14,15)                1.0873         estimate D2E/DX2                !
 ! R17   R(14,16)                1.3962         estimate D2E/DX2                !
 ! R18   R(16,17)                1.3571         estimate D2E/DX2                !
 ! R19   R(16,19)                1.4297         estimate D2E/DX2                !
 ! R20   R(17,18)                0.9735         estimate D2E/DX2                !
 ! R21   R(19,20)                1.395          estimate D2E/DX2                !
 ! R22   R(19,22)                1.3646         estimate D2E/DX2                !
 ! R23   R(20,21)                0.9746         estimate D2E/DX2                !
 ! R24   R(22,23)                1.0865         estimate D2E/DX2                !
 ! R25   R(22,24)                1.4035         estimate D2E/DX2                !
 ! R26   R(24,25)                1.0865         estimate D2E/DX2                !
 ! A1    A(2,1,3)              109.4802         estimate D2E/DX2                !
 ! A2    A(2,1,4)              109.4971         estimate D2E/DX2                !
 ! A3    A(2,1,26)             109.4616         estimate D2E/DX2                !
 ! A4    A(3,1,4)              109.4642         estimate D2E/DX2                !
 ! A5    A(3,1,26)             109.4681         estimate D2E/DX2                !
 ! A6    A(4,1,26)             109.456          estimate D2E/DX2                !
 ! A7    A(1,4,5)              115.5403         estimate D2E/DX2                !
 ! A8    A(1,4,9)              114.475          estimate D2E/DX2                !
 ! A9    A(1,4,10)             105.6399         estimate D2E/DX2                !
 ! A10   A(5,4,9)              103.9264         estimate D2E/DX2                !
 ! A11   A(5,4,10)             111.8677         estimate D2E/DX2                !
 ! A12   A(9,4,10)             105.0524         estimate D2E/DX2                !
 ! A13   A(4,5,6)              113.6586         estimate D2E/DX2                !
 ! A14   A(4,5,8)              125.0639         estimate D2E/DX2                !
 ! A15   A(6,5,8)              115.662          estimate D2E/DX2                !
 ! A16   A(5,6,7)               93.1176         estimate D2E/DX2                !
 ! A17   A(4,10,11)            105.4768         estimate D2E/DX2                !
 ! A18   A(4,10,12)            104.8476         estimate D2E/DX2                !
 ! A19   A(4,10,13)            116.8033         estimate D2E/DX2                !
 ! A20   A(11,10,12)           108.8611         estimate D2E/DX2                !
 ! A21   A(11,10,13)           107.8628         estimate D2E/DX2                !
 ! A22   A(12,10,13)           112.5738         estimate D2E/DX2                !
 ! A23   A(10,13,14)           117.9537         estimate D2E/DX2                !
 ! A24   A(10,13,24)           118.9063         estimate D2E/DX2                !
 ! A25   A(14,13,24)           123.0024         estimate D2E/DX2                !
 ! A26   A(13,14,15)           118.0382         estimate D2E/DX2                !
 ! A27   A(13,14,16)           116.1595         estimate D2E/DX2                !
 ! A28   A(15,14,16)           124.9797         estimate D2E/DX2                !
 ! A29   A(14,16,17)           116.8393         estimate D2E/DX2                !
 ! A30   A(14,16,19)           120.9616         estimate D2E/DX2                !
 ! A31   A(17,16,19)           122.1486         estimate D2E/DX2                !
 ! A32   A(16,17,18)           107.0292         estimate D2E/DX2                !
 ! A33   A(16,19,20)           121.6683         estimate D2E/DX2                !
 ! A34   A(16,19,22)           121.128          estimate D2E/DX2                !
 ! A35   A(20,19,22)           117.0567         estimate D2E/DX2                !
 ! A36   A(19,20,21)            99.8863         estimate D2E/DX2                !
 ! A37   A(19,22,23)           118.0155         estimate D2E/DX2                !
 ! A38   A(19,22,24)           116.8487         estimate D2E/DX2                !
 ! A39   A(23,22,24)           125.124          estimate D2E/DX2                !
 ! A40   A(13,24,22)           121.3994         estimate D2E/DX2                !
 ! A41   A(13,24,25)           115.7324         estimate D2E/DX2                !
 ! A42   A(22,24,25)           122.5194         estimate D2E/DX2                !
 ! D1    D(2,1,4,5)            -82.724          estimate D2E/DX2                !
 ! D2    D(2,1,4,9)             37.9791         estimate D2E/DX2                !
 ! D3    D(2,1,4,10)           153.0506         estimate D2E/DX2                !
 ! D4    D(3,1,4,5)            157.2534         estimate D2E/DX2                !
 ! D5    D(3,1,4,9)            -82.0436         estimate D2E/DX2                !
 ! D6    D(3,1,4,10)            33.028          estimate D2E/DX2                !
 ! D7    D(26,1,4,5)            37.2707         estimate D2E/DX2                !
 ! D8    D(26,1,4,9)           157.9738         estimate D2E/DX2                !
 ! D9    D(26,1,4,10)          -86.9546         estimate D2E/DX2                !
 ! D10   D(1,4,5,6)             -2.7447         estimate D2E/DX2                !
 ! D11   D(1,4,5,8)           -155.0117         estimate D2E/DX2                !
 ! D12   D(9,4,5,6)           -129.0123         estimate D2E/DX2                !
 ! D13   D(9,4,5,8)             78.7207         estimate D2E/DX2                !
 ! D14   D(10,4,5,6)           118.168          estimate D2E/DX2                !
 ! D15   D(10,4,5,8)           -34.099          estimate D2E/DX2                !
 ! D16   D(1,4,10,11)          173.4879         estimate D2E/DX2                !
 ! D17   D(1,4,10,12)           58.6262         estimate D2E/DX2                !
 ! D18   D(1,4,10,13)          -66.7448         estimate D2E/DX2                !
 ! D19   D(5,4,10,11)           46.9899         estimate D2E/DX2                !
 ! D20   D(5,4,10,12)          -67.8718         estimate D2E/DX2                !
 ! D21   D(5,4,10,13)          166.7572         estimate D2E/DX2                !
 ! D22   D(9,4,10,11)          -65.1262         estimate D2E/DX2                !
 ! D23   D(9,4,10,12)         -179.9879         estimate D2E/DX2                !
 ! D24   D(9,4,10,13)           54.6411         estimate D2E/DX2                !
 ! D25   D(4,5,6,7)             -0.8414         estimate D2E/DX2                !
 ! D26   D(8,5,6,7)            154.1612         estimate D2E/DX2                !
 ! D27   D(4,10,13,14)         104.9827         estimate D2E/DX2                !
 ! D28   D(4,10,13,24)         -79.1527         estimate D2E/DX2                !
 ! D29   D(11,10,13,14)       -136.5324         estimate D2E/DX2                !
 ! D30   D(11,10,13,24)         39.3323         estimate D2E/DX2                !
 ! D31   D(12,10,13,14)        -16.4127         estimate D2E/DX2                !
 ! D32   D(12,10,13,24)        159.4519         estimate D2E/DX2                !
 ! D33   D(10,13,14,15)        -13.2238         estimate D2E/DX2                !
 ! D34   D(10,13,14,16)        176.6369         estimate D2E/DX2                !
 ! D35   D(24,13,14,15)        171.0932         estimate D2E/DX2                !
 ! D36   D(24,13,14,16)          0.9539         estimate D2E/DX2                !
 ! D37   D(10,13,24,22)        179.0268         estimate D2E/DX2                !
 ! D38   D(10,13,24,25)         -7.5902         estimate D2E/DX2                !
 ! D39   D(14,13,24,22)         -5.3294         estimate D2E/DX2                !
 ! D40   D(14,13,24,25)        168.0537         estimate D2E/DX2                !
 ! D41   D(13,14,16,17)       -177.1386         estimate D2E/DX2                !
 ! D42   D(13,14,16,19)          5.3906         estimate D2E/DX2                !
 ! D43   D(15,14,16,17)         13.4922         estimate D2E/DX2                !
 ! D44   D(15,14,16,19)       -163.9787         estimate D2E/DX2                !
 ! D45   D(14,16,17,18)        -13.279          estimate D2E/DX2                !
 ! D46   D(19,16,17,18)        164.1594         estimate D2E/DX2                !
 ! D47   D(14,16,19,20)        176.7814         estimate D2E/DX2                !
 ! D48   D(14,16,19,22)         -7.7563         estimate D2E/DX2                !
 ! D49   D(17,16,19,20)         -0.5531         estimate D2E/DX2                !
 ! D50   D(17,16,19,22)        174.9092         estimate D2E/DX2                !
 ! D51   D(16,19,20,21)         25.3815         estimate D2E/DX2                !
 ! D52   D(22,19,20,21)       -150.2571         estimate D2E/DX2                !
 ! D53   D(16,19,22,23)       -177.8501         estimate D2E/DX2                !
 ! D54   D(16,19,22,24)          3.3372         estimate D2E/DX2                !
 ! D55   D(20,19,22,23)         -2.1864         estimate D2E/DX2                !
 ! D56   D(20,19,22,24)        179.0009         estimate D2E/DX2                !
 ! D57   D(19,22,24,13)          2.9785         estimate D2E/DX2                !
 ! D58   D(19,22,24,25)       -169.9501         estimate D2E/DX2                !
 ! D59   D(23,22,24,13)       -175.7399         estimate D2E/DX2                !
 ! D60   D(23,22,24,25)         11.3315         estimate D2E/DX2                !
 --------------------------------------------------------------------------------
 Trust Radius=3.00D-01 FncErr=1.00D-07 GrdErr=1.00D-06 EigMax=2.50D+02 EigMin=1.00D-04
 Number of steps in this run=    138 maximum allowed number of steps=    156.
 GradGradGradGradGradGradGradGradGradGradGradGradGradGradGradGradGradGrad

 Leave Link  103 at Sun Jul 18 13:46:45 2021, MaxMem=   104857600 cpu:               0.1 elap:               0.0
 (Enter /prod/apps/gaussian/g16b1/l202.exe)
                          Input orientation:                          
 ---------------------------------------------------------------------
 Center     Atomic      Atomic             Coordinates (Angstroms)
 Number     Number       Type             X           Y           Z
 ---------------------------------------------------------------------
      1          7           0       -2.126000   -0.393000   -1.152000
      2          1           0       -2.989000   -0.626000   -0.705000
      3          1           0       -1.408000   -1.012000   -0.834000
      4          6           0       -1.760000    0.994000   -0.821000
      5          6           0       -2.424000    2.066000   -1.667000
      6          8           0       -3.174000    1.598000   -2.594000
      7          1           0       -2.979000    0.673000   -2.358000
      8          8           0       -1.967000    3.195000   -1.868000
      9          1           0       -1.989000    1.290000    0.206000
     10          6           0       -0.261000    1.052000   -0.919000
     11          1           0       -0.001000    2.105000   -0.790000
     12          1           0       -0.036000    0.756000   -1.946000
     13          6           0        0.542000    0.231000    0.128000
     14          6           0        1.131000   -0.936000   -0.285000
     15          1           0        0.835000   -1.345000   -1.248000
     16          6           0        1.903000   -1.606000    0.666000
     17          8           0        2.541000   -2.731000    0.255000
     18          1           0        2.159000   -2.977000   -0.606000
     19          6           0        1.964000   -1.148000    2.019000
     20          8           0        2.677000   -1.843000    2.996000
     21          1           0        3.329000   -2.300000    2.434000
     22          6           0        1.401000    0.039000    2.388000
     23          1           0        1.508000    0.355000    3.422000
     24          6           0        0.703000    0.745000    1.396000
     25          1           0        0.357000    1.765000    1.539000
     26          1           0       -2.229000   -0.483000   -2.143000
 ---------------------------------------------------------------------
                    Distance matrix (angstroms):
                    1          2          3          4          5
     1  N    0.000000
     2  H    0.999433   0.000000
     3  H    0.999904   1.632543   0.000000
     4  C    1.472171   2.036737   2.036691   0.000000
     5  C    2.529962   2.914024   3.346674   1.518485   0.000000
     6  O    2.672405   2.923820   3.609495   2.346858   1.280958
     7  H    1.821648   2.102358   2.762217   1.987806   1.651047
     8  O    3.662196   4.122753   4.368122   2.446111   1.234460
     9  H    2.166892   2.345416   2.591981   1.093063   2.073531
    10  C    2.370768   3.209901   2.362822   1.503319   2.503252
    11  H    3.299496   4.048917   3.420128   2.080712   2.577126
    12  H    2.513710   3.488583   2.498950   2.072304   2.737971
    13  C    3.024235   3.727774   2.504594   2.604222   3.922551
    14  C    3.413882   4.152939   2.598788   3.517112   4.853860
    15  H    3.111759   3.928713   2.305067   3.519556   4.736197
    16  C    4.583594   5.174138   3.683145   4.731674   6.135911
    17  O    5.406180   5.994458   4.442464   5.790682   7.166346
    18  H    5.033527   5.660292   4.078811   5.583335   6.896482
    19  C    5.230045   5.676695   4.419105   5.149946   6.570459
    20  O    6.509778   6.876194   5.660979   6.504231   7.940028
    21  H    6.800961   7.250705   5.897282   6.880653   8.305249
    22  C    5.015770   5.411190   4.401859   4.604522   5.931474
    23  H    5.889562   6.182030   5.337160   5.393625   6.654778
    24  C    3.973737   4.463710   3.537834   3.323170   4.572214
    25  H    4.250145   4.684883   4.056856   3.262779   4.254762
    26  H    1.000395   1.632756   1.633206   2.036952   2.600385
                    6          7          8          9         10
     6  O    0.000000
     7  H    0.974344   0.000000
     8  O    2.129398   2.761291   0.000000
     9  H    3.055992   2.816893   2.816200   0.000000
    10  C    3.404308   3.098691   2.898877   2.075633   0.000000
    11  H    3.685023   3.657558   2.493058   2.368203   1.092268
    12  H    3.312991   2.972858   3.111843   2.954737   1.092232
    13  C    4.804855   4.332782   4.366279   2.744727   1.554046
    14  C    5.503241   4.876301   5.400801   3.864008   2.508339
    15  H    5.152188   4.455448   5.370959   4.127023   2.656137
    16  C    6.831482   6.178377   6.666908   4.872995   3.776253
    17  O    7.714808   6.991808   7.742523   6.057371   4.851862
    18  H    7.302305   6.541487   7.530611   6.006042   4.710330
    19  C    7.430971   6.848899   7.030162   4.985682   4.292140
    20  O    8.793337   8.184492   8.402778   6.274659   5.686835
    21  H    9.097483   8.461256   8.760699   6.792143   5.946984
    22  C    6.941284   6.489289   6.278320   4.221164   3.837273
    23  H    7.723887   7.324117   6.937242   4.842096   4.739140
    24  C    5.628396   5.258785   4.876997   2.993324   2.526414
    25  H    5.438524   5.244804   4.365034   2.739750   2.632880
    26  H    2.329589   1.394654   3.697560   2.952783   2.779825
                   11         12         13         14         15
    11  H    0.000000
    12  H    1.776897   0.000000
    13  C    2.156258   2.216119   0.000000
    14  C    3.283920   2.642664   1.370904   0.000000
    15  H    3.579268   2.379085   2.112582   1.087321   0.000000
    16  C    4.417768   4.020113   2.348688   1.396168   2.207293
    17  O    5.562435   4.862561   3.575692   2.345576   2.662788
    18  H    5.525050   4.533091   3.666703   2.307706   2.197399
    19  C    4.725856   4.831815   2.738541   2.459115   3.462187
    20  O    6.090335   6.207941   4.133416   3.738680   4.653225
    21  H    6.394302   6.312429   4.414857   3.752954   4.548537
    22  C    4.041490   4.621971   2.425355   2.858051   3.931451
    23  H    4.804219   5.600014   3.434963   3.943432   5.015160
    24  C    2.669047   3.422748   1.377658   2.415514   3.372871
    25  H    2.380757   3.649350   2.092439   3.349844   4.203326
    26  H    3.673192   2.526495   3.653174   3.866132   3.306382
                   16         17         18         19         20
    16  C    0.000000
    17  O    1.357052   0.000000
    18  H    1.887634   0.973530   0.000000
    19  C    1.429718   2.439368   3.205291   0.000000
    20  O    2.466606   2.884462   3.811651   1.394963   0.000000
    21  H    2.375065   2.356851   3.326985   1.833727   0.974575
    22  C    2.433786   3.677253   4.316811   1.364587   2.353670
    23  H    3.405449   4.540966   5.267904   2.106028   2.525716
    24  C    2.738631   4.094228   4.470036   2.358325   3.626902
    25  H    3.809972   5.160671   5.507703   3.361312   4.530222
    26  H    5.121038   5.792824   5.276073   5.945226   7.233793
                   21         22         23         24         25
    21  H    0.000000
    22  C    3.031538   0.000000
    23  H    3.367671   1.086490   0.000000
    24  C    4.152751   1.403461   2.214679   0.000000
    25  H    5.114493   2.188564   2.618891   1.086538   0.000000
    26  H    7.425751   5.829180   6.755489   4.757008   5.029714
                   26
    26  H    0.000000
 Stoichiometry    C9H12NO4(1+)
 Framework group  C1[X(C9H12NO4)]
 Deg. of freedom    72
 Full point group                 C1      NOp   1
 Largest Abelian subgroup         C1      NOp   1
 Largest concise Abelian subgroup C1      NOp   1
                         Standard orientation:                         
 ---------------------------------------------------------------------
 Center     Atomic      Atomic             Coordinates (Angstroms)
 Number     Number       Type             X           Y           Z
 ---------------------------------------------------------------------
      1          7           0        1.845061    1.202353    1.089047
      2          1           0        2.086904    1.160312    2.057867
      3          1           0        0.875758    1.429881    0.996898
      4          6           0        2.104289   -0.103550    0.460792
      5          6           0        3.540548   -0.351563    0.034828
      6          8           0        4.316556    0.647254    0.237388
      7          1           0        3.599286    1.199338    0.598042
      8          8           0        3.891393   -1.128721   -0.857822
      9          1           0        1.864112   -0.964455    1.090032
     10          6           0        1.152970   -0.190848   -0.699958
     11          1           0        1.426895   -1.103854   -1.233284
     12          1           0        1.395901    0.670336   -1.326310
     13          6           0       -0.361264   -0.273277   -0.360313
     14          6           0       -1.125579    0.847943   -0.555421
     15          1           0       -0.613835    1.792297   -0.724469
     16          6           0       -2.492832    0.711605   -0.307800
     17          8           0       -3.271149    1.795705   -0.553851
     18          1           0       -2.673569    2.555746   -0.667856
     19          6           0       -3.025257   -0.500388    0.232284
     20          8           0       -4.378050   -0.629714    0.547163
     21          1           0       -4.755266    0.032652   -0.060107
     22          6           0       -2.245618   -1.611099    0.375752
     23          1           0       -2.710922   -2.515261    0.758432
     24          6           0       -0.889755   -1.481848    0.037175
     25          1           0       -0.222391   -2.336013   -0.037606
     26          1           0        2.396701    1.904503    0.637973
 ---------------------------------------------------------------------
 Rotational constants (GHZ):           1.7775244           0.2983400           0.2743864
 Leave Link  202 at Sun Jul 18 13:46:45 2021, MaxMem=   104857600 cpu:               0.1 elap:               0.0
 (Enter /prod/apps/gaussian/g16b1/l301.exe)
 Standard basis: 6-31G(d) (6D, 7F)
 Ernie: Thresh=  0.10000D-02 Tol=  0.10000D-05 Strict=F.
 There are   234 symmetry adapted cartesian basis functions of A   symmetry.
 There are   234 symmetry adapted basis functions of A   symmetry.
   234 basis functions,   440 primitive gaussians,   234 cartesian basis functions
    52 alpha electrons       52 beta electrons
       nuclear repulsion energy       895.8886480929 Hartrees.
 IExCor=  402 DFT=T Ex+Corr=B3LYP ExCW=0 ScaHFX=  0.200000
 ScaDFX=  0.800000  0.720000  1.000000  0.810000 ScalE2=  1.000000  1.000000
 IRadAn=      5 IRanWt=     -1 IRanGd=            0 ICorTp=0 IEmpDi=  4
 NAtoms=   26 NActive=   26 NUniq=   26 SFac= 1.00D+00 NAtFMM=   60 NAOKFM=F Big=F
 Integral buffers will be    131072 words long.
 Raffenetti 2 integral format.
 Two-electron integral symmetry is turned on.
 Using the following non-standard input for PCM:
 MSTModel=DFT cav MSTCharged
 --- end of non-standard input.
 MST model for solvation energy: B3LYP parametrization.
 MST cavity parameters:
 ISph   IAn     Re0     Alpha   Atom Type   QCorr
 ------------------------------------------------
   1      7     1.70     1.15      NH         T
   2      1     0.90     1.15      NH         T
   3      1     0.90     1.15      NH         T
   4      6     1.50     1.25      CH         F
   5      6     1.50     1.25      C          F
   6      8     1.45     1.25      OH         F
   7      1     0.90     1.25      OH         F
   8      8     1.40     1.25      O          F
   9      1     1.20     1.25      CH         F
  10      6     1.50     1.25      CH2        F
  11      1     1.20     1.25      CH2        F
  12      1     1.20     1.25      CH2        F
  13      6     1.50     1.25      C          F
  14      6     1.50     1.25      CH         F
  15      1     1.20     1.25      CH         F
  16      6     1.50     1.25      C          F
  17      8     1.45     1.25      OH         F
  18      1     0.90     1.25      OH         F
  19      6     1.50     1.25      C          F
  20      8     1.45     1.25      OH         F
  21      1     0.90     1.25      OH         F
  22      6     1.50     1.25      CH         F
  23      1     1.20     1.25      CH         F
  24      6     1.50     1.25      CH         F
  25      1     1.20     1.25      CH         F
  26      1     0.90     1.15      NH         T
 ------------------------------------------------------------------------------
 Polarizable Continuum Model (PCM)
 =================================
 Model                : PCM.
 Atomic radii         : MST.
 Polarization charges : Total charges.
 Charge compensation  : None.
 Solution method      : On-the-fly selection.
 Cavity type          : Scaled VdW (van der Waals Surface) (Alpha=1.250).
 Cavity algorithm     : GePol (No added spheres)
                        Default sphere list used, NSphG=   26.
                        Lebedev-Laikov grids with approx.  5.0 points / Ang**2.
                        Smoothing algorithm: York/Karplus (Gamma=1.0000).
                        Polarization charges: spherical gaussians, with
                                              point-specific exponents (IZeta= 3).
                        Self-potential: point-specific (ISelfS= 7).
                        Self-field    : sphere-specific E.n sum rule (ISelfD= 2).
 1st derivatives      : Analytical E(r).r(x)/FMM algorithm (CHGder, D1EAlg=3).
                        Cavity 1st derivative terms included.
 Solvent              : Water, Eps=  78.355300 Eps(inf)=   1.777849
 ------------------------------------------------------------------------------
 GePol: Number of generator spheres                  =      26
 GePol: Total number of spheres                      =      26
 GePol: Number of exposed spheres                    =      26 (100.00%)
 GePol: Number of points                             =    1930
 GePol: Average weight of points                     =       0.12
 GePol: Minimum weight of points                     =   0.33D-09
 GePol: Maximum weight of points                     =    0.22001
 GePol: Number of points with low weight             =     101
 GePol: Fraction of low-weight points (<1% of avg)   =       5.23%
 GePol: Cavity surface area                          =    236.772 Ang**2
 GePol: Cavity volume                                =    221.093 Ang**3
 PCM non-electrostatic energy =        -0.0002022107 Hartrees.
 Nuclear repulsion after PCM non-electrostatic terms =      895.8884458823 Hartrees.
 Leave Link  301 at Sun Jul 18 13:46:45 2021, MaxMem=   104857600 cpu:               0.4 elap:               0.1
 (Enter /prod/apps/gaussian/g16b1/l302.exe)
 NPDir=0 NMtPBC=     1 NCelOv=     1 NCel=       1 NClECP=     1 NCelD=      1
         NCelK=      1 NCelE2=     1 NClLst=     1 CellRange=     0.0.
 One-electron integrals computed using PRISM.
 One-electron integral symmetry used in STVInt
 NBasis=   234 RedAO= T EigKep=  4.51D-04  NBF=   234
 NBsUse=   234 1.00D-06 EigRej= -1.00D+00 NBFU=   234
 Precomputing XC quadrature grid using
 IXCGrd= 4 IRadAn=           5 IRanWt=          -1 IRanGd=           0 AccXCQ= 0.00D+00.
 Generated NRdTot=       0 NPtTot=           0 NUsed=           0 NTot=          32
 NSgBfM=   232   232   232   232   232 MxSgAt=    26 MxSgA2=    26.
 Leave Link  302 at Sun Jul 18 13:46:46 2021, MaxMem=   104857600 cpu:               1.5 elap:               0.4
 (Enter /prod/apps/gaussian/g16b1/l303.exe)
 DipDrv:  MaxL=1.
 Leave Link  303 at Sun Jul 18 13:46:46 2021, MaxMem=   104857600 cpu:               0.1 elap:               0.1
 (Enter /prod/apps/gaussian/g16b1/l401.exe)
 ExpMin= 1.61D-01 ExpMax= 5.48D+03 ExpMxC= 8.25D+02 IAcc=3 IRadAn=         5 AccDes= 0.00D+00
 Harris functional with IExCor=  402 and IRadAn=       5 diagonalized for initial guess.
 HarFok:  IExCor=  402 AccDes= 0.00D+00 IRadAn=         5 IDoV= 1 UseB2=F ITyADJ=14
 ICtDFT=  3500011 ScaDFX=  1.000000  1.000000  1.000000  1.000000
 FoFCou: FMM=F IPFlag=           0 FMFlag=      100000 FMFlg1=           0
         NFxFlg=           0 DoJE=T BraDBF=F KetDBF=T FulRan=T
         wScrn=  0.000000 ICntrl=       500 IOpCl=  0 I1Cent=   200000004 NGrid=           0
         NMat0=    1 NMatS0=      1 NMatT0=    0 NMatD0=    1 NMtDS0=    0 NMtDT0=    0
 Petite list used in FoFCou.
 Harris En= -705.564665193199    
 JPrj=0 DoOrth=F DoCkMO=F.
 Leave Link  401 at Sun Jul 18 13:46:47 2021, MaxMem=   104857600 cpu:               6.1 elap:               1.6
 (Enter /prod/apps/gaussian/g16b1/l502.exe)
 Integral symmetry usage will be decided dynamically.
 Closed shell SCF:
 Using DIIS extrapolation, IDIIS=  1040.
 NGot=   104857600 LenX=   104743994 LenY=   104688797
 Requested convergence on RMS density matrix=1.00D-08 within 128 cycles.
 Requested convergence on MAX density matrix=1.00D-06.
 Requested convergence on             energy=1.00D-06.
 No special actions if energy rises.
 Fock matrices will be formed incrementally for  20 cycles.

 Cycle   1  Pass 1  IDiag  1:
 FoFJK:  IHMeth= 1 ICntrl=       0 DoSepK=F KAlg= 0 I1Cent=           0 FoldK=F
 IRaf= 850000000 NMat=       1 IRICut=       1 DoRegI=T DoRafI=F ISym2E= 0 IDoP0=0 IntGTp=1.
 FoFCou: FMM=F IPFlag=           0 FMFlag=      100000 FMFlg1=           0
         NFxFlg=           0 DoJE=F BraDBF=F KetDBF=F FulRan=T
         wScrn=  0.000000 ICntrl=         0 IOpCl=  0 I1Cent=           0 NGrid=           0
         NMat0=    1 NMatS0=      1 NMatT0=    0 NMatD0=    1 NMtDS0=    0 NMtDT0=    0
 Symmetry not used in FoFCou.
 Inv3:  Mode=1 IEnd=    11174700.
 Iteration    1 A*A^-1 deviation from unit magnitude is 3.22D-15 for   1127.
 Iteration    1 A*A^-1 deviation from orthogonality  is 2.32D-15 for   1308    361.
 Iteration    1 A^-1*A deviation from unit magnitude is 3.66D-15 for   1127.
 Iteration    1 A^-1*A deviation from orthogonality  is 7.87D-14 for   1563   1547.
 E= -705.301715435225    
 DIIS: error= 3.02D-02 at cycle   1 NSaved=   1.
 NSaved= 1 IEnMin= 1 EnMin= -705.301715435225     IErMin= 1 ErrMin= 3.02D-02
 ErrMax= 3.02D-02  0.00D+00 EMaxC= 1.00D-01 BMatC= 3.72D-01 BMatP= 3.72D-01
 IDIUse=3 WtCom= 6.98D-01 WtEn= 3.02D-01
 Coeff-Com:  0.100D+01
 Coeff-En:   0.100D+01
 Coeff:      0.100D+01
 Gap=     0.208 Goal=   None    Shift=    0.000
 GapD=    0.208 DampG=1.000 DampE=0.500 DampFc=0.5000 IDamp=-1.
 Damping current iteration by 5.00D-01
 RMSDP=5.66D-03 MaxDP=1.96D-01              OVMax= 2.49D-01

 Cycle   2  Pass 1  IDiag  1:
 RMSU=  2.81D-03    CP:  9.87D-01
 E= -705.409574368165     Delta-E=       -0.107858932941 Rises=F Damp=T
 DIIS: error= 1.07D-02 at cycle   2 NSaved=   2.
 NSaved= 2 IEnMin= 2 EnMin= -705.409574368165     IErMin= 2 ErrMin= 1.07D-02
 ErrMax= 1.07D-02  0.00D+00 EMaxC= 1.00D-01 BMatC= 4.49D-02 BMatP= 3.72D-01
 IDIUse=3 WtCom= 8.93D-01 WtEn= 1.07D-01
 Coeff-Com:  0.170D+00 0.830D+00
 Coeff-En:   0.273D+00 0.727D+00
 Coeff:      0.181D+00 0.819D+00
 Gap=     0.157 Goal=   None    Shift=    0.000
 RMSDP=1.67D-03 MaxDP=5.64D-02 DE=-1.08D-01 OVMax= 2.19D-01

 Cycle   3  Pass 1  IDiag  1:
 RMSU=  1.55D-03    CP:  9.78D-01  7.85D-01
 E= -705.584150752494     Delta-E=       -0.174576384328 Rises=F Damp=F
 DIIS: error= 1.34D-02 at cycle   3 NSaved=   3.
 NSaved= 3 IEnMin= 3 EnMin= -705.584150752494     IErMin= 2 ErrMin= 1.07D-02
 ErrMax= 1.34D-02  0.00D+00 EMaxC= 1.00D-01 BMatC= 4.22D-02 BMatP= 4.49D-02
 IDIUse=3 WtCom= 8.66D-01 WtEn= 1.34D-01
 Coeff-Com:  0.377D-01 0.488D+00 0.475D+00
 Coeff-En:   0.000D+00 0.000D+00 0.100D+01
 Coeff:      0.326D-01 0.422D+00 0.545D+00
 Gap=     0.179 Goal=   None    Shift=    0.000
 RMSDP=1.02D-03 MaxDP=5.03D-02 DE=-1.75D-01 OVMax= 1.03D-01

 Cycle   4  Pass 1  IDiag  1:
 RMSU=  6.59D-04    CP:  9.82D-01  8.62D-01  5.22D-01
 E= -705.611782144558     Delta-E=       -0.027631392064 Rises=F Damp=F
 DIIS: error= 6.38D-03 at cycle   4 NSaved=   4.
 NSaved= 4 IEnMin= 4 EnMin= -705.611782144558     IErMin= 4 ErrMin= 6.38D-03
 ErrMax= 6.38D-03  0.00D+00 EMaxC= 1.00D-01 BMatC= 9.05D-03 BMatP= 4.22D-02
 IDIUse=3 WtCom= 9.36D-01 WtEn= 6.38D-02
 Coeff-Com:  0.390D-02 0.112D+00 0.329D+00 0.555D+00
 Coeff-En:   0.000D+00 0.000D+00 0.188D+00 0.812D+00
 Coeff:      0.365D-02 0.105D+00 0.320D+00 0.571D+00
 Gap=     0.179 Goal=   None    Shift=    0.000
 RMSDP=3.86D-04 MaxDP=1.78D-02 DE=-2.76D-02 OVMax= 3.78D-02

 Cycle   5  Pass 1  IDiag  1:
 RMSU=  2.03D-04    CP:  9.82D-01  8.25D-01  6.50D-01  6.36D-01
 E= -705.617898936215     Delta-E=       -0.006116791657 Rises=F Damp=F
 DIIS: error= 1.78D-03 at cycle   5 NSaved=   5.
 NSaved= 5 IEnMin= 5 EnMin= -705.617898936215     IErMin= 5 ErrMin= 1.78D-03
 ErrMax= 1.78D-03  0.00D+00 EMaxC= 1.00D-01 BMatC= 8.05D-04 BMatP= 9.05D-03
 IDIUse=3 WtCom= 9.82D-01 WtEn= 1.78D-02
 Coeff-Com: -0.703D-03 0.946D-02 0.133D+00 0.348D+00 0.511D+00
 Coeff-En:   0.000D+00 0.000D+00 0.000D+00 0.420D-01 0.958D+00
 Coeff:     -0.690D-03 0.929D-02 0.130D+00 0.342D+00 0.519D+00
 Gap=     0.179 Goal=   None    Shift=    0.000
 RMSDP=1.16D-04 MaxDP=4.78D-03 DE=-6.12D-03 OVMax= 7.73D-03

 Cycle   6  Pass 1  IDiag  1:
 RMSU=  4.96D-05    CP:  9.81D-01  8.33D-01  6.51D-01  6.89D-01  5.27D-01
 E= -705.618550709550     Delta-E=       -0.000651773334 Rises=F Damp=F
 DIIS: error= 1.38D-04 at cycle   6 NSaved=   6.
 NSaved= 6 IEnMin= 6 EnMin= -705.618550709550     IErMin= 6 ErrMin= 1.38D-04
 ErrMax= 1.38D-04  0.00D+00 EMaxC= 1.00D-01 BMatC= 1.42D-05 BMatP= 8.05D-04
 IDIUse=3 WtCom= 9.99D-01 WtEn= 1.38D-03
 Coeff-Com: -0.490D-03-0.140D-02 0.335D-01 0.999D-01 0.208D+00 0.660D+00
 Coeff-En:   0.000D+00 0.000D+00 0.000D+00 0.000D+00 0.000D+00 0.100D+01
 Coeff:     -0.489D-03-0.140D-02 0.335D-01 0.998D-01 0.208D+00 0.660D+00
 Gap=     0.179 Goal=   None    Shift=    0.000
 RMSDP=1.87D-05 MaxDP=5.55D-04 DE=-6.52D-04 OVMax= 1.29D-03

 Cycle   7  Pass 1  IDiag  1:
 RMSU=  1.24D-05    CP:  9.81D-01  8.33D-01  6.51D-01  6.90D-01  5.67D-01
                    CP:  7.74D-01
 E= -705.618562015829     Delta-E=       -0.000011306279 Rises=F Damp=F
 DIIS: error= 5.14D-05 at cycle   7 NSaved=   7.
 NSaved= 7 IEnMin= 7 EnMin= -705.618562015829     IErMin= 7 ErrMin= 5.14D-05
 ErrMax= 5.14D-05  0.00D+00 EMaxC= 1.00D-01 BMatC= 1.72D-06 BMatP= 1.42D-05
 IDIUse=1 WtCom= 1.00D+00 WtEn= 0.00D+00
 Coeff-Com: -0.210D-03-0.115D-02 0.102D-01 0.321D-01 0.819D-01 0.350D+00
 Coeff-Com:  0.527D+00
 Coeff:     -0.210D-03-0.115D-02 0.102D-01 0.321D-01 0.819D-01 0.350D+00
 Coeff:      0.527D+00
 Gap=     0.179 Goal=   None    Shift=    0.000
 RMSDP=6.43D-06 MaxDP=2.13D-04 DE=-1.13D-05 OVMax= 4.41D-04

 Cycle   8  Pass 1  IDiag  1:
 RMSU=  3.54D-06    CP:  9.81D-01  8.33D-01  6.52D-01  6.92D-01  5.67D-01
                    CP:  7.92D-01  6.18D-01
 E= -705.618563552584     Delta-E=       -0.000001536755 Rises=F Damp=F
 DIIS: error= 1.28D-05 at cycle   8 NSaved=   8.
 NSaved= 8 IEnMin= 8 EnMin= -705.618563552584     IErMin= 8 ErrMin= 1.28D-05
 ErrMax= 1.28D-05  0.00D+00 EMaxC= 1.00D-01 BMatC= 9.81D-08 BMatP= 1.72D-06
 IDIUse=1 WtCom= 1.00D+00 WtEn= 0.00D+00
 Coeff-Com: -0.309D-04-0.385D-03 0.149D-02 0.468D-02 0.177D-01 0.921D-01
 Coeff-Com:  0.230D+00 0.654D+00
 Coeff:     -0.309D-04-0.385D-03 0.149D-02 0.468D-02 0.177D-01 0.921D-01
 Coeff:      0.230D+00 0.654D+00
 Gap=     0.179 Goal=   None    Shift=    0.000
 RMSDP=1.87D-06 MaxDP=5.91D-05 DE=-1.54D-06 OVMax= 1.68D-04

 Cycle   9  Pass 1  IDiag  1:
 RMSU=  1.24D-06    CP:  9.81D-01  8.33D-01  6.52D-01  6.91D-01  5.70D-01
                    CP:  7.97D-01  6.65D-01  7.11D-01
 E= -705.618563631910     Delta-E=       -0.000000079326 Rises=F Damp=F
 DIIS: error= 4.00D-06 at cycle   9 NSaved=   9.
 NSaved= 9 IEnMin= 9 EnMin= -705.618563631910     IErMin= 9 ErrMin= 4.00D-06
 ErrMax= 4.00D-06  0.00D+00 EMaxC= 1.00D-01 BMatC= 1.71D-08 BMatP= 9.81D-08
 IDIUse=1 WtCom= 1.00D+00 WtEn= 0.00D+00
 Coeff-Com:  0.771D-05-0.873D-04-0.269D-03-0.979D-03 0.777D-03 0.114D-01
 Coeff-Com:  0.663D-01 0.356D+00 0.567D+00
 Coeff:      0.771D-05-0.873D-04-0.269D-03-0.979D-03 0.777D-03 0.114D-01
 Coeff:      0.663D-01 0.356D+00 0.567D+00
 Gap=     0.179 Goal=   None    Shift=    0.000
 RMSDP=6.36D-07 MaxDP=1.59D-05 DE=-7.93D-08 OVMax= 4.22D-05

 Cycle  10  Pass 1  IDiag  1:
 RMSU=  3.46D-07    CP:  9.81D-01  8.33D-01  6.52D-01  6.91D-01  5.70D-01
                    CP:  8.00D-01  6.67D-01  7.98D-01  6.72D-01
 E= -705.618563647147     Delta-E=       -0.000000015237 Rises=F Damp=F
 DIIS: error= 7.85D-07 at cycle  10 NSaved=  10.
 NSaved=10 IEnMin=10 EnMin= -705.618563647147     IErMin=10 ErrMin= 7.85D-07
 ErrMax= 7.85D-07  0.00D+00 EMaxC= 1.00D-01 BMatC= 6.79D-10 BMatP= 1.71D-08
 IDIUse=1 WtCom= 1.00D+00 WtEn= 0.00D+00
 Coeff-Com:  0.605D-05-0.150D-04-0.201D-03-0.700D-03-0.767D-03-0.103D-02
 Coeff-Com:  0.135D-01 0.111D+00 0.240D+00 0.639D+00
 Coeff:      0.605D-05-0.150D-04-0.201D-03-0.700D-03-0.767D-03-0.103D-02
 Coeff:      0.135D-01 0.111D+00 0.240D+00 0.639D+00
 Gap=     0.179 Goal=   None    Shift=    0.000
 RMSDP=1.54D-07 MaxDP=5.08D-06 DE=-1.52D-08 OVMax= 1.62D-05

 Cycle  11  Pass 1  IDiag  1:
 RMSU=  1.04D-07    CP:  9.81D-01  8.33D-01  6.52D-01  6.91D-01  5.70D-01
                    CP:  7.99D-01  6.69D-01  8.04D-01  7.28D-01  7.78D-01
 E= -705.618563647805     Delta-E=       -0.000000000658 Rises=F Damp=F
 DIIS: error= 2.92D-07 at cycle  11 NSaved=  11.
 NSaved=11 IEnMin=11 EnMin= -705.618563647805     IErMin=11 ErrMin= 2.92D-07
 ErrMax= 2.92D-07  0.00D+00 EMaxC= 1.00D-01 BMatC= 7.46D-11 BMatP= 6.79D-10
 IDIUse=1 WtCom= 1.00D+00 WtEn= 0.00D+00
 Coeff-Com:  0.199D-05 0.164D-05-0.667D-04-0.220D-03-0.459D-03-0.168D-02
 Coeff-Com: -0.813D-03 0.137D-01 0.428D-01 0.284D+00 0.663D+00
 Coeff:      0.199D-05 0.164D-05-0.667D-04-0.220D-03-0.459D-03-0.168D-02
 Coeff:     -0.813D-03 0.137D-01 0.428D-01 0.284D+00 0.663D+00
 Gap=     0.179 Goal=   None    Shift=    0.000
 RMSDP=4.75D-08 MaxDP=1.29D-06 DE=-6.58D-10 OVMax= 3.44D-06

 Cycle  12  Pass 1  IDiag  1:
 RMSU=  3.31D-08    CP:  9.81D-01  8.33D-01  6.52D-01  6.91D-01  5.70D-01
                    CP:  7.99D-01  6.70D-01  8.07D-01  7.33D-01  8.41D-01
                    CP:  8.17D-01
 E= -705.618563647888     Delta-E=       -0.000000000083 Rises=F Damp=F
 DIIS: error= 8.67D-08 at cycle  12 NSaved=  12.
 NSaved=12 IEnMin=12 EnMin= -705.618563647888     IErMin=12 ErrMin= 8.67D-08
 ErrMax= 8.67D-08  0.00D+00 EMaxC= 1.00D-01 BMatC= 5.62D-12 BMatP= 7.46D-11
 IDIUse=1 WtCom= 1.00D+00 WtEn= 0.00D+00
 Coeff-Com:  0.254D-06 0.160D-05-0.641D-05-0.151D-04-0.108D-03-0.548D-03
 Coeff-Com: -0.166D-02-0.514D-02-0.834D-02 0.584D-01 0.262D+00 0.695D+00
 Coeff:      0.254D-06 0.160D-05-0.641D-05-0.151D-04-0.108D-03-0.548D-03
 Coeff:     -0.166D-02-0.514D-02-0.834D-02 0.584D-01 0.262D+00 0.695D+00
 Gap=     0.179 Goal=   None    Shift=    0.000
 RMSDP=1.66D-08 MaxDP=5.22D-07 DE=-8.32D-11 OVMax= 1.49D-06

 Cycle  13  Pass 1  IDiag  1:
 RMSU=  1.17D-08    CP:  9.81D-01  8.33D-01  6.52D-01  6.91D-01  5.70D-01
                    CP:  8.00D-01  6.70D-01  8.07D-01  7.35D-01  8.56D-01
                    CP:  8.81D-01  8.46D-01
 E= -705.618563647898     Delta-E=       -0.000000000010 Rises=F Damp=F
 DIIS: error= 3.79D-08 at cycle  13 NSaved=  13.
 NSaved=13 IEnMin=13 EnMin= -705.618563647898     IErMin=13 ErrMin= 3.79D-08
 ErrMax= 3.79D-08  0.00D+00 EMaxC= 1.00D-01 BMatC= 1.15D-12 BMatP= 5.62D-12
 IDIUse=1 WtCom= 1.00D+00 WtEn= 0.00D+00
 Coeff-Com: -0.510D-07 0.576D-06 0.414D-05 0.166D-04-0.541D-05-0.906D-04
 Coeff-Com: -0.757D-03-0.402D-02-0.941D-02-0.436D-03 0.571D-01 0.366D+00
 Coeff-Com:  0.592D+00
 Coeff:     -0.510D-07 0.576D-06 0.414D-05 0.166D-04-0.541D-05-0.906D-04
 Coeff:     -0.757D-03-0.402D-02-0.941D-02-0.436D-03 0.571D-01 0.366D+00
 Coeff:      0.592D+00
 Gap=     0.179 Goal=   None    Shift=    0.000
 RMSDP=6.16D-09 MaxDP=1.87D-07 DE=-9.55D-12 OVMax= 4.97D-07

 Error on total polarization charges =  0.01254
 SCF Done:  E(RB3LYP) =  -705.618563648     A.U. after   13 cycles
            NFock= 13  Conv=0.62D-08     -V/T= 2.0083
 KE= 6.998005188549D+02 PE=-3.421842266911D+03 EE= 1.120534738526D+03
 Leave Link  502 at Sun Jul 18 13:47:28 2021, MaxMem=   104857600 cpu:             163.4 elap:              40.9
 (Enter /prod/apps/gaussian/g16b1/l601.exe)
 Copying SCF densities to generalized density rwf, IOpCl= 0 IROHF=0.

 **********************************************************************

            Population analysis using the SCF Density.

 **********************************************************************

 Orbital symmetries:
       Occupied  (A) (A) (A) (A) (A) (A) (A) (A) (A) (A) (A) (A)
                 (A) (A) (A) (A) (A) (A) (A) (A) (A) (A) (A) (A)
                 (A) (A) (A) (A) (A) (A) (A) (A) (A) (A) (A) (A)
                 (A) (A) (A) (A) (A) (A) (A) (A) (A) (A) (A) (A)
                 (A) (A) (A) (A)
       Virtual   (A) (A) (A) (A) (A) (A) (A) (A) (A) (A) (A) (A)
                 (A) (A) (A) (A) (A) (A) (A) (A) (A) (A) (A) (A)
                 (A) (A) (A) (A) (A) (A) (A) (A) (A) (A) (A) (A)
                 (A) (A) (A) (A) (A) (A) (A) (A) (A) (A) (A) (A)
                 (A) (A) (A) (A) (A) (A) (A) (A) (A) (A) (A) (A)
                 (A) (A) (A) (A) (A) (A) (A) (A) (A) (A) (A) (A)
                 (A) (A) (A) (A) (A) (A) (A) (A) (A) (A) (A) (A)
                 (A) (A) (A) (A) (A) (A) (A) (A) (A) (A) (A) (A)
                 (A) (A) (A) (A) (A) (A) (A) (A) (A) (A) (A) (A)
                 (A) (A) (A) (A) (A) (A) (A) (A) (A) (A) (A) (A)
                 (A) (A) (A) (A) (A) (A) (A) (A) (A) (A) (A) (A)
                 (A) (A) (A) (A) (A) (A) (A) (A) (A) (A) (A) (A)
                 (A) (A) (A) (A) (A) (A) (A) (A) (A) (A) (A) (A)
                 (A) (A) (A) (A) (A) (A) (A) (A) (A) (A) (A) (A)
                 (A) (A) (A) (A) (A) (A) (A) (A) (A) (A) (A) (A)
                 (A) (A)
 The electronic state is 1-A.
 Alpha  occ. eigenvalues --  -19.23006 -19.18266 -19.17558 -19.15356 -14.48003
 Alpha  occ. eigenvalues --  -10.35110 -10.28453 -10.26085 -10.25271 -10.21500
 Alpha  occ. eigenvalues --  -10.20353 -10.19615 -10.19594 -10.19147  -1.17341
 Alpha  occ. eigenvalues --   -1.07243  -1.05396  -1.04631  -1.03167  -0.86941
 Alpha  occ. eigenvalues --   -0.82391  -0.76563  -0.74292  -0.68858  -0.66078
 Alpha  occ. eigenvalues --   -0.64597  -0.62002  -0.61436  -0.58892  -0.57325
 Alpha  occ. eigenvalues --   -0.54888  -0.54013  -0.52304  -0.49290  -0.48519
 Alpha  occ. eigenvalues --   -0.46838  -0.45791  -0.44782  -0.43927  -0.42062
 Alpha  occ. eigenvalues --   -0.41514  -0.40701  -0.40617  -0.37974  -0.37188
 Alpha  occ. eigenvalues --   -0.35313  -0.34492  -0.33070  -0.32755  -0.29651
 Alpha  occ. eigenvalues --   -0.25214  -0.21608
 Alpha virt. eigenvalues --   -0.03668  -0.01310   0.00461   0.03678   0.07082
 Alpha virt. eigenvalues --    0.08412   0.09269   0.09641   0.11378   0.12697
 Alpha virt. eigenvalues --    0.13216   0.13758   0.15056   0.16605   0.18288
 Alpha virt. eigenvalues --    0.19153   0.19518   0.21777   0.22422   0.23659
 Alpha virt. eigenvalues --    0.24824   0.26498   0.32298   0.33383   0.34916
 Alpha virt. eigenvalues --    0.35433   0.36758   0.38161   0.48282   0.49652
 Alpha virt. eigenvalues --    0.49992   0.51012   0.52371   0.53536   0.53930
 Alpha virt. eigenvalues --    0.55673   0.56916   0.57894   0.58663   0.59773
 Alpha virt. eigenvalues --    0.60467   0.60485   0.61880   0.64054   0.64680
 Alpha virt. eigenvalues --    0.65880   0.66102   0.67902   0.70374   0.71551
 Alpha virt. eigenvalues --    0.72569   0.73674   0.74955   0.76263   0.77944
 Alpha virt. eigenvalues --    0.79418   0.81263   0.81767   0.82593   0.83645
 Alpha virt. eigenvalues --    0.84885   0.86504   0.87010   0.87833   0.89126
 Alpha virt. eigenvalues --    0.89783   0.90970   0.92876   0.93245   0.94469
 Alpha virt. eigenvalues --    0.94839   0.97061   0.99151   1.00025   1.02147
 Alpha virt. eigenvalues --    1.02492   1.04003   1.04433   1.06769   1.08830
 Alpha virt. eigenvalues --    1.09944   1.11744   1.14714   1.15694   1.18502
 Alpha virt. eigenvalues --    1.20027   1.25131   1.26418   1.28499   1.29890
 Alpha virt. eigenvalues --    1.33449   1.35221   1.35723   1.39140   1.42510
 Alpha virt. eigenvalues --    1.43767   1.44251   1.46762   1.49562   1.52557
 Alpha virt. eigenvalues --    1.54248   1.58881   1.61508   1.65189   1.65425
 Alpha virt. eigenvalues --    1.68721   1.69924   1.73020   1.74223   1.75773
 Alpha virt. eigenvalues --    1.77132   1.78587   1.79888   1.81192   1.83203
 Alpha virt. eigenvalues --    1.84334   1.85230   1.87086   1.88619   1.88954
 Alpha virt. eigenvalues --    1.91943   1.94135   1.95063   1.98950   2.00167
 Alpha virt. eigenvalues --    2.01477   2.02201   2.07515   2.08954   2.09312
 Alpha virt. eigenvalues --    2.12713   2.13082   2.18005   2.23304   2.25462
 Alpha virt. eigenvalues --    2.27663   2.28676   2.31011   2.32606   2.33565
 Alpha virt. eigenvalues --    2.35951   2.37014   2.40552   2.43072   2.43256
 Alpha virt. eigenvalues --    2.45596   2.49116   2.49513   2.53337   2.55347
 Alpha virt. eigenvalues --    2.56987   2.57727   2.62445   2.65798   2.67380
 Alpha virt. eigenvalues --    2.71871   2.73944   2.75604   2.80199   2.85299
 Alpha virt. eigenvalues --    2.87397   2.87709   2.92420   2.98059   3.00196
 Alpha virt. eigenvalues --    3.03228   3.19611   3.41840   3.78464   3.83615
 Alpha virt. eigenvalues --    3.95277   4.01679   4.03902   4.10451   4.15006
 Alpha virt. eigenvalues --    4.17837   4.23454   4.34182   4.37670   4.53487
 Alpha virt. eigenvalues --    4.55068   4.84391
          Condensed to atoms (all electrons):
               1          2          3          4          5          6
     1  N    6.864544   0.294275   0.276209   0.178774  -0.019345  -0.014538
     2  H    0.294275   0.244466  -0.007548  -0.015766  -0.000547   0.000814
     3  H    0.276209  -0.007548   0.250940  -0.022299   0.002230   0.000180
     4  C    0.178774  -0.015766  -0.022299   5.421127   0.274410  -0.083505
     5  C   -0.019345  -0.000547   0.002230   0.274410   4.343644   0.332837
     6  O   -0.014538   0.000814   0.000180  -0.083505   0.332837   8.125400
     7  H    0.016531  -0.000902   0.001199  -0.007652  -0.036193   0.222855
     8  O    0.001844  -0.000002  -0.000023  -0.083696   0.565537  -0.109231
     9  H   -0.024665  -0.003309  -0.000489   0.350872  -0.021372   0.001935
    10  C   -0.074311   0.004699  -0.006066   0.320927  -0.035792  -0.003196
    11  H    0.005462  -0.000149   0.000487  -0.041993  -0.004292   0.000475
    12  H   -0.005108   0.000047  -0.000501  -0.053169  -0.002969   0.001384
    13  C   -0.005967  -0.000186   0.014214  -0.041063   0.004330  -0.000078
    14  C   -0.001460  -0.000023   0.014242  -0.004261  -0.000148  -0.000001
    15  H    0.000426   0.000021   0.001749   0.000100  -0.000029  -0.000000
    16  C   -0.000084   0.000001  -0.000201  -0.000059   0.000002   0.000000
    17  O    0.000000  -0.000000  -0.000016   0.000000  -0.000000   0.000000
    18  H   -0.000001   0.000000  -0.000010   0.000000   0.000000  -0.000000
    19  C    0.000011   0.000000  -0.000013  -0.000006  -0.000000   0.000000
    20  O   -0.000000  -0.000000   0.000000   0.000000   0.000000  -0.000000
    21  H    0.000000   0.000000  -0.000000   0.000000  -0.000000   0.000000
    22  C    0.000010  -0.000001  -0.000173   0.000066   0.000002  -0.000000
    23  H    0.000000   0.000000  -0.000001   0.000000  -0.000000   0.000000
    24  C    0.000056  -0.000030   0.000234  -0.004585   0.000176   0.000000
    25  H    0.000061  -0.000000   0.000038  -0.000199  -0.000118   0.000000
    26  H    0.276483  -0.009715  -0.006407  -0.021273  -0.005956   0.006333
               7          8          9         10         11         12
     1  N    0.016531   0.001844  -0.024665  -0.074311   0.005462  -0.005108
     2  H   -0.000902  -0.000002  -0.003309   0.004699  -0.000149   0.000047
     3  H    0.001199  -0.000023  -0.000489  -0.006066   0.000487  -0.000501
     4  C   -0.007652  -0.083696   0.350872   0.320927  -0.041993  -0.053169
     5  C   -0.036193   0.565537  -0.021372  -0.035792  -0.004292  -0.002969
     6  O    0.222855  -0.109231   0.001935  -0.003196   0.000475   0.001384
     7  H    0.342832   0.007169   0.000433  -0.000342  -0.000180  -0.000354
     8  O    0.007169   8.105741   0.001102   0.000086   0.012912   0.000155
     9  H    0.000433   0.001102   0.457822  -0.037612  -0.001222   0.006167
    10  C   -0.000342   0.000086  -0.037612   5.278349   0.359981   0.370592
    11  H   -0.000180   0.012912  -0.001222   0.359981   0.499981  -0.017564
    12  H   -0.000354   0.000155   0.006167   0.370592  -0.017564   0.533192
    13  C   -0.000003   0.000482  -0.004708   0.307044  -0.023031  -0.034959
    14  C    0.000001  -0.000004   0.000154  -0.039400   0.002007  -0.001674
    15  H   -0.000007   0.000000   0.000026  -0.009144   0.000036   0.004685
    16  C   -0.000000   0.000000   0.000007   0.005291  -0.000147   0.000334
    17  O    0.000000   0.000000   0.000000  -0.000104   0.000001  -0.000000
    18  H    0.000000  -0.000000   0.000000  -0.000028   0.000000   0.000007
    19  C   -0.000000   0.000000  -0.000013   0.000744   0.000019  -0.000008
    20  O    0.000000   0.000000  -0.000000   0.000000  -0.000000  -0.000000
    21  H   -0.000000   0.000000   0.000000   0.000001  -0.000000   0.000000
    22  C    0.000000  -0.000000  -0.000152   0.005566   0.000027  -0.000110
    23  H   -0.000000  -0.000000   0.000005  -0.000128  -0.000006   0.000002
    24  C    0.000001  -0.000009   0.004940  -0.045840  -0.004005   0.002782
    25  H    0.000000   0.000005   0.001713  -0.010341   0.005104   0.000072
    26  H    0.012391  -0.000143   0.003427  -0.000989  -0.000088   0.003791
              13         14         15         16         17         18
     1  N   -0.005967  -0.001460   0.000426  -0.000084   0.000000  -0.000001
     2  H   -0.000186  -0.000023   0.000021   0.000001  -0.000000   0.000000
     3  H    0.014214   0.014242   0.001749  -0.000201  -0.000016  -0.000010
     4  C   -0.041063  -0.004261   0.000100  -0.000059   0.000000   0.000000
     5  C    0.004330  -0.000148  -0.000029   0.000002  -0.000000   0.000000
     6  O   -0.000078  -0.000001  -0.000000   0.000000   0.000000  -0.000000
     7  H   -0.000003   0.000001  -0.000007  -0.000000   0.000000   0.000000
     8  O    0.000482  -0.000004   0.000000   0.000000   0.000000  -0.000000
     9  H   -0.004708   0.000154   0.000026   0.000007   0.000000   0.000000
    10  C    0.307044  -0.039400  -0.009144   0.005291  -0.000104  -0.000028
    11  H   -0.023031   0.002007   0.000036  -0.000147   0.000001   0.000000
    12  H   -0.034959  -0.001674   0.004685   0.000334  -0.000000   0.000007
    13  C    4.735157   0.455804  -0.036378  -0.005259   0.005923   0.001065
    14  C    0.455804   5.254489   0.350728   0.436037  -0.061780  -0.002327
    15  H   -0.036378   0.350728   0.531829  -0.031163  -0.005028   0.005283
    16  C   -0.005259   0.436037  -0.031163   4.759493   0.268837  -0.029476
    17  O    0.005923  -0.061780  -0.005028   0.268837   8.254459   0.254458
    18  H    0.001065  -0.002327   0.005283  -0.029476   0.254458   0.294803
    19  C   -0.030717  -0.031863   0.002387   0.434216  -0.049292   0.003821
    20  O   -0.000153   0.005348  -0.000022  -0.054996  -0.003675  -0.000043
    21  H   -0.000101   0.000979  -0.000002  -0.010426   0.011787  -0.000421
    22  C   -0.023833  -0.046893   0.000348  -0.038385   0.002967  -0.000078
    23  H    0.003516   0.000064   0.000013   0.007009  -0.000043   0.000005
    24  C    0.567779  -0.056551   0.005618  -0.048274   0.000553  -0.000026
    25  H   -0.044137   0.007028  -0.000210   0.000324   0.000002  -0.000001
    26  H   -0.000280   0.000090   0.000088   0.000002  -0.000000   0.000000
              19         20         21         22         23         24
     1  N    0.000011  -0.000000   0.000000   0.000010   0.000000   0.000056
     2  H    0.000000  -0.000000   0.000000  -0.000001   0.000000  -0.000030
     3  H   -0.000013   0.000000  -0.000000  -0.000173  -0.000001   0.000234
     4  C   -0.000006   0.000000   0.000000   0.000066   0.000000  -0.004585
     5  C   -0.000000   0.000000  -0.000000   0.000002  -0.000000   0.000176
     6  O    0.000000  -0.000000   0.000000  -0.000000   0.000000   0.000000
     7  H   -0.000000   0.000000  -0.000000   0.000000  -0.000000   0.000001
     8  O    0.000000   0.000000   0.000000  -0.000000  -0.000000  -0.000009
     9  H   -0.000013  -0.000000   0.000000  -0.000152   0.000005   0.004940
    10  C    0.000744   0.000000   0.000001   0.005566  -0.000128  -0.045840
    11  H    0.000019  -0.000000  -0.000000   0.000027  -0.000006  -0.004005
    12  H   -0.000008  -0.000000   0.000000  -0.000110   0.000002   0.002782
    13  C   -0.030717  -0.000153  -0.000101  -0.023833   0.003516   0.567779
    14  C   -0.031863   0.005348   0.000979  -0.046893   0.000064  -0.056551
    15  H    0.002387  -0.000022  -0.000002   0.000348   0.000013   0.005618
    16  C    0.434216  -0.054996  -0.010426  -0.038385   0.007009  -0.048274
    17  O   -0.049292  -0.003675   0.011787   0.002967  -0.000043   0.000553
    18  H    0.003821  -0.000043  -0.000421  -0.000078   0.000005  -0.000026
    19  C    4.633085   0.272974  -0.034202   0.556643  -0.036389  -0.028509
    20  O    0.272974   8.271096   0.248889  -0.060326  -0.001282   0.004260
    21  H   -0.034202   0.248889   0.325067   0.004151  -0.000264  -0.000171
    22  C    0.556643  -0.060326   0.004151   4.979412   0.349074   0.495198
    23  H   -0.036389  -0.001282  -0.000264   0.349074   0.552125  -0.034656
    24  C   -0.028509   0.004260  -0.000171   0.495198  -0.034656   5.006276
    25  H    0.004102  -0.000059   0.000006  -0.038382  -0.004093   0.356489
    26  H   -0.000000   0.000000  -0.000000  -0.000001   0.000000   0.000006
              25         26
     1  N    0.000061   0.276483
     2  H   -0.000000  -0.009715
     3  H    0.000038  -0.006407
     4  C   -0.000199  -0.021273
     5  C   -0.000118  -0.005956
     6  O    0.000000   0.006333
     7  H    0.000000   0.012391
     8  O    0.000005  -0.000143
     9  H    0.001713   0.003427
    10  C   -0.010341  -0.000989
    11  H    0.005104  -0.000088
    12  H    0.000072   0.003791
    13  C   -0.044137  -0.000280
    14  C    0.007028   0.000090
    15  H   -0.000210   0.000088
    16  C    0.000324   0.000002
    17  O    0.000002  -0.000000
    18  H   -0.000001   0.000000
    19  C    0.004102  -0.000000
    20  O   -0.000059   0.000000
    21  H    0.000006  -0.000000
    22  C   -0.038382  -0.000001
    23  H   -0.004093   0.000000
    24  C    0.356489   0.000006
    25  H    0.571506   0.000001
    26  H    0.000001   0.258154
 Mulliken charges:
               1
     1  N   -0.769208
     2  H    0.493852
     3  H    0.482021
     4  C   -0.166750
     5  C    0.603590
     6  O   -0.481665
     7  H    0.442223
     8  O   -0.501924
     9  H    0.264938
    10  C   -0.389987
    11  H    0.206186
    12  H    0.193207
    13  C    0.155538
    14  C   -0.280587
    15  H    0.178648
    16  C    0.306918
    17  O   -0.679049
    18  H    0.472969
    19  C    0.303010
    20  O   -0.682012
    21  H    0.454706
    22  C   -0.185130
    23  H    0.165048
    24  C   -0.221714
    25  H    0.151087
    26  H    0.484087
 Sum of Mulliken charges =   1.00000
 Mulliken charges with hydrogens summed into heavy atoms:
               1
     1  N    0.690752
     4  C    0.098187
     5  C    0.603590
     6  O   -0.039442
     8  O   -0.501924
    10  C    0.009405
    13  C    0.155538
    14  C   -0.101939
    16  C    0.306918
    17  O   -0.206080
    19  C    0.303010
    20  O   -0.227306
    22  C   -0.020082
    24  C   -0.070627
 Electronic spatial extent (au):  <R**2>=           3773.3578
 Charge=              1.0000 electrons
 Dipole moment (field-independent basis, Debye):
    X=              6.0627    Y=             10.3698    Z=              6.1370  Tot=             13.4889
 Quadrupole moment (field-independent basis, Debye-Ang):
   XX=            -83.9194   YY=            -59.6106   ZZ=            -73.1739
   XY=             13.3182   XZ=             23.8512   YZ=              2.3290
 Traceless Quadrupole moment (field-independent basis, Debye-Ang):
   XX=            -11.6847   YY=             12.6240   ZZ=             -0.9393
   XY=             13.3182   XZ=             23.8512   YZ=              2.3290
 Octapole moment (field-independent basis, Debye-Ang**2):
  XXX=            -39.5762  YYY=             53.1017  ZZZ=             23.2083  XYY=              9.6517
  XXY=             74.9903  XXZ=             35.1742  XZZ=             26.1067  YZZ=             18.6860
  YYZ=             11.2351  XYZ=              6.4815
 Hexadecapole moment (field-independent basis, Debye-Ang**3):
 XXXX=          -4127.1758 YYYY=           -469.5415 ZZZZ=           -205.4055 XXXY=             85.5131
 XXXZ=            290.8888 YYYX=             14.8381 YYYZ=             -8.1969 ZZZX=             49.5216
 ZZZY=             23.9193 XXYY=           -685.7204 XXZZ=           -656.8130 YYZZ=           -123.2531
 XXYZ=              2.6965 YYXZ=             40.6912 ZZXY=             22.7681
 N-N= 8.958884458823D+02 E-N=-3.421842266158D+03  KE= 6.998005188549D+02
 No NMR shielding tensors so no spin-rotation constants.
 Leave Link  601 at Sun Jul 18 13:47:28 2021, MaxMem=   104857600 cpu:               0.5 elap:               0.2
 (Enter /prod/apps/gaussian/g16b1/l701.exe)
 ... and contract with generalized density number  0.
 Compute integral first derivatives.
 D1PCM: PCM CHGder 1st derivatives, ID1Alg=3 FixD1E=F DoIter=F DoCFld=F I1PDM=0.
 GePol: Maximum number of non-zero 1st derivatives   =     265
 Leave Link  701 at Sun Jul 18 13:47:30 2021, MaxMem=   104857600 cpu:               7.2 elap:               1.8
 (Enter /prod/apps/gaussian/g16b1/l702.exe)
 L702 exits ... SP integral derivatives will be done elsewhere.
 Leave Link  702 at Sun Jul 18 13:47:30 2021, MaxMem=   104857600 cpu:               0.1 elap:               0.0
 (Enter /prod/apps/gaussian/g16b1/l703.exe)
 Integral derivatives from FoFJK, PRISM(SPDF).
 Compute integral first derivatives, UseDBF=F ICtDFT=           0.
 Calling FoFJK, ICntrl=      2127 FMM=F ISym2X=0 I1Cent= 0 IOpClX= 0 NMat=1 NMatS=1 NMatT=0.
 FoFJK:  IHMeth= 1 ICntrl=    2127 DoSepK=F KAlg= 0 I1Cent=           0 FoldK=F
 IRaf=         0 NMat=       1 IRICut=       1 DoRegI=T DoRafI=F ISym2E= 0 IDoP0=0 IntGTp=1.
 FoFCou: FMM=F IPFlag=           0 FMFlag=      100000 FMFlg1=         800
         NFxFlg=           0 DoJE=F BraDBF=F KetDBF=F FulRan=T
         wScrn=  0.000000 ICntrl=      2127 IOpCl=  0 I1Cent=           0 NGrid=           0
         NMat0=    1 NMatS0=      1 NMatT0=    0 NMatD0=    1 NMtDS0=    0 NMtDT0=    0
 Symmetry not used in FoFCou.
 Leave Link  703 at Sun Jul 18 13:47:39 2021, MaxMem=   104857600 cpu:              34.5 elap:               8.7
 (Enter /prod/apps/gaussian/g16b1/l716.exe)
 Dipole        = 2.38524269D+00 4.07978053D+00 2.41449955D+00
 ***** Axes restored to original set *****
 -------------------------------------------------------------------
 Center     Atomic                   Forces (Hartrees/Bohr)
 Number     Number              X              Y              Z
 -------------------------------------------------------------------
      1        7          -0.009720101    0.026578407    0.026921772
      2        1          -0.027132172   -0.016448482    0.011319107
      3        1           0.014519342   -0.022790149    0.008627085
      4        6           0.015799999    0.031468206    0.046416277
      5        6           0.074911958    0.063576813   -0.035149449
      6        8          -0.039649664   -0.042967636   -0.012935379
      7        1          -0.048775419   -0.000665575   -0.042745132
      8        8          -0.009674354   -0.009230572    0.044355745
      9        1          -0.008666677   -0.017176549    0.003585607
     10        6           0.025493308    0.011792570    0.003773406
     11        1           0.001769132   -0.000186813   -0.004691575
     12        1           0.011735363    0.000354728   -0.000148933
     13        6          -0.027498290    0.029885756   -0.033025185
     14        6          -0.003878103   -0.006188753    0.020291441
     15        1           0.015183232   -0.002739647   -0.000447499
     16        6          -0.009484736   -0.004240068   -0.008020775
     17        8           0.007433874   -0.010242113    0.016494029
     18        1           0.004596274   -0.003140496   -0.000407398
     19        6           0.020925230   -0.024408015   -0.003325148
     20        8          -0.002447743    0.001451020   -0.029676679
     21        1           0.007071706   -0.010763696    0.012654158
     22        6          -0.016970831    0.016004236   -0.011759606
     23        1          -0.000418402    0.004321611   -0.003516284
     24        6           0.001599645    0.015834443    0.016174377
     25        1          -0.003664260   -0.002413153    0.008877813
     26        1           0.006941687   -0.027666072   -0.033641776
 -------------------------------------------------------------------
 Cartesian Forces:  Max     0.074911958 RMS     0.022259233
 Leave Link  716 at Sun Jul 18 13:47:39 2021, MaxMem=   104857600 cpu:               0.1 elap:               0.1
 (Enter /prod/apps/gaussian/g16b1/l103.exe)

 GradGradGradGradGradGradGradGradGradGradGradGradGradGradGradGradGradGrad
 Berny optimization.
 FormGI is forming the generalized inverse of G from B-inverse, IUseBI=4.
 GSVD:  received Info=                   1 from GESDD.
 Internal  Forces:  Max     0.112163316 RMS     0.022018832
 Search for a local minimum.
 Step number   1 out of a maximum of  138
 All quantities printed in internal units (Hartrees-Bohrs-Radians)
 RMS Force = .22019D-01 SwitMx=.10000D-02 MixMth= 1
 Mixed Optimization -- RFO/linear search
 Second derivative matrix not updated -- first step.
 ITU=  0
     Eigenvalues ---    0.00230   0.00521   0.00722   0.00737   0.01584
     Eigenvalues ---    0.01758   0.01803   0.01905   0.02036   0.02063
     Eigenvalues ---    0.02204   0.02260   0.02276   0.02329   0.02370
     Eigenvalues ---    0.02420   0.03266   0.03838   0.04047   0.04940
     Eigenvalues ---    0.05558   0.05966   0.06044   0.06048   0.09741
     Eigenvalues ---    0.13165   0.15716   0.15899   0.15996   0.16000
     Eigenvalues ---    0.16000   0.16000   0.16000   0.16000   0.16000
     Eigenvalues ---    0.16087   0.18686   0.22118   0.22366   0.23475
     Eigenvalues ---    0.23713   0.24543   0.24925   0.24937   0.24978
     Eigenvalues ---    0.25000   0.27310   0.30513   0.32032   0.34461
     Eigenvalues ---    0.34552   0.34556   0.35124   0.35216   0.35221
     Eigenvalues ---    0.35482   0.39388   0.42647   0.45729   0.46466
     Eigenvalues ---    0.47195   0.47619   0.47705   0.47788   0.49593
     Eigenvalues ---    0.51543   0.52453   0.52499   0.52662   0.53548
     Eigenvalues ---    0.72772   0.89253
 RFO step:  Lambda=-1.56060631D-01 EMin= 2.30000000D-03
 Linear search not attempted -- first point.
 Maximum step size (   0.300) exceeded in Quadratic search.
    -- Step size scaled by   0.519
 Iteration  1 RMS(Cart)=  0.09047970 RMS(Int)=  0.00894219
 Iteration  2 RMS(Cart)=  0.01505669 RMS(Int)=  0.00061566
 Iteration  3 RMS(Cart)=  0.00035011 RMS(Int)=  0.00057778
 Iteration  4 RMS(Cart)=  0.00000037 RMS(Int)=  0.00057778
 ITry= 1 IFail=0 DXMaxC= 6.12D-01 DCOld= 1.00D+10 DXMaxT= 3.00D-01 DXLimC= 3.00D+00 Rises=F
 Variable       Old X    -DE/DX   Delta X   Delta X   Delta X     New X
                                 (Linear)    (Quad)   (Total)
    R1        1.88866   0.03233   0.00000   0.02645   0.02645   1.91510
    R2        1.88955   0.02729   0.00000   0.02235   0.02235   1.91190
    R3        2.78200   0.03891   0.00000   0.03950   0.03950   2.82150
    R4        1.89047   0.03510   0.00000   0.02879   0.02879   1.91926
    R5        2.86952   0.04359   0.00000   0.04901   0.04901   2.91853
    R6        2.06559   0.00049   0.00000   0.00051   0.00051   2.06610
    R7        2.84086   0.03292   0.00000   0.03583   0.03583   2.87669
    R8        2.42066   0.10810   0.00000   0.06343   0.06343   2.48409
    R9        2.33279  -0.01926   0.00000  -0.00952  -0.00952   2.32327
   R10        1.84124  -0.01944   0.00000  -0.01480  -0.01480   1.82644
   R11        2.06409  -0.00034   0.00000  -0.00035  -0.00035   2.06374
   R12        2.06402   0.00250   0.00000   0.00259   0.00259   2.06661
   R13        2.93672  -0.01621   0.00000  -0.01958  -0.01958   2.91714
   R14        2.59063   0.03607   0.00000   0.02868   0.02868   2.61932
   R15        2.60340   0.01396   0.00000   0.01176   0.01178   2.61518
   R16        2.05474  -0.00273   0.00000  -0.00279  -0.00279   2.05195
   R17        2.63838   0.00746   0.00000   0.00608   0.00606   2.64444
   R18        2.56446   0.01183   0.00000   0.00887   0.00887   2.57333
   R19        2.70178  -0.02349   0.00000  -0.02224  -0.02226   2.67952
   R20        1.83971  -0.00073   0.00000  -0.00055  -0.00055   1.83915
   R21        2.63610  -0.00490   0.00000  -0.00410  -0.00410   2.63200
   R22        2.57870   0.02986   0.00000   0.02239   0.02239   2.60108
   R23        1.84168   0.00239   0.00000   0.00182   0.00182   1.84350
   R24        2.05317  -0.00211   0.00000  -0.00215  -0.00215   2.05102
   R25        2.65216  -0.00555   0.00000  -0.00457  -0.00456   2.64760
   R26        2.05326   0.00011   0.00000   0.00011   0.00011   2.05337
    A1        1.91079  -0.00862   0.00000  -0.01658  -0.01654   1.89425
    A2        1.91108   0.00828   0.00000   0.01450   0.01414   1.92522
    A3        1.91047  -0.01050   0.00000  -0.01295  -0.01365   1.89681
    A4        1.91051   0.00091   0.00000  -0.00064  -0.00063   1.90988
    A5        1.91058  -0.01696   0.00000  -0.02967  -0.02968   1.88089
    A6        1.91037   0.02689   0.00000   0.04534   0.04495   1.95532
    A7        2.01656   0.02899   0.00000   0.05084   0.05127   2.06782
    A8        1.99797  -0.02184   0.00000  -0.04222  -0.04207   1.95590
    A9        1.84376   0.00932   0.00000   0.01730   0.01751   1.86127
   A10        1.81386  -0.00214   0.00000  -0.00651  -0.00614   1.80772
   A11        1.95246  -0.02637   0.00000  -0.03774  -0.03843   1.91403
   A12        1.83351   0.00870   0.00000   0.01256   0.01252   1.84603
   A13        1.98372   0.08876   0.00000   0.12259   0.12053   2.10424
   A14        2.18278  -0.06298   0.00000  -0.07373  -0.07648   2.10630
   A15        2.01868  -0.00811   0.00000   0.00140  -0.00024   2.01845
   A16        1.62521   0.11216   0.00000   0.18403   0.18403   1.80924
   A17        1.84092   0.00049   0.00000  -0.00042  -0.00045   1.84047
   A18        1.82994   0.01462   0.00000   0.02660   0.02660   1.85654
   A19        2.03860  -0.00984   0.00000  -0.01271  -0.01269   2.02591
   A20        1.89999  -0.00419   0.00000  -0.00778  -0.00785   1.89214
   A21        1.88256   0.00376   0.00000   0.00382   0.00379   1.88636
   A22        1.96478  -0.00459   0.00000  -0.00924  -0.00917   1.95561
   A23        2.05868   0.01774   0.00000   0.02200   0.02199   2.08067
   A24        2.07531  -0.00325   0.00000  -0.00485  -0.00487   2.07044
   A25        2.14680  -0.01443   0.00000  -0.01699  -0.01697   2.12983
   A26        2.06016   0.00327   0.00000   0.00776   0.00779   2.06794
   A27        2.02737   0.01546   0.00000   0.02180   0.02176   2.04913
   A28        2.18131  -0.01796   0.00000  -0.02749  -0.02754   2.15377
   A29        2.03923   0.03503   0.00000   0.04563   0.04565   2.08488
   A30        2.11118  -0.00676   0.00000  -0.01021  -0.01026   2.10092
   A31        2.13190  -0.02818   0.00000  -0.03515  -0.03514   2.09675
   A32        1.86801   0.00979   0.00000   0.01606   0.01606   1.88407
   A33        2.12351  -0.01013   0.00000  -0.01181  -0.01181   2.11170
   A34        2.11408  -0.00083   0.00000  -0.00311  -0.00312   2.11096
   A35        2.04302   0.01111   0.00000   0.01537   0.01537   2.05840
   A36        1.74334   0.03262   0.00000   0.05352   0.05352   1.79687
   A37        2.05976  -0.00321   0.00000  -0.00270  -0.00270   2.05706
   A38        2.03939   0.01577   0.00000   0.02071   0.02072   2.06011
   A39        2.18383  -0.01256   0.00000  -0.01802  -0.01803   2.16580
   A40        2.11882  -0.00892   0.00000  -0.01124  -0.01120   2.10762
   A41        2.01991   0.01182   0.00000   0.01782   0.01779   2.03771
   A42        2.13837  -0.00276   0.00000  -0.00612  -0.00615   2.13221
    D1       -1.44381  -0.00439   0.00000   0.00072   0.00099  -1.44282
    D2        0.66286  -0.00180   0.00000  -0.00176  -0.00202   0.66084
    D3        2.67124   0.00329   0.00000   0.00243   0.00184   2.67307
    D4        2.74459   0.00055   0.00000   0.01254   0.01302   2.75761
    D5       -1.43193   0.00313   0.00000   0.01006   0.01001  -1.42192
    D6        0.57645   0.00822   0.00000   0.01425   0.01386   0.59031
    D7        0.65050   0.00430   0.00000   0.02152   0.02216   0.67266
    D8        2.75716   0.00688   0.00000   0.01904   0.01916   2.77632
    D9       -1.51764   0.01197   0.00000   0.02323   0.02301  -1.49463
   D10       -0.04790   0.01605   0.00000   0.04972   0.04924   0.00134
   D11       -2.70546  -0.02745   0.00000  -0.07312  -0.07201  -2.77747
   D12       -2.25169   0.02678   0.00000   0.07572   0.07496  -2.17673
   D13        1.37394  -0.01672   0.00000  -0.04712  -0.04628   1.32765
   D14        2.06242   0.02937   0.00000   0.08115   0.08000   2.14242
   D15       -0.59514  -0.01414   0.00000  -0.04169  -0.04125  -0.63639
   D16        3.02793   0.01438   0.00000   0.02862   0.02845   3.05639
   D17        1.02322   0.01260   0.00000   0.02613   0.02591   1.04913
   D18       -1.16492   0.01354   0.00000   0.02545   0.02530  -1.13961
   D19        0.82013  -0.01160   0.00000  -0.02310  -0.02296   0.79717
   D20       -1.18459  -0.01337   0.00000  -0.02560  -0.02550  -1.21009
   D21        2.91046  -0.01243   0.00000  -0.02627  -0.02611   2.88435
   D22       -1.13667  -0.00185   0.00000  -0.00520  -0.00515  -1.14181
   D23       -3.14138  -0.00363   0.00000  -0.00769  -0.00769   3.13412
   D24        0.95367  -0.00269   0.00000  -0.00837  -0.00829   0.94537
   D25       -0.01469   0.00015   0.00000  -0.01465  -0.01785  -0.03254
   D26        2.69062   0.01994   0.00000   0.06985   0.07305   2.76367
   D27        1.83229   0.00551   0.00000   0.01361   0.01363   1.84592
   D28       -1.38147   0.00581   0.00000   0.01520   0.01521  -1.36626
   D29       -2.38294   0.00264   0.00000   0.00779   0.00778  -2.37515
   D30        0.68648   0.00295   0.00000   0.00938   0.00937   0.69585
   D31       -0.28646  -0.00288   0.00000  -0.00502  -0.00503  -0.29148
[...]
      8          8           0        3.863433   -1.241333   -0.631647
      9          1           0        1.890760   -0.888560    1.069964
     10          6           0        1.152124   -0.180907   -0.840605
     11          1           0        1.491203   -1.066996   -1.380297
     12          1           0        1.313895    0.680751   -1.495653
     13          6           0       -0.309447   -0.297258   -0.472034
     14          6           0       -1.174529    0.793432   -0.650566
     15          1           0       -0.799893    1.722887   -1.069005
     16          6           0       -2.520157    0.695470   -0.309745
     17          8           0       -3.433649    1.701136   -0.452227
     18          1           0       -3.010581    2.490847   -0.834925
     19          6           0       -3.026810   -0.503698    0.221464
     20          8           0       -4.342553   -0.610790    0.557767
     21          1           0       -4.776937    0.240882    0.365863
     22          6           0       -2.173216   -1.589158    0.397527
     23          1           0       -2.579419   -2.511576    0.799874
     24          6           0       -0.824737   -1.487956    0.053017
     25          1           0       -0.176463   -2.348442    0.187434
     26          1           0        1.956036    2.048313    0.603106
 ---------------------------------------------------------------------
 Rotational constants (GHZ):           1.7820956           0.2929478           0.2705493
 Leave Link  202 at Sun Jul 18 14:14:09 2021, MaxMem=   262144000 cpu:               0.1 elap:               0.0
 (Enter /prod/apps/gaussian/g16b1/l301.exe)
 Standard basis: Aug-CC-pVDZ (5D, 7F)
 Ernie: Thresh=  0.10000D-02 Tol=  0.10000D-05 Strict=F.
 Ernie:  28 primitive shells out of 434 were deleted.
 There are   458 symmetry adapted cartesian basis functions of A   symmetry.
 There are   430 symmetry adapted basis functions of A   symmetry.
   430 basis functions,   734 primitive gaussians,   458 cartesian basis functions
    52 alpha electrons       52 beta electrons
       nuclear repulsion energy       887.1518891251 Hartrees.
 IExCor=    0 DFT=F Ex=HF Corr=None ExCW=0 ScaHFX=  1.000000
 ScaDFX=  1.000000  1.000000  1.000000  1.000000 ScalE2=  1.000000  1.000000
 IRadAn=      5 IRanWt=     -1 IRanGd=            0 ICorTp=0 IEmpDi=  4
 NAtoms=   26 NActive=   26 NUniq=   26 SFac= 1.00D+00 NAtFMM=   60 NAOKFM=F Big=F
 Integral buffers will be    131072 words long.
 Raffenetti 1 integral format.
 Two-electron integral symmetry is turned on.
 Leave Link  301 at Sun Jul 18 14:14:10 2021, MaxMem=   262144000 cpu:               0.3 elap:               0.1
 (Enter /prod/apps/gaussian/g16b1/l302.exe)
 NPDir=0 NMtPBC=     1 NCelOv=     1 NCel=       1 NClECP=     1 NCelD=      1
         NCelK=      1 NCelE2=     1 NClLst=     1 CellRange=     0.0.
 One-electron integrals computed using PRISM.
 One-electron integral symmetry used in STVInt
 NBasis=   430 RedAO= T EigKep=  1.67D-06  NBF=   430
 NBsUse=   430 1.00D-06 EigRej= -1.00D+00 NBFU=   430
 Leave Link  302 at Sun Jul 18 14:14:10 2021, MaxMem=   262144000 cpu:               1.1 elap:               0.3
 (Enter /prod/apps/gaussian/g16b1/l303.exe)
 DipDrv:  MaxL=1.
 Leave Link  303 at Sun Jul 18 14:14:10 2021, MaxMem=   262144000 cpu:               0.3 elap:               0.1
 (Enter /prod/apps/gaussian/g16b1/l401.exe)
 ExpMin= 2.97D-02 ExpMax= 1.17D+04 ExpMxC= 4.01D+02 IAcc=3 IRadAn=         5 AccDes= 0.00D+00
 Harris functional with IExCor=  205 and IRadAn=       5 diagonalized for initial guess.
 HarFok:  IExCor=  205 AccDes= 0.00D+00 IRadAn=         5 IDoV= 1 UseB2=F ITyADJ=14
 ICtDFT=  3500011 ScaDFX=  1.000000  1.000000  1.000000  1.000000
 FoFCou: FMM=F IPFlag=           0 FMFlag=      100000 FMFlg1=           0
         NFxFlg=           0 DoJE=T BraDBF=F KetDBF=T FulRan=T
         wScrn=  0.000000 ICntrl=       500 IOpCl=  0 I1Cent=   200000004 NGrid=           0
         NMat0=    1 NMatS0=      1 NMatT0=    0 NMatD0=    1 NMtDS0=    0 NMtDT0=    0
 Petite list used in FoFCou.
 Harris En= -702.293037815661    
 JPrj=0 DoOrth=F DoCkMO=F.
 Leave Link  401 at Sun Jul 18 14:14:12 2021, MaxMem=   262144000 cpu:               9.2 elap:               2.3
 (Enter /prod/apps/gaussian/g16b1/l502.exe)
 Integral symmetry usage will be decided dynamically.
 Closed shell SCF:
 Using DIIS extrapolation, IDIIS=  1040.
 NGot=   262144000 LenX=   261717388 LenY=   261507166
 Requested convergence on RMS density matrix=1.00D-08 within 128 cycles.
 Requested convergence on MAX density matrix=1.00D-06.
 Requested convergence on             energy=1.00D-06.
 No special actions if energy rises.
 Fock matrices will be formed incrementally for  20 cycles.

 Cycle   1  Pass 1  IDiag  1:
 FoFJK:  IHMeth= 1 ICntrl=       0 DoSepK=F KAlg= 0 I1Cent=           0 FoldK=F
 IRaf= 950000000 NMat=       1 IRICut=       1 DoRegI=T DoRafI=F ISym2E= 0 IDoP0=0 IntGTp=1.
 FoFCou: FMM=F IPFlag=           0 FMFlag=      100000 FMFlg1=           0
         NFxFlg=           0 DoJE=F BraDBF=F KetDBF=F FulRan=T
         wScrn=  0.000000 ICntrl=         0 IOpCl=  0 I1Cent=           0 NGrid=           0
         NMat0=    1 NMatS0=      1 NMatT0=    0 NMatD0=    1 NMtDS0=    0 NMtDT0=    0
 Symmetry not used in FoFCou.
 E= -701.080238721936    
 DIIS: error= 1.39D-02 at cycle   1 NSaved=   1.
 NSaved= 1 IEnMin= 1 EnMin= -701.080238721936     IErMin= 1 ErrMin= 1.39D-02
 ErrMax= 1.39D-02  0.00D+00 EMaxC= 1.00D-01 BMatC= 6.80D-01 BMatP= 6.80D-01
 IDIUse=3 WtCom= 8.61D-01 WtEn= 1.39D-01
 Coeff-Com:  0.100D+01
 Coeff-En:   0.100D+01
 Coeff:      0.100D+01
 Gap=     0.449 Goal=   None    Shift=    0.000
 GapD=    0.449 DampG=2.000 DampE=0.500 DampFc=1.0000 IDamp=-1.
 RMSDP=4.77D-02 MaxDP=3.88D+00              OVMax= 1.60D-01

 Cycle   2  Pass 1  IDiag  1:
 RMSU=  1.79D-02    CP:  5.15D-01
 E= -701.463900228112     Delta-E=       -0.383661506176 Rises=F Damp=F
 DIIS: error= 9.00D-03 at cycle   2 NSaved=   2.
 NSaved= 2 IEnMin= 2 EnMin= -701.463900228112     IErMin= 2 ErrMin= 9.00D-03
 ErrMax= 9.00D-03  0.00D+00 EMaxC= 1.00D-01 BMatC= 1.15D-01 BMatP= 6.80D-01
 IDIUse=3 WtCom= 9.10D-01 WtEn= 9.00D-02
 Coeff-Com:  0.235D+00 0.765D+00
 Coeff-En:   0.000D+00 0.100D+01
 Coeff:      0.214D+00 0.786D+00
 Gap=     0.318 Goal=   None    Shift=    0.000
 RMSDP=4.03D-03 MaxDP=2.41D-01 DE=-3.84D-01 OVMax= 6.20D-02

 Cycle   3  Pass 1  IDiag  1:
 RMSU=  3.34D-03    CP:  5.08D-01  8.79D-01
 E= -701.550010767095     Delta-E=       -0.086110538983 Rises=F Damp=F
 DIIS: error= 3.54D-03 at cycle   3 NSaved=   3.
 NSaved= 3 IEnMin= 3 EnMin= -701.550010767095     IErMin= 3 ErrMin= 3.54D-03
 ErrMax= 3.54D-03  0.00D+00 EMaxC= 1.00D-01 BMatC= 1.48D-02 BMatP= 1.15D-01
 IDIUse=3 WtCom= 9.65D-01 WtEn= 3.54D-02
 Coeff-Com: -0.124D-01 0.232D+00 0.780D+00
 Coeff-En:   0.000D+00 0.000D+00 0.100D+01
 Coeff:     -0.119D-01 0.224D+00 0.788D+00
 Gap=     0.310 Goal=   None    Shift=    0.000
 RMSDP=1.22D-03 MaxDP=8.36D-02 DE=-8.61D-02 OVMax= 3.61D-02

 Cycle   4  Pass 1  IDiag  1:
 RMSU=  8.50D-04    CP:  5.00D-01  8.99D-01  9.15D-01
 E= -701.561389971162     Delta-E=       -0.011379204067 Rises=F Damp=F
 DIIS: error= 8.81D-04 at cycle   4 NSaved=   4.
 NSaved= 4 IEnMin= 4 EnMin= -701.561389971162     IErMin= 4 ErrMin= 8.81D-04
 ErrMax= 8.81D-04  0.00D+00 EMaxC= 1.00D-01 BMatC= 9.22D-04 BMatP= 1.48D-02
 IDIUse=3 WtCom= 9.91D-01 WtEn= 8.81D-03
 Coeff-Com: -0.161D-01 0.254D-01 0.237D+00 0.754D+00
 Coeff-En:   0.000D+00 0.000D+00 0.000D+00 0.100D+01
 Coeff:     -0.160D-01 0.252D-01 0.235D+00 0.756D+00
 Gap=     0.304 Goal=   None    Shift=    0.000
 RMSDP=3.55D-04 MaxDP=2.79D-02 DE=-1.14D-02 OVMax= 6.17D-03

 Cycle   5  Pass 1  IDiag  1:
 RMSU=  2.30D-04    CP:  4.97D-01  9.05D-01  9.15D-01  1.02D+00
 E= -701.562286532890     Delta-E=       -0.000896561727 Rises=F Damp=F
 DIIS: error= 1.67D-04 at cycle   5 NSaved=   5.
 NSaved= 5 IEnMin= 5 EnMin= -701.562286532890     IErMin= 5 ErrMin= 1.67D-04
 ErrMax= 1.67D-04  0.00D+00 EMaxC= 1.00D-01 BMatC= 4.68D-05 BMatP= 9.22D-04
 IDIUse=3 WtCom= 9.98D-01 WtEn= 1.67D-03
 Coeff-Com:  0.155D-02-0.181D-01-0.720D-01-0.284D-01 0.112D+01
 Coeff-En:   0.000D+00 0.000D+00 0.000D+00 0.000D+00 0.100D+01
 Coeff:      0.155D-02-0.181D-01-0.719D-01-0.283D-01 0.112D+01
 Gap=     0.305 Goal=   None    Shift=    0.000
 RMSDP=1.07D-04 MaxDP=8.00D-03 DE=-8.97D-04 OVMax= 4.21D-03

 Cycle   6  Pass 1  IDiag  1:
 RMSU=  7.13D-05    CP:  4.96D-01  9.04D-01  9.25D-01  1.08D+00  1.15D+00
 E= -701.562394130042     Delta-E=       -0.000107597153 Rises=F Damp=F
 DIIS: error= 8.74D-05 at cycle   6 NSaved=   6.
 NSaved= 6 IEnMin= 6 EnMin= -701.562394130042     IErMin= 6 ErrMin= 8.74D-05
 ErrMax= 8.74D-05  0.00D+00 EMaxC= 1.00D-01 BMatC= 9.67D-06 BMatP= 4.68D-05
 IDIUse=1 WtCom= 1.00D+00 WtEn= 0.00D+00
 Coeff-Com:  0.193D-02-0.769D-02-0.408D-01-0.915D-01 0.283D+00 0.855D+00
 Coeff:      0.193D-02-0.769D-02-0.408D-01-0.915D-01 0.283D+00 0.855D+00
 Gap=     0.306 Goal=   None    Shift=    0.000
 RMSDP=3.55D-05 MaxDP=1.62D-03 DE=-1.08D-04 OVMax= 1.23D-03

 Cycle   7  Pass 1  IDiag  1:
 RMSU=  2.23D-05    CP:  4.96D-01  9.04D-01  9.27D-01  1.10D+00  1.17D+00
                    CP:  1.23D+00
 E= -701.562410672146     Delta-E=       -0.000016542103 Rises=F Damp=F
 DIIS: error= 2.87D-05 at cycle   7 NSaved=   7.
 NSaved= 7 IEnMin= 7 EnMin= -701.562410672146     IErMin= 7 ErrMin= 2.87D-05
 ErrMax= 2.87D-05  0.00D+00 EMaxC= 1.00D-01 BMatC= 1.22D-06 BMatP= 9.67D-06
 IDIUse=1 WtCom= 1.00D+00 WtEn= 0.00D+00
 Coeff-Com: -0.131D-03 0.201D-02 0.111D-01-0.360D-02-0.143D+00-0.108D-01
 Coeff-Com:  0.114D+01
 Coeff:     -0.131D-03 0.201D-02 0.111D-01-0.360D-02-0.143D+00-0.108D-01
 Coeff:      0.114D+01
 Gap=     0.306 Goal=   None    Shift=    0.000
 RMSDP=1.97D-05 MaxDP=8.90D-04 DE=-1.65D-05 OVMax= 8.88D-04

 Cycle   8  Pass 1  IDiag  1:
 RMSU=  1.13D-05    CP:  4.96D-01  9.03D-01  9.28D-01  1.10D+00  1.21D+00
                    CP:  1.35D+00  1.42D+00
 E= -701.562414382286     Delta-E=       -0.000003710141 Rises=F Damp=F
 DIIS: error= 1.03D-05 at cycle   8 NSaved=   8.
 NSaved= 8 IEnMin= 8 EnMin= -701.562414382286     IErMin= 8 ErrMin= 1.03D-05
 ErrMax= 1.03D-05  0.00D+00 EMaxC= 1.00D-01 BMatC= 1.97D-07 BMatP= 1.22D-06
 IDIUse=1 WtCom= 1.00D+00 WtEn= 0.00D+00
 Coeff-Com: -0.268D-03 0.101D-02 0.638D-02 0.106D-01-0.303D-01-0.135D+00
 Coeff-Com: -0.208D-01 0.117D+01
 Coeff:     -0.268D-03 0.101D-02 0.638D-02 0.106D-01-0.303D-01-0.135D+00
 Coeff:     -0.208D-01 0.117D+01
 Gap=     0.306 Goal=   None    Shift=    0.000
 RMSDP=9.71D-06 MaxDP=4.28D-04 DE=-3.71D-06 OVMax= 3.98D-04

 Cycle   9  Pass 1  IDiag  1:
 RMSU=  6.22D-06    CP:  4.96D-01  9.03D-01  9.29D-01  1.09D+00  1.21D+00
                    CP:  1.41D+00  1.57D+00  1.36D+00
 E= -701.562415049448     Delta-E=       -0.000000667162 Rises=F Damp=F
 DIIS: error= 4.70D-06 at cycle   9 NSaved=   9.
 NSaved= 9 IEnMin= 9 EnMin= -701.562415049448     IErMin= 9 ErrMin= 4.70D-06
 ErrMax= 4.70D-06  0.00D+00 EMaxC= 1.00D-01 BMatC= 3.01D-08 BMatP= 1.97D-07
 IDIUse=1 WtCom= 1.00D+00 WtEn= 0.00D+00
 Coeff-Com: -0.158D-04-0.135D-03-0.524D-03 0.826D-03 0.168D-01-0.188D-01
 Coeff-Com: -0.154D+00 0.142D+00 0.101D+01
 Coeff:     -0.158D-04-0.135D-03-0.524D-03 0.826D-03 0.168D-01-0.188D-01
 Coeff:     -0.154D+00 0.142D+00 0.101D+01
 Gap=     0.306 Goal=   None    Shift=    0.000
 RMSDP=3.87D-06 MaxDP=1.65D-04 DE=-6.67D-07 OVMax= 1.57D-04

 Cycle  10  Pass 1  IDiag  1:
 RMSU=  1.85D-06    CP:  4.96D-01  9.03D-01  9.29D-01  1.09D+00  1.21D+00
                    CP:  1.42D+00  1.62D+00  1.53D+00  1.19D+00
 E= -701.562415152619     Delta-E=       -0.000000103171 Rises=F Damp=F
 DIIS: error= 2.26D-06 at cycle  10 NSaved=  10.
 NSaved=10 IEnMin=10 EnMin= -701.562415152619     IErMin=10 ErrMin= 2.26D-06
 ErrMax= 2.26D-06  0.00D+00 EMaxC= 1.00D-01 BMatC= 5.88D-09 BMatP= 3.01D-08
 IDIUse=1 WtCom= 1.00D+00 WtEn= 0.00D+00
 Coeff-Com:  0.462D-04-0.221D-03-0.121D-02-0.209D-02 0.856D-02 0.218D-01
 Coeff-Com: -0.118D-01-0.204D+00 0.896D-01 0.110D+01
 Coeff:      0.462D-04-0.221D-03-0.121D-02-0.209D-02 0.856D-02 0.218D-01
 Coeff:     -0.118D-01-0.204D+00 0.896D-01 0.110D+01
 Gap=     0.306 Goal=   None    Shift=    0.000
 RMSDP=1.87D-06 MaxDP=5.69D-05 DE=-1.03D-07 OVMax= 9.28D-05

 Cycle  11  Pass 1  IDiag  1:
 RMSU=  8.20D-07    CP:  4.96D-01  9.03D-01  9.29D-01  1.09D+00  1.21D+00
                    CP:  1.43D+00  1.64D+00  1.58D+00  1.37D+00  1.39D+00
 E= -701.562415175225     Delta-E=       -0.000000022606 Rises=F Damp=F
 DIIS: error= 9.05D-07 at cycle  11 NSaved=  11.
 NSaved=11 IEnMin=11 EnMin= -701.562415175225     IErMin=11 ErrMin= 9.05D-07
 ErrMax= 9.05D-07  0.00D+00 EMaxC= 1.00D-01 BMatC= 9.60D-10 BMatP= 5.88D-09
 IDIUse=1 WtCom= 1.00D+00 WtEn= 0.00D+00
 Coeff-Com:  0.116D-04-0.200D-04-0.109D-03-0.549D-03-0.151D-02 0.679D-02
 Coeff-Com:  0.261D-01-0.542D-01-0.175D+00 0.158D+00 0.104D+01
 Coeff:      0.116D-04-0.200D-04-0.109D-03-0.549D-03-0.151D-02 0.679D-02
 Coeff:      0.261D-01-0.542D-01-0.175D+00 0.158D+00 0.104D+01
 Gap=     0.306 Goal=   None    Shift=    0.000
 RMSDP=1.01D-06 MaxDP=3.68D-05 DE=-2.26D-08 OVMax= 4.13D-05

 Cycle  12  Pass 1  IDiag  1:
 RMSU=  3.84D-07    CP:  4.96D-01  9.03D-01  9.30D-01  1.09D+00  1.21D+00
                    CP:  1.43D+00  1.64D+00  1.61D+00  1.43D+00  1.60D+00
                    CP:  1.37D+00
 E= -701.562415179244     Delta-E=       -0.000000004019 Rises=F Damp=F
 DIIS: error= 4.51D-07 at cycle  12 NSaved=  12.
 NSaved=12 IEnMin=12 EnMin= -701.562415179244     IErMin=12 ErrMin= 4.51D-07
 ErrMax= 4.51D-07  0.00D+00 EMaxC= 1.00D-01 BMatC= 1.56D-10 BMatP= 9.60D-10
 IDIUse=1 WtCom= 1.00D+00 WtEn= 0.00D+00
 Coeff-Com: -0.702D-05 0.321D-04 0.186D-03 0.378D-03-0.135D-02-0.354D-02
 Coeff-Com:  0.274D-03 0.369D-01-0.185D-01-0.177D+00 0.904D-02 0.115D+01
 Coeff:     -0.702D-05 0.321D-04 0.186D-03 0.378D-03-0.135D-02-0.354D-02
 Coeff:      0.274D-03 0.369D-01-0.185D-01-0.177D+00 0.904D-02 0.115D+01
 Gap=     0.306 Goal=   None    Shift=    0.000
 RMSDP=4.04D-07 MaxDP=1.57D-05 DE=-4.02D-09 OVMax= 1.86D-05

 Cycle  13  Pass 1  IDiag  1:
 RMSU=  1.45D-07    CP:  4.96D-01  9.03D-01  9.30D-01  1.09D+00  1.21D+00
                    CP:  1.43D+00  1.65D+00  1.62D+00  1.44D+00  1.70D+00
                    CP:  1.56D+00  1.35D+00
 E= -701.562415179994     Delta-E=       -0.000000000750 Rises=F Damp=F
 DIIS: error= 1.37D-07 at cycle  13 NSaved=  13.
 NSaved=13 IEnMin=13 EnMin= -701.562415179994     IErMin=13 ErrMin= 1.37D-07
 ErrMax= 1.37D-07  0.00D+00 EMaxC= 1.00D-01 BMatC= 2.97D-11 BMatP= 1.56D-10
 IDIUse=1 WtCom= 1.00D+00 WtEn= 0.00D+00
 Coeff-Com: -0.184D-05 0.390D-05 0.117D-04 0.112D-03 0.246D-03-0.982D-03
 Coeff-Com: -0.502D-02 0.106D-01 0.263D-01-0.208D-01-0.179D+00-0.411D-01
 Coeff-Com:  0.121D+01
 Coeff:     -0.184D-05 0.390D-05 0.117D-04 0.112D-03 0.246D-03-0.982D-03
 Coeff:     -0.502D-02 0.106D-01 0.263D-01-0.208D-01-0.179D+00-0.411D-01
 Coeff:      0.121D+01
 Gap=     0.306 Goal=   None    Shift=    0.000
 RMSDP=2.00D-07 MaxDP=8.00D-06 DE=-7.50D-10 OVMax= 9.46D-06

 Cycle  14  Pass 1  IDiag  1:
 RMSU=  7.15D-08    CP:  4.96D-01  9.03D-01  9.30D-01  1.09D+00  1.21D+00
                    CP:  1.44D+00  1.65D+00  1.62D+00  1.45D+00  1.73D+00
                    CP:  1.61D+00  1.58D+00  1.18D+00
 E= -701.562415180141     Delta-E=       -0.000000000147 Rises=F Damp=F
 DIIS: error= 7.30D-08 at cycle  14 NSaved=  14.
 NSaved=14 IEnMin=14 EnMin= -701.562415180141     IErMin=14 ErrMin= 7.30D-08
 ErrMax= 7.30D-08  0.00D+00 EMaxC= 1.00D-01 BMatC= 6.10D-12 BMatP= 2.97D-11
 IDIUse=1 WtCom= 1.00D+00 WtEn= 0.00D+00
 Coeff-Com:  0.979D-06-0.502D-05-0.349D-04-0.467D-04 0.247D-03 0.581D-03
 Coeff-Com: -0.618D-03-0.552D-02 0.406D-02 0.344D-01-0.148D-01-0.229D+00
 Coeff-Com:  0.120D+00 0.109D+01
 Coeff:      0.979D-06-0.502D-05-0.349D-04-0.467D-04 0.247D-03 0.581D-03
 Coeff:     -0.618D-03-0.552D-02 0.406D-02 0.344D-01-0.148D-01-0.229D+00
 Coeff:      0.120D+00 0.109D+01
 Gap=     0.306 Goal=   None    Shift=    0.000
 RMSDP=7.00D-08 MaxDP=2.64D-06 DE=-1.47D-10 OVMax= 3.34D-06

 Cycle  15  Pass 1  IDiag  1:
 RMSU=  2.64D-08    CP:  4.96D-01  9.03D-01  9.30D-01  1.09D+00  1.21D+00
                    CP:  1.44D+00  1.65D+00  1.63D+00  1.45D+00  1.74D+00
                    CP:  1.63D+00  1.60D+00  1.33D+00  1.29D+00
 E= -701.562415180166     Delta-E=       -0.000000000025 Rises=F Damp=F
 DIIS: error= 2.41D-08 at cycle  15 NSaved=  15.
 NSaved=15 IEnMin=15 EnMin= -701.562415180166     IErMin=15 ErrMin= 2.41D-08
 ErrMax= 2.41D-08  0.00D+00 EMaxC= 1.00D-01 BMatC= 9.38D-13 BMatP= 6.10D-12
 IDIUse=1 WtCom= 1.00D+00 WtEn= 0.00D+00
 Coeff-Com:  0.518D-06-0.150D-05-0.944D-05-0.260D-04-0.775D-05 0.301D-03
 Coeff-Com:  0.887D-03-0.288D-02-0.516D-02 0.108D-01 0.334D-01-0.364D-01
 Coeff-Com: -0.213D+00 0.193D+00 0.102D+01
 Coeff:      0.518D-06-0.150D-05-0.944D-05-0.260D-04-0.775D-05 0.301D-03
 Coeff:      0.887D-03-0.288D-02-0.516D-02 0.108D-01 0.334D-01-0.364D-01
 Coeff:     -0.213D+00 0.193D+00 0.102D+01
 Gap=     0.306 Goal=   None    Shift=    0.000
 RMSDP=3.00D-08 MaxDP=1.67D-06 DE=-2.50D-11 OVMax= 1.35D-06

 Cycle  16  Pass 1  IDiag  1:
 RMSU=  1.08D-08    CP:  4.96D-01  9.03D-01  9.30D-01  1.09D+00  1.21D+00
                    CP:  1.44D+00  1.65D+00  1.63D+00  1.45D+00  1.75D+00
                    CP:  1.63D+00  1.61D+00  1.33D+00  1.48D+00  1.23D+00
 E= -701.562415180160     Delta-E=        0.000000000006 Rises=F Damp=F
 DIIS: error= 6.96D-09 at cycle  16 NSaved=  16.
 NSaved=16 IEnMin=15 EnMin= -701.562415180166     IErMin=16 ErrMin= 6.96D-09
 ErrMax= 6.96D-09  0.00D+00 EMaxC= 1.00D-01 BMatC= 8.45D-14 BMatP= 9.38D-13
 IDIUse=1 WtCom= 1.00D+00 WtEn= 0.00D+00
 Coeff-Com: -0.901D-07 0.546D-06 0.349D-05 0.551D-05-0.319D-04-0.574D-04
 Coeff-Com:  0.111D-03 0.546D-03-0.911D-03-0.315D-02 0.339D-02 0.221D-01
 Coeff-Com: -0.233D-01-0.118D+00 0.423D-01 0.108D+01
 Coeff:     -0.901D-07 0.546D-06 0.349D-05 0.551D-05-0.319D-04-0.574D-04
 Coeff:      0.111D-03 0.546D-03-0.911D-03-0.315D-02 0.339D-02 0.221D-01
 Coeff:     -0.233D-01-0.118D+00 0.423D-01 0.108D+01
 Gap=     0.306 Goal=   None    Shift=    0.000
 RMSDP=9.49D-09 MaxDP=4.33D-07 DE= 5.91D-12 OVMax= 3.04D-07

 SCF Done:  E(RHF) =  -701.562415180     A.U. after   16 cycles
            NFock= 16  Conv=0.95D-08     -V/T= 2.0015
 KE= 7.005301178070D+02 PE=-3.404428795364D+03 EE= 1.115184373252D+03
 Leave Link  502 at Sun Jul 18 14:19:11 2021, MaxMem=   262144000 cpu:            1193.4 elap:             298.6
 (Enter /prod/apps/gaussian/g16b1/l801.exe)
 ExpMin= 2.97D-02 ExpMax= 1.17D+04 ExpMxC= 4.01D+02 IAcc=3 IRadAn=         5 AccDes= 0.00D+00
 HarFok:  IExCor=  205 AccDes= 0.00D+00 IRadAn=         5 IDoV=-2 UseB2=F ITyADJ=14
 ICtDFT= 12500011 ScaDFX=  1.000000  1.000000  1.000000  1.000000
 Largest valence mixing into a core orbital is  1.10D-04
 Largest core mixing into a valence orbital is  3.84D-05
 Range of M.O.s used for correlation:    15   430
 NBasis=   430 NAE=    52 NBE=    52 NFC=    14 NFV=     0
 NROrb=    416 NOA=    38 NOB=    38 NVA=   378 NVB=   378

 **** Warning!!: The largest alpha MO coefficient is  0.85862703D+02

 Leave Link  801 at Sun Jul 18 14:19:11 2021, MaxMem=   262144000 cpu:               0.7 elap:               0.2
 (Enter /prod/apps/gaussian/g16b1/l906.exe)
 FulOut=F Deriv=F AODrv=F NAtomX=    26
   MMem=           9  MDisk=          38 MDiskD=          38
  W3Min=     6578712 MinDsk=     7262815 NBas6D=         458
 NBas2D=      105729    NTT=      105111    LW2=     2000000
    MDV=   260810158 MDiskM=        7848 NBas2p=       97520
 Disk-based method using OVN memory for 38 occupieds at a time.
 Estimated scratch disk usage=  3697062464 words.
 IMap=   1   2   3   4   5   6   7   8   9  10  11  12  13  14  15  16  17  18  19  20
 IMap=  21  22  23  24  25  26  27  28  29  30  31  32  33  34  35  36  37  38
 Actual    scratch disk usage=  3510188608 words.
 JobTyp=1 Pass  1:  I=   1 to  38 NPSUse=  4 ParTrn=T ParDer=T DoDerP=F.
