 Entering Gaussian System, Link 0=g16
 Initial command:
 /prod/apps/gaussian/g16b1/l1.exe "/tmp/ubator02/1839673/Gau-72295.inp" -scrdir="/tmp/ubator02/1839673/"
 Entering Link 1 = /prod/apps/gaussian/g16b1/l1.exe PID=     72296.
  
 Copyright (c) 1988-2017, Gaussian, Inc.  All Rights Reserved.
  
 This is part of the Gaussian(R) 16 program.  It is based on
 the Gaussian(R) 09 system (copyright 2009, Gaussian, Inc.),
 the Gaussian(R) 03 system (copyright 2003, Gaussian, Inc.),
 the Gaussian(R) 98 system (copyright 1998, Gaussian, Inc.),
 the Gaussian(R) 94 system (copyright 1995, Gaussian, Inc.),
 the Gaussian 92(TM) system (copyright 1992, Gaussian, Inc.),
 the Gaussian 90(TM) system (copyright 1990, Gaussian, Inc.),
 the Gaussian 88(TM) system (copyright 1988, Gaussian, Inc.),
 the Gaussian 86(TM) system (copyright 1986, Carnegie Mellon
 University), and the Gaussian 82(TM) system (copyright 1983,
 Carnegie Mellon University). Gaussian is a federally registered
 trademark of Gaussian, Inc.
  
 This software contains proprietary and confidential information,
 including trade secrets, belonging to Gaussian, Inc.
  
 This software is provided under written license and may be
 used, copied, transmitted, or stored only in accord with that
 written license.
  
 The following legend is applicable only to US Government
 contracts under FAR:
  
                    RESTRICTED RIGHTS LEGEND
  
 Use, reproduction and disclosure by the US Government is
 subject to restrictions as set forth in subparagraphs (a)
 and (c) of the Commercial Computer Software - Restricted
 Rights clause in FAR 52.227-19.
  
 Gaussian, Inc.
 340 Quinnipiac St., Bldg. 40, Wallingford CT 06492
  
  
 ---------------------------------------------------------------
 Warning -- This program may not be used in any manner that
 competes with the business of Gaussian, Inc. or will provide
 assistance to any competitor of Gaussian, Inc.  The licensee
 of this program is prohibited from giving any competitor of
 Gaussian, Inc. access to this program.  By using this program,
 the user acknowledges that Gaussian, Inc. is engaged in the
 business of creating and licensing software in the field of
 computational chemistry and represents and warrants to the
 licensee that it is not a competitor of Gaussian, Inc. and that
 it will not use this program in any manner prohibited above.
 ---------------------------------------------------------------
  

 Cite this work as:
 Gaussian 16, Revision B.01,
 M. J. Frisch, G. W. Trucks, H. B. Schlegel, G. E. Scuseria, 
 M. A. Robb, J. R. Cheeseman, G. Scalmani, V. Barone, 
 G. A. Petersson, H. Nakatsuji, X. Li, M. Caricato, A. V. Marenich, 
 J. Bloino, B. G. Janesko, R. Gomperts, B. Mennucci, H. P. Hratchian, 
 J. V. Ortiz, A. F. Izmaylov, J. L. Sonnenberg, D. Williams-Young, 
 F. Ding, F. Lipparini, F. Egidi, J. Goings, B. Peng, A. Petrone, 
 T. Henderson, D. Ranasinghe, V. G. Zakrzewski, J. Gao, N. Rega, 
 G. Zheng, W. Liang, M. Hada, M. Ehara, K. Toyota, R. Fukuda, 
 J. Hasegawa, M. Ishida, T. Nakajima, Y. Honda, O. Kitao, H. Nakai, 
 T. Vreven, K. Throssell, J. A. Montgomery, Jr., J. E. Peralta, 
 F. Ogliaro, M. J. Bearpark, J. J. Heyd, E. N. Brothers, K. N. Kudin, 
 V. N. Staroverov, T. A. Keith, R. Kobayashi, J. Normand, 
 K. Raghavachari, A. P. Rendell, J. C. Burant, S. S. Iyengar, 
 J. Tomasi, M. Cossi, J. M. Millam, M. Klene, C. Adamo, R. Cammi, 
 J. W. Ochterski, R. L. Martin, K. Morokuma, O. Farkas, 
 J. B. Foresman, and D. J. Fox, Gaussian, Inc., Wallingford CT, 2016.
 
 ******************************************
 Gaussian 16:  ES64L-G16RevB.01 20-Dec-2017
                18-Jul-2021 
 ******************************************
 %mem=800MB
 %nproc=4
 Will use up to    4 processors via shared memory.
 %chk=SET_328_BBB321_conf1.geo_180_345_240.chk
 -----------------------------------------------------------
 #p b3lyp/6-31G(d) opt freq scrf=(iefpcm,read,solvent=water)
 -----------------------------------------------------------
 1/18=20,19=15,26=3,38=1,40=2/1,3;
 2/9=110,12=2,17=6,18=5,40=1/2;
 3/5=1,6=6,7=1,11=2,25=1,30=1,70=2203,71=1,72=1,74=-5/1,2,3;
 4//1;
 5/5=2,38=5,53=1/2;
 6/7=2,8=2,9=2,10=2,28=1/1;
 7//1,2,3,16;
 1/18=20,19=15,26=3/3(2);
 2/9=110/2;
 99//99;
 2/9=110/2;
 3/5=1,6=6,7=1,11=2,25=1,30=1,70=2205,71=1,72=1,74=-5/1,2,3;
 4/5=5,16=3,69=1/1;
 5/5=2,38=5,53=1/2;
 7//1,2,3,16;
 1/18=20,19=15,26=3/3(-5);
 2/9=110/2;
 6/7=2,8=2,9=2,10=2,19=2,28=1/1;
 99/9=1/99;
 Leave Link    1 at Sun Jul 18 15:52:05 2021, MaxMem=   104857600 cpu:               0.1 elap:               0.0
 (Enter /prod/apps/gaussian/g16b1/l101.exe)
 ---------------------------------------------
 SET_328_BBB321_conf1.geo_180_345_240 geometry
 ---------------------------------------------
 Symbolic Z-matrix:
 Charge =  1 Multiplicity = 1
 C                     2.07     -2.3       4.293 
 H                     2.36     -1.274     4.529 
 H                     2.686    -3.083     4.738 
 H                     1.066    -2.51      4.667 
 C                     1.959    -2.403     2.801 
 O                     2.976    -2.825     2.287 
 N                     0.848    -1.934     2.195 
 H                     0.202    -1.44      2.794 
 C                     0.462    -2.063     0.888 
 C                     0.534    -3.33      0.258 
 C                     0.069    -3.491    -1.033 
 C                    -0.311    -2.371    -1.757 
 H                    -0.739    -2.485    -2.749 
 H                    -0.071    -4.457    -1.51 
 H                     0.781    -4.181     0.888 
 C                     0.219    -0.892     0.182 
 H                     0.38      0.138     0.489 
 C                    -0.232    -1.087    -1.163 
 C                    -0.719     0.094    -1.84 
 N                    -1.038     1.294    -1.245 
 C                    -0.799     0.12     -3.224 
 H                    -0.379    -0.525    -3.985 
 S                    -1.456     1.624    -3.838 
 C                    -1.356     2.199    -2.164 
 N                    -1.361     3.572    -2.051 
 C                    -1.314     4.04     -0.87 
 N                    -0.342     4.691    -0.469 
 H                    -0.315     5.285    -1.291 
 H                     0.456     4.065    -0.457 
 N                    -1.908     5.137    -0.7 
 H                    -2.882     4.988    -0.939 
 H                    -1.843     5.403     0.277 
 H                    -1.399     4.167    -2.853 
 
 ITRead=  0  0  0  0  0  0  0  0  0  0  0  0  0  0  0  0  0  0  0  0
 ITRead=  0  0  0  0  0  0  0  0  0  0  0  0  0
 MicOpt= -1 -1 -1 -1 -1 -1 -1 -1 -1 -1 -1 -1 -1 -1 -1 -1 -1 -1 -1 -1
 MicOpt= -1 -1 -1 -1 -1 -1 -1 -1 -1 -1 -1 -1 -1
 NAtoms=     33 NQM=       33 NQMF=       0 NMMI=      0 NMMIF=      0
                NMic=       0 NMicF=      0.
                    Isotopes and Nuclear Properties:
 (Nuclear quadrupole moments (NQMom) in fm**2, nuclear magnetic moments (NMagM)
  in nuclear magnetons)

  Atom         1           2           3           4           5           6           7           8           9          10
 IAtWgt=          12           1           1           1          12          16          14           1          12          12
 AtmWgt=  12.0000000   1.0078250   1.0078250   1.0078250  12.0000000  15.9949146  14.0030740   1.0078250  12.0000000  12.0000000
 NucSpn=           0           1           1           1           0           0           2           1           0           0
 AtZEff=  -0.0000000  -0.0000000  -0.0000000  -0.0000000  -0.0000000  -0.0000000  -0.0000000  -0.0000000  -0.0000000  -0.0000000
 NQMom=    0.0000000   0.0000000   0.0000000   0.0000000   0.0000000   0.0000000   2.0440000   0.0000000   0.0000000   0.0000000
 NMagM=    0.0000000   2.7928460   2.7928460   2.7928460   0.0000000   0.0000000   0.4037610   2.7928460   0.0000000   0.0000000
 AtZNuc=   6.0000000   1.0000000   1.0000000   1.0000000   6.0000000   8.0000000   7.0000000   1.0000000   6.0000000   6.0000000

  Atom        11          12          13          14          15          16          17          18          19          20
 IAtWgt=          12          12           1           1           1          12           1          12          12          14
 AtmWgt=  12.0000000  12.0000000   1.0078250   1.0078250   1.0078250  12.0000000   1.0078250  12.0000000  12.0000000  14.0030740
 NucSpn=           0           0           1           1           1           0           1           0           0           2
 AtZEff=  -0.0000000  -0.0000000  -0.0000000  -0.0000000  -0.0000000  -0.0000000  -0.0000000  -0.0000000  -0.0000000  -0.0000000
 NQMom=    0.0000000   0.0000000   0.0000000   0.0000000   0.0000000   0.0000000   0.0000000   0.0000000   0.0000000   2.0440000
 NMagM=    0.0000000   0.0000000   2.7928460   2.7928460   2.7928460   0.0000000   2.7928460   0.0000000   0.0000000   0.4037610
 AtZNuc=   6.0000000   6.0000000   1.0000000   1.0000000   1.0000000   6.0000000   1.0000000   6.0000000   6.0000000   7.0000000

  Atom        21          22          23          24          25          26          27          28          29          30
 IAtWgt=          12           1          32          12          14          12          14           1           1          14
 AtmWgt=  12.0000000   1.0078250  31.9720718  12.0000000  14.0030740  12.0000000  14.0030740   1.0078250   1.0078250  14.0030740
 NucSpn=           0           1           0           0           2           0           2           1           1           2
 AtZEff=  -0.0000000  -0.0000000  -0.0000000  -0.0000000  -0.0000000  -0.0000000  -0.0000000  -0.0000000  -0.0000000  -0.0000000
 NQMom=    0.0000000   0.0000000   0.0000000   0.0000000   2.0440000   0.0000000   2.0440000   0.0000000   0.0000000   2.0440000
 NMagM=    0.0000000   2.7928460   0.0000000   0.0000000   0.4037610   0.0000000   0.4037610   2.7928460   2.7928460   0.4037610
 AtZNuc=   6.0000000   1.0000000  16.0000000   6.0000000   7.0000000   6.0000000   7.0000000   1.0000000   1.0000000   7.0000000

  Atom        31          32          33
 IAtWgt=           1           1           1
 AtmWgt=   1.0078250   1.0078250   1.0078250
 NucSpn=           1           1           1
 AtZEff=  -0.0000000  -0.0000000  -0.0000000
 NQMom=    0.0000000   0.0000000   0.0000000
 NMagM=    2.7928460   2.7928460   2.7928460
 AtZNuc=   1.0000000   1.0000000   1.0000000
 Leave Link  101 at Sun Jul 18 15:52:05 2021, MaxMem=   104857600 cpu:               0.5 elap:               0.1
 (Enter /prod/apps/gaussian/g16b1/l103.exe)

 GradGradGradGradGradGradGradGradGradGradGradGradGradGradGradGradGradGrad
 Berny optimization.
 Initialization pass.
                           ----------------------------
                           !    Initial Parameters    !
                           ! (Angstroms and Degrees)  !
 --------------------------                            --------------------------
 ! Name  Definition              Value          Derivative Info.                !
 --------------------------------------------------------------------------------
 ! R1    R(1,2)                  1.092          estimate D2E/DX2                !
 ! R2    R(1,3)                  1.0911         estimate D2E/DX2                !
 ! R3    R(1,4)                  1.0918         estimate D2E/DX2                !
 ! R4    R(1,5)                  1.4997         estimate D2E/DX2                !
 ! R5    R(5,6)                  1.2151         estimate D2E/DX2                !
 ! R6    R(5,7)                  1.3496         estimate D2E/DX2                !
 ! R7    R(7,8)                  1.01           estimate D2E/DX2                !
 ! R8    R(7,9)                  1.3689         estimate D2E/DX2                !
 ! R9    R(9,10)                 1.4168         estimate D2E/DX2                !
 ! R10   R(9,16)                 1.3888         estimate D2E/DX2                !
 ! R11   R(10,11)                1.3816         estimate D2E/DX2                !
 ! R12   R(10,15)                1.0872         estimate D2E/DX2                !
 ! R13   R(11,12)                1.3867         estimate D2E/DX2                !
 ! R14   R(11,14)                1.0864         estimate D2E/DX2                !
 ! R15   R(12,13)                1.0864         estimate D2E/DX2                !
 ! R16   R(12,18)                1.4169         estimate D2E/DX2                !
 ! R17   R(16,17)                1.0868         estimate D2E/DX2                !
 ! R18   R(16,18)                1.4319         estimate D2E/DX2                !
 ! R19   R(18,19)                1.4458         estimate D2E/DX2                !
 ! R20   R(19,20)                1.3769         estimate D2E/DX2                !
 ! R21   R(19,21)                1.3866         estimate D2E/DX2                !
 ! R22   R(20,24)                1.3284         estimate D2E/DX2                !
 ! R23   R(21,22)                1.0824         estimate D2E/DX2                !
 ! R24   R(21,23)                1.7523         estimate D2E/DX2                !
 ! R25   R(23,24)                1.7728         estimate D2E/DX2                !
 ! R26   R(24,25)                1.3777         estimate D2E/DX2                !
 ! R27   R(25,26)                1.2712         estimate D2E/DX2                !
 ! R28   R(25,33)                0.9993         estimate D2E/DX2                !
 ! R29   R(26,27)                1.2367         estimate D2E/DX2                !
 ! R30   R(26,30)                1.259          estimate D2E/DX2                !
 ! R31   R(27,28)                1.0145         estimate D2E/DX2                !
 ! R32   R(27,29)                1.0143         estimate D2E/DX2                !
 ! R33   R(27,30)                1.6446         estimate D2E/DX2                !
 ! R34   R(30,31)                1.0139         estimate D2E/DX2                !
 ! R35   R(30,32)                1.0146         estimate D2E/DX2                !
 ! A1    A(2,1,3)              115.8594         estimate D2E/DX2                !
 ! A2    A(2,1,4)              110.5425         estimate D2E/DX2                !
 ! A3    A(2,1,5)              107.4095         estimate D2E/DX2                !
 ! A4    A(3,1,4)              103.9706         estimate D2E/DX2                !
 ! A5    A(3,1,5)              113.4687         estimate D2E/DX2                !
 ! A6    A(4,1,5)              105.0423         estimate D2E/DX2                !
 ! A7    A(1,5,6)              112.5034         estimate D2E/DX2                !
 ! A8    A(1,5,7)              118.9324         estimate D2E/DX2                !
 ! A9    A(6,5,7)              128.2948         estimate D2E/DX2                !
 ! A10   A(5,7,8)              115.4785         estimate D2E/DX2                !
 ! A11   A(5,7,9)              128.9086         estimate D2E/DX2                !
 ! A12   A(8,7,9)              115.5931         estimate D2E/DX2                !
 ! A13   A(7,9,10)             119.6364         estimate D2E/DX2                !
 ! A14   A(7,9,16)             117.0811         estimate D2E/DX2                !
 ! A15   A(10,9,16)            122.4707         estimate D2E/DX2                !
 ! A16   A(9,10,11)            120.1724         estimate D2E/DX2                !
 ! A17   A(9,10,15)            116.9899         estimate D2E/DX2                !
 ! A18   A(11,10,15)           121.7825         estimate D2E/DX2                !
 ! A19   A(10,11,12)           119.076          estimate D2E/DX2                !
 ! A20   A(10,11,14)           123.8662         estimate D2E/DX2                !
 ! A21   A(12,11,14)           116.9751         estimate D2E/DX2                !
 ! A22   A(11,12,13)           119.9961         estimate D2E/DX2                !
 ! A23   A(11,12,18)           119.8505         estimate D2E/DX2                !
 ! A24   A(13,12,18)           119.9896         estimate D2E/DX2                !
 ! A25   A(9,16,17)            129.0214         estimate D2E/DX2                !
 ! A26   A(9,16,18)            114.6944         estimate D2E/DX2                !
 ! A27   A(17,16,18)           116.1717         estimate D2E/DX2                !
 ! A28   A(12,18,16)           122.325          estimate D2E/DX2                !
 ! A29   A(12,18,19)           121.6777         estimate D2E/DX2                !
 ! A30   A(16,18,19)           115.7651         estimate D2E/DX2                !
 ! A31   A(18,19,20)           125.988          estimate D2E/DX2                !
 ! A32   A(18,19,21)           120.1424         estimate D2E/DX2                !
 ! A33   A(20,19,21)           113.6802         estimate D2E/DX2                !
 ! A34   A(19,20,24)           110.5027         estimate D2E/DX2                !
 ! A35   A(19,21,22)           131.93           estimate D2E/DX2                !
 ! A36   A(19,21,23)           112.7973         estimate D2E/DX2                !
 ! A37   A(22,21,23)           114.2421         estimate D2E/DX2                !
 ! A38   A(21,23,24)            85.7775         estimate D2E/DX2                !
 ! A39   A(20,24,23)           116.473          estimate D2E/DX2                !
 ! A40   A(20,24,25)           128.5417         estimate D2E/DX2                !
 ! A41   A(23,24,25)           113.609          estimate D2E/DX2                !
 ! A42   A(24,25,26)           116.2939         estimate D2E/DX2                !
 ! A43   A(24,25,33)           121.8499         estimate D2E/DX2                !
 ! A44   A(26,25,33)           121.8561         estimate D2E/DX2                !
 ! A45   A(25,26,27)           121.6076         estimate D2E/DX2                !
 ! A46   A(25,26,30)           115.3897         estimate D2E/DX2                !
 ! A47   A(26,27,28)            93.8076         estimate D2E/DX2                !
 ! A48   A(26,27,29)           107.2962         estimate D2E/DX2                !
 ! A49   A(28,27,29)           110.4873         estimate D2E/DX2                !
 ! A50   A(28,27,30)            75.6852         estimate D2E/DX2                !
 ! A51   A(29,27,30)           156.6624         estimate D2E/DX2                !
 ! A52   A(26,30,31)           107.0588         estimate D2E/DX2                !
 ! A53   A(26,30,32)           109.1604         estimate D2E/DX2                !
 ! A54   A(27,30,31)           155.2307         estimate D2E/DX2                !
 ! A55   A(27,30,32)            82.8103         estimate D2E/DX2                !
 ! A56   A(31,30,32)           109.0894         estimate D2E/DX2                !
 ! D1    D(2,1,5,6)             95.2676         estimate D2E/DX2                !
 ! D2    D(2,1,5,7)            -79.262          estimate D2E/DX2                !
 ! D3    D(3,1,5,6)            -34.1126         estimate D2E/DX2                !
 ! D4    D(3,1,5,7)            151.3578         estimate D2E/DX2                !
 ! D5    D(4,1,5,6)           -147.0181         estimate D2E/DX2                !
 ! D6    D(4,1,5,7)             38.4523         estimate D2E/DX2                !
 ! D7    D(1,5,7,8)              6.8823         estimate D2E/DX2                !
 ! D8    D(1,5,7,9)           -171.4127         estimate D2E/DX2                !
 ! D9    D(6,5,7,8)           -166.6746         estimate D2E/DX2                !
 ! D10   D(6,5,7,9)             15.0305         estimate D2E/DX2                !
 ! D11   D(5,7,9,10)            46.7398         estimate D2E/DX2                !
 ! D12   D(5,7,9,16)          -123.1995         estimate D2E/DX2                !
 ! D13   D(8,7,9,10)          -131.5535         estimate D2E/DX2                !
 ! D14   D(8,7,9,16)            58.5072         estimate D2E/DX2                !
 ! D15   D(7,9,10,11)          175.9226         estimate D2E/DX2                !
 ! D16   D(7,9,10,15)            7.4597         estimate D2E/DX2                !
 ! D17   D(16,9,10,11)         -14.7013         estimate D2E/DX2                !
 ! D18   D(16,9,10,15)         176.8358         estimate D2E/DX2                !
 ! D19   D(7,9,16,17)            6.3925         estimate D2E/DX2                !
 ! D20   D(7,9,16,18)         -177.6575         estimate D2E/DX2                !
 ! D21   D(10,9,16,17)        -163.2392         estimate D2E/DX2                !
 ! D22   D(10,9,16,18)          12.7109         estimate D2E/DX2                !
 ! D23   D(9,10,11,12)           7.9631         estimate D2E/DX2                !
 ! D24   D(9,10,11,14)        -168.6275         estimate D2E/DX2                !
 ! D25   D(15,10,11,12)        175.8609         estimate D2E/DX2                !
 ! D26   D(15,10,11,14)         -0.7297         estimate D2E/DX2                !
 ! D27   D(10,11,12,13)       -176.034          estimate D2E/DX2                !
 ! D28   D(10,11,12,18)         -0.6857         estimate D2E/DX2                !
 ! D29   D(14,11,12,13)          0.7897         estimate D2E/DX2                !
 ! D30   D(14,11,12,18)        176.138          estimate D2E/DX2                !
 ! D31   D(11,12,18,16)         -0.6418         estimate D2E/DX2                !
 ! D32   D(11,12,18,19)       -174.8707         estimate D2E/DX2                !
 ! D33   D(13,12,18,16)        174.7068         estimate D2E/DX2                !
 ! D34   D(13,12,18,19)          0.4779         estimate D2E/DX2                !
 ! D35   D(9,16,18,12)          -5.1908         estimate D2E/DX2                !
 ! D36   D(9,16,18,19)         169.3567         estimate D2E/DX2                !
 ! D37   D(17,16,18,12)        171.3041         estimate D2E/DX2                !
 ! D38   D(17,16,18,19)        -14.1484         estimate D2E/DX2                !
 ! D39   D(12,18,19,20)        160.5828         estimate D2E/DX2                !
 ! D40   D(12,18,19,21)        -24.7454         estimate D2E/DX2                !
 ! D41   D(16,18,19,20)        -14.0032         estimate D2E/DX2                !
 ! D42   D(16,18,19,21)        160.6686         estimate D2E/DX2                !
 ! D43   D(18,19,20,24)        175.2281         estimate D2E/DX2                !
 ! D44   D(21,19,20,24)          0.2586         estimate D2E/DX2                !
 ! D45   D(18,19,21,22)        -14.1628         estimate D2E/DX2                !
 ! D46   D(18,19,21,23)        178.3668         estimate D2E/DX2                !
 ! D47   D(20,19,21,22)        161.1311         estimate D2E/DX2                !
 ! D48   D(20,19,21,23)         -6.3393         estimate D2E/DX2                !
 ! D49   D(19,20,24,23)          6.0377         estimate D2E/DX2                !
 ! D50   D(19,20,24,25)       -159.5964         estimate D2E/DX2                !
 ! D51   D(19,21,23,24)          7.6668         estimate D2E/DX2                !
 ! D52   D(22,21,23,24)       -162.1377         estimate D2E/DX2                !
 ! D53   D(21,23,24,20)         -7.9927         estimate D2E/DX2                !
 ! D54   D(21,23,24,25)        159.78           estimate D2E/DX2                !
 ! D55   D(20,24,25,26)        -15.1814         estimate D2E/DX2                !
 ! D56   D(20,24,25,33)        164.7887         estimate D2E/DX2                !
 ! D57   D(23,24,25,26)        178.8459         estimate D2E/DX2                !
 ! D58   D(23,24,25,33)         -1.184          estimate D2E/DX2                !
 ! D59   D(24,25,26,27)        114.4651         estimate D2E/DX2                !
 ! D60   D(24,25,26,30)       -148.5856         estimate D2E/DX2                !
 ! D61   D(33,25,26,27)        -65.505          estimate D2E/DX2                !
 ! D62   D(33,25,26,30)         31.4443         estimate D2E/DX2                !
 ! D63   D(25,26,27,28)         47.7828         estimate D2E/DX2                !
 ! D64   D(25,26,27,29)        -65.0542         estimate D2E/DX2                !
 ! D65   D(25,26,30,31)         59.8036         estimate D2E/DX2                !
 ! D66   D(25,26,30,32)        177.7584         estimate D2E/DX2                !
 ! D67   D(28,27,30,31)        110.9454         estimate D2E/DX2                !
 ! D68   D(28,27,30,32)       -128.1646         estimate D2E/DX2                !
 ! D69   D(29,27,30,31)          2.2593         estimate D2E/DX2                !
 ! D70   D(29,27,30,32)        123.1494         estimate D2E/DX2                !
 --------------------------------------------------------------------------------
 Trust Radius=3.00D-01 FncErr=1.00D-07 GrdErr=1.00D-06 EigMax=2.50D+02 EigMin=1.00D-04
 Number of steps in this run=    171 maximum allowed number of steps=    198.
 GradGradGradGradGradGradGradGradGradGradGradGradGradGradGradGradGradGrad

 Leave Link  103 at Sun Jul 18 15:52:05 2021, MaxMem=   104857600 cpu:               0.1 elap:               0.0
 (Enter /prod/apps/gaussian/g16b1/l202.exe)
                          Input orientation:                          
 ---------------------------------------------------------------------
 Center     Atomic      Atomic             Coordinates (Angstroms)
 Number     Number       Type             X           Y           Z
 ---------------------------------------------------------------------
      1          6           0        2.070000   -2.300000    4.293000
      2          1           0        2.360000   -1.274000    4.529000
      3          1           0        2.686000   -3.083000    4.738000
      4          1           0        1.066000   -2.510000    4.667000
      5          6           0        1.959000   -2.403000    2.801000
      6          8           0        2.976000   -2.825000    2.287000
      7          7           0        0.848000   -1.934000    2.195000
      8          1           0        0.202000   -1.440000    2.794000
      9          6           0        0.462000   -2.063000    0.888000
     10          6           0        0.534000   -3.330000    0.258000
     11          6           0        0.069000   -3.491000   -1.033000
     12          6           0       -0.311000   -2.371000   -1.757000
     13          1           0       -0.739000   -2.485000   -2.749000
     14          1           0       -0.071000   -4.457000   -1.510000
     15          1           0        0.781000   -4.181000    0.888000
     16          6           0        0.219000   -0.892000    0.182000
     17          1           0        0.380000    0.138000    0.489000
     18          6           0       -0.232000   -1.087000   -1.163000
     19          6           0       -0.719000    0.094000   -1.840000
     20          7           0       -1.038000    1.294000   -1.245000
     21          6           0       -0.799000    0.120000   -3.224000
     22          1           0       -0.379000   -0.525000   -3.985000
     23         16           0       -1.456000    1.624000   -3.838000
     24          6           0       -1.356000    2.199000   -2.164000
     25          7           0       -1.361000    3.572000   -2.051000
     26          6           0       -1.314000    4.040000   -0.870000
     27          7           0       -0.342000    4.691000   -0.469000
     28          1           0       -0.315000    5.285000   -1.291000
     29          1           0        0.456000    4.065000   -0.457000
     30          7           0       -1.908000    5.137000   -0.700000
     31          1           0       -2.882000    4.988000   -0.939000
     32          1           0       -1.843000    5.403000    0.277000
     33          1           0       -1.399000    4.167000   -2.853000
 ---------------------------------------------------------------------
                    Distance matrix (angstroms):
                    1          2          3          4          5
     1  C    0.000000
     2  H    1.092004   0.000000
     3  H    1.091132   1.849983   0.000000
     4  H    1.091784   1.794763   1.719817   0.000000
     5  C    1.499665   2.102719   2.177820   2.071438   0.000000
     6  O    2.262852   2.794928   2.481545   3.067853   1.215142
     7  N    2.455370   2.858199   3.341451   2.547564   1.349636
     8  H    2.544804   2.773940   3.556521   2.323688   2.003613
     9  C    3.773044   4.181125   4.561697   3.852981   2.452790
    10  C    4.438628   5.079651   4.976195   4.516050   3.058889
    11  C    5.812810   6.410898   6.349771   5.869103   4.410828
    12  C    6.502054   6.917474   7.188461   6.571395   5.092081
    13  H    7.583830   8.002475   8.254901   7.632543   6.171582
    14  H    6.550675   7.246432   6.966091   6.575630   5.188886
    15  H    4.098013   4.919428   4.433636   4.141776   2.865054
    16  C    4.723239   4.860680   5.625274   4.842578   3.488536
    17  H    4.823936   4.715479   5.809172   4.993815   3.780908
    18  C    6.044709   6.257180   6.878993   6.139921   4.716528
    19  C    7.150066   7.205264   8.059618   7.232433   5.911478
    20  N    7.296982   7.174964   8.295938   7.338186   6.246594
    21  C    8.401955   8.487139   9.262714   8.524260   7.090326
    22  H    8.813258   8.975039   9.593139   8.993629   7.419092
    23  S    9.692451   9.641937  10.623549   9.787005   8.482646
    24  C    8.583200   8.406345   9.585139   8.643109   7.537828
    25  N    9.300456   8.979196  10.332364   9.381502   8.382418
    26  C    8.848934   8.419387   9.908925   8.900858   8.105617
    27  N    8.795935   8.237842   9.834465   8.956303   8.143239
    28  H    9.716044   9.167797  10.741428   9.907924   9.001160
    29  H    8.104364   7.549194   9.113442   8.358116   7.396526
    30  N    9.801199   9.309092  10.874055   9.804385   9.168549
    31  H   10.247491   9.828033  11.330137  10.160411   9.594257
    32  H    9.527646   8.962535  10.603045   9.505259   9.042091
    33  H   10.243113   9.911029  11.263792  10.354176   9.295632
                    6          7          8          9         10
     6  O    0.000000
     7  N    2.308837   0.000000
     8  H    3.141711   1.010026   0.000000
     9  C    2.976246   1.368900   2.022020   0.000000
    10  C    3.214845   2.408190   3.180192   1.416818   0.000000
    11  C    4.462802   3.667571   4.343987   2.425670   1.381603
    12  C    5.231101   4.141564   4.673492   2.772800   2.386196
    13  H    6.267226   5.221619   5.718597   3.853343   3.372922
    14  H    5.134671   4.575709   5.263196   3.430121   2.182196
    15  H    2.934955   2.600336   3.388386   2.141888   1.087249
    16  C    3.970965   2.352355   2.668921   1.388786   2.459440
    17  H    4.330287   2.724453   2.799070   2.238376   3.479095
    18  C    5.021395   3.627668   3.996350   2.375040   2.763521
    19  C    6.261447   4.780115   4.967429   3.672791   4.206589
    20  N    6.749324   5.080411   5.032482   4.250781   5.109948
    21  C    7.300327   6.024706   6.296977   4.823293   5.079736
    22  H    7.475561   6.456254   6.865102   5.178692   5.167654
    23  S    8.772220   7.373254   7.491361   6.293470   6.728999
    24  C    7.988629   6.398452   6.344403   5.548376   6.325190
    25  N    8.862811   7.295494   7.144028   6.611677   7.520646
    26  C    8.689015   7.053874   6.764137   6.594797   7.681431
    27  N    8.665732   7.239035   6.966510   6.935732   8.101379
    28  H    9.455415   8.100539   7.885438   7.703562   8.794227
    29  H    7.832754   6.570751   6.398323   6.273870   7.429895
    30  N    9.806583   8.122537   7.740611   7.744588   8.864041
    31  H   10.284270   8.464570   8.047703   8.014790   9.071438
    32  H    9.744888   8.046849   7.572580   7.837570   9.050734
    33  H    9.718451   8.231252   8.117282   7.501420   8.343849
                   11         12         13         14         15
    11  C    0.000000
    12  C    1.386714   0.000000
    13  H    2.146988   1.086390   0.000000
    14  H    1.086409   2.114239   2.422835   0.000000
    15  H    2.161778   3.385940   4.291222   2.559782   0.000000
    16  C    2.872895   2.495609   3.470760   3.956790   3.410543
    17  H    3.947511   3.437598   4.314735   5.031245   4.355888
    18  C    2.426256   1.416945   2.174132   3.391641   3.847805
    19  C    3.758247   2.499916   2.734579   4.608731   5.288441
    20  N    4.915955   3.771326   4.078267   5.837749   6.150941
    21  C    4.311986   2.931777   2.648632   4.941327   6.156585
    22  H    4.208582   2.894188   2.344972   4.656298   6.201457
    23  S    6.029666   4.647753   4.310904   6.657054   7.812635
    24  C    5.973766   4.705590   4.760543   6.810380   7.388225
    25  N    7.277856   6.042200   6.128730   8.149946   8.563580
    26  C    7.658670   6.549328   6.814462   8.611252   8.663973
    27  N    8.211708   7.178562   7.539959   9.211027   9.045162
    28  H    8.788185   7.670170   7.916972   9.747516   9.775194
    29  H    7.587798   6.610627   7.041576   8.602966   8.361290
    30  N    8.857867   7.748401   7.978712   9.801811   9.827390
    31  H    8.978345   7.837987   7.982122   9.870957  10.041218
    32  H    9.191033   8.180419   8.520331  10.176097   9.955489
    33  H    8.007021   6.717917   6.685471   8.828398   9.404073
                   16         17         18         19         20
    16  C    0.000000
    17  H    1.086770   0.000000
    18  C    1.431940   2.145757   0.000000
    19  C    2.437319   2.575651   1.445773   0.000000
    20  N    2.897408   2.520678   2.515059   1.376875   0.000000
    21  C    3.696120   3.895733   2.454803   1.386554   2.313404
    22  H    4.225658   4.586101   2.881169   2.258271   3.354198
    23  S    5.029541   4.929708   4.000415   2.622227   2.647125
    24  C    4.187914   3.781511   3.614301   2.223009   1.328424
    25  N    5.235455   4.612487   4.875394   3.543045   2.437878
    26  C    5.270808   4.465660   5.248114   4.106804   2.785196
    27  N    5.648753   4.708382   5.820569   4.811879   3.553337
    28  H    6.372614   5.490267   6.373826   5.235561   4.056221
    29  H    5.003633   4.040052   5.245463   4.366023   3.245215
    30  N    6.453750   5.624826   6.462315   5.305202   3.977760
    31  H    6.741457   6.016837   6.631614   5.426012   4.140001
    32  H    6.624794   5.718994   6.840250   5.824993   4.455153
    33  H    6.117404   5.528711   5.641144   4.251811   3.312116
                   21         22         23         24         25
    21  C    0.000000
    22  H    1.082380   0.000000
    23  S    1.752330   2.408265   0.000000
    24  C    2.399185   3.419173   1.772823   0.000000
    25  N    3.688913   4.635740   2.645203   1.377651   0.000000
    26  C    4.601406   5.605058   3.829653   2.250662   1.271218
    27  N    5.356577   6.290491   4.690165   3.179825   2.189348
    28  H    5.536061   6.404517   4.603478   3.371825   2.146179
    29  H    4.979391   5.849112   4.587525   3.111133   2.466855
    30  N    5.724574   6.722151   4.732073   3.328640   2.138606
    31  H    5.766935   6.777632   4.664137   3.407025   2.356913
    32  H    6.423163   7.446417   5.600342   4.057249   3.000745
    33  H    4.108023   4.933223   2.727696   2.085568   0.999336
                   26         27         28         29         30
    26  C    0.000000
    27  N    1.236683   0.000000
    28  H    1.650838   1.014519   0.000000
    29  H    1.817717   1.014310   1.666852   0.000000
    30  N    1.259025   1.644577   1.705530   2.607054   0.000000
    31  H    1.833600   2.600136   2.607988   3.496641   1.013902
    32  H    1.858284   1.821115   2.192563   2.759420   1.014648
    33  H    1.988880   2.659940   2.205635   3.031872   2.415655
                   31         32         33
    31  H    0.000000
    32  H    1.652393   0.000000
    33  H    2.556702   3.394368   0.000000
 Stoichiometry    C12H14N5OS(1+)
 Framework group  C1[X(C12H14N5OS)]
 Deg. of freedom    93
 Full point group                 C1      NOp   1
 Largest Abelian subgroup         C1      NOp   1
 Largest concise Abelian subgroup C1      NOp   1
                         Standard orientation:                         
 ---------------------------------------------------------------------
 Center     Atomic      Atomic             Coordinates (Angstroms)
 Number     Number       Type             X           Y           Z
 ---------------------------------------------------------------------
      1          6           0       -5.248735    2.606525   -0.174731
      2          1           0       -4.687133    3.465115    0.199300
      3          1           0       -6.309558    2.584280    0.079691
      4          1           0       -5.239043    2.588459   -1.266322
      5          6           0       -4.508666    1.370410    0.241577
      6          8           0       -4.937111    0.898006    1.275907
      7          7           0       -3.424960    0.988634   -0.466480
      8          1           0       -3.120935    1.636884   -1.178866
      9          6           0       -2.701044   -0.169416   -0.372928
     10          6           0       -3.374948   -1.414576   -0.319976
     11          6           0       -2.655187   -2.593846   -0.310408
     12          6           0       -1.275199   -2.540087   -0.185032
     13          1           0       -0.688825   -3.452962   -0.240427
     14          1           0       -3.099531   -3.575456   -0.449284
     15          1           0       -4.449953   -1.401113   -0.482129
     16          6           0       -1.341196   -0.046219   -0.119228
     17          1           0       -0.766450    0.846643    0.112146
     18          6           0       -0.624563   -1.285427   -0.083859
     19          6           0        0.816992   -1.177338   -0.061617
     20          7           0        1.547766   -0.044157   -0.340288
     21          6           0        1.588776   -2.245915    0.368527
     22          1           0        1.335509   -3.151697    0.904215
     23         16           0        3.308487   -1.922969    0.273877
     24          6           0        2.841200   -0.260906   -0.128729
     25          7           0        3.842223    0.660986    0.085724
     26          6           0        3.569204    1.867286   -0.208035
     27          7           0        3.506497    2.747186    0.658700
     28          1           0        4.383562    2.477874    1.091684
     29          1           0        2.726234    2.518210    1.264987
     30          7           0        4.542931    2.560032   -0.604395
     31          1           0        4.908695    2.110478   -1.436331
     32          1           0        4.214150    3.488910   -0.846469
     33          1           0        4.733365    0.396127    0.452316
 ---------------------------------------------------------------------
 Rotational constants (GHZ):           0.5420397           0.1625400           0.1290479
 Leave Link  202 at Sun Jul 18 15:52:05 2021, MaxMem=   104857600 cpu:               0.1 elap:               0.0
 (Enter /prod/apps/gaussian/g16b1/l301.exe)
 Standard basis: 6-31G(d) (6D, 7F)
 Ernie: Thresh=  0.10000D-02 Tol=  0.10000D-05 Strict=F.
 There are   317 symmetry adapted cartesian basis functions of A   symmetry.
 There are   317 symmetry adapted basis functions of A   symmetry.
   317 basis functions,   612 primitive gaussians,   317 cartesian basis functions
    72 alpha electrons       72 beta electrons
       nuclear repulsion energy      1466.8089996928 Hartrees.
 IExCor=  402 DFT=T Ex+Corr=B3LYP ExCW=0 ScaHFX=  0.200000
 ScaDFX=  0.800000  0.720000  1.000000  0.810000 ScalE2=  1.000000  1.000000
 IRadAn=      5 IRanWt=     -1 IRanGd=            0 ICorTp=0 IEmpDi=  4
 NAtoms=   33 NActive=   33 NUniq=   33 SFac= 1.00D+00 NAtFMM=   60 NAOKFM=F Big=F
 Integral buffers will be    131072 words long.
 Raffenetti 2 integral format.
 Two-electron integral symmetry is turned on.
 Using the following non-standard input for PCM:
 MSTModel=DFT cav MSTCharged
 --- end of non-standard input.
 MST model for solvation energy: B3LYP parametrization.
 MST cavity parameters:
 ISph   IAn     Re0     Alpha   Atom Type   QCorr
 ------------------------------------------------
   1      6     1.50     1.25      CH3        F
   2      1     1.20     1.25      CH3        F
   3      1     1.20     1.25      CH3        F
   4      1     1.20     1.25      CH3        F
   5      6     1.50     1.25      C          F
   6      8     1.40     1.25      O          F
   7      7     1.50     1.25      NH         F
   8      1     0.90     1.25      NH         F
   9      6     1.50     1.25      C          F
  10      6     1.50     1.25      CH         F
  11      6     1.50     1.25      CH         F
  12      6     1.50     1.25      CH         F
  13      1     1.20     1.25      CH         F
  14      1     1.20     1.25      CH         F
  15      1     1.20     1.25      CH         F
  16      6     1.50     1.25      CH         F
  17      1     1.20     1.25      CH         F
  18      6     1.50     1.25      C          F
  19      6     1.50     1.25      C          F
  20      7     1.40     1.25      N          F
  21      6     1.50     1.25      CH         F
  22      1     1.20     1.25      CH         F
  23     16     1.75     1.25      S          F
  24      6     1.50     1.25      C          F
  25      7     1.50     1.15      NH         T
  26      6     1.50     1.15      C          T
  27      7     1.55     1.15      NH         T
  28      1     0.90     1.15      NH         T
  29      1     0.90     1.15      NH         T
  30      7     1.55     1.15      NH         T
  31      1     0.90     1.15      NH         T
  32      1     0.90     1.15      NH         T
  33      1     0.90     1.15      NH         T
 ------------------------------------------------------------------------------
 Polarizable Continuum Model (PCM)
 =================================
 Model                : PCM.
 Atomic radii         : MST.
 Polarization charges : Total charges.
 Charge compensation  : None.
 Solution method      : On-the-fly selection.
 Cavity type          : Scaled VdW (van der Waals Surface) (Alpha=1.250).
 Cavity algorithm     : GePol (No added spheres)
                        Default sphere list used, NSphG=   33.
                        Lebedev-Laikov grids with approx.  5.0 points / Ang**2.
                        Smoothing algorithm: York/Karplus (Gamma=1.0000).
                        Polarization charges: spherical gaussians, with
                                              point-specific exponents (IZeta= 3).
                        Self-potential: point-specific (ISelfS= 7).
                        Self-field    : sphere-specific E.n sum rule (ISelfD= 2).
 1st derivatives      : Analytical E(r).r(x)/FMM algorithm (CHGder, D1EAlg=3).
                        Cavity 1st derivative terms included.
 Solvent              : Water, Eps=  78.355300 Eps(inf)=   1.777849
 ------------------------------------------------------------------------------
 GePol: Number of generator spheres                  =      33
 GePol: Total number of spheres                      =      33
 GePol: Number of exposed spheres                    =      33 (100.00%)
 GePol: Number of points                             =    2515
 GePol: Average weight of points                     =       0.13
 GePol: Minimum weight of points                     =   0.76D-10
 GePol: Maximum weight of points                     =    0.22001
 GePol: Number of points with low weight             =     157
 GePol: Fraction of low-weight points (<1% of avg)   =       6.24%
 GePol: Cavity surface area                          =    315.974 Ang**2
 GePol: Cavity volume                                =    293.992 Ang**3
 PCM non-electrostatic energy =         0.0016351631 Hartrees.
 Nuclear repulsion after PCM non-electrostatic terms =     1466.8106348559 Hartrees.
 Leave Link  301 at Sun Jul 18 15:52:05 2021, MaxMem=   104857600 cpu:               0.3 elap:               0.1
 (Enter /prod/apps/gaussian/g16b1/l302.exe)
 NPDir=0 NMtPBC=     1 NCelOv=     1 NCel=       1 NClECP=     1 NCelD=      1
         NCelK=      1 NCelE2=     1 NClLst=     1 CellRange=     0.0.
 One-electron integrals computed using PRISM.
 One-electron integral symmetry used in STVInt
 NBasis=   317 RedAO= T EigKep=  6.01D-04  NBF=   317
 NBsUse=   317 1.00D-06 EigRej= -1.00D+00 NBFU=   317
 Precomputing XC quadrature grid using
 IXCGrd= 4 IRadAn=           5 IRanWt=          -1 IRanGd=           0 AccXCQ= 0.00D+00.
 Generated NRdTot=       0 NPtTot=           0 NUsed=           0 NTot=          32
 NSgBfM=   314   314   314   314   314 MxSgAt=    33 MxSgA2=    33.
 Leave Link  302 at Sun Jul 18 15:52:05 2021, MaxMem=   104857600 cpu:               1.7 elap:               0.4
 (Enter /prod/apps/gaussian/g16b1/l303.exe)
 DipDrv:  MaxL=1.
 Leave Link  303 at Sun Jul 18 15:52:05 2021, MaxMem=   104857600 cpu:               0.1 elap:               0.1
 (Enter /prod/apps/gaussian/g16b1/l401.exe)
 ExpMin= 1.17D-01 ExpMax= 2.19D+04 ExpMxC= 3.30D+03 IAcc=3 IRadAn=         5 AccDes= 0.00D+00
 Harris functional with IExCor=  402 and IRadAn=       5 diagonalized for initial guess.
 HarFok:  IExCor=  402 AccDes= 0.00D+00 IRadAn=         5 IDoV= 1 UseB2=F ITyADJ=14
 ICtDFT=  3500011 ScaDFX=  1.000000  1.000000  1.000000  1.000000
 FoFCou: FMM=F IPFlag=           0 FMFlag=      100000 FMFlg1=           0
         NFxFlg=           0 DoJE=T BraDBF=F KetDBF=T FulRan=T
         wScrn=  0.000000 ICntrl=       500 IOpCl=  0 I1Cent=   200000004 NGrid=           0
         NMat0=    1 NMatS0=      1 NMatT0=    0 NMatD0=    1 NMtDS0=    0 NMtDT0=    0
 Petite list used in FoFCou.
 Harris En= -1212.28867932073    
 JPrj=0 DoOrth=F DoCkMO=F.
 Leave Link  401 at Sun Jul 18 15:52:08 2021, MaxMem=   104857600 cpu:               8.4 elap:               2.1
 (Enter /prod/apps/gaussian/g16b1/l502.exe)
 Integral symmetry usage will be decided dynamically.
 Closed shell SCF:
 Using DIIS extrapolation, IDIIS=  1040.
 NGot=   104857600 LenX=   104651207 LenY=   104550277
 Requested convergence on RMS density matrix=1.00D-08 within 128 cycles.
 Requested convergence on MAX density matrix=1.00D-06.
 Requested convergence on             energy=1.00D-06.
 No special actions if energy rises.
 Fock matrices will be formed incrementally for  20 cycles.

 Cycle   1  Pass 1  IDiag  1:
 FoFJK:  IHMeth= 1 ICntrl=       0 DoSepK=F KAlg= 0 I1Cent=           0 FoldK=F
 IRaf= 740000000 NMat=       1 IRICut=       1 DoRegI=T DoRafI=F ISym2E= 0 IDoP0=0 IntGTp=1.
 FoFCou: FMM=F IPFlag=           0 FMFlag=      100000 FMFlg1=           0
         NFxFlg=           0 DoJE=F BraDBF=F KetDBF=F FulRan=T
         wScrn=  0.000000 ICntrl=         0 IOpCl=  0 I1Cent=           0 NGrid=           0
         NMat0=    1 NMatS0=      1 NMatT0=    0 NMatD0=    1 NMtDS0=    0 NMtDT0=    0
 Symmetry not used in FoFCou.
 Inv3:  Mode=1 IEnd=    18975675.
 Iteration    1 A*A^-1 deviation from unit magnitude is 3.11D-15 for    181.
 Iteration    1 A*A^-1 deviation from orthogonality  is 3.18D-15 for   1804    215.
 Iteration    1 A^-1*A deviation from unit magnitude is 3.11D-15 for    181.
 Iteration    1 A^-1*A deviation from orthogonality  is 2.79D-15 for   1797   1787.
 E= -1211.92436367094    
 DIIS: error= 2.93D-02 at cycle   1 NSaved=   1.
 NSaved= 1 IEnMin= 1 EnMin= -1211.92436367094     IErMin= 1 ErrMin= 2.93D-02
 ErrMax= 2.93D-02  0.00D+00 EMaxC= 1.00D-01 BMatC= 5.32D-01 BMatP= 5.32D-01
 IDIUse=3 WtCom= 7.07D-01 WtEn= 2.93D-01
 Coeff-Com:  0.100D+01
 Coeff-En:   0.100D+01
 Coeff:      0.100D+01
 Gap=     0.062 Goal=   None    Shift=    0.000
 GapD=    0.062 DampG=0.500 DampE=0.500 DampFc=0.2500 IDamp=-1.
 Damping current iteration by 2.50D-01
 RMSDP=7.02D-03 MaxDP=3.15D-01              OVMax= 8.92D-01

 Cycle   2  Pass 1  IDiag  1:
 RMSU=  1.74D-03    CP:  9.88D-01
 E= -1212.04082772975     Delta-E=       -0.116464058807 Rises=F Damp=T
 DIIS: error= 1.60D-02 at cycle   2 NSaved=   2.
 NSaved= 2 IEnMin= 2 EnMin= -1212.04082772975     IErMin= 2 ErrMin= 1.60D-02
 ErrMax= 1.60D-02  0.00D+00 EMaxC= 1.00D-01 BMatC= 1.22D-01 BMatP= 5.32D-01
 IDIUse=3 WtCom= 8.40D-01 WtEn= 1.60D-01
 Coeff-Com: -0.384D+00 0.138D+01
 Coeff-En:   0.151D+00 0.849D+00
 Coeff:     -0.298D+00 0.130D+01
 Gap=    -0.257 Goal=   None    Shift=    0.000
 RMSDP=2.77D-03 MaxDP=1.16D-01 DE=-1.16D-01 OVMax= 6.61D-01

 Cycle   3  Pass 1  IDiag  1:
 RMSU=  2.74D-03    CP:  9.68D-01  9.91D-01
 E= -1212.13914576954     Delta-E=       -0.098318039787 Rises=F Damp=F
 DIIS: error= 2.23D-02 at cycle   3 NSaved=   3.
 NSaved= 3 IEnMin= 3 EnMin= -1212.13914576954     IErMin= 2 ErrMin= 1.60D-02
 ErrMax= 2.23D-02  0.00D+00 EMaxC= 1.00D-01 BMatC= 3.16D-01 BMatP= 1.22D-01
 IDIUse=2 WtCom= 0.00D+00 WtEn= 1.00D+00
 Coeff-En:   0.000D+00 0.382D+00 0.618D+00
 Coeff:      0.000D+00 0.382D+00 0.618D+00
 Gap=     0.043 Goal=   None    Shift=    0.000
 RMSDP=5.27D-03 MaxDP=3.39D-01 DE=-9.83D-02 OVMax= 9.50D-01

 Cycle   4  Pass 1  IDiag  1:
 RMSU=  2.09D-03    CP:  9.64D-01  2.63D+00 -4.27D-01
 E= -1210.86223072072     Delta-E=        1.276915048816 Rises=F Damp=F
 DIIS: error= 5.15D-02 at cycle   4 NSaved=   4.
 NSaved= 4 IEnMin= 3 EnMin= -1212.13914576954     IErMin= 2 ErrMin= 1.60D-02
 ErrMax= 5.15D-02  0.00D+00 EMaxC= 1.00D-01 BMatC= 1.06D+00 BMatP= 1.22D-01
 IDIUse=2 WtCom= 0.00D+00 WtEn= 1.00D+00
 EnCoef did     1 forward-backward iterations
 Coeff-En:   0.535D-01 0.000D+00 0.731D+00 0.216D+00
 Coeff:      0.535D-01 0.000D+00 0.731D+00 0.216D+00
 Gap=    -0.066 Goal=   None    Shift=    0.000
 RMSDP=4.79D-03 MaxDP=2.25D-01 DE= 1.28D+00 OVMax= 9.76D-01

 Cycle   5  Pass 1  IDiag  1:
 RMSU=  1.66D-03    CP:  9.80D-01  6.87D-01  3.98D-01  9.55D-02
 E= -1212.37540328953     Delta-E=       -1.513172568814 Rises=F Damp=F
 DIIS: error= 8.87D-03 at cycle   5 NSaved=   5.
 NSaved= 5 IEnMin= 5 EnMin= -1212.37540328953     IErMin= 5 ErrMin= 8.87D-03
 ErrMax= 8.87D-03  0.00D+00 EMaxC= 1.00D-01 BMatC= 5.10D-02 BMatP= 1.22D-01
 IDIUse=3 WtCom= 9.11D-01 WtEn= 8.87D-02
 Coeff-Com: -0.199D+00 0.441D+00 0.296D+00 0.173D-01 0.445D+00
 Coeff-En:   0.000D+00 0.000D+00 0.908D-01 0.000D+00 0.909D+00
 Coeff:     -0.181D+00 0.402D+00 0.278D+00 0.157D-01 0.486D+00
 Gap=     0.062 Goal=   None    Shift=    0.000
 RMSDP=9.59D-04 MaxDP=4.18D-02 DE=-1.51D+00 OVMax= 5.66D-02

 Cycle   6  Pass 1  IDiag  1:
 RMSU=  5.91D-04    CP:  9.75D-01  7.53D-01  5.84D-01  8.28D-02  6.75D-01
 E= -1212.40481964605     Delta-E=       -0.029416356515 Rises=F Damp=F
 DIIS: error= 4.98D-03 at cycle   6 NSaved=   6.
 NSaved= 6 IEnMin= 6 EnMin= -1212.40481964605     IErMin= 6 ErrMin= 4.98D-03
 ErrMax= 4.98D-03  0.00D+00 EMaxC= 1.00D-01 BMatC= 1.67D-02 BMatP= 5.10D-02
 IDIUse=3 WtCom= 9.50D-01 WtEn= 4.98D-02
 Coeff-Com: -0.152D+00 0.219D+00 0.423D-01-0.900D-02 0.326D+00 0.573D+00
 Coeff-En:   0.000D+00 0.000D+00 0.000D+00 0.000D+00 0.245D+00 0.755D+00
 Coeff:     -0.144D+00 0.209D+00 0.402D-01-0.855D-02 0.322D+00 0.582D+00
 Gap=     0.063 Goal=   None    Shift=    0.000
 RMSDP=4.09D-04 MaxDP=1.83D-02 DE=-2.94D-02 OVMax= 2.62D-02

 Cycle   7  Pass 1  IDiag  1:
 RMSU=  1.68D-04    CP:  9.77D-01  8.01D-01  5.36D-01  4.66D-02  8.57D-01
                    CP:  7.74D-01
 E= -1212.41885601091     Delta-E=       -0.014036364861 Rises=F Damp=F
 DIIS: error= 9.33D-04 at cycle   7 NSaved=   7.
 NSaved= 7 IEnMin= 7 EnMin= -1212.41885601091     IErMin= 7 ErrMin= 9.33D-04
 ErrMax= 9.33D-04  0.00D+00 EMaxC= 1.00D-01 BMatC= 7.10D-04 BMatP= 1.67D-02
 IDIUse=3 WtCom= 9.91D-01 WtEn= 9.33D-03
 Coeff-Com: -0.602D-01 0.789D-01-0.228D-01-0.199D-02 0.969D-01 0.283D+00
 Coeff-Com:  0.626D+00
 Coeff-En:   0.000D+00 0.000D+00 0.000D+00 0.000D+00 0.000D+00 0.000D+00
 Coeff-En:   0.100D+01
 Coeff:     -0.596D-01 0.781D-01-0.226D-01-0.197D-02 0.960D-01 0.281D+00
 Coeff:      0.629D+00
 Gap=     0.064 Goal=   None    Shift=    0.000
 RMSDP=1.04D-04 MaxDP=4.35D-03 DE=-1.40D-02 OVMax= 7.35D-03

 Cycle   8  Pass 1  IDiag  1:
 RMSU=  6.92D-05    CP:  9.77D-01  7.89D-01  5.25D-01  5.45D-02  8.80D-01
                    CP:  8.55D-01  8.47D-01
 E= -1212.41943197389     Delta-E=       -0.000575962978 Rises=F Damp=F
 DIIS: error= 4.85D-04 at cycle   8 NSaved=   8.
 NSaved= 8 IEnMin= 8 EnMin= -1212.41943197389     IErMin= 8 ErrMin= 4.85D-04
 ErrMax= 4.85D-04  0.00D+00 EMaxC= 1.00D-01 BMatC= 1.41D-04 BMatP= 7.10D-04
 IDIUse=3 WtCom= 9.95D-01 WtEn= 4.85D-03
 Coeff-Com: -0.959D-02 0.110D-01-0.287D-01 0.951D-03-0.148D-01 0.524D-01
 Coeff-Com:  0.392D+00 0.597D+00
 Coeff-En:   0.000D+00 0.000D+00 0.000D+00 0.000D+00 0.000D+00 0.000D+00
 Coeff-En:   0.000D+00 0.100D+01
 Coeff:     -0.954D-02 0.109D-01-0.286D-01 0.947D-03-0.147D-01 0.521D-01
 Coeff:      0.390D+00 0.598D+00
 Gap=     0.064 Goal=   None    Shift=    0.000
 RMSDP=5.79D-05 MaxDP=2.21D-03 DE=-5.76D-04 OVMax= 6.94D-03

 Cycle   9  Pass 1  IDiag  1:
 RMSU=  2.97D-05    CP:  9.77D-01  7.93D-01  5.18D-01  5.24D-02  8.96D-01
                    CP:  8.93D-01  1.01D+00  7.88D-01
 E= -1212.41958167668     Delta-E=       -0.000149702787 Rises=F Damp=F
 DIIS: error= 1.04D-04 at cycle   9 NSaved=   9.
 NSaved= 9 IEnMin= 9 EnMin= -1212.41958167668     IErMin= 9 ErrMin= 1.04D-04
 ErrMax= 1.04D-04  0.00D+00 EMaxC= 1.00D-01 BMatC= 8.82D-06 BMatP= 1.41D-04
 IDIUse=3 WtCom= 9.99D-01 WtEn= 1.04D-03
 Coeff-Com: -0.511D-04 0.513D-03-0.786D-02 0.374D-03-0.122D-01-0.914D-02
 Coeff-Com:  0.554D-01 0.241D+00 0.731D+00
 Coeff-En:   0.000D+00 0.000D+00 0.000D+00 0.000D+00 0.000D+00 0.000D+00
 Coeff-En:   0.000D+00 0.000D+00 0.100D+01
 Coeff:     -0.511D-04 0.512D-03-0.785D-02 0.374D-03-0.122D-01-0.913D-02
 Coeff:      0.554D-01 0.241D+00 0.732D+00
 Gap=     0.064 Goal=   None    Shift=    0.000
 RMSDP=1.64D-05 MaxDP=6.24D-04 DE=-1.50D-04 OVMax= 1.86D-03

 Cycle  10  Pass 1  IDiag  1:
 RMSU=  1.19D-05    CP:  9.77D-01  7.93D-01  5.17D-01  5.17D-02  8.99D-01
                    CP:  9.01D-01  1.02D+00  8.99D-01  9.50D-01
 E= -1212.41959010998     Delta-E=       -0.000008433304 Rises=F Damp=F
 DIIS: error= 4.19D-05 at cycle  10 NSaved=  10.
 NSaved=10 IEnMin=10 EnMin= -1212.41959010998     IErMin=10 ErrMin= 4.19D-05
 ErrMax= 4.19D-05  0.00D+00 EMaxC= 1.00D-01 BMatC= 1.81D-06 BMatP= 8.82D-06
 IDIUse=1 WtCom= 1.00D+00 WtEn= 0.00D+00
 Coeff-Com:  0.229D-03 0.311D-03-0.633D-03 0.130D-04-0.281D-02-0.904D-02
 Coeff-Com: -0.174D-01 0.667D-01 0.416D+00 0.547D+00
 Coeff:      0.229D-03 0.311D-03-0.633D-03 0.130D-04-0.281D-02-0.904D-02
 Coeff:     -0.174D-01 0.667D-01 0.416D+00 0.547D+00
 Gap=     0.064 Goal=   None    Shift=    0.000
 RMSDP=6.15D-06 MaxDP=2.08D-04 DE=-8.43D-06 OVMax= 7.74D-04

 Cycle  11  Pass 1  IDiag  1:
 RMSU=  4.63D-06    CP:  9.77D-01  7.93D-01  5.17D-01  5.17D-02  8.99D-01
                    CP:  9.03D-01  1.03D+00  9.08D-01  1.06D+00  8.69D-01
 E= -1212.41959193710     Delta-E=       -0.000001827116 Rises=F Damp=F
 DIIS: error= 1.80D-05 at cycle  11 NSaved=  11.
 NSaved=11 IEnMin=11 EnMin= -1212.41959193710     IErMin=11 ErrMin= 1.80D-05
 ErrMax= 1.80D-05  0.00D+00 EMaxC= 1.00D-01 BMatC= 1.78D-07 BMatP= 1.81D-06
 IDIUse=1 WtCom= 1.00D+00 WtEn= 0.00D+00
 Coeff-Com:  0.510D-03-0.655D-03 0.778D-03 0.234D-04 0.465D-03-0.365D-02
 Coeff-Com: -0.155D-01 0.318D-02 0.934D-01 0.263D+00 0.658D+00
 Coeff:      0.510D-03-0.655D-03 0.778D-03 0.234D-04 0.465D-03-0.365D-02
 Coeff:     -0.155D-01 0.318D-02 0.934D-01 0.263D+00 0.658D+00
 Gap=     0.064 Goal=   None    Shift=    0.000
 RMSDP=3.35D-06 MaxDP=1.24D-04 DE=-1.83D-06 OVMax= 6.19D-04

 Cycle  12  Pass 1  IDiag  1:
 RMSU=  1.95D-06    CP:  9.77D-01  7.93D-01  5.17D-01  5.17D-02  8.99D-01
                    CP:  9.03D-01  1.03D+00  9.23D-01  1.12D+00  9.88D-01
                    CP:  1.01D+00
 E= -1212.41959216762     Delta-E=       -0.000000230527 Rises=F Damp=F
 DIIS: error= 1.03D-05 at cycle  12 NSaved=  12.
 NSaved=12 IEnMin=12 EnMin= -1212.41959216762     IErMin=12 ErrMin= 1.03D-05
 ErrMax= 1.03D-05  0.00D+00 EMaxC= 1.00D-01 BMatC= 5.02D-08 BMatP= 1.78D-07
 IDIUse=1 WtCom= 1.00D+00 WtEn= 0.00D+00
 Coeff-Com:  0.201D-03-0.280D-03 0.623D-03-0.128D-04 0.786D-03-0.644D-03
 Coeff-Com: -0.490D-02-0.410D-02-0.937D-02 0.568D-01 0.338D+00 0.623D+00
 Coeff:      0.201D-03-0.280D-03 0.623D-03-0.128D-04 0.786D-03-0.644D-03
 Coeff:     -0.490D-02-0.410D-02-0.937D-02 0.568D-01 0.338D+00 0.623D+00
 Gap=     0.064 Goal=   None    Shift=    0.000
 RMSDP=1.21D-06 MaxDP=3.32D-05 DE=-2.31D-07 OVMax= 1.70D-04

 Cycle  13  Pass 1  IDiag  1:
 RMSU=  5.60D-07    CP:  9.77D-01  7.93D-01  5.17D-01  5.17D-02  8.99D-01
                    CP:  9.03D-01  1.03D+00  9.27D-01  1.14D+00  1.04D+00
                    CP:  1.13D+00  1.03D+00
 E= -1212.41959222034     Delta-E=       -0.000000052718 Rises=F Damp=F
 DIIS: error= 3.58D-06 at cycle  13 NSaved=  13.
 NSaved=13 IEnMin=13 EnMin= -1212.41959222034     IErMin=13 ErrMin= 3.58D-06
 ErrMax= 3.58D-06  0.00D+00 EMaxC= 1.00D-01 BMatC= 1.10D-08 BMatP= 5.02D-08
 IDIUse=1 WtCom= 1.00D+00 WtEn= 0.00D+00
 Coeff-Com:  0.448D-04-0.830D-04 0.160D-03-0.561D-05 0.271D-03 0.520D-03
 Coeff-Com:  0.226D-02-0.111D-02-0.303D-01-0.416D-01 0.237D-01 0.219D+00
 Coeff-Com:  0.827D+00
 Coeff:      0.448D-04-0.830D-04 0.160D-03-0.561D-05 0.271D-03 0.520D-03
 Coeff:      0.226D-02-0.111D-02-0.303D-01-0.416D-01 0.237D-01 0.219D+00
 Coeff:      0.827D+00
 Gap=     0.064 Goal=   None    Shift=    0.000
 RMSDP=9.26D-07 MaxDP=2.62D-05 DE=-5.27D-08 OVMax= 1.51D-04

 Cycle  14  Pass 1  IDiag  1:
 RMSU=  2.89D-07    CP:  9.77D-01  7.93D-01  5.17D-01  5.16D-02  8.99D-01
                    CP:  9.03D-01  1.03D+00  9.29D-01  1.15D+00  1.08D+00
                    CP:  1.23D+00  1.21D+00  1.07D+00
 E= -1212.41959223497     Delta-E=       -0.000000014627 Rises=F Damp=F
 DIIS: error= 1.79D-06 at cycle  14 NSaved=  14.
 NSaved=14 IEnMin=14 EnMin= -1212.41959223497     IErMin=14 ErrMin= 1.79D-06
 ErrMax= 1.79D-06  0.00D+00 EMaxC= 1.00D-01 BMatC= 1.74D-09 BMatP= 1.10D-08
 IDIUse=1 WtCom= 1.00D+00 WtEn= 0.00D+00
 Coeff-Com: -0.225D-05 0.126D-06-0.238D-04-0.121D-05-0.256D-04 0.300D-03
 Coeff-Com:  0.200D-02 0.980D-03-0.110D-01-0.283D-01-0.400D-01-0.460D-01
 Coeff-Com:  0.434D+00 0.688D+00
 Coeff:     -0.225D-05 0.126D-06-0.238D-04-0.121D-05-0.256D-04 0.300D-03
 Coeff:      0.200D-02 0.980D-03-0.110D-01-0.283D-01-0.400D-01-0.460D-01
 Coeff:      0.434D+00 0.688D+00
 Gap=     0.064 Goal=   None    Shift=    0.000
 RMSDP=3.24D-07 MaxDP=1.12D-05 DE=-1.46D-08 OVMax= 4.75D-05

 Cycle  15  Pass 1  IDiag  1:
 RMSU=  9.29D-08    CP:  9.77D-01  7.93D-01  5.17D-01  5.16D-02  8.99D-01
                    CP:  9.03D-01  1.03D+00  9.30D-01  1.15D+00  1.09D+00
                    CP:  1.26D+00  1.27D+00  1.25D+00  8.29D-01
 E= -1212.41959223716     Delta-E=       -0.000000002192 Rises=F Damp=F
 DIIS: error= 2.59D-07 at cycle  15 NSaved=  15.
 NSaved=15 IEnMin=15 EnMin= -1212.41959223716     IErMin=15 ErrMin= 2.59D-07
 ErrMax= 2.59D-07  0.00D+00 EMaxC= 1.00D-01 BMatC= 8.03D-11 BMatP= 1.74D-09
 IDIUse=1 WtCom= 1.00D+00 WtEn= 0.00D+00
 Coeff-Com:  0.557D-06-0.235D-05-0.192D-04-0.183D-06-0.315D-04 0.718D-04
 Coeff-Com:  0.635D-03 0.442D-03-0.257D-02-0.886D-02-0.152D-01-0.399D-01
 Coeff-Com:  0.118D+00 0.297D+00 0.650D+00
 Coeff:      0.557D-06-0.235D-05-0.192D-04-0.183D-06-0.315D-04 0.718D-04
 Coeff:      0.635D-03 0.442D-03-0.257D-02-0.886D-02-0.152D-01-0.399D-01
 Coeff:      0.118D+00 0.297D+00 0.650D+00
 Gap=     0.064 Goal=   None    Shift=    0.000
 RMSDP=7.03D-08 MaxDP=1.66D-06 DE=-2.19D-09 OVMax= 1.03D-05

 Cycle  16  Pass 1  IDiag  1:
 RMSU=  3.39D-08    CP:  9.77D-01  7.93D-01  5.17D-01  5.16D-02  8.99D-01
                    CP:  9.03D-01  1.03D+00  9.31D-01  1.16D+00  1.09D+00
                    CP:  1.27D+00  1.28D+00  1.29D+00  9.16D-01  9.55D-01
 E= -1212.41959223727     Delta-E=       -0.000000000113 Rises=F Damp=F
 DIIS: error= 1.42D-07 at cycle  16 NSaved=  16.
 NSaved=16 IEnMin=16 EnMin= -1212.41959223727     IErMin=16 ErrMin= 1.42D-07
 ErrMax= 1.42D-07  0.00D+00 EMaxC= 1.00D-01 BMatC= 1.83D-11 BMatP= 8.03D-11
 IDIUse=1 WtCom= 1.00D+00 WtEn= 0.00D+00
 Coeff-Com: -0.458D-05 0.707D-05-0.659D-05-0.373D-06-0.893D-05 0.187D-05
 Coeff-Com:  0.415D-04 0.990D-04 0.323D-03-0.538D-03-0.176D-02-0.172D-01
 Coeff-Com: -0.477D-02 0.548D-01 0.352D+00 0.617D+00
 Coeff:     -0.458D-05 0.707D-05-0.659D-05-0.373D-06-0.893D-05 0.187D-05
 Coeff:      0.415D-04 0.990D-04 0.323D-03-0.538D-03-0.176D-02-0.172D-01
 Coeff:     -0.477D-02 0.548D-01 0.352D+00 0.617D+00
 Gap=     0.064 Goal=   None    Shift=    0.000
 RMSDP=2.77D-08 MaxDP=8.51D-07 DE=-1.13D-10 OVMax= 3.28D-06

 Cycle  17  Pass 1  IDiag  1:
 RMSU=  1.08D-08    CP:  9.77D-01  7.93D-01  5.17D-01  5.16D-02  8.99D-01
                    CP:  9.03D-01  1.03D+00  9.31D-01  1.16D+00  1.09D+00
                    CP:  1.27D+00  1.28D+00  1.30D+00  9.43D-01  1.05D+00
                    CP:  7.87D-01
 E= -1212.41959223729     Delta-E=       -0.000000000017 Rises=F Damp=F
 DIIS: error= 5.65D-08 at cycle  17 NSaved=  17.
 NSaved=17 IEnMin=17 EnMin= -1212.41959223729     IErMin=17 ErrMin= 5.65D-08
 ErrMax= 5.65D-08  0.00D+00 EMaxC= 1.00D-01 BMatC= 2.97D-12 BMatP= 1.83D-11
 IDIUse=1 WtCom= 1.00D+00 WtEn= 0.00D+00
 Coeff-Com: -0.331D-05 0.499D-05-0.767D-06-0.143D-06 0.111D-05-0.812D-05
 Coeff-Com: -0.800D-04-0.201D-04 0.511D-03 0.110D-02 0.200D-02-0.206D-02
 Coeff-Com: -0.186D-01-0.172D-01 0.719D-01 0.264D+00 0.699D+00
 Coeff:     -0.331D-05 0.499D-05-0.767D-06-0.143D-06 0.111D-05-0.812D-05
 Coeff:     -0.800D-04-0.201D-04 0.511D-03 0.110D-02 0.200D-02-0.206D-02
 Coeff:     -0.186D-01-0.172D-01 0.719D-01 0.264D+00 0.699D+00
 Gap=     0.064 Goal=   None    Shift=    0.000
 RMSDP=9.44D-09 MaxDP=2.79D-07 DE=-1.73D-11 OVMax= 1.14D-06

 Error on total polarization charges =  0.02597
 SCF Done:  E(RB3LYP) =  -1212.41959224     A.U. after   17 cycles
            NFock= 17  Conv=0.94D-08     -V/T= 2.0057
 KE= 1.205596004635D+03 PE=-5.755317314068D+03 EE= 1.870491082340D+03
 Leave Link  502 at Sun Jul 18 15:53:30 2021, MaxMem=   104857600 cpu:             328.9 elap:              82.3
 (Enter /prod/apps/gaussian/g16b1/l601.exe)
 Copying SCF densities to generalized density rwf, IOpCl= 0 IROHF=0.

 **********************************************************************

            Population analysis using the SCF Density.

 **********************************************************************

 Orbital symmetries:
       Occupied  (A) (A) (A) (A) (A) (A) (A) (A) (A) (A) (A) (A)
                 (A) (A) (A) (A) (A) (A) (A) (A) (A) (A) (A) (A)
                 (A) (A) (A) (A) (A) (A) (A) (A) (A) (A) (A) (A)
                 (A) (A) (A) (A) (A) (A) (A) (A) (A) (A) (A) (A)
                 (A) (A) (A) (A) (A) (A) (A) (A) (A) (A) (A) (A)
                 (A) (A) (A) (A) (A) (A) (A) (A) (A) (A) (A) (A)
       Virtual   (A) (A) (A) (A) (A) (A) (A) (A) (A) (A) (A) (A)
                 (A) (A) (A) (A) (A) (A) (A) (A) (A) (A) (A) (A)
                 (A) (A) (A) (A) (A) (A) (A) (A) (A) (A) (A) (A)
                 (A) (A) (A) (A) (A) (A) (A) (A) (A) (A) (A) (A)
                 (A) (A) (A) (A) (A) (A) (A) (A) (A) (A) (A) (A)
                 (A) (A) (A) (A) (A) (A) (A) (A) (A) (A) (A) (A)
                 (A) (A) (A) (A) (A) (A) (A) (A) (A) (A) (A) (A)
                 (A) (A) (A) (A) (A) (A) (A) (A) (A) (A) (A) (A)
                 (A) (A) (A) (A) (A) (A) (A) (A) (A) (A) (A) (A)
                 (A) (A) (A) (A) (A) (A) (A) (A) (A) (A) (A) (A)
                 (A) (A) (A) (A) (A) (A) (A) (A) (A) (A) (A) (A)
                 (A) (A) (A) (A) (A) (A) (A) (A) (A) (A) (A) (A)
                 (A) (A) (A) (A) (A) (A) (A) (A) (A) (A) (A) (A)
                 (A) (A) (A) (A) (A) (A) (A) (A) (A) (A) (A) (A)
                 (A) (A) (A) (A) (A) (A) (A) (A) (A) (A) (A) (A)
                 (A) (A) (A) (A) (A) (A) (A) (A) (A) (A) (A) (A)
                 (A) (A) (A) (A) (A) (A) (A) (A) (A) (A) (A) (A)
                 (A) (A) (A) (A) (A) (A) (A) (A) (A) (A) (A) (A)
                 (A) (A) (A) (A) (A) (A) (A) (A) (A) (A) (A) (A)
                 (A) (A) (A) (A) (A) (A) (A) (A) (A) (A) (A) (A)
                 (A) (A) (A) (A) (A)
 The electronic state is 1-A.
 Alpha  occ. eigenvalues --  -88.92393 -19.11281 -14.40726 -14.38728 -14.36502
 Alpha  occ. eigenvalues --  -14.35651 -14.35256 -10.33509 -10.31484 -10.28847
 Alpha  occ. eigenvalues --  -10.24148 -10.23739 -10.22263 -10.21156 -10.19869
 Alpha  occ. eigenvalues --  -10.19865 -10.19800 -10.19691 -10.17923  -7.98566
 Alpha  occ. eigenvalues --   -5.94949  -5.94623  -5.94249  -1.16805  -1.04276
 Alpha  occ. eigenvalues --   -1.02138  -0.95886  -0.95214  -0.89508  -0.85873
 Alpha  occ. eigenvalues --   -0.81144  -0.78982  -0.76595  -0.73788  -0.71949
 Alpha  occ. eigenvalues --   -0.67837  -0.65776  -0.63951  -0.62937  -0.61315
 Alpha  occ. eigenvalues --   -0.59892  -0.57729  -0.55590  -0.55063  -0.53512
 Alpha  occ. eigenvalues --   -0.51236  -0.49544  -0.48289  -0.47860  -0.46839
 Alpha  occ. eigenvalues --   -0.45666  -0.44652  -0.43843  -0.42919  -0.41771
 Alpha  occ. eigenvalues --   -0.40690  -0.39372  -0.38981  -0.37836  -0.36989
 Alpha  occ. eigenvalues --   -0.36307  -0.35491  -0.34855  -0.33794  -0.30525
 Alpha  occ. eigenvalues --   -0.30119  -0.29412  -0.29149  -0.26313  -0.24685
 Alpha  occ. eigenvalues --   -0.23740  -0.21023
 Alpha virt. eigenvalues --   -0.14616  -0.04935  -0.02416  -0.01554  -0.00014
 Alpha virt. eigenvalues --    0.03431   0.06314   0.09081   0.09557   0.10072
 Alpha virt. eigenvalues --    0.10992   0.11987   0.13292   0.13790   0.14001
 Alpha virt. eigenvalues --    0.14703   0.15267   0.16249   0.16617   0.17420
 Alpha virt. eigenvalues --    0.18541   0.19360   0.19427   0.20332   0.21871
 Alpha virt. eigenvalues --    0.23332   0.25943   0.26543   0.28236   0.29257
 Alpha virt. eigenvalues --    0.29508   0.31343   0.31891   0.33595   0.35178
 Alpha virt. eigenvalues --    0.35610   0.35789   0.36677   0.37757   0.39816
 Alpha virt. eigenvalues --    0.41221   0.42368   0.44795   0.45900   0.49194
 Alpha virt. eigenvalues --    0.49587   0.50589   0.52082   0.52608   0.53270
 Alpha virt. eigenvalues --    0.54213   0.54397   0.55317   0.55655   0.56463
 Alpha virt. eigenvalues --    0.57365   0.57995   0.58770   0.59202   0.59890
 Alpha virt. eigenvalues --    0.60954   0.61337   0.61435   0.62290   0.64270
 Alpha virt. eigenvalues --    0.64982   0.66218   0.66240   0.68140   0.69576
 Alpha virt. eigenvalues --    0.70558   0.72623   0.72770   0.73742   0.75402
 Alpha virt. eigenvalues --    0.75985   0.76819   0.77526   0.78435   0.79385
 Alpha virt. eigenvalues --    0.80186   0.81435   0.82127   0.82779   0.83212
 Alpha virt. eigenvalues --    0.84973   0.85937   0.87044   0.87257   0.87283
 Alpha virt. eigenvalues --    0.87985   0.88417   0.88879   0.89550   0.90066
 Alpha virt. eigenvalues --    0.90410   0.91382   0.92106   0.92337   0.93143
 Alpha virt. eigenvalues --    0.94057   0.95279   0.96203   0.96878   0.97809
 Alpha virt. eigenvalues --    0.99467   1.00460   1.01437   1.02026   1.02394
 Alpha virt. eigenvalues --    1.03599   1.06089   1.07470   1.08309   1.10051
 Alpha virt. eigenvalues --    1.11073   1.11384   1.13958   1.15961   1.17431
 Alpha virt. eigenvalues --    1.18640   1.20740   1.23601   1.25064   1.27149
 Alpha virt. eigenvalues --    1.29606   1.30342   1.33805   1.34931   1.35288
 Alpha virt. eigenvalues --    1.38723   1.40407   1.41178   1.42622   1.44919
 Alpha virt. eigenvalues --    1.46830   1.47826   1.48146   1.48536   1.51749
 Alpha virt. eigenvalues --    1.52488   1.55827   1.59394   1.62933   1.64282
 Alpha virt. eigenvalues --    1.68183   1.69124   1.69861   1.72359   1.75211
 Alpha virt. eigenvalues --    1.76058   1.77143   1.78457   1.78983   1.80934
 Alpha virt. eigenvalues --    1.82908   1.83664   1.85307   1.86527   1.89481
 Alpha virt. eigenvalues --    1.91346   1.92236   1.92937   1.93307   1.94759
 Alpha virt. eigenvalues --    1.96416   1.97940   2.00037   2.02020   2.02612
 Alpha virt. eigenvalues --    2.03466   2.05888   2.08081   2.08992   2.12096
 Alpha virt. eigenvalues --    2.12819   2.13994   2.16067   2.18165   2.19929
 Alpha virt. eigenvalues --    2.20975   2.23211   2.24106   2.25022   2.26940
 Alpha virt. eigenvalues --    2.27663   2.29307   2.30854   2.31297   2.32119
 Alpha virt. eigenvalues --    2.36700   2.38804   2.40149   2.41622   2.43187
 Alpha virt. eigenvalues --    2.45666   2.47947   2.51817   2.52218   2.54808
 Alpha virt. eigenvalues --    2.57440   2.58336   2.60163   2.61599   2.64028
 Alpha virt. eigenvalues --    2.65709   2.66051   2.67996   2.69976   2.73802
 Alpha virt. eigenvalues --    2.76555   2.76929   2.79506   2.82015   2.83601
 Alpha virt. eigenvalues --    2.84793   2.92261   2.93723   2.96655   2.99184
 Alpha virt. eigenvalues --    3.02958   3.05977   3.14962   3.21173   3.28094
 Alpha virt. eigenvalues --    3.40251   3.83875   3.87005   3.92665   4.02943
 Alpha virt. eigenvalues --    4.04602   4.06023   4.08122   4.09141   4.12045
 Alpha virt. eigenvalues --    4.16752   4.19574   4.20963   4.27711   4.30895
 Alpha virt. eigenvalues --    4.35373   4.43295   4.47227   4.52565   4.73750
          Condensed to atoms (all electrons):
               1          2          3          4          5          6
     1  C    5.333477   0.361157   0.372628   0.327100   0.366960  -0.117955
     2  H    0.361157   0.505318  -0.016186  -0.020497  -0.021982  -0.000360
     3  H    0.372628  -0.016186   0.508116  -0.032381  -0.019030   0.000576
     4  H    0.327100  -0.020497  -0.032381   0.585909  -0.033877   0.005802
     5  C    0.366960  -0.021982  -0.019030  -0.033877   4.316447   0.603890
     6  O   -0.117955  -0.000360   0.000576   0.005802   0.603890   8.146279
     7  N   -0.120443   0.001225   0.003105   0.009598   0.245524  -0.086614
     8  H   -0.000663   0.000813  -0.000042   0.001792  -0.023031   0.002430
     9  C    0.005942  -0.000239  -0.000086  -0.000074  -0.013400   0.004685
    10  C    0.000425  -0.000001   0.000001  -0.000055  -0.000913   0.004139
    11  C    0.000004   0.000000  -0.000000  -0.000002   0.000448   0.000153
    12  C   -0.000000  -0.000000  -0.000000   0.000000  -0.000016  -0.000010
    13  H    0.000000  -0.000000  -0.000000  -0.000000  -0.000000   0.000000
    14  H   -0.000000  -0.000000   0.000000  -0.000000  -0.000004   0.000001
    15  H   -0.000226   0.000005   0.000008   0.000002   0.003877   0.000627
    16  C   -0.000420   0.000030   0.000002   0.000007   0.000122  -0.000781
    17  H   -0.000014   0.000001   0.000000  -0.000001   0.000054  -0.000019
    18  C    0.000005  -0.000000   0.000000  -0.000000   0.000034   0.000018
    19  C   -0.000000   0.000000   0.000000   0.000000  -0.000002   0.000000
    20  N   -0.000000  -0.000000  -0.000000   0.000000  -0.000000  -0.000000
    21  C    0.000000  -0.000000   0.000000  -0.000000  -0.000000  -0.000000
    22  H   -0.000000  -0.000000   0.000000  -0.000000   0.000000  -0.000000
    23  S   -0.000000   0.000000   0.000000   0.000000  -0.000000   0.000000
    24  C    0.000000  -0.000000   0.000000   0.000000   0.000000  -0.000000
    25  N    0.000000   0.000000  -0.000000  -0.000000   0.000000   0.000000
    26  C   -0.000000  -0.000000   0.000000  -0.000000   0.000000   0.000000
    27  N    0.000000   0.000000   0.000000   0.000000  -0.000000  -0.000000
    28  H   -0.000000  -0.000000   0.000000  -0.000000   0.000000  -0.000000
    29  H   -0.000000  -0.000000  -0.000000  -0.000000  -0.000000   0.000000
    30  N    0.000000  -0.000000   0.000000   0.000000  -0.000000   0.000000
    31  H    0.000000   0.000000   0.000000   0.000000  -0.000000  -0.000000
    32  H   -0.000000   0.000000  -0.000000   0.000000  -0.000000   0.000000
    33  H    0.000000  -0.000000   0.000000  -0.000000   0.000000   0.000000
               7          8          9         10         11         12
     1  C   -0.120443  -0.000663   0.005942   0.000425   0.000004  -0.000000
     2  H    0.001225   0.000813  -0.000239  -0.000001   0.000000  -0.000000
     3  H    0.003105  -0.000042  -0.000086   0.000001  -0.000000  -0.000000
     4  H    0.009598   0.001792  -0.000074  -0.000055  -0.000002   0.000000
     5  C    0.245524  -0.023031  -0.013400  -0.000913   0.000448  -0.000016
     6  O   -0.086614   0.002430   0.004685   0.004139   0.000153  -0.000010
     7  N    7.241869   0.306363   0.192893  -0.060029   0.004475   0.001280
     8  H    0.306363   0.332719  -0.017785   0.003288  -0.000055  -0.000013
     9  C    0.192893  -0.017785   4.655368   0.544829  -0.008391  -0.037196
    10  C   -0.060029   0.003288   0.544829   4.951660   0.526350  -0.049202
    11  C    0.004475  -0.000055  -0.008391   0.526350   4.883702   0.512412
    12  C    0.001280  -0.000013  -0.037196  -0.049202   0.512412   5.034164
    13  H    0.000006  -0.000000   0.000083   0.005180  -0.041121   0.354294
    14  H   -0.000122   0.000004   0.003824  -0.038202   0.361361  -0.038835
    15  H   -0.007236  -0.000042  -0.041206   0.358272  -0.040453   0.005067
    16  C   -0.056343  -0.004721   0.472749  -0.057472  -0.040816  -0.074314
    17  H   -0.002713   0.001297  -0.038471   0.003404   0.000020   0.004709
    18  C    0.003663   0.000077  -0.000115  -0.037871  -0.009233   0.529198
    19  C   -0.000333   0.000017   0.004728   0.001648   0.005987  -0.045880
    20  N   -0.000003  -0.000003   0.000306   0.000008  -0.000100   0.004649
    21  C    0.000002  -0.000000  -0.000329   0.000009   0.000295  -0.021062
    22  H    0.000000  -0.000000   0.000004  -0.000002   0.000128   0.002433
    23  S   -0.000000  -0.000000   0.000007   0.000002  -0.000010   0.000405
    24  C    0.000000   0.000000  -0.000005  -0.000000   0.000002   0.000018
    25  N    0.000000   0.000000  -0.000000  -0.000000  -0.000000   0.000000
    26  C    0.000000  -0.000000  -0.000000   0.000000   0.000000   0.000000
    27  N   -0.000000   0.000000   0.000000   0.000000  -0.000000   0.000000
    28  H    0.000000  -0.000000  -0.000000  -0.000000   0.000000  -0.000000
    29  H   -0.000000  -0.000000   0.000000   0.000000  -0.000000   0.000000
    30  N   -0.000000   0.000000   0.000000  -0.000000  -0.000000  -0.000000
    31  H   -0.000000   0.000000   0.000000  -0.000000   0.000000   0.000000
    32  H   -0.000000   0.000000   0.000000   0.000000   0.000000   0.000000
    33  H    0.000000  -0.000000  -0.000000   0.000000   0.000000  -0.000000
              13         14         15         16         17         18
     1  C    0.000000  -0.000000  -0.000226  -0.000420  -0.000014   0.000005
     2  H   -0.000000  -0.000000   0.000005   0.000030   0.000001  -0.000000
     3  H   -0.000000   0.000000   0.000008   0.000002   0.000000   0.000000
     4  H   -0.000000  -0.000000   0.000002   0.000007  -0.000001  -0.000000
     5  C   -0.000000  -0.000004   0.003877   0.000122   0.000054   0.000034
     6  O    0.000000   0.000001   0.000627  -0.000781  -0.000019   0.000018
     7  N    0.000006  -0.000122  -0.007236  -0.056343  -0.002713   0.003663
     8  H   -0.000000   0.000004  -0.000042  -0.004721   0.001297   0.000077
     9  C    0.000083   0.003824  -0.041206   0.472749  -0.038471  -0.000115
    10  C    0.005180  -0.038202   0.358272  -0.057472   0.003404  -0.037871
    11  C   -0.041121   0.361361  -0.040453  -0.040816   0.000020  -0.009233
    12  C    0.354294  -0.038835   0.005067  -0.074314   0.004709   0.529198
    13  H    0.560834  -0.005483  -0.000151   0.005377  -0.000116  -0.037317
    14  H   -0.005483   0.555124  -0.004812   0.000599   0.000014   0.004105
    15  H   -0.000151  -0.004812   0.561849   0.006061  -0.000100   0.000034
    16  C    0.005377   0.000599   0.006061   5.187257   0.357425   0.442133
    17  H   -0.000116   0.000014  -0.000100   0.357425   0.536762  -0.039293
    18  C   -0.037317   0.004105   0.000034   0.442133  -0.039293   4.812354
    19  C   -0.011760  -0.000196   0.000006  -0.035541  -0.012726   0.349486
    20  N   -0.000042   0.000001   0.000000  -0.011731   0.016366  -0.055606
    21  C    0.009493  -0.000002  -0.000000   0.009962   0.000742  -0.056359
    22  H    0.001941  -0.000001  -0.000000  -0.000104  -0.000018  -0.006337
    23  S   -0.000138  -0.000000   0.000000  -0.000040   0.000096   0.004157
    24  C   -0.000008  -0.000000  -0.000000   0.000066  -0.000238   0.008198
    25  N   -0.000000   0.000000  -0.000000  -0.000003  -0.000058  -0.000115
    26  C    0.000000  -0.000000   0.000000  -0.000022   0.000125  -0.000073
    27  N    0.000000  -0.000000   0.000000  -0.000001  -0.000004   0.000002
    28  H    0.000000  -0.000000   0.000000  -0.000000   0.000000  -0.000000
    29  H    0.000000   0.000000   0.000000  -0.000007   0.000071  -0.000008
    30  N   -0.000000   0.000000  -0.000000   0.000000   0.000000  -0.000000
    31  H   -0.000000   0.000000  -0.000000   0.000000  -0.000000   0.000000
    32  H    0.000000  -0.000000   0.000000  -0.000000   0.000000   0.000000
    33  H    0.000000  -0.000000   0.000000   0.000000  -0.000000   0.000001
              19         20         21         22         23         24
     1  C   -0.000000  -0.000000   0.000000  -0.000000  -0.000000   0.000000
     2  H    0.000000  -0.000000  -0.000000  -0.000000   0.000000  -0.000000
     3  H    0.000000  -0.000000   0.000000   0.000000   0.000000   0.000000
     4  H    0.000000   0.000000  -0.000000  -0.000000   0.000000   0.000000
     5  C   -0.000002  -0.000000  -0.000000   0.000000  -0.000000   0.000000
     6  O    0.000000  -0.000000  -0.000000  -0.000000   0.000000  -0.000000
     7  N   -0.000333  -0.000003   0.000002   0.000000  -0.000000   0.000000
     8  H    0.000017  -0.000003  -0.000000  -0.000000  -0.000000   0.000000
     9  C    0.004728   0.000306  -0.000329   0.000004   0.000007  -0.000005
    10  C    0.001648   0.000008   0.000009  -0.000002   0.000002  -0.000000
    11  C    0.005987  -0.000100   0.000295   0.000128  -0.000010   0.000002
    12  C   -0.045880   0.004649  -0.021062   0.002433   0.000405   0.000018
    13  H   -0.011760  -0.000042   0.009493   0.001941  -0.000138  -0.000008
    14  H   -0.000196   0.000001  -0.000002  -0.000001  -0.000000  -0.000000
    15  H    0.000006   0.000000  -0.000000  -0.000000   0.000000  -0.000000
    16  C   -0.035541  -0.011731   0.009962  -0.000104  -0.000040   0.000066
    17  H   -0.012726   0.016366   0.000742  -0.000018   0.000096  -0.000238
    18  C    0.349486  -0.055606  -0.056359  -0.006337   0.004157   0.008198
    19  C    4.682948   0.394962   0.509383  -0.009193  -0.058110  -0.055740
    20  N    0.394962   6.980729  -0.112721   0.004444  -0.074299   0.447468
    21  C    0.509383  -0.112721   5.497366   0.350221   0.283848  -0.058024
    22  H   -0.009193   0.004444   0.350221   0.473982  -0.035204   0.002629
    23  S   -0.058110  -0.074299   0.283848  -0.035204  15.384695   0.300713
    24  C   -0.055740   0.447468  -0.058024   0.002629   0.300713   4.794009
    25  N    0.001906  -0.068056   0.002539  -0.000026  -0.072849   0.282631
    26  C    0.000043   0.024404  -0.000053  -0.000001   0.007778  -0.045772
    27  N   -0.000051  -0.000223   0.000003  -0.000000  -0.000232   0.002242
    28  H    0.000001   0.000160  -0.000001  -0.000000   0.000192   0.000495
    29  H   -0.000049   0.001936  -0.000002  -0.000000  -0.000030   0.003181
    30  N   -0.000012   0.000382   0.000002  -0.000000  -0.000230   0.003667
    31  H    0.000001  -0.000023   0.000000   0.000000   0.000041  -0.000802
    32  H    0.000000   0.000019  -0.000000   0.000000   0.000012  -0.000022
    33  H   -0.000080   0.002210  -0.000070  -0.000001   0.001119  -0.014395
              25         26         27         28         29         30
     1  C    0.000000  -0.000000   0.000000  -0.000000  -0.000000   0.000000
     2  H    0.000000  -0.000000   0.000000  -0.000000  -0.000000  -0.000000
     3  H   -0.000000   0.000000   0.000000   0.000000  -0.000000   0.000000
     4  H   -0.000000  -0.000000   0.000000  -0.000000  -0.000000   0.000000
     5  C    0.000000   0.000000  -0.000000   0.000000  -0.000000  -0.000000
     6  O    0.000000   0.000000  -0.000000  -0.000000   0.000000   0.000000
[...]
 Alpha virt. eigenvalues --    3.81249   3.83636   3.86776   3.94664   4.04468
 Alpha virt. eigenvalues --    4.13631   4.16532   4.24451   4.95675
          Condensed to atoms (all electrons):
               1          2          3          4          5          6
     1  C    4.725575   0.380262   0.342633   0.200485  -0.030359  -0.053797
     2  H    0.380262   0.722082  -0.042630  -0.093649  -0.087847   0.017547
     3  H    0.342633  -0.042630   0.702873  -0.072723  -0.034896   0.008836
     4  H    0.200485  -0.093649  -0.072723   1.170257   0.261055  -0.007124
     5  C   -0.030359  -0.087847  -0.034896   0.261055   5.921067   0.113983
     6  O   -0.053797   0.017547   0.008836  -0.007124   0.113983   8.805730
     7  N   -0.064142   0.066987   0.050066  -0.202669   0.118677  -0.139614
     8  H   -0.066605  -0.003626   0.000736   0.000162  -0.091579  -0.014524
     9  C    0.258591  -0.008052  -0.021102  -0.044458  -0.760525   0.185483
    10  C   -0.046669  -0.006174  -0.004348   0.032671   0.452497   0.075468
    11  C   -0.057616   0.000792   0.001458  -0.006040  -0.302903  -0.056221
    12  C    0.010250   0.000370  -0.000260  -0.004692   0.325411   0.005954
    13  H   -0.001168  -0.000031  -0.000038  -0.000189  -0.006267  -0.000128
    14  H    0.001919   0.000215   0.000235   0.000098   0.027402  -0.000294
    15  H   -0.018224  -0.002421  -0.002153   0.003130   0.131267  -0.083957
    16  C   -0.154577   0.006242   0.007744  -0.039505  -0.336316  -0.003166
    17  H    0.038732   0.000512  -0.000069   0.001094  -0.135560   0.014411
    18  C    0.032922  -0.000871  -0.000883   0.019689  -0.094177   0.004691
    19  C   -0.008537   0.000144   0.000154  -0.001845  -0.012921  -0.007785
    20  N   -0.001007   0.000098   0.000047  -0.000586   0.010736  -0.000625
    21  C    0.005014   0.000107   0.000160   0.000749   0.012446   0.000382
    22  H    0.000328   0.000004   0.000009   0.000058  -0.000249   0.000017
    23  S    0.000027  -0.000001  -0.000001   0.000010   0.000091   0.000016
    24  C   -0.002331   0.000110   0.000028  -0.001279   0.016136  -0.000705
    25  N    0.000057  -0.000004  -0.000001   0.000005  -0.000618   0.000007
    26  C    0.000437   0.000007   0.000020   0.000431   0.000064   0.000002
    27  N    0.000270  -0.000023  -0.000016  -0.000014  -0.001853   0.000035
    28  H   -0.000107  -0.000012  -0.000010  -0.000062  -0.000813   0.000020
    29  H   -0.001156   0.000098   0.000053  -0.000646   0.013737  -0.000496
    30  N    0.000002  -0.000001  -0.000001   0.000008  -0.000050   0.000000
    31  H   -0.000001  -0.000001  -0.000000   0.000001  -0.000025   0.000000
    32  H    0.000010   0.000002   0.000001   0.000009   0.000043  -0.000000
    33  H    0.000007   0.000002   0.000001  -0.000005   0.000131  -0.000003
               7          8          9         10         11         12
     1  C   -0.064142  -0.066605   0.258591  -0.046669  -0.057616   0.010250
     2  H    0.066987  -0.003626  -0.008052  -0.006174   0.000792   0.000370
     3  H    0.050066   0.000736  -0.021102  -0.004348   0.001458  -0.000260
     4  H   -0.202669   0.000162  -0.044458   0.032671  -0.006040  -0.004692
     5  C    0.118677  -0.091579  -0.760525   0.452497  -0.302903   0.325411
     6  O   -0.139614  -0.014524   0.185483   0.075468  -0.056221   0.005954
     7  N    8.242948   0.321009  -1.616700   1.032875  -0.296000   0.386090
     8  H    0.321009   0.968924  -0.211911  -0.127778  -0.053439   0.108329
     9  C   -1.616700  -0.211911  21.742428  -8.915442   4.689747  -5.140221
    10  C    1.032875  -0.127778  -8.915442  19.879415  -8.699988   6.372058
    11  C   -0.296000  -0.053439   4.689747  -8.699988  23.179265 -11.405327
    12  C    0.386090   0.108329  -5.140221   6.372058 -11.405327  30.670951
    13  H    0.010028  -0.003304  -0.172864  -0.302746   0.781291  -2.184656
    14  H   -0.003693  -0.000172  -0.347003   1.265392  -2.026174   1.263767
    15  H   -0.187833   0.001954   1.287563  -1.968483   0.659310  -0.383782
    16  C    0.666511   0.239103  -5.839934   2.208339  -3.891139  -2.930514
    17  H   -0.308839  -0.039177   1.022839  -0.733469   0.382068  -0.614431
    18  C   -0.604391  -0.010270   0.525097  -5.653217   3.510405  -8.462067
    19  C    0.031722  -0.022663   0.221930  -0.635413  -0.638097  -3.913025
    20  N    0.013619   0.007236  -0.062812   0.008464   0.126774   0.572722
    21  C   -0.000647  -0.000522  -0.544838   0.408094   0.402355   0.424289
    22  H   -0.002356  -0.000628   0.023111  -0.032468   0.034256  -0.100396
    23  S   -0.001171  -0.000323   0.008087   0.030207  -0.090394  -0.064656
    24  C    0.030436   0.021047   0.299219  -0.038303  -0.068521   0.174976
    25  N   -0.001286  -0.000857  -0.014364   0.004492  -0.006118  -0.027301
    26  C   -0.001085  -0.003679   0.052612   0.004164  -0.014521  -0.064564
    27  N   -0.000898   0.001244  -0.040976   0.001068  -0.000065   0.033020
    28  H   -0.000782  -0.001617   0.002674  -0.003055   0.002278  -0.002432
    29  H    0.014395   0.011294  -0.002721   0.069628  -0.056167   0.058607
    30  N   -0.000080  -0.000053  -0.001236   0.000012   0.000230   0.001203
    31  H   -0.000027  -0.000044  -0.000497  -0.000044   0.000147   0.000396
    32  H    0.000011   0.000009   0.001203   0.000148  -0.000161  -0.000644
    33  H    0.000136   0.000214   0.002345   0.000583  -0.002086  -0.001402
              13         14         15         16         17         18
     1  C   -0.001168   0.001919  -0.018224  -0.154577   0.038732   0.032922
     2  H   -0.000031   0.000215  -0.002421   0.006242   0.000512  -0.000871
     3  H   -0.000038   0.000235  -0.002153   0.007744  -0.000069  -0.000883
     4  H   -0.000189   0.000098   0.003130  -0.039505   0.001094   0.019689
     5  C   -0.006267   0.027402   0.131267  -0.336316  -0.135560  -0.094177
     6  O   -0.000128  -0.000294  -0.083957  -0.003166   0.014411   0.004691
     7  N    0.010028  -0.003693  -0.187833   0.666511  -0.308839  -0.604391
     8  H   -0.003304  -0.000172   0.001954   0.239103  -0.039177  -0.010270
     9  C   -0.172864  -0.347003   1.287563  -5.839934   1.022839   0.525097
    10  C   -0.302746   1.265392  -1.968483   2.208339  -0.733469  -5.653217
    11  C    0.781291  -2.026174   0.659310  -3.891139   0.382068   3.510405
    12  C   -2.184656   1.263767  -0.383782  -2.930514  -0.614431  -8.462067
    13  H    2.205187  -0.106210  -0.012934   0.233918   0.003789   1.020143
    14  H   -0.106210   1.875080  -0.098345   0.067470   0.005581  -0.380578
    15  H   -0.012934  -0.098345   2.380842  -0.063556  -0.021630   0.017707
    16  C    0.233918   0.067470  -0.063556  26.543148  -2.229004  -8.038257
    17  H    0.003789   0.005581  -0.021630  -2.229004   2.947832   1.662889
    18  C    1.020143  -0.380578   0.017707  -8.038257   1.662889  25.645659
    19  C    0.372690  -0.092201   0.021388   0.768190   0.001352  -6.668938
    20  N   -0.033775   0.004506   0.001337  -0.462750  -0.040229   0.439721
    21  C   -0.061266   0.073561  -0.008161  -2.028545   0.086891   1.753055
    22  H   -0.078805   0.002813  -0.000141   0.122348   0.029858  -0.045020
    23  S   -0.001217  -0.000707   0.000135   0.088771   0.008344  -0.225384
    24  C   -0.007662   0.000036   0.000568  -0.162340  -0.233477   0.169442
    25  N    0.002340  -0.000192   0.000095   0.060084   0.013568  -0.187655
    26  C    0.002147  -0.000276  -0.000084   0.041286   0.023224  -0.087705
    27  N   -0.000583   0.000021   0.000172  -0.019659   0.002071   0.067007
    28  H   -0.000109   0.000038  -0.000043   0.012831   0.010107  -0.013042
    29  H    0.000336  -0.000586   0.000740   0.008029  -0.113306  -0.025492
    30  N   -0.000088   0.000006   0.000003  -0.003457   0.001712   0.003557
    31  H   -0.000017   0.000002   0.000002   0.000251  -0.000021   0.000532
    32  H    0.000028  -0.000003  -0.000002   0.000295   0.000161  -0.001302
    33  H   -0.000025  -0.000015   0.000000  -0.001045  -0.003643   0.003030
              19         20         21         22         23         24
     1  C   -0.008537  -0.001007   0.005014   0.000328   0.000027  -0.002331
     2  H    0.000144   0.000098   0.000107   0.000004  -0.000001   0.000110
     3  H    0.000154   0.000047   0.000160   0.000009  -0.000001   0.000028
     4  H   -0.001845  -0.000586   0.000749   0.000058   0.000010  -0.001279
     5  C   -0.012921   0.010736   0.012446  -0.000249   0.000091   0.016136
     6  O   -0.007785  -0.000625   0.000382   0.000017   0.000016  -0.000705
     7  N    0.031722   0.013619  -0.000647  -0.002356  -0.001171   0.030436
     8  H   -0.022663   0.007236  -0.000522  -0.000628  -0.000323   0.021047
     9  C    0.221930  -0.062812  -0.544838   0.023111   0.008087   0.299219
    10  C   -0.635413   0.008464   0.408094  -0.032468   0.030207  -0.038303
    11  C   -0.638097   0.126774   0.402355   0.034256  -0.090394  -0.068521
    12  C   -3.913025   0.572722   0.424289  -0.100396  -0.064656   0.174976
    13  H    0.372690  -0.033775  -0.061266  -0.078805  -0.001217  -0.007662
    14  H   -0.092201   0.004506   0.073561   0.002813  -0.000707   0.000036
    15  H    0.021388   0.001337  -0.008161  -0.000141   0.000135   0.000568
    16  C    0.768190  -0.462750  -2.028545   0.122348   0.088771  -0.162340
    17  H    0.001352  -0.040229   0.086891   0.029858   0.008344  -0.233477
    18  C   -6.668938   0.439721   1.753055  -0.045020  -0.225384   0.169442
    19  C   26.904487  -1.273238  -8.151046   0.777486   0.120268  -1.599357
    20  N   -1.273238   7.966458   0.531150   0.017707  -0.156789   0.159703
    21  C   -8.151046   0.531150  13.987706  -0.454828   0.134276  -0.864475
    22  H    0.777486   0.017707  -0.454828   1.611905  -0.234408  -0.059951
    23  S    0.120268  -0.156789   0.134276  -0.234408  15.942384   0.146856
    24  C   -1.599357   0.159703  -0.864475  -0.059951   0.146856   8.349251
    25  N    0.590507  -0.127606  -0.066265  -0.013845  -0.113215  -0.320473
    26  C    0.210806   0.037797  -0.241974  -0.012277  -0.050220  -0.451038
    27  N   -0.121746  -0.021775   0.078391   0.003159  -0.011137   0.030215
    28  H    0.021675   0.000141  -0.002491   0.000137  -0.000206  -0.005538
    29  H   -0.113945  -0.011220  -0.027229  -0.008880  -0.003266   0.042007
    30  N    0.012920   0.006137   0.007501   0.000373   0.004752   0.018818
    31  H   -0.001046   0.001883   0.001261   0.000112  -0.002164  -0.034276
    32  H    0.002601   0.002085  -0.003659  -0.000205  -0.000270  -0.011265
    33  H   -0.074058  -0.017224  -0.003508   0.000163   0.015155  -0.100036
              25         26         27         28         29         30
     1  C    0.000057   0.000437   0.000270  -0.000107  -0.001156   0.000002
     2  H   -0.000004   0.000007  -0.000023  -0.000012   0.000098  -0.000001
     3  H   -0.000001   0.000020  -0.000016  -0.000010   0.000053  -0.000001
     4  H    0.000005   0.000431  -0.000014  -0.000062  -0.000646   0.000008
     5  C   -0.000618   0.000064  -0.001853  -0.000813   0.013737  -0.000050
     6  O    0.000007   0.000002   0.000035   0.000020  -0.000496   0.000000
     7  N   -0.001286  -0.001085  -0.000898  -0.000782   0.014395  -0.000080
     8  H   -0.000857  -0.003679   0.001244  -0.001617   0.011294  -0.000053
     9  C   -0.014364   0.052612  -0.040976   0.002674  -0.002721  -0.001236
    10  C    0.004492   0.004164   0.001068  -0.003055   0.069628   0.000012
    11  C   -0.006118  -0.014521  -0.000065   0.002278  -0.056167   0.000230
    12  C   -0.027301  -0.064564   0.033020  -0.002432   0.058607   0.001203
    13  H    0.002340   0.002147  -0.000583  -0.000109   0.000336  -0.000088
    14  H   -0.000192  -0.000276   0.000021   0.000038  -0.000586   0.000006
    15  H    0.000095  -0.000084   0.000172  -0.000043   0.000740   0.000003
    16  C    0.060084   0.041286  -0.019659   0.012831   0.008029  -0.003457
    17  H    0.013568   0.023224   0.002071   0.010107  -0.113306   0.001712
    18  C   -0.187655  -0.087705   0.067007  -0.013042  -0.025492   0.003557
    19  C    0.590507   0.210806  -0.121746   0.021675  -0.113945   0.012920
    20  N   -0.127606   0.037797  -0.021775   0.000141  -0.011220   0.006137
    21  C   -0.066265  -0.241974   0.078391  -0.002491  -0.027229   0.007501
    22  H   -0.013845  -0.012277   0.003159   0.000137  -0.008880   0.000373
    23  S   -0.113215  -0.050220  -0.011137  -0.000206  -0.003266   0.004752
    24  C   -0.320473  -0.451038   0.030215  -0.005538   0.042007   0.018818
    25  N    7.437836   0.214963  -0.036502   0.010727  -0.036230  -0.106355
    26  C    0.214963   5.203900   0.165802  -0.109847  -0.141260   0.137678
    27  N   -0.036502   0.165802   6.253898   0.429612   0.414799  -0.110804
    28  H    0.010727  -0.109847   0.429612   0.870359  -0.219531  -0.005332
    29  H   -0.036230  -0.141260   0.414799  -0.219531   1.015894   0.011726
    30  N   -0.106355   0.137678  -0.110804  -0.005332   0.011726   6.382415
    31  H    0.017877  -0.078789   0.004863   0.002495   0.002652   0.455423
    32  H   -0.023899  -0.062480  -0.019155  -0.006830  -0.002201   0.455496
    33  H    0.434725  -0.097425   0.011014  -0.001374   0.005313  -0.007136
              31         32         33
     1  C   -0.000001   0.000010   0.000007
     2  H   -0.000001   0.000002   0.000002
     3  H   -0.000000   0.000001   0.000001
     4  H    0.000001   0.000009  -0.000005
     5  C   -0.000025   0.000043   0.000131
     6  O    0.000000  -0.000000  -0.000003
     7  N   -0.000027   0.000011   0.000136
     8  H   -0.000044   0.000009   0.000214
     9  C   -0.000497   0.001203   0.002345
    10  C   -0.000044   0.000148   0.000583
    11  C    0.000147  -0.000161  -0.002086
    12  C    0.000396  -0.000644  -0.001402
    13  H   -0.000017   0.000028  -0.000025
    14  H    0.000002  -0.000003  -0.000015
    15  H    0.000002  -0.000002   0.000000
    16  C    0.000251   0.000295  -0.001045
    17  H   -0.000021   0.000161  -0.003643
    18  C    0.000532  -0.001302   0.003030
    19  C   -0.001046   0.002601  -0.074058
    20  N    0.001883   0.002085  -0.017224
    21  C    0.001261  -0.003659  -0.003508
    22  H    0.000112  -0.000205   0.000163
    23  S   -0.002164  -0.000270   0.015155
    24  C   -0.034276  -0.011265  -0.100036
    25  N    0.017877  -0.023899   0.434725
    26  C   -0.078789  -0.062480  -0.097425
    27  N    0.004863  -0.019155   0.011014
    28  H    0.002495  -0.006830  -0.001374
    29  H    0.002652  -0.002201   0.005313
    30  N    0.455423   0.455496  -0.007136
    31  H    0.778570  -0.143972  -0.004935
    32  H   -0.143972   0.780723   0.002669
    33  H   -0.004935   0.002669   0.840528
 Mulliken charges:
               1
     1  C    0.508777
     2  H    0.049764
     3  H    0.064076
     4  H   -0.214424
     5  C    0.492216
     6  O   -0.864142
     7  N   -0.553296
     8  H   -0.028490
     9  C   -0.577275
    10  C    1.322023
    11  C   -0.099395
    12  C    0.891977
    13  H   -0.657816
    14  H   -0.531694
    15  H   -0.654464
    16  C    1.129202
    17  H   -0.784178
    18  C    1.623707
    19  C   -0.722458
    20  N   -0.698684
    21  C    0.552069
    22  H   -0.579389
    23  S    0.456149
    24  C    0.502179
    25  N   -0.704499
    26  C    1.321884
    27  N   -0.111454
    28  H    0.010137
    29  H    0.095025
    30  N   -0.265379
    31  H   -0.000606
    32  H    0.030557
    33  H   -0.002099
 Sum of Mulliken charges =   1.00000
 Mulliken charges with hydrogens summed into heavy atoms:
               1
     1  C    0.408194
     5  C    0.492216
     6  O   -0.864142
     7  N   -0.581786
     9  C   -0.577275
    10  C    0.667559
    11  C   -0.631088
    12  C    0.234160
    16  C    0.345024
    18  C    1.623707
    19  C   -0.722458
    20  N   -0.698684
    21  C   -0.027320
    23  S    0.456149
    24  C    0.502179
    25  N   -0.706598
    26  C    1.321884
    27  N   -0.006292
    30  N   -0.235429
 Electronic spatial extent (au):  <R**2>=           7833.1211
 Charge=              1.0000 electrons
 Dipole moment (field-independent basis, Debye):
    X=             17.5933    Y=             10.1780    Z=             -0.1172  Tot=             20.3256
 Quadrupole moment (field-independent basis, Debye-Ang):
   XX=            -48.9908   YY=            -56.2153   ZZ=           -124.5252
   XY=             24.7140   XZ=              0.7052   YZ=              0.1104
 Traceless Quadrupole moment (field-independent basis, Debye-Ang):
   XX=             27.5863   YY=             20.3618   ZZ=            -47.9481
   XY=             24.7140   XZ=              0.7052   YZ=              0.1104
 Octapole moment (field-independent basis, Debye-Ang**2):
  XXX=            514.1523  YYY=            125.3112  ZZZ=             -0.6585  XYY=             94.1839
  XXY=            215.3945  XXZ=             -4.7084  XZZ=             -1.8912  YZZ=             15.6282
  YYZ=              2.0921  XYZ=              4.4133
 Hexadecapole moment (field-independent basis, Debye-Ang**3):
 XXXX=          -6380.8432 YYYY=          -1758.4642 ZZZZ=           -144.6889 XXXY=            620.8735
 XXXZ=             14.2833 YYYX=            417.2626 YYYZ=              9.2823 ZZZX=              3.7700
 ZZZY=             -0.1459 XXYY=           -870.7134 XXZZ=          -1341.1712 YYZZ=           -491.3759
 XXYZ=             -5.3686 YYXZ=              3.9219 ZZXY=            -17.5015
 N-N= 1.455497911690D+03 E-N=-5.731148907045D+03  KE= 1.205995047816D+03
 Leave Link  601 at Sun Jul 18 17:37:20 2021, MaxMem=   262144000 cpu:               0.6 elap:               0.2
 (Enter /prod/apps/gaussian/g16b1/l9999.exe)
 1\1\GINC-PIRINEUS32\SP\RMP2-FC\Aug-CC-pVDZ\C12H14N5O1S1(1+)\UBATOR02\1
 8-Jul-2021\0\\#p mp2/aug-cc-pVDZ scf=tight maxdisk=180GB geom=allcheck
 \\SET_328_BBB321_conf1.geo_180_345_240 geometry\\1,1\C,0,2.0128098548,
 -1.861512746,4.3025015149\H,0,3.0575067955,-2.0419761474,4.5666359195\
 H,0,1.3939400945,-2.3620151557,5.0526724162\H,0,1.814062203,-0.7887981
 532,4.3407194521\C,0,1.7389001608,-2.4906653777,2.9508021131\O,0,2.008
 3113388,-3.6725630175,2.7306546617\N,0,1.1721734886,-1.653343221,2.028
 1218003\H,0,1.0029854154,-0.7015543953,2.3317241532\C,0,0.7784840447,-
 1.9361711111,0.7043574774\C,0,0.9212640097,-3.1984966459,0.1087101544\
 C,0,0.497315513,-3.3804344297,-1.208424981\C,0,-0.0620681071,-2.341063
 8554,-1.9421013716\H,0,-0.3803140788,-2.508458679,-2.9646706033\H,0,0.
 610177164,-4.3576504185,-1.666186642\H,0,1.3554675206,-4.0065515848,0.
 6765117318\C,0,0.2147432772,-0.8839073729,-0.0346136638\H,0,0.09876042
 13,0.0949562152,0.4154003502\C,0,-0.2087474997,-1.0734578171,-1.354290
 331\C,0,-0.8001249901,0.0490968866,-2.1039314736\N,0,-0.8715454805,1.3
 0531121,-1.512261114\C,0,-1.3107649333,-0.0100468787,-3.3710994415\H,0
 ,-1.3760097346,-0.8577820094,-4.033902912\S,0,-1.9101383424,1.53910329
 45,-3.8748094714\C,0,-1.4202151254,2.173514939,-2.3102137001\N,0,-1.63
 00870242,3.5088367614,-2.0164571514\C,0,-1.3018649338,4.1547964907,-0.
 8585043621\N,0,-0.7296173319,3.508230977,0.1447312478\H,0,-0.494299873
 9,4.0047282144,0.9983109519\H,0,-0.525977932,2.5143846696,0.0498953207
 \N,0,-1.576523895,5.4534539279,-0.7845528493\H,0,-2.039220936,5.935149
 4708,-1.5481276698\H,0,-1.3729145474,5.9670350499,0.066697241\H,0,-2.0
 624665358,4.0838509092,-2.7362987682\\Version=ES64L-G16RevB.01\State=1
 -A\HF=-1207.1519763\MP2=-1209.9691337\RMSD=7.047e-09\PG=C01 [X(C12H14N
 5O1S1)]\\@


 ... IT IS NO ONE DREAME THAT
     CAN PLEASE THESE ALL ...

                -- BEN JONSON
 Job cpu time:       0 days  2 hours  3 minutes 41.8 seconds.
 Elapsed time:       0 days  0 hours 32 minutes 56.8 seconds.
 File lengths (MBytes):  RWF=  88534 Int=      0 D2E=      0 Chk=     25 Scr=      1
 Normal termination of Gaussian 16 at Sun Jul 18 17:37:23 2021.
