 Entering Gaussian System, Link 0=g16
 Initial command:
 /prod/apps/gaussian/g16b1/l1.exe "/tmp/ubator02/1839581/Gau-150887.inp" -scrdir="/tmp/ubator02/1839581/"
 Entering Link 1 = /prod/apps/gaussian/g16b1/l1.exe PID=    150890.
  
 Copyright (c) 1988-2017, Gaussian, Inc.  All Rights Reserved.
  
 This is part of the Gaussian(R) 16 program.  It is based on
 the Gaussian(R) 09 system (copyright 2009, Gaussian, Inc.),
 the Gaussian(R) 03 system (copyright 2003, Gaussian, Inc.),
 the Gaussian(R) 98 system (copyright 1998, Gaussian, Inc.),
 the Gaussian(R) 94 system (copyright 1995, Gaussian, Inc.),
 the Gaussian 92(TM) system (copyright 1992, Gaussian, Inc.),
 the Gaussian 90(TM) system (copyright 1990, Gaussian, Inc.),
 the Gaussian 88(TM) system (copyright 1988, Gaussian, Inc.),
 the Gaussian 86(TM) system (copyright 1986, Carnegie Mellon
 University), and the Gaussian 82(TM) system (copyright 1983,
 Carnegie Mellon University). Gaussian is a federally registered
 trademark of Gaussian, Inc.
  
 This software contains proprietary and confidential information,
 including trade secrets, belonging to Gaussian, Inc.
  
 This software is provided under written license and may be
 used, copied, transmitted, or stored only in accord with that
 written license.
  
 The following legend is applicable only to US Government
 contracts under FAR:
  
                    RESTRICTED RIGHTS LEGEND
  
 Use, reproduction and disclosure by the US Government is
 subject to restrictions as set forth in subparagraphs (a)
 and (c) of the Commercial Computer Software - Restricted
 Rights clause in FAR 52.227-19.
  
 Gaussian, Inc.
 340 Quinnipiac St., Bldg. 40, Wallingford CT 06492
  
  
 ---------------------------------------------------------------
 Warning -- This program may not be used in any manner that
 competes with the business of Gaussian, Inc. or will provide
 assistance to any competitor of Gaussian, Inc.  The licensee
 of this program is prohibited from giving any competitor of
 Gaussian, Inc. access to this program.  By using this program,
 the user acknowledges that Gaussian, Inc. is engaged in the
 business of creating and licensing software in the field of
 computational chemistry and represents and warrants to the
 licensee that it is not a competitor of Gaussian, Inc. and that
 it will not use this program in any manner prohibited above.
 ---------------------------------------------------------------
  

 Cite this work as:
 Gaussian 16, Revision B.01,
 M. J. Frisch, G. W. Trucks, H. B. Schlegel, G. E. Scuseria, 
 M. A. Robb, J. R. Cheeseman, G. Scalmani, V. Barone, 
 G. A. Petersson, H. Nakatsuji, X. Li, M. Caricato, A. V. Marenich, 
 J. Bloino, B. G. Janesko, R. Gomperts, B. Mennucci, H. P. Hratchian, 
 J. V. Ortiz, A. F. Izmaylov, J. L. Sonnenberg, D. Williams-Young, 
 F. Ding, F. Lipparini, F. Egidi, J. Goings, B. Peng, A. Petrone, 
 T. Henderson, D. Ranasinghe, V. G. Zakrzewski, J. Gao, N. Rega, 
 G. Zheng, W. Liang, M. Hada, M. Ehara, K. Toyota, R. Fukuda, 
 J. Hasegawa, M. Ishida, T. Nakajima, Y. Honda, O. Kitao, H. Nakai, 
 T. Vreven, K. Throssell, J. A. Montgomery, Jr., J. E. Peralta, 
 F. Ogliaro, M. J. Bearpark, J. J. Heyd, E. N. Brothers, K. N. Kudin, 
 V. N. Staroverov, T. A. Keith, R. Kobayashi, J. Normand, 
 K. Raghavachari, A. P. Rendell, J. C. Burant, S. S. Iyengar, 
 J. Tomasi, M. Cossi, J. M. Millam, M. Klene, C. Adamo, R. Cammi, 
 J. W. Ochterski, R. L. Martin, K. Morokuma, O. Farkas, 
 J. B. Foresman, and D. J. Fox, Gaussian, Inc., Wallingford CT, 2016.
 
 ******************************************
 Gaussian 16:  ES64L-G16RevB.01 20-Dec-2017
                18-Jul-2021 
 ******************************************
 %mem=800MB
 %nproc=4
 Will use up to    4 processors via shared memory.
 %chk=SET_328_BBB292_conf1.geo_255_060_255.chk
 -----------------------------------------------------------
 #p b3lyp/6-31G(d) opt freq scrf=(iefpcm,read,solvent=water)
 -----------------------------------------------------------
 1/18=20,19=15,26=3,38=1,40=2/1,3;
 2/9=110,12=2,17=6,18=5,40=1/2;
 3/5=1,6=6,7=1,11=2,25=1,30=1,70=2203,71=1,72=1,74=-5/1,2,3;
 4//1;
 5/5=2,38=5,53=1/2;
 6/7=2,8=2,9=2,10=2,28=1/1;
 7//1,2,3,16;
 1/18=20,19=15,26=3/3(2);
 2/9=110/2;
 99//99;
 2/9=110/2;
 3/5=1,6=6,7=1,11=2,25=1,30=1,70=2205,71=1,72=1,74=-5/1,2,3;
 4/5=5,16=3,69=1/1;
 5/5=2,38=5,53=1/2;
 7//1,2,3,16;
 1/18=20,19=15,26=3/3(-5);
 2/9=110/2;
 6/7=2,8=2,9=2,10=2,19=2,28=1/1;
 99/9=1/99;
 Leave Link    1 at Sun Jul 18 13:46:45 2021, MaxMem=   104857600 cpu:               0.1 elap:               0.0
 (Enter /prod/apps/gaussian/g16b1/l101.exe)
 ---------------------------------------------
 SET_328_BBB292_conf1.geo_255_060_255 geometry
 ---------------------------------------------
 Symbolic Z-matrix:
 Charge =  1 Multiplicity = 1
 N                    -2.018    -0.921     2.881 
 H                    -1.641    -1.453     3.64 
 H                    -2.811    -1.397     2.502 
 C                    -0.971    -0.761     1.812 
 C                     0.409    -0.351     2.442 
 O                     1.446    -0.993     2.121 
 H                     2.122    -0.576     2.685 
 O                     0.437     0.602     3.202 
 H                    -0.812    -1.746     1.368 
 C                    -1.439     0.224     0.699 
 H                    -1.621     1.237     1.067 
 H                    -2.409    -0.084     0.304 
 C                    -0.419     0.245    -0.441 
 C                     0.426     1.284    -0.575 
 H                     0.511     1.971     0.263 
 C                     1.254     1.368    -1.688 
 O                     2.027     2.508    -1.894 
 H                     2.132     3.026    -1.076 
 C                     1.185     0.334    -2.677 
 O                     1.824     0.302    -3.866 
 H                     1.117     0.121    -4.51 
 C                     0.401    -0.741    -2.424 
 H                     0.321    -1.553    -3.143 
 C                    -0.439    -0.793    -1.359 
 H                    -1.096    -1.651    -1.243 
 H                    -2.297    -0.02      3.212 
 
 ITRead=  0  0  0  0  0  0  0  0  0  0  0  0  0  0  0  0  0  0  0  0
 ITRead=  0  0  0  0  0  0
 MicOpt= -1 -1 -1 -1 -1 -1 -1 -1 -1 -1 -1 -1 -1 -1 -1 -1 -1 -1 -1 -1
 MicOpt= -1 -1 -1 -1 -1 -1
 NAtoms=     26 NQM=       26 NQMF=       0 NMMI=      0 NMMIF=      0
                NMic=       0 NMicF=      0.
                    Isotopes and Nuclear Properties:
 (Nuclear quadrupole moments (NQMom) in fm**2, nuclear magnetic moments (NMagM)
  in nuclear magnetons)

  Atom         1           2           3           4           5           6           7           8           9          10
 IAtWgt=          14           1           1          12          12          16           1          16           1          12
 AtmWgt=  14.0030740   1.0078250   1.0078250  12.0000000  12.0000000  15.9949146   1.0078250  15.9949146   1.0078250  12.0000000
 NucSpn=           2           1           1           0           0           0           1           0           1           0
 AtZEff=  -0.0000000  -0.0000000  -0.0000000  -0.0000000  -0.0000000  -0.0000000  -0.0000000  -0.0000000  -0.0000000  -0.0000000
 NQMom=    2.0440000   0.0000000   0.0000000   0.0000000   0.0000000   0.0000000   0.0000000   0.0000000   0.0000000   0.0000000
 NMagM=    0.4037610   2.7928460   2.7928460   0.0000000   0.0000000   0.0000000   2.7928460   0.0000000   2.7928460   0.0000000
 AtZNuc=   7.0000000   1.0000000   1.0000000   6.0000000   6.0000000   8.0000000   1.0000000   8.0000000   1.0000000   6.0000000

  Atom        11          12          13          14          15          16          17          18          19          20
 IAtWgt=           1           1          12          12           1          12          16           1          12          16
 AtmWgt=   1.0078250   1.0078250  12.0000000  12.0000000   1.0078250  12.0000000  15.9949146   1.0078250  12.0000000  15.9949146
 NucSpn=           1           1           0           0           1           0           0           1           0           0
 AtZEff=  -0.0000000  -0.0000000  -0.0000000  -0.0000000  -0.0000000  -0.0000000  -0.0000000  -0.0000000  -0.0000000  -0.0000000
 NQMom=    0.0000000   0.0000000   0.0000000   0.0000000   0.0000000   0.0000000   0.0000000   0.0000000   0.0000000   0.0000000
 NMagM=    2.7928460   2.7928460   0.0000000   0.0000000   2.7928460   0.0000000   0.0000000   2.7928460   0.0000000   0.0000000
 AtZNuc=   1.0000000   1.0000000   6.0000000   6.0000000   1.0000000   6.0000000   8.0000000   1.0000000   6.0000000   8.0000000

  Atom        21          22          23          24          25          26
 IAtWgt=           1          12           1          12           1           1
 AtmWgt=   1.0078250  12.0000000   1.0078250  12.0000000   1.0078250   1.0078250
 NucSpn=           1           0           1           0           1           1
 AtZEff=  -0.0000000  -0.0000000  -0.0000000  -0.0000000  -0.0000000  -0.0000000
 NQMom=    0.0000000   0.0000000   0.0000000   0.0000000   0.0000000   0.0000000
 NMagM=    2.7928460   0.0000000   2.7928460   0.0000000   2.7928460   2.7928460
 AtZNuc=   1.0000000   6.0000000   1.0000000   6.0000000   1.0000000   1.0000000
 Leave Link  101 at Sun Jul 18 13:46:46 2021, MaxMem=   104857600 cpu:               0.5 elap:               0.2
 (Enter /prod/apps/gaussian/g16b1/l103.exe)

 GradGradGradGradGradGradGradGradGradGradGradGradGradGradGradGradGradGrad
 Berny optimization.
 Initialization pass.
                           ----------------------------
                           !    Initial Parameters    !
                           ! (Angstroms and Degrees)  !
 --------------------------                            --------------------------
 ! Name  Definition              Value          Derivative Info.                !
 --------------------------------------------------------------------------------
 ! R1    R(1,2)                  1.0006         estimate D2E/DX2                !
 ! R2    R(1,3)                  0.9995         estimate D2E/DX2                !
 ! R3    R(1,4)                  1.5048         estimate D2E/DX2                !
 ! R4    R(1,26)                 0.9996         estimate D2E/DX2                !
 ! R5    R(4,5)                  1.5714         estimate D2E/DX2                !
 ! R6    R(4,9)                  1.0921         estimate D2E/DX2                !
 ! R7    R(4,10)                 1.5582         estimate D2E/DX2                !
 ! R8    R(5,6)                  1.2612         estimate D2E/DX2                !
 ! R9    R(5,8)                  1.2193         estimate D2E/DX2                !
 ! R10   R(6,7)                  0.9741         estimate D2E/DX2                !
 ! R11   R(10,11)                1.093          estimate D2E/DX2                !
 ! R12   R(10,12)                1.0917         estimate D2E/DX2                !
 ! R13   R(10,13)                1.5298         estimate D2E/DX2                !
 ! R14   R(13,14)                1.3459         estimate D2E/DX2                !
 ! R15   R(13,24)                1.3858         estimate D2E/DX2                !
 ! R16   R(14,15)                1.0869         estimate D2E/DX2                !
 ! R17   R(14,16)                1.3898         estimate D2E/DX2                !
 ! R18   R(16,17)                1.3927         estimate D2E/DX2                !
 ! R19   R(16,19)                1.4325         estimate D2E/DX2                !
 ! R20   R(17,18)                0.9739         estimate D2E/DX2                !
 ! R21   R(19,20)                1.3502         estimate D2E/DX2                !
 ! R22   R(19,22)                1.3544         estimate D2E/DX2                !
 ! R23   R(20,21)                0.9733         estimate D2E/DX2                !
 ! R24   R(22,23)                1.0875         estimate D2E/DX2                !
 ! R25   R(22,24)                1.3574         estimate D2E/DX2                !
 ! R26   R(24,25)                1.0869         estimate D2E/DX2                !
 ! A1    A(2,1,3)              109.4716         estimate D2E/DX2                !
 ! A2    A(2,1,4)              109.465          estimate D2E/DX2                !
 ! A3    A(2,1,26)             109.4639         estimate D2E/DX2                !
 ! A4    A(3,1,4)              109.4671         estimate D2E/DX2                !
 ! A5    A(3,1,26)             109.4732         estimate D2E/DX2                !
 ! A6    A(4,1,26)             109.4864         estimate D2E/DX2                !
 ! A7    A(1,4,5)              110.7286         estimate D2E/DX2                !
 ! A8    A(1,4,9)              107.1101         estimate D2E/DX2                !
 ! A9    A(1,4,10)             111.4476         estimate D2E/DX2                !
 ! A10   A(5,4,9)              105.6918         estimate D2E/DX2                !
 ! A11   A(5,4,10)             112.6554         estimate D2E/DX2                !
 ! A12   A(9,4,10)             108.8736         estimate D2E/DX2                !
 ! A13   A(4,5,6)              119.1583         estimate D2E/DX2                !
 ! A14   A(4,5,8)              118.2941         estimate D2E/DX2                !
 ! A15   A(6,5,8)              122.5239         estimate D2E/DX2                !
 ! A16   A(5,6,7)              101.8484         estimate D2E/DX2                !
 ! A17   A(4,10,11)            113.2896         estimate D2E/DX2                !
 ! A18   A(4,10,12)            110.3017         estimate D2E/DX2                !
 ! A19   A(4,10,13)            109.9189         estimate D2E/DX2                !
 ! A20   A(11,10,12)           103.6119         estimate D2E/DX2                !
 ! A21   A(11,10,13)           110.4371         estimate D2E/DX2                !
 ! A22   A(12,10,13)           109.0664         estimate D2E/DX2                !
 ! A23   A(10,13,14)           120.2236         estimate D2E/DX2                !
 ! A24   A(10,13,24)           118.2752         estimate D2E/DX2                !
 ! A25   A(14,13,24)           121.4203         estimate D2E/DX2                !
 ! A26   A(13,14,15)           117.4037         estimate D2E/DX2                !
 ! A27   A(13,14,16)           120.0294         estimate D2E/DX2                !
 ! A28   A(15,14,16)           122.1846         estimate D2E/DX2                !
 ! A29   A(14,16,17)           119.9091         estimate D2E/DX2                !
 ! A30   A(14,16,19)           118.7241         estimate D2E/DX2                !
 ! A31   A(17,16,19)           121.0287         estimate D2E/DX2                !
 ! A32   A(16,17,18)           111.7764         estimate D2E/DX2                !
 ! A33   A(16,19,20)           127.0337         estimate D2E/DX2                !
 ! A34   A(16,19,22)           118.154          estimate D2E/DX2                !
 ! A35   A(20,19,22)           114.8122         estimate D2E/DX2                !
 ! A36   A(19,20,21)           104.0811         estimate D2E/DX2                !
 ! A37   A(19,22,23)           120.7786         estimate D2E/DX2                !
 ! A38   A(19,22,24)           122.3571         estimate D2E/DX2                !
 ! A39   A(23,22,24)           116.3974         estimate D2E/DX2                !
 ! A40   A(13,24,22)           118.8225         estimate D2E/DX2                !
 ! A41   A(13,24,25)           121.9587         estimate D2E/DX2                !
 ! A42   A(22,24,25)           119.2131         estimate D2E/DX2                !
 ! D1    D(2,1,4,5)            -45.8517         estimate D2E/DX2                !
 ! D2    D(2,1,4,9)             68.9242         estimate D2E/DX2                !
 ! D3    D(2,1,4,10)          -172.0911         estimate D2E/DX2                !
 ! D4    D(3,1,4,5)           -165.8459         estimate D2E/DX2                !
 ! D5    D(3,1,4,9)            -51.07           estimate D2E/DX2                !
 ! D6    D(3,1,4,10)            67.9147         estimate D2E/DX2                !
 ! D7    D(26,1,4,5)            74.1449         estimate D2E/DX2                !
 ! D8    D(26,1,4,9)          -171.0792         estimate D2E/DX2                !
 ! D9    D(26,1,4,10)          -52.0946         estimate D2E/DX2                !
 ! D10   D(1,4,5,6)            130.1207         estimate D2E/DX2                !
 ! D11   D(1,4,5,8)            -51.6047         estimate D2E/DX2                !
 ! D12   D(9,4,5,6)             14.4584         estimate D2E/DX2                !
 ! D13   D(9,4,5,8)           -167.267          estimate D2E/DX2                !
 ! D14   D(10,4,5,6)          -104.3158         estimate D2E/DX2                !
 ! D15   D(10,4,5,8)            73.9588         estimate D2E/DX2                !
 ! D16   D(1,4,10,11)           62.0235         estimate D2E/DX2                !
 ! D17   D(1,4,10,12)          -53.5987         estimate D2E/DX2                !
 ! D18   D(1,4,10,13)         -173.8981         estimate D2E/DX2                !
 ! D19   D(5,4,10,11)          -63.1494         estimate D2E/DX2                !
 ! D20   D(5,4,10,12)         -178.7716         estimate D2E/DX2                !
 ! D21   D(5,4,10,13)           60.9289         estimate D2E/DX2                !
 ! D22   D(9,4,10,11)          179.9515         estimate D2E/DX2                !
 ! D23   D(9,4,10,12)           64.3292         estimate D2E/DX2                !
 ! D24   D(9,4,10,13)          -55.9702         estimate D2E/DX2                !
 ! D25   D(4,5,6,7)           -176.5993         estimate D2E/DX2                !
 ! D26   D(8,5,6,7)              5.2026         estimate D2E/DX2                !
 ! D27   D(4,10,13,14)        -104.1825         estimate D2E/DX2                !
 ! D28   D(4,10,13,24)          79.0433         estimate D2E/DX2                !
 ! D29   D(11,10,13,14)         21.5369         estimate D2E/DX2                !
 ! D30   D(11,10,13,24)       -155.2374         estimate D2E/DX2                !
 ! D31   D(12,10,13,14)        134.7729         estimate D2E/DX2                !
 ! D32   D(12,10,13,24)        -42.0013         estimate D2E/DX2                !
 ! D33   D(10,13,14,15)         13.6713         estimate D2E/DX2                !
 ! D34   D(10,13,14,16)       -173.2714         estimate D2E/DX2                !
 ! D35   D(24,13,14,15)       -169.6579         estimate D2E/DX2                !
 ! D36   D(24,13,14,16)          3.3994         estimate D2E/DX2                !
 ! D37   D(10,13,24,22)        175.6913         estimate D2E/DX2                !
 ! D38   D(10,13,24,25)         -5.1857         estimate D2E/DX2                !
 ! D39   D(14,13,24,22)         -1.0424         estimate D2E/DX2                !
 ! D40   D(14,13,24,25)        178.0806         estimate D2E/DX2                !
 ! D41   D(13,14,16,17)        173.4482         estimate D2E/DX2                !
 ! D42   D(13,14,16,19)          0.0537         estimate D2E/DX2                !
 ! D43   D(15,14,16,17)        -13.8363         estimate D2E/DX2                !
 ! D44   D(15,14,16,19)        172.7692         estimate D2E/DX2                !
 ! D45   D(14,16,17,18)         18.9651         estimate D2E/DX2                !
 ! D46   D(19,16,17,18)       -167.7956         estimate D2E/DX2                !
 ! D47   D(14,16,19,20)        174.0844         estimate D2E/DX2                !
 ! D48   D(14,16,19,22)         -5.7983         estimate D2E/DX2                !
 ! D49   D(17,16,19,20)          0.7667         estimate D2E/DX2                !
 ! D50   D(17,16,19,22)       -179.1161         estimate D2E/DX2                !
 ! D51   D(16,19,20,21)       -128.2626         estimate D2E/DX2                !
 ! D52   D(22,19,20,21)         51.6235         estimate D2E/DX2                !
 ! D53   D(16,19,22,23)       -179.7036         estimate D2E/DX2                !
 ! D54   D(16,19,22,24)          8.4209         estimate D2E/DX2                !
 ! D55   D(20,19,22,23)          0.3995         estimate D2E/DX2                !
 ! D56   D(20,19,22,24)       -171.476          estimate D2E/DX2                !
 ! D57   D(19,22,24,13)         -5.1139         estimate D2E/DX2                !
 ! D58   D(19,22,24,25)        175.7386         estimate D2E/DX2                !
 ! D59   D(23,22,24,13)       -177.3234         estimate D2E/DX2                !
 ! D60   D(23,22,24,25)          3.5292         estimate D2E/DX2                !
 --------------------------------------------------------------------------------
 Trust Radius=3.00D-01 FncErr=1.00D-07 GrdErr=1.00D-06 EigMax=2.50D+02 EigMin=1.00D-04
 Number of steps in this run=    138 maximum allowed number of steps=    156.
 GradGradGradGradGradGradGradGradGradGradGradGradGradGradGradGradGradGrad

 Leave Link  103 at Sun Jul 18 13:46:46 2021, MaxMem=   104857600 cpu:               0.1 elap:               0.0
 (Enter /prod/apps/gaussian/g16b1/l202.exe)
                          Input orientation:                          
 ---------------------------------------------------------------------
 Center     Atomic      Atomic             Coordinates (Angstroms)
 Number     Number       Type             X           Y           Z
 ---------------------------------------------------------------------
      1          7           0       -2.018000   -0.921000    2.881000
      2          1           0       -1.641000   -1.453000    3.640000
      3          1           0       -2.811000   -1.397000    2.502000
      4          6           0       -0.971000   -0.761000    1.812000
      5          6           0        0.409000   -0.351000    2.442000
      6          8           0        1.446000   -0.993000    2.121000
      7          1           0        2.122000   -0.576000    2.685000
      8          8           0        0.437000    0.602000    3.202000
      9          1           0       -0.812000   -1.746000    1.368000
     10          6           0       -1.439000    0.224000    0.699000
     11          1           0       -1.621000    1.237000    1.067000
     12          1           0       -2.409000   -0.084000    0.304000
     13          6           0       -0.419000    0.245000   -0.441000
     14          6           0        0.426000    1.284000   -0.575000
     15          1           0        0.511000    1.971000    0.263000
     16          6           0        1.254000    1.368000   -1.688000
     17          8           0        2.027000    2.508000   -1.894000
     18          1           0        2.132000    3.026000   -1.076000
     19          6           0        1.185000    0.334000   -2.677000
     20          8           0        1.824000    0.302000   -3.866000
     21          1           0        1.117000    0.121000   -4.510000
     22          6           0        0.401000   -0.741000   -2.424000
     23          1           0        0.321000   -1.553000   -3.143000
     24          6           0       -0.439000   -0.793000   -1.359000
     25          1           0       -1.096000   -1.651000   -1.243000
     26          1           0       -2.297000   -0.020000    3.212000
 ---------------------------------------------------------------------
                    Distance matrix (angstroms):
                    1          2          3          4          5
     1  N    0.000000
     2  H    1.000617   0.000000
     3  H    0.999533   1.633120   0.000000
     4  C    1.504849   2.066240   2.065477   0.000000
     5  C    2.531393   2.617653   3.386165   1.571432   0.000000
     6  O    3.547123   3.471099   4.293067   2.447692   1.261180
     7  H    4.158971   3.980116   5.004200   3.219162   1.744719
     8  O    2.906819   2.955157   3.877564   2.402568   1.219259
     9  H    2.103385   2.436201   2.324598   1.092081   2.142508
    10  C    2.531282   3.391550   2.785827   1.558210   2.604569
    11  H    2.846958   3.722476   3.226962   2.229244   2.921176
    12  H    2.737586   3.686852   2.591675   2.190944   3.547317
    13  C    3.866787   4.585962   4.132684   2.528389   3.058184
    14  C    4.772745   5.434141   5.209017   3.439681   3.431589
    15  H    4.649025   5.268682   5.233759   3.472686   3.185927
    16  C    6.068053   6.687799   6.459532   4.661895   4.552569
    17  O    7.135874   7.731035   7.614466   5.780035   5.439917
    18  H    6.961261   7.519151   7.536462   5.684235   5.171961
    19  C    6.536482   7.147317   6.766566   5.098871   5.222601
    20  O    7.859943   8.451407   8.057372   6.417295   6.497653
    21  H    8.095732   8.746802   8.179343   6.716052   7.003881
    22  C    5.833265   6.438075   5.917158   4.452694   4.881610
    23  H    6.492990   7.061766   6.457537   5.181559   5.713560
    24  C    4.526282   5.183667   4.571490   3.215476   3.919448
    25  H    4.288398   4.917308   4.126835   3.184454   4.187392
    26  H    0.999601   1.633098   1.632307   2.065758   2.832825
                    6          7          8          9         10
     6  O    0.000000
     7  H    0.974146   0.000000
     8  O    2.175010   2.119952   0.000000
     9  H    2.496514   3.422243   3.230582   0.000000
    10  C    3.438953   4.155107   3.150757   2.172922   0.000000
    11  H    3.935772   4.462616   3.032625   3.105378   1.093031
    12  H    4.357613   5.142099   4.119310   2.538651   1.091691
    13  C    3.402163   4.111277   3.759207   2.718641   1.529850
    14  C    3.673356   4.118691   3.838095   3.806415   2.494975
    15  H    3.621006   3.866344   3.243048   4.097248   2.654167
    16  C    4.485495   4.863711   5.016607   4.827472   3.776077
    17  O    5.358618   5.521533   5.668346   6.066060   4.894227
    18  H    5.181097   5.207651   5.200970   6.116556   4.873794
    19  C    4.984963   5.518796   5.932451   4.967538   4.277248
    20  O    6.137107   6.616290   7.209049   6.207862   5.611816
    21  H    6.731968   7.298209   7.756849   6.462013   5.803225
    22  C    4.670391   5.393602   5.784187   4.106173   3.750994
    23  H    5.411924   6.177679   6.701978   4.655111   4.584353
    24  C    3.962780   4.791633   4.849342   2.912708   2.503928
    25  H    4.267461   5.190408   5.213840   2.628118   2.721146
    26  H    4.018340   4.484911   2.803879   2.929955   2.666621
                   11         12         13         14         15
    11  H    0.000000
    12  H    1.717019   0.000000
    13  C    2.168624   2.150201   0.000000
    14  C    2.624611   3.268224   1.345921   0.000000
    15  H    2.393866   3.570869   2.083169   1.086940   0.000000
    16  C    3.984070   4.415194   2.369613   1.389751   2.173030
    17  O    4.867326   5.588181   3.635285   2.408555   2.690590
    18  H    4.677390   5.674256   3.826851   2.489177   2.352358
    19  C    4.765142   4.688062   2.753259   2.428371   3.431857
    20  O    6.089067   5.954510   4.094499   3.708020   4.643078
    21  H    6.312292   5.970703   4.351027   4.161043   5.154732
    22  C    4.493111   3.971112   2.361543   2.742271   3.819295
    23  H    5.411059   4.636019   3.328845   3.828083   4.904642
    24  C    3.376907   2.673789   1.385846   2.382606   3.342616
    25  H    3.735274   2.563721   2.167106   3.372971   4.239029
    26  H    2.576441   2.910860   4.116008   4.843193   4.532719
                   16         17         18         19         20
    16  C    0.000000
    17  O    1.392683   0.000000
    18  H    1.973421   0.973896   0.000000
    19  C    1.432494   2.459335   3.272136   0.000000
    20  O    2.490972   2.965877   3.911412   1.350210   0.000000
    21  H    3.088278   3.656409   4.611031   1.846587   0.973317
    22  C    2.391064   3.671618   4.359330   1.354360   2.278627
    23  H    3.394076   4.578445   5.340361   2.127069   2.494547
    24  C    2.764853   4.154995   4.612471   2.375843   3.550386
    25  H    3.851608   5.241585   5.685262   3.346572   4.384146
    26  H    6.208554   7.152552   6.876125   6.850545   8.196610
                   21         22         23         24         25
    21  H    0.000000
    22  C    2.367931   0.000000
    23  H    2.303168   1.087522   0.000000
    24  C    3.631161   1.357398   2.082752   0.000000
    25  H    4.325580   2.112787   2.372234   1.086862   0.000000
    26  H    8.444203   6.289956   7.042019   4.994370   4.893832
                   26
    26  H    0.000000
 Stoichiometry    C9H12NO4(1+)
 Framework group  C1[X(C9H12NO4)]
 Deg. of freedom    72
 Full point group                 C1      NOp   1
 Largest Abelian subgroup         C1      NOp   1
 Largest concise Abelian subgroup C1      NOp   1
                         Standard orientation:                         
 ---------------------------------------------------------------------
 Center     Atomic      Atomic             Coordinates (Angstroms)
 Number     Number       Type             X           Y           Z
 ---------------------------------------------------------------------
      1          7           0       -3.681771   -1.039178   -0.459301
      2          1           0       -4.358492   -0.798106    0.237237
      3          1           0       -3.712637   -2.024048   -0.627063
      4          6           0       -2.308515   -0.655150    0.021593
      5          6           0       -2.317660    0.792944    0.631790
      6          8           0       -1.803137    0.984577    1.767182
      7          1           0       -1.994410    1.927968    1.916808
      8          8           0       -2.797306    1.696571   -0.031528
      9          1           0       -2.059512   -1.322819    0.849154
     10          6           0       -1.242782   -0.826189   -1.102230
     11          1           0       -1.424339   -0.187889   -1.970750
     12          1           0       -1.284281   -1.836817   -1.512958
     13          6           0        0.156105   -0.573614   -0.536754
     14          6           0        0.794338    0.582006   -0.798866
     15          1           0        0.206091    1.394657   -1.217197
     16          6           0        2.115581    0.752133   -0.402906
     17          8           0        2.816307    1.890725   -0.792978
     18          1           0        2.216959    2.606456   -1.070440
     19          6           0        2.772741   -0.320964    0.281668
     20          8           0        4.072995   -0.381345    0.640501
     21          1           0        4.377261   -1.234958    0.285378
     22          6           0        2.039245   -1.408717    0.617920
     23          1           0        2.493715   -2.245887    1.142617
     24          6           0        0.764548   -1.586974    0.186756
     25          1           0        0.246753   -2.511173    0.429681
     26          1           0       -3.887199   -0.550217   -1.306603
 ---------------------------------------------------------------------
 Rotational constants (GHZ):           1.3041452           0.3793031           0.3437682
 Leave Link  202 at Sun Jul 18 13:46:46 2021, MaxMem=   104857600 cpu:               0.1 elap:               0.1
 (Enter /prod/apps/gaussian/g16b1/l301.exe)
 Standard basis: 6-31G(d) (6D, 7F)
 Ernie: Thresh=  0.10000D-02 Tol=  0.10000D-05 Strict=F.
 There are   234 symmetry adapted cartesian basis functions of A   symmetry.
 There are   234 symmetry adapted basis functions of A   symmetry.
   234 basis functions,   440 primitive gaussians,   234 cartesian basis functions
    52 alpha electrons       52 beta electrons
       nuclear repulsion energy       909.8627283892 Hartrees.
 IExCor=  402 DFT=T Ex+Corr=B3LYP ExCW=0 ScaHFX=  0.200000
 ScaDFX=  0.800000  0.720000  1.000000  0.810000 ScalE2=  1.000000  1.000000
 IRadAn=      5 IRanWt=     -1 IRanGd=            0 ICorTp=0 IEmpDi=  4
 NAtoms=   26 NActive=   26 NUniq=   26 SFac= 1.00D+00 NAtFMM=   60 NAOKFM=F Big=F
 Integral buffers will be    131072 words long.
 Raffenetti 2 integral format.
 Two-electron integral symmetry is turned on.
 Using the following non-standard input for PCM:
 MSTModel=DFT cav MSTCharged
 --- end of non-standard input.
 MST model for solvation energy: B3LYP parametrization.
 MST cavity parameters:
 ISph   IAn     Re0     Alpha   Atom Type   QCorr
 ------------------------------------------------
   1      7     1.70     1.15      NH         T
   2      1     0.90     1.15      NH         T
   3      1     0.90     1.15      NH         T
   4      6     1.50     1.25      CH         F
   5      6     1.50     1.25      C          F
   6      8     1.45     1.25      OH         F
   7      1     0.90     1.25      OH         F
   8      8     1.40     1.25      O          F
   9      1     1.20     1.25      CH         F
  10      6     1.50     1.25      CH2        F
  11      1     1.20     1.25      CH2        F
  12      1     1.20     1.25      CH2        F
  13      6     1.50     1.25      C          F
  14      6     1.50     1.25      CH         F
  15      1     1.20     1.25      CH         F
  16      6     1.50     1.25      C          F
  17      8     1.45     1.25      OH         F
  18      1     0.90     1.25      OH         F
  19      6     1.50     1.25      C          F
  20      8     1.45     1.25      OH         F
  21      1     0.90     1.25      OH         F
  22      6     1.50     1.25      CH         F
  23      1     1.20     1.25      CH         F
  24      6     1.50     1.25      CH         F
  25      1     1.20     1.25      CH         F
  26      1     0.90     1.15      NH         T
 ------------------------------------------------------------------------------
 Polarizable Continuum Model (PCM)
 =================================
 Model                : PCM.
 Atomic radii         : MST.
 Polarization charges : Total charges.
 Charge compensation  : None.
 Solution method      : On-the-fly selection.
 Cavity type          : Scaled VdW (van der Waals Surface) (Alpha=1.250).
 Cavity algorithm     : GePol (No added spheres)
                        Default sphere list used, NSphG=   26.
                        Lebedev-Laikov grids with approx.  5.0 points / Ang**2.
                        Smoothing algorithm: York/Karplus (Gamma=1.0000).
                        Polarization charges: spherical gaussians, with
                                              point-specific exponents (IZeta= 3).
                        Self-potential: point-specific (ISelfS= 7).
                        Self-field    : sphere-specific E.n sum rule (ISelfD= 2).
 1st derivatives      : Analytical E(r).r(x)/FMM algorithm (CHGder, D1EAlg=3).
                        Cavity 1st derivative terms included.
 Solvent              : Water, Eps=  78.355300 Eps(inf)=   1.777849
 ------------------------------------------------------------------------------
 GePol: Number of generator spheres                  =      26
 GePol: Total number of spheres                      =      26
 GePol: Number of exposed spheres                    =      26 (100.00%)
 GePol: Number of points                             =    1980
 GePol: Average weight of points                     =       0.12
 GePol: Minimum weight of points                     =   0.50D-10
 GePol: Maximum weight of points                     =    0.22001
 GePol: Number of points with low weight             =     113
 GePol: Fraction of low-weight points (<1% of avg)   =       5.71%
 GePol: Cavity surface area                          =    242.272 Ang**2
 GePol: Cavity volume                                =    223.045 Ang**3
 PCM non-electrostatic energy =        -0.0002096272 Hartrees.
 Nuclear repulsion after PCM non-electrostatic terms =      909.8625187619 Hartrees.
 Leave Link  301 at Sun Jul 18 13:46:46 2021, MaxMem=   104857600 cpu:               0.5 elap:               0.2
 (Enter /prod/apps/gaussian/g16b1/l302.exe)
 NPDir=0 NMtPBC=     1 NCelOv=     1 NCel=       1 NClECP=     1 NCelD=      1
         NCelK=      1 NCelE2=     1 NClLst=     1 CellRange=     0.0.
 One-electron integrals computed using PRISM.
 One-electron integral symmetry used in STVInt
 NBasis=   234 RedAO= T EigKep=  3.90D-04  NBF=   234
 NBsUse=   234 1.00D-06 EigRej= -1.00D+00 NBFU=   234
 Precomputing XC quadrature grid using
 IXCGrd= 4 IRadAn=           5 IRanWt=          -1 IRanGd=           0 AccXCQ= 0.00D+00.
 Generated NRdTot=       0 NPtTot=           0 NUsed=           0 NTot=          32
 NSgBfM=   233   233   233   233   233 MxSgAt=    26 MxSgA2=    26.
 Leave Link  302 at Sun Jul 18 13:46:46 2021, MaxMem=   104857600 cpu:               1.4 elap:               0.4
 (Enter /prod/apps/gaussian/g16b1/l303.exe)
 DipDrv:  MaxL=1.
 Leave Link  303 at Sun Jul 18 13:46:47 2021, MaxMem=   104857600 cpu:               0.2 elap:               0.1
 (Enter /prod/apps/gaussian/g16b1/l401.exe)
 ExpMin= 1.61D-01 ExpMax= 5.48D+03 ExpMxC= 8.25D+02 IAcc=3 IRadAn=         5 AccDes= 0.00D+00
 Harris functional with IExCor=  402 and IRadAn=       5 diagonalized for initial guess.
 HarFok:  IExCor=  402 AccDes= 0.00D+00 IRadAn=         5 IDoV= 1 UseB2=F ITyADJ=14
 ICtDFT=  3500011 ScaDFX=  1.000000  1.000000  1.000000  1.000000
 FoFCou: FMM=F IPFlag=           0 FMFlag=      100000 FMFlg1=           0
         NFxFlg=           0 DoJE=T BraDBF=F KetDBF=T FulRan=T
         wScrn=  0.000000 ICntrl=       500 IOpCl=  0 I1Cent=   200000004 NGrid=           0
         NMat0=    1 NMatS0=      1 NMatT0=    0 NMatD0=    1 NMtDS0=    0 NMtDT0=    0
 Petite list used in FoFCou.
 Harris En= -705.625491175841    
 JPrj=0 DoOrth=F DoCkMO=F.
 Leave Link  401 at Sun Jul 18 13:46:48 2021, MaxMem=   104857600 cpu:               5.9 elap:               1.5
 (Enter /prod/apps/gaussian/g16b1/l502.exe)
 Integral symmetry usage will be decided dynamically.
 Closed shell SCF:
 Using DIIS extrapolation, IDIIS=  1040.
 NGot=   104857600 LenX=   104743994 LenY=   104688797
 Requested convergence on RMS density matrix=1.00D-08 within 128 cycles.
 Requested convergence on MAX density matrix=1.00D-06.
 Requested convergence on             energy=1.00D-06.
 No special actions if energy rises.
 Fock matrices will be formed incrementally for  20 cycles.

 Cycle   1  Pass 1  IDiag  1:
 FoFJK:  IHMeth= 1 ICntrl=       0 DoSepK=F KAlg= 0 I1Cent=           0 FoldK=F
 IRaf= 870000000 NMat=       1 IRICut=       1 DoRegI=T DoRafI=F ISym2E= 0 IDoP0=0 IntGTp=1.
 FoFCou: FMM=F IPFlag=           0 FMFlag=      100000 FMFlg1=           0
         NFxFlg=           0 DoJE=F BraDBF=F KetDBF=F FulRan=T
         wScrn=  0.000000 ICntrl=         0 IOpCl=  0 I1Cent=           0 NGrid=           0
         NMat0=    1 NMatS0=      1 NMatT0=    0 NMatD0=    1 NMtDS0=    0 NMtDT0=    0
 Symmetry not used in FoFCou.
 Inv3:  Mode=1 IEnd=    11761200.
 Iteration    1 A*A^-1 deviation from unit magnitude is 2.66D-15 for   1724.
 Iteration    1 A*A^-1 deviation from orthogonality  is 2.39D-15 for   1570    416.
 Iteration    1 A^-1*A deviation from unit magnitude is 2.66D-15 for   1724.
 Iteration    1 A^-1*A deviation from orthogonality  is 1.87D-15 for   1655   1481.
 E= -705.354655333120    
 DIIS: error= 2.70D-02 at cycle   1 NSaved=   1.
 NSaved= 1 IEnMin= 1 EnMin= -705.354655333120     IErMin= 1 ErrMin= 2.70D-02
 ErrMax= 2.70D-02  0.00D+00 EMaxC= 1.00D-01 BMatC= 3.78D-01 BMatP= 3.78D-01
 IDIUse=3 WtCom= 7.30D-01 WtEn= 2.70D-01
 Coeff-Com:  0.100D+01
 Coeff-En:   0.100D+01
 Coeff:      0.100D+01
 Gap=     0.228 Goal=   None    Shift=    0.000
 GapD=    0.228 DampG=1.000 DampE=0.500 DampFc=0.5000 IDamp=-1.
 Damping current iteration by 5.00D-01
 RMSDP=5.24D-03 MaxDP=1.88D-01              OVMax= 2.25D-01

 Cycle   2  Pass 1  IDiag  1:
 RMSU=  2.59D-03    CP:  9.83D-01
 E= -705.478553844279     Delta-E=       -0.123898511159 Rises=F Damp=T
 DIIS: error= 8.88D-03 at cycle   2 NSaved=   2.
 NSaved= 2 IEnMin= 2 EnMin= -705.478553844279     IErMin= 2 ErrMin= 8.88D-03
 ErrMax= 8.88D-03  0.00D+00 EMaxC= 1.00D-01 BMatC= 3.45D-02 BMatP= 3.78D-01
 IDIUse=3 WtCom= 9.11D-01 WtEn= 8.88D-02
 Coeff-Com:  0.135D+00 0.865D+00
 Coeff-En:   0.217D+00 0.783D+00
 Coeff:      0.143D+00 0.857D+00
 Gap=     0.183 Goal=   None    Shift=    0.000
 RMSDP=1.46D-03 MaxDP=5.16D-02 DE=-1.24D-01 OVMax= 1.73D-01

 Cycle   3  Pass 1  IDiag  1:
 RMSU=  1.40D-03    CP:  9.76D-01  8.54D-01
 E= -705.650360102896     Delta-E=       -0.171806258617 Rises=F Damp=F
 DIIS: error= 1.39D-02 at cycle   3 NSaved=   3.
 NSaved= 3 IEnMin= 3 EnMin= -705.650360102896     IErMin= 2 ErrMin= 8.88D-03
 ErrMax= 1.39D-02  0.00D+00 EMaxC= 1.00D-01 BMatC= 3.22D-02 BMatP= 3.45D-02
 IDIUse=3 WtCom= 8.61D-01 WtEn= 1.39D-01
 Coeff-Com:  0.240D-01 0.488D+00 0.488D+00
 Coeff-En:   0.000D+00 0.000D+00 0.100D+01
 Coeff:      0.207D-01 0.420D+00 0.559D+00
 Gap=     0.201 Goal=   None    Shift=    0.000
 RMSDP=8.90D-04 MaxDP=5.07D-02 DE=-1.72D-01 OVMax= 8.39D-02

 Cycle   4  Pass 1  IDiag  1:
 RMSU=  6.14D-04    CP:  9.79D-01  9.02D-01  5.52D-01
 E= -705.670465170882     Delta-E=       -0.020105067986 Rises=F Damp=F
 DIIS: error= 8.10D-03 at cycle   4 NSaved=   4.
 NSaved= 4 IEnMin= 4 EnMin= -705.670465170882     IErMin= 4 ErrMin= 8.10D-03
 ErrMax= 8.10D-03  0.00D+00 EMaxC= 1.00D-01 BMatC= 8.08D-03 BMatP= 3.22D-02
 IDIUse=3 WtCom= 9.19D-01 WtEn= 8.10D-02
 Coeff-Com:  0.135D-03 0.992D-01 0.343D+00 0.557D+00
 Coeff-En:   0.000D+00 0.000D+00 0.215D+00 0.785D+00
 Coeff:      0.124D-03 0.912D-01 0.333D+00 0.576D+00
 Gap=     0.201 Goal=   None    Shift=    0.000
 RMSDP=3.38D-04 MaxDP=1.96D-02 DE=-2.01D-02 OVMax= 2.58D-02

 Cycle   5  Pass 1  IDiag  1:
 RMSU=  1.71D-04    CP:  9.78D-01  8.75D-01  6.76D-01  6.37D-01
 E= -705.675934465851     Delta-E=       -0.005469294969 Rises=F Damp=F
 DIIS: error= 1.96D-03 at cycle   5 NSaved=   5.
 NSaved= 5 IEnMin= 5 EnMin= -705.675934465851     IErMin= 5 ErrMin= 1.96D-03
 ErrMax= 1.96D-03  0.00D+00 EMaxC= 1.00D-01 BMatC= 6.67D-04 BMatP= 8.08D-03
 IDIUse=3 WtCom= 9.80D-01 WtEn= 1.96D-02
 Coeff-Com: -0.110D-02 0.101D-01 0.150D+00 0.350D+00 0.491D+00
 Coeff-En:   0.000D+00 0.000D+00 0.000D+00 0.187D-01 0.981D+00
 Coeff:     -0.108D-02 0.995D-02 0.147D+00 0.343D+00 0.501D+00
 Gap=     0.200 Goal=   None    Shift=    0.000
 RMSDP=1.04D-04 MaxDP=4.44D-03 DE=-5.47D-03 OVMax= 5.32D-03

 Cycle   6  Pass 1  IDiag  1:
 RMSU=  4.58D-05    CP:  9.78D-01  8.82D-01  6.81D-01  6.76D-01  4.87D-01
 E= -705.676473101814     Delta-E=       -0.000538635963 Rises=F Damp=F
 DIIS: error= 1.45D-04 at cycle   6 NSaved=   6.
 NSaved= 6 IEnMin= 6 EnMin= -705.676473101814     IErMin= 6 ErrMin= 1.45D-04
 ErrMax= 1.45D-04  0.00D+00 EMaxC= 1.00D-01 BMatC= 1.21D-05 BMatP= 6.67D-04
 IDIUse=3 WtCom= 9.99D-01 WtEn= 1.45D-03
 Coeff-Com: -0.468D-03-0.707D-03 0.379D-01 0.973D-01 0.202D+00 0.664D+00
 Coeff-En:   0.000D+00 0.000D+00 0.000D+00 0.000D+00 0.000D+00 0.100D+01
 Coeff:     -0.468D-03-0.706D-03 0.378D-01 0.972D-01 0.201D+00 0.665D+00
 Gap=     0.201 Goal=   None    Shift=    0.000
 RMSDP=1.86D-05 MaxDP=5.25D-04 DE=-5.39D-04 OVMax= 1.43D-03

 Cycle   7  Pass 1  IDiag  1:
 RMSU=  1.20D-05    CP:  9.78D-01  8.83D-01  6.80D-01  6.75D-01  5.41D-01
                    CP:  7.70D-01
 E= -705.676482495985     Delta-E=       -0.000009394171 Rises=F Damp=F
 DIIS: error= 5.26D-05 at cycle   7 NSaved=   7.
 NSaved= 7 IEnMin= 7 EnMin= -705.676482495985     IErMin= 7 ErrMin= 5.26D-05
 ErrMax= 5.26D-05  0.00D+00 EMaxC= 1.00D-01 BMatC= 2.04D-06 BMatP= 1.21D-05
 IDIUse=1 WtCom= 1.00D+00 WtEn= 0.00D+00
 Coeff-Com: -0.206D-03-0.949D-03 0.122D-01 0.330D-01 0.856D-01 0.387D+00
 Coeff-Com:  0.483D+00
 Coeff:     -0.206D-03-0.949D-03 0.122D-01 0.330D-01 0.856D-01 0.387D+00
 Coeff:      0.483D+00
 Gap=     0.201 Goal=   None    Shift=    0.000
 RMSDP=6.67D-06 MaxDP=2.04D-04 DE=-9.39D-06 OVMax= 5.08D-04

 Cycle   8  Pass 1  IDiag  1:
 RMSU=  2.82D-06    CP:  9.78D-01  8.82D-01  6.81D-01  6.78D-01  5.38D-01
                    CP:  7.96D-01  5.63D-01
 E= -705.676484426730     Delta-E=       -0.000001930745 Rises=F Damp=F
 DIIS: error= 9.27D-06 at cycle   8 NSaved=   8.
 NSaved= 8 IEnMin= 8 EnMin= -705.676484426730     IErMin= 8 ErrMin= 9.27D-06
 ErrMax= 9.27D-06  0.00D+00 EMaxC= 1.00D-01 BMatC= 4.91D-08 BMatP= 2.04D-06
 IDIUse=1 WtCom= 1.00D+00 WtEn= 0.00D+00
 Coeff-Com: -0.286D-04-0.291D-03 0.143D-02 0.400D-02 0.156D-01 0.858D-01
 Coeff-Com:  0.173D+00 0.721D+00
 Coeff:     -0.286D-04-0.291D-03 0.143D-02 0.400D-02 0.156D-01 0.858D-01
 Coeff:      0.173D+00 0.721D+00
 Gap=     0.201 Goal=   None    Shift=    0.000
 RMSDP=1.34D-06 MaxDP=3.21D-05 DE=-1.93D-06 OVMax= 1.36D-04

 Cycle   9  Pass 1  IDiag  1:
 RMSU=  1.00D-06    CP:  9.78D-01  8.82D-01  6.81D-01  6.77D-01  5.41D-01
                    CP:  8.00D-01  6.01D-01  8.06D-01
 E= -705.676484465550     Delta-E=       -0.000000038820 Rises=F Damp=F
 DIIS: error= 4.48D-06 at cycle   9 NSaved=   9.
 NSaved= 9 IEnMin= 9 EnMin= -705.676484465550     IErMin= 9 ErrMin= 4.48D-06
 ErrMax= 4.48D-06  0.00D+00 EMaxC= 1.00D-01 BMatC= 1.15D-08 BMatP= 4.91D-08
 IDIUse=1 WtCom= 1.00D+00 WtEn= 0.00D+00
 Coeff-Com:  0.447D-05-0.637D-04-0.412D-03-0.114D-02-0.250D-04 0.758D-02
 Coeff-Com:  0.445D-01 0.387D+00 0.562D+00
 Coeff:      0.447D-05-0.637D-04-0.412D-03-0.114D-02-0.250D-04 0.758D-02
 Coeff:      0.445D-01 0.387D+00 0.562D+00
 Gap=     0.201 Goal=   None    Shift=    0.000
 RMSDP=5.14D-07 MaxDP=1.49D-05 DE=-3.88D-08 OVMax= 3.53D-05

 Cycle  10  Pass 1  IDiag  1:
 RMSU=  2.88D-07    CP:  9.78D-01  8.82D-01  6.81D-01  6.77D-01  5.40D-01
                    CP:  8.02D-01  6.04D-01  8.91D-01  6.82D-01
 E= -705.676484476050     Delta-E=       -0.000000010500 Rises=F Damp=F
 DIIS: error= 7.61D-07 at cycle  10 NSaved=  10.
 NSaved=10 IEnMin=10 EnMin= -705.676484476050     IErMin=10 ErrMin= 7.61D-07
 ErrMax= 7.61D-07  0.00D+00 EMaxC= 1.00D-01 BMatC= 4.10D-10 BMatP= 1.15D-08
 IDIUse=1 WtCom= 1.00D+00 WtEn= 0.00D+00
 Coeff-Com:  0.413D-05-0.954D-05-0.250D-03-0.707D-03-0.965D-03-0.214D-02
 Coeff-Com:  0.782D-02 0.116D+00 0.229D+00 0.651D+00
 Coeff:      0.413D-05-0.954D-05-0.250D-03-0.707D-03-0.965D-03-0.214D-02
 Coeff:      0.782D-02 0.116D+00 0.229D+00 0.651D+00
 Gap=     0.201 Goal=   None    Shift=    0.000
 RMSDP=1.26D-07 MaxDP=4.39D-06 DE=-1.05D-08 OVMax= 1.29D-05

 Cycle  11  Pass 1  IDiag  1:
 RMSU=  8.87D-08    CP:  9.78D-01  8.82D-01  6.81D-01  6.77D-01  5.40D-01
                    CP:  8.02D-01  6.06D-01  8.98D-01  7.37D-01  7.93D-01
 E= -705.676484476433     Delta-E=       -0.000000000383 Rises=F Damp=F
 DIIS: error= 3.46D-07 at cycle  11 NSaved=  11.
 NSaved=11 IEnMin=11 EnMin= -705.676484476433     IErMin=11 ErrMin= 3.46D-07
 ErrMax= 3.46D-07  0.00D+00 EMaxC= 1.00D-01 BMatC= 6.51D-11 BMatP= 4.10D-10
 IDIUse=1 WtCom= 1.00D+00 WtEn= 0.00D+00
 Coeff-Com:  0.154D-05 0.268D-05-0.826D-04-0.237D-03-0.514D-03-0.195D-02
 Coeff-Com: -0.107D-02 0.159D-01 0.473D-01 0.315D+00 0.625D+00
 Coeff:      0.154D-05 0.268D-05-0.826D-04-0.237D-03-0.514D-03-0.195D-02
 Coeff:     -0.107D-02 0.159D-01 0.473D-01 0.315D+00 0.625D+00
 Gap=     0.201 Goal=   None    Shift=    0.000
 RMSDP=4.66D-08 MaxDP=1.37D-06 DE=-3.83D-10 OVMax= 4.03D-06

 Cycle  12  Pass 1  IDiag  1:
 RMSU=  2.98D-08    CP:  9.78D-01  8.82D-01  6.81D-01  6.77D-01  5.40D-01
                    CP:  8.02D-01  6.06D-01  9.03D-01  7.43D-01  8.73D-01
                    CP:  7.64D-01
 E= -705.676484476496     Delta-E=       -0.000000000063 Rises=F Damp=F
 DIIS: error= 1.26D-07 at cycle  12 NSaved=  12.
 NSaved=12 IEnMin=12 EnMin= -705.676484476496     IErMin=12 ErrMin= 1.26D-07
 ErrMax= 1.26D-07  0.00D+00 EMaxC= 1.00D-01 BMatC= 7.03D-12 BMatP= 6.51D-11
 IDIUse=1 WtCom= 1.00D+00 WtEn= 0.00D+00
 Coeff-Com:  0.279D-06 0.174D-05-0.587D-05-0.162D-04-0.118D-03-0.625D-03
 Coeff-Com: -0.159D-02-0.792D-02-0.100D-01 0.624D-01 0.290D+00 0.668D+00
 Coeff:      0.279D-06 0.174D-05-0.587D-05-0.162D-04-0.118D-03-0.625D-03
 Coeff:     -0.159D-02-0.792D-02-0.100D-01 0.624D-01 0.290D+00 0.668D+00
 Gap=     0.201 Goal=   None    Shift=    0.000
 RMSDP=1.69D-08 MaxDP=4.10D-07 DE=-6.25D-11 OVMax= 1.36D-06

 Cycle  13  Pass 1  IDiag  1:
 RMSU=  1.10D-08    CP:  9.78D-01  8.82D-01  6.81D-01  6.77D-01  5.40D-01
                    CP:  8.02D-01  6.07D-01  9.04D-01  7.46D-01  8.85D-01
                    CP:  8.43D-01  8.00D-01
 E= -705.676484476503     Delta-E=       -0.000000000007 Rises=F Damp=F
 DIIS: error= 2.98D-08 at cycle  13 NSaved=  13.
 NSaved=13 IEnMin=13 EnMin= -705.676484476503     IErMin=13 ErrMin= 2.98D-08
 ErrMax= 2.98D-08  0.00D+00 EMaxC= 1.00D-01 BMatC= 9.44D-13 BMatP= 7.03D-12
 IDIUse=1 WtCom= 1.00D+00 WtEn= 0.00D+00
 Coeff-Com: -0.260D-09 0.443D-06 0.677D-05 0.193D-04 0.173D-05-0.643D-04
 Coeff-Com: -0.596D-03-0.518D-02-0.992D-02-0.412D-02 0.695D-01 0.336D+00
 Coeff-Com:  0.615D+00
 Coeff:     -0.260D-09 0.443D-06 0.677D-05 0.193D-04 0.173D-05-0.643D-04
 Coeff:     -0.596D-03-0.518D-02-0.992D-02-0.412D-02 0.695D-01 0.336D+00
 Coeff:      0.615D+00
 Gap=     0.201 Goal=   None    Shift=    0.000
 RMSDP=5.31D-09 MaxDP=1.40D-07 DE=-6.59D-12 OVMax= 4.42D-07

 Error on total polarization charges =  0.01187
 SCF Done:  E(RB3LYP) =  -705.676484477     A.U. after   13 cycles
            NFock= 13  Conv=0.53D-08     -V/T= 2.0085
 KE= 6.997495423828D+02 PE=-3.452658836890D+03 EE= 1.137370291269D+03
 Leave Link  502 at Sun Jul 18 13:47:29 2021, MaxMem=   104857600 cpu:             161.1 elap:              40.4
 (Enter /prod/apps/gaussian/g16b1/l601.exe)
 Copying SCF densities to generalized density rwf, IOpCl= 0 IROHF=0.

 **********************************************************************

            Population analysis using the SCF Density.

 **********************************************************************

 Orbital symmetries:
       Occupied  (A) (A) (A) (A) (A) (A) (A) (A) (A) (A) (A) (A)
                 (A) (A) (A) (A) (A) (A) (A) (A) (A) (A) (A) (A)
                 (A) (A) (A) (A) (A) (A) (A) (A) (A) (A) (A) (A)
                 (A) (A) (A) (A) (A) (A) (A) (A) (A) (A) (A) (A)
                 (A) (A) (A) (A)
       Virtual   (A) (A) (A) (A) (A) (A) (A) (A) (A) (A) (A) (A)
                 (A) (A) (A) (A) (A) (A) (A) (A) (A) (A) (A) (A)
                 (A) (A) (A) (A) (A) (A) (A) (A) (A) (A) (A) (A)
                 (A) (A) (A) (A) (A) (A) (A) (A) (A) (A) (A) (A)
                 (A) (A) (A) (A) (A) (A) (A) (A) (A) (A) (A) (A)
                 (A) (A) (A) (A) (A) (A) (A) (A) (A) (A) (A) (A)
                 (A) (A) (A) (A) (A) (A) (A) (A) (A) (A) (A) (A)
                 (A) (A) (A) (A) (A) (A) (A) (A) (A) (A) (A) (A)
                 (A) (A) (A) (A) (A) (A) (A) (A) (A) (A) (A) (A)
                 (A) (A) (A) (A) (A) (A) (A) (A) (A) (A) (A) (A)
                 (A) (A) (A) (A) (A) (A) (A) (A) (A) (A) (A) (A)
                 (A) (A) (A) (A) (A) (A) (A) (A) (A) (A) (A) (A)
                 (A) (A) (A) (A) (A) (A) (A) (A) (A) (A) (A) (A)
                 (A) (A) (A) (A) (A) (A) (A) (A) (A) (A) (A) (A)
                 (A) (A) (A) (A) (A) (A) (A) (A) (A) (A) (A) (A)
                 (A) (A)
 The electronic state is 1-A.
 Alpha  occ. eigenvalues --  -19.22496 -19.17114 -19.16645 -19.15094 -14.45660
 Alpha  occ. eigenvalues --  -10.34505 -10.28082 -10.25573 -10.24433 -10.21431
 Alpha  occ. eigenvalues --  -10.19562 -10.18749 -10.18141 -10.18002  -1.16251
 Alpha  occ. eigenvalues --   -1.06139  -1.03877  -1.03716  -1.01443  -0.86973
 Alpha  occ. eigenvalues --   -0.80641  -0.75594  -0.74070  -0.68970  -0.63662
 Alpha  occ. eigenvalues --   -0.62983  -0.60265  -0.60091  -0.58127  -0.54694
 Alpha  occ. eigenvalues --   -0.53226  -0.52535  -0.51072  -0.50321  -0.48671
 Alpha  occ. eigenvalues --   -0.47510  -0.45815  -0.43799  -0.43163  -0.42609
 Alpha  occ. eigenvalues --   -0.40725  -0.39828  -0.39023  -0.38388  -0.35884
 Alpha  occ. eigenvalues --   -0.34145  -0.33619  -0.33126  -0.31189  -0.29259
 Alpha  occ. eigenvalues --   -0.25085  -0.21541
 Alpha virt. eigenvalues --   -0.01456   0.00077   0.00515   0.05918   0.08433
 Alpha virt. eigenvalues --    0.08666   0.09518   0.10254   0.11161   0.12660
 Alpha virt. eigenvalues --    0.13464   0.14252   0.15173   0.16631   0.17240
 Alpha virt. eigenvalues --    0.18320   0.18936   0.20491   0.24132   0.24593
 Alpha virt. eigenvalues --    0.24831   0.27193   0.30799   0.34223   0.34621
 Alpha virt. eigenvalues --    0.35973   0.37180   0.38933   0.46768   0.49604
 Alpha virt. eigenvalues --    0.50746   0.52304   0.52345   0.54026   0.54935
 Alpha virt. eigenvalues --    0.56410   0.57637   0.58664   0.58818   0.59743
 Alpha virt. eigenvalues --    0.60550   0.61831   0.62485   0.65022   0.65841
 Alpha virt. eigenvalues --    0.66423   0.67149   0.68948   0.70087   0.73173
 Alpha virt. eigenvalues --    0.75336   0.76233   0.77035   0.78879   0.79479
 Alpha virt. eigenvalues --    0.79894   0.80446   0.81487   0.82558   0.83312
 Alpha virt. eigenvalues --    0.85119   0.86011   0.86712   0.87580   0.88094
 Alpha virt. eigenvalues --    0.90780   0.91453   0.91969   0.93628   0.93893
 Alpha virt. eigenvalues --    0.96016   0.97183   0.97867   0.98118   0.99137
 Alpha virt. eigenvalues --    1.02270   1.03233   1.05451   1.06519   1.07518
 Alpha virt. eigenvalues --    1.08803   1.09499   1.12296   1.16499   1.19837
 Alpha virt. eigenvalues --    1.20276   1.20806   1.26183   1.27443   1.30885
 Alpha virt. eigenvalues --    1.35469   1.37348   1.38059   1.41144   1.42155
 Alpha virt. eigenvalues --    1.43504   1.44963   1.46343   1.47392   1.52040
 Alpha virt. eigenvalues --    1.52824   1.56097   1.63410   1.66600   1.68652
 Alpha virt. eigenvalues --    1.69690   1.70760   1.73067   1.73918   1.76785
 Alpha virt. eigenvalues --    1.79183   1.80363   1.80648   1.81725   1.83611
 Alpha virt. eigenvalues --    1.85791   1.86746   1.87282   1.89826   1.91021
 Alpha virt. eigenvalues --    1.92459   1.93554   1.96424   1.99135   1.99271
 Alpha virt. eigenvalues --    2.02846   2.05583   2.07730   2.09496   2.12792
 Alpha virt. eigenvalues --    2.15049   2.16259   2.19072   2.24536   2.24804
 Alpha virt. eigenvalues --    2.28585   2.29606   2.31077   2.33420   2.33867
 Alpha virt. eigenvalues --    2.35546   2.36931   2.37585   2.41822   2.44902
 Alpha virt. eigenvalues --    2.48260   2.48716   2.52771   2.53737   2.58434
 Alpha virt. eigenvalues --    2.59457   2.62528   2.63603   2.68108   2.70934
 Alpha virt. eigenvalues --    2.71367   2.76858   2.78912   2.82109   2.85353
 Alpha virt. eigenvalues --    2.88006   2.89826   2.93761   2.96822   3.01402
 Alpha virt. eigenvalues --    3.10116   3.20587   3.46903   3.75705   3.82125
 Alpha virt. eigenvalues --    3.86517   4.03735   4.10142   4.15284   4.16795
 Alpha virt. eigenvalues --    4.24284   4.31507   4.35758   4.40741   4.55603
 Alpha virt. eigenvalues --    4.60288   4.86995
          Condensed to atoms (all electrons):
               1          2          3          4          5          6
     1  N    6.714426   0.300607   0.303170   0.210066  -0.033464   0.000551
     2  H    0.300607   0.262698  -0.008727  -0.017088  -0.000274   0.000213
     3  H    0.303170  -0.008727   0.259259  -0.017415   0.003097  -0.000045
     4  C    0.210066  -0.017088  -0.017415   5.220808   0.300948  -0.076438
     5  C   -0.033464  -0.000274   0.003097   0.300948   4.308673   0.342963
     6  O    0.000551   0.000213  -0.000045  -0.076438   0.342963   8.101622
     7  H   -0.000198  -0.000037   0.000005   0.009975  -0.008177   0.227648
     8  O    0.000002   0.001049   0.000079  -0.095562   0.548028  -0.093586
     9  H   -0.034962  -0.001096  -0.003684   0.355459  -0.033082   0.005702
    10  C   -0.039017   0.002863  -0.000239   0.331652  -0.030796  -0.001011
    11  H   -0.002316  -0.000053  -0.000237  -0.028613  -0.006031   0.000118
    12  H   -0.000932  -0.000047   0.002036  -0.034457   0.003855  -0.000064
    13  C    0.002619  -0.000051   0.000011  -0.034386  -0.001598   0.001709
    14  C    0.000006  -0.000001  -0.000002  -0.006947   0.005539  -0.000454
    15  H   -0.000028   0.000001  -0.000001   0.000213   0.001525  -0.000381
    16  C    0.000001  -0.000000  -0.000000  -0.000232  -0.000105  -0.000089
    17  O   -0.000000   0.000000   0.000000   0.000000  -0.000001   0.000000
    18  H    0.000000   0.000000   0.000000   0.000000  -0.000002   0.000000
    19  C   -0.000000  -0.000000  -0.000000   0.000011   0.000026   0.000001
    20  O   -0.000000  -0.000000  -0.000000   0.000000   0.000000  -0.000000
    21  H   -0.000000   0.000000  -0.000000   0.000000   0.000000   0.000000
    22  C    0.000001  -0.000000   0.000000   0.000084  -0.000056  -0.000011
    23  H   -0.000000   0.000000  -0.000000  -0.000003  -0.000001  -0.000000
    24  C    0.000066   0.000000   0.000008  -0.001687  -0.000915   0.000007
    25  H   -0.000076   0.000003   0.000012   0.000035   0.000170  -0.000013
    26  H    0.294530  -0.009557  -0.009679  -0.018325  -0.002344   0.000118
               7          8          9         10         11         12
     1  N   -0.000198   0.000002  -0.034962  -0.039017  -0.002316  -0.000932
     2  H   -0.000037   0.001049  -0.001096   0.002863  -0.000053  -0.000047
     3  H    0.000005   0.000079  -0.003684  -0.000239  -0.000237   0.002036
     4  C    0.009975  -0.095562   0.355459   0.331652  -0.028613  -0.034457
     5  C   -0.008177   0.548028  -0.033082  -0.030796  -0.006031   0.003855
     6  O    0.227648  -0.093586   0.005702  -0.001011   0.000118  -0.000064
     7  H    0.284135   0.011676  -0.000652  -0.000262  -0.000022   0.000007
     8  O    0.011676   8.132251   0.003661   0.001375   0.003066   0.000013
     9  H   -0.000652   0.003661   0.506949  -0.034527   0.004307  -0.003971
    10  C   -0.000262   0.001375  -0.034527   5.176947   0.361215   0.368259
    11  H   -0.000022   0.003066   0.004307   0.361215   0.532811  -0.035049
    12  H    0.000007   0.000013  -0.003971   0.368259  -0.035049   0.526921
    13  C    0.000110  -0.002289  -0.001848   0.332710  -0.029688  -0.024435
    14  C    0.000041  -0.000109   0.000544  -0.041330  -0.002476   0.002298
    15  H    0.000030   0.002094   0.000033  -0.011681   0.005234   0.000179
    16  C   -0.000012   0.000013   0.000008   0.005861   0.000303  -0.000139
    17  O    0.000000  -0.000000   0.000000  -0.000079  -0.000002   0.000001
    18  H    0.000000  -0.000001   0.000000  -0.000021   0.000004   0.000000
    19  C   -0.000001   0.000001  -0.000007   0.000646  -0.000005   0.000025
    20  O    0.000000   0.000000  -0.000000   0.000001  -0.000000  -0.000000
    21  H   -0.000000   0.000000  -0.000000   0.000000  -0.000000  -0.000000
    22  C   -0.000001  -0.000000  -0.000190   0.007296  -0.000188   0.000149
    23  H    0.000000  -0.000000   0.000007  -0.000259   0.000004  -0.000005
    24  C    0.000022  -0.000018   0.003725  -0.062030   0.003627  -0.004794
    25  H    0.000001  -0.000000   0.001688  -0.008460   0.000042   0.003136
    26  H   -0.000018   0.006813   0.003897  -0.002843   0.003839  -0.000510
              13         14         15         16         17         18
     1  N    0.002619   0.000006  -0.000028   0.000001  -0.000000   0.000000
     2  H   -0.000051  -0.000001   0.000001  -0.000000   0.000000   0.000000
     3  H    0.000011  -0.000002  -0.000001  -0.000000   0.000000   0.000000
     4  C   -0.034386  -0.006947   0.000213  -0.000232   0.000000   0.000000
     5  C   -0.001598   0.005539   0.001525  -0.000105  -0.000001  -0.000002
     6  O    0.001709  -0.000454  -0.000381  -0.000089   0.000000   0.000000
     7  H    0.000110   0.000041   0.000030  -0.000012   0.000000   0.000000
     8  O   -0.002289  -0.000109   0.002094   0.000013  -0.000000  -0.000001
     9  H   -0.001848   0.000544   0.000033   0.000008   0.000000   0.000000
    10  C    0.332710  -0.041330  -0.011681   0.005861  -0.000079  -0.000021
    11  H   -0.029688  -0.002476   0.005234   0.000303  -0.000002   0.000004
    12  H   -0.024435   0.002298   0.000179  -0.000139   0.000001   0.000000
    13  C    4.706100   0.499676  -0.040653  -0.013379   0.005281   0.000530
    14  C    0.499676   5.192129   0.349078   0.478846  -0.054025  -0.002634
    15  H   -0.040653   0.349078   0.559659  -0.036829  -0.005114   0.004545
    16  C   -0.013379   0.478846  -0.036829   4.670727   0.256861  -0.022472
    17  O    0.005281  -0.054025  -0.005114   0.256861   8.288358   0.246634
    18  H    0.000530  -0.002634   0.004545  -0.022472   0.246634   0.305892
    19  C   -0.032488  -0.062787   0.003898   0.490412  -0.046177   0.004544
    20  O    0.000004   0.003584  -0.000038  -0.047117   0.000735  -0.000085
    21  H    0.000128  -0.000251   0.000003   0.003283  -0.000048   0.000004
    22  C   -0.016874  -0.044962  -0.000049  -0.054910   0.002988  -0.000194
    23  H    0.004878   0.000843   0.000016   0.005049  -0.000047   0.000003
    24  C    0.548371  -0.058530   0.006928  -0.039096   0.000431   0.000022
    25  H   -0.043990   0.006227  -0.000183   0.000368   0.000002  -0.000000
    26  H   -0.000026   0.000009   0.000002   0.000000  -0.000000   0.000000
              19         20         21         22         23         24
     1  N   -0.000000  -0.000000  -0.000000   0.000001  -0.000000   0.000066
     2  H   -0.000000  -0.000000   0.000000  -0.000000   0.000000   0.000000
     3  H   -0.000000  -0.000000  -0.000000   0.000000  -0.000000   0.000008
     4  C    0.000011   0.000000   0.000000   0.000084  -0.000003  -0.001687
     5  C    0.000026   0.000000   0.000000  -0.000056  -0.000001  -0.000915
     6  O    0.000001  -0.000000   0.000000  -0.000011  -0.000000   0.000007
     7  H   -0.000001   0.000000  -0.000000  -0.000001   0.000000   0.000022
     8  O    0.000001   0.000000   0.000000  -0.000000  -0.000000  -0.000018
     9  H   -0.000007  -0.000000  -0.000000  -0.000190   0.000007   0.003725
    10  C    0.000646   0.000001   0.000000   0.007296  -0.000259  -0.062030
    11  H   -0.000005  -0.000000  -0.000000  -0.000188   0.000004   0.003627
    12  H    0.000025  -0.000000  -0.000000   0.000149  -0.000005  -0.004794
    13  C   -0.032488   0.000004   0.000128  -0.016874   0.004878   0.548371
    14  C   -0.062787   0.003584  -0.000251  -0.044962   0.000843  -0.058530
    15  H    0.003898  -0.000038   0.000003  -0.000049   0.000016   0.006928
    16  C    0.490412  -0.047117   0.003283  -0.054910   0.005049  -0.039096
    17  O   -0.046177   0.000735  -0.000048   0.002988  -0.000047   0.000431
    18  H    0.004544  -0.000085   0.000004  -0.000194   0.000003   0.000022
    19  C    4.652807   0.253979  -0.027481   0.518088  -0.045271  -0.030503
    20  O    0.253979   8.287350   0.252808  -0.064339  -0.005590   0.007575
    21  H   -0.027481   0.252808   0.310065  -0.006315   0.003444   0.000013
    22  C    0.518088  -0.064339  -0.006315   5.090163   0.353973   0.456649
    23  H   -0.045271  -0.005590   0.003444   0.353973   0.573404  -0.034919
    24  C   -0.030503   0.007575   0.000013   0.456649  -0.034919   5.043232
    25  H    0.004328  -0.000093  -0.000019  -0.035813  -0.007096   0.355587
    26  H   -0.000000  -0.000000  -0.000000  -0.000000   0.000000  -0.000001
              25         26
     1  N   -0.000076   0.294530
     2  H    0.000003  -0.009557
     3  H    0.000012  -0.009679
     4  C    0.000035  -0.018325
     5  C    0.000170  -0.002344
     6  O   -0.000013   0.000118
     7  H    0.000001  -0.000018
     8  O   -0.000000   0.006813
     9  H    0.001688   0.003897
    10  C   -0.008460  -0.002843
    11  H    0.000042   0.003839
    12  H    0.003136  -0.000510
    13  C   -0.043990  -0.000026
    14  C    0.006227   0.000009
    15  H   -0.000183   0.000002
    16  C    0.000368   0.000000
    17  O    0.000002  -0.000000
    18  H   -0.000000   0.000000
    19  C    0.004328  -0.000000
    20  O   -0.000093  -0.000000
    21  H   -0.000019  -0.000000
    22  C   -0.035813  -0.000000
    23  H   -0.007096   0.000000
    24  C    0.355587  -0.000001
    25  H    0.575897  -0.000001
    26  H   -0.000001   0.271809
 Mulliken charges:
               1
     1  N   -0.715052
     2  H    0.469498
     3  H    0.472351
     4  C   -0.098099
     5  C    0.602025
     6  O   -0.508561
     7  H    0.475731
     8  O   -0.518556
     9  H    0.228040
    10  C   -0.356270
    11  H    0.190109
    12  H    0.197525
    13  C    0.139579
    14  C   -0.264312
    15  H    0.161518
    16  C    0.302648
    17  O   -0.695800
    18  H    0.463230
    19  C    0.315954
    20  O   -0.688774
    21  H    0.464365
    22  C   -0.205490
    23  H    0.151571
    24  C   -0.193770
    25  H    0.148250
    26  H    0.462288
 Sum of Mulliken charges =   1.00000
 Mulliken charges with hydrogens summed into heavy atoms:
               1
     1  N    0.689085
     4  C    0.129941
     5  C    0.602025
     6  O   -0.032829
     8  O   -0.518556
    10  C    0.031365
    13  C    0.139579
    14  C   -0.102794
    16  C    0.302648
    17  O   -0.232570
    19  C    0.315954
    20  O   -0.224409
    22  C   -0.053919
    24  C   -0.045521
 Electronic spatial extent (au):  <R**2>=           3217.4117
 Charge=              1.0000 electrons
 Dipole moment (field-independent basis, Debye):
    X=            -16.9810    Y=             -6.4283    Z=             -1.7186  Tot=             18.2382
 Quadrupole moment (field-independent basis, Debye-Ang):
   XX=            -24.1707   YY=            -58.0636   ZZ=            -72.7305
   XY=             12.1969   XZ=              0.5153   YZ=              4.0419
 Traceless Quadrupole moment (field-independent basis, Debye-Ang):
   XX=             27.4842   YY=             -6.4087   ZZ=            -21.0756
   XY=             12.1969   XZ=              0.5153   YZ=              4.0419
 Octapole moment (field-independent basis, Debye-Ang**2):
  XXX=           -270.9612  YYY=              7.0011  ZZZ=              0.6906  XYY=            -10.6739
  XXY=           -128.8955  XXZ=            -20.3779  XZZ=            -33.4989  YZZ=             14.0493
  YYZ=              5.6266  XYZ=            -27.3248
 Hexadecapole moment (field-independent basis, Debye-Ang**3):
 XXXX=          -1853.3358 YYYY=           -562.6901 ZZZZ=           -351.5431 XXXY=             99.3783
 XXXZ=             24.4567 YYYX=             78.3137 YYYZ=              3.5564 ZZZX=             -0.9037
 ZZZY=             25.0928 XXYY=           -439.2398 XXZZ=           -477.1028 YYZZ=           -131.4628
 XXYZ=             53.8436 YYXZ=            -18.7798 ZZXY=             -2.4150
 N-N= 9.098625187619D+02 E-N=-3.452658836621D+03  KE= 6.997495423828D+02
 No NMR shielding tensors so no spin-rotation constants.
 Leave Link  601 at Sun Jul 18 13:47:29 2021, MaxMem=   104857600 cpu:               0.6 elap:               0.2
 (Enter /prod/apps/gaussian/g16b1/l701.exe)
 ... and contract with generalized density number  0.
 Compute integral first derivatives.
 D1PCM: PCM CHGder 1st derivatives, ID1Alg=3 FixD1E=F DoIter=F DoCFld=F I1PDM=0.
 GePol: Maximum number of non-zero 1st derivatives   =     289
 Leave Link  701 at Sun Jul 18 13:47:31 2021, MaxMem=   104857600 cpu:               6.4 elap:               1.6
 (Enter /prod/apps/gaussian/g16b1/l702.exe)
 L702 exits ... SP integral derivatives will be done elsewhere.
 Leave Link  702 at Sun Jul 18 13:47:31 2021, MaxMem=   104857600 cpu:               0.1 elap:               0.0
 (Enter /prod/apps/gaussian/g16b1/l703.exe)
 Integral derivatives from FoFJK, PRISM(SPDF).
 Compute integral first derivatives, UseDBF=F ICtDFT=           0.
 Calling FoFJK, ICntrl=      2127 FMM=F ISym2X=0 I1Cent= 0 IOpClX= 0 NMat=1 NMatS=1 NMatT=0.
 FoFJK:  IHMeth= 1 ICntrl=    2127 DoSepK=F KAlg= 0 I1Cent=           0 FoldK=F
 IRaf=         0 NMat=       1 IRICut=       1 DoRegI=T DoRafI=F ISym2E= 0 IDoP0=0 IntGTp=1.
 FoFCou: FMM=F IPFlag=           0 FMFlag=      100000 FMFlg1=         800
         NFxFlg=           0 DoJE=F BraDBF=F KetDBF=F FulRan=T
         wScrn=  0.000000 ICntrl=      2127 IOpCl=  0 I1Cent=           0 NGrid=           0
         NMat0=    1 NMatS0=      1 NMatT0=    0 NMatD0=    1 NMtDS0=    0 NMtDT0=    0
 Symmetry not used in FoFCou.
 Leave Link  703 at Sun Jul 18 13:47:40 2021, MaxMem=   104857600 cpu:              38.4 elap:               9.6
 (Enter /prod/apps/gaussian/g16b1/l716.exe)
 Dipole        =-6.68083612D+00-2.52907485D+00-6.76146514D-01
 ***** Axes restored to original set *****
 -------------------------------------------------------------------
 Center     Atomic                   Forces (Hartrees/Bohr)
 Number     Number              X              Y              Z
 -------------------------------------------------------------------
      1        7           0.035826623    0.006752616   -0.025706634
      2        1           0.006224748   -0.016165176    0.025189534
      3        1          -0.024876561   -0.013473438   -0.009698204
      4        6           0.020018116   -0.006728750   -0.016760044
      5        6          -0.081950854    0.046334130    0.017170500
      6        8           0.038557151   -0.042168241   -0.021704582
      7        1           0.018362866   -0.001413869   -0.000640249
      8        8          -0.004387738    0.007783190    0.009622206
      9        1          -0.006099943   -0.000414621    0.000683116
     10        6           0.008963827   -0.002706441    0.001969305
     11        1           0.006576904   -0.000718220    0.007126027
     12        1          -0.000382451   -0.007607485    0.001387504
     13        6          -0.047361017   -0.030381251    0.023932852
     14        6           0.027676052    0.019933122    0.004196348
     15        1          -0.000660718    0.008092708   -0.007598850
     16        6           0.015138448    0.018922082   -0.018256138
     17        8           0.000101575   -0.019725725   -0.009824492
     18        1          -0.004982958   -0.005087771    0.000649200
     19        6           0.010792681    0.027236606    0.020585695
     20        8           0.017355312    0.022170223   -0.017991957
     21        1           0.006882132   -0.001514587   -0.005797355
     22        6          -0.021935779   -0.033342110   -0.009541245
     23        1           0.007036251    0.003248706   -0.002565657
     24        6          -0.015055487   -0.009771302    0.017288277
     25        1          -0.001426650    0.002945769    0.001866077
     26        1          -0.010392528    0.027799833    0.014418768
 -------------------------------------------------------------------
 Cartesian Forces:  Max     0.081950854 RMS     0.019836623
 Leave Link  716 at Sun Jul 18 13:47:40 2021, MaxMem=   104857600 cpu:               0.1 elap:               0.0
 (Enter /prod/apps/gaussian/g16b1/l103.exe)

 GradGradGradGradGradGradGradGradGradGradGradGradGradGradGradGradGradGrad
 Berny optimization.
 FormGI is forming the generalized inverse of G from B-inverse, IUseBI=4.
 Internal  Forces:  Max     0.074667898 RMS     0.014073693
 Search for a local minimum.
 Step number   1 out of a maximum of  138
 All quantities printed in internal units (Hartrees-Bohrs-Radians)
 RMS Force = .14074D-01 SwitMx=.10000D-02 MixMth= 1
 Mixed Optimization -- RFO/linear search
 Second derivative matrix not updated -- first step.
 ITU=  0
     Eigenvalues ---    0.00230   0.00230   0.00305   0.00371   0.01112
     Eigenvalues ---    0.01691   0.01789   0.01914   0.02055   0.02185
     Eigenvalues ---    0.02350   0.02429   0.02478   0.02586   0.02643
     Eigenvalues ---    0.02696   0.03528   0.03559   0.04025   0.04691
     Eigenvalues ---    0.05190   0.05760   0.05763   0.05765   0.09076
     Eigenvalues ---    0.12617   0.15868   0.15884   0.15998   0.16000
     Eigenvalues ---    0.16000   0.16000   0.16000   0.16000   0.16000
     Eigenvalues ---    0.17048   0.18358   0.21752   0.22304   0.23478
     Eigenvalues ---    0.24514   0.24823   0.24962   0.24994   0.25000
     Eigenvalues ---    0.25000   0.25906   0.26965   0.29437   0.31874
     Eigenvalues ---    0.34465   0.34573   0.34618   0.35101   0.35169
     Eigenvalues ---    0.35178   0.39191   0.44931   0.46669   0.46855
     Eigenvalues ---    0.47580   0.47758   0.47771   0.50849   0.52539
     Eigenvalues ---    0.52589   0.52705   0.53022   0.54977   0.55208
     Eigenvalues ---    0.79239   0.95712
 RFO step:  Lambda=-5.70285647D-02 EMin= 2.30000000D-03
 Linear search not attempted -- first point.
 Maximum step size (   0.300) exceeded in Quadratic search.
    -- Step size scaled by   0.802
 Iteration  1 RMS(Cart)=  0.07691695 RMS(Int)=  0.00287570
 Iteration  2 RMS(Cart)=  0.00407384 RMS(Int)=  0.00024884
 Iteration  3 RMS(Cart)=  0.00001566 RMS(Int)=  0.00024869
 Iteration  4 RMS(Cart)=  0.00000000 RMS(Int)=  0.00024869
 ITry= 1 IFail=0 DXMaxC= 4.00D-01 DCOld= 1.00D+10 DXMaxT= 3.00D-01 DXLimC= 3.00D+00 Rises=F
 Variable       Old X    -DE/DX   Delta X   Delta X   Delta X     New X
                                 (Linear)    (Quad)   (Total)
    R1        1.89089   0.03004   0.00000   0.04525   0.04525   1.93614
    R2        1.88884   0.02984   0.00000   0.04478   0.04478   1.93362
    R3        2.84375  -0.00225   0.00000  -0.00481  -0.00481   2.83894
    R4        1.88897   0.03273   0.00000   0.04913   0.04913   1.93810
    R5        2.96958  -0.02132   0.00000  -0.05413  -0.05413   2.91544
    R6        2.06373  -0.00079   0.00000  -0.00157  -0.00157   2.06216
    R7        2.94459  -0.01318   0.00000  -0.03238  -0.03238   2.91221
    R8        2.38328   0.07467   0.00000   0.07054   0.07054   2.45382
    R9        2.30407   0.01198   0.00000   0.00948   0.00948   2.31354
   R10        1.84087   0.01176   0.00000   0.01621   0.01621   1.85708
   R11        2.06553   0.00064   0.00000   0.00127   0.00127   2.06680
   R12        2.06300   0.00199   0.00000   0.00395   0.00395   2.06695
   R13        2.89100  -0.00196   0.00000  -0.00448  -0.00448   2.88652
   R14        2.54342   0.05320   0.00000   0.06938   0.06950   2.61292
   R15        2.61887   0.01298   0.00000   0.02158   0.02172   2.64059
   R16        2.05402  -0.00079   0.00000  -0.00155  -0.00155   2.05246
   R17        2.62625   0.01347   0.00000   0.01815   0.01810   2.64435
   R18        2.63179  -0.02166   0.00000  -0.03307  -0.03307   2.59872
   R19        2.70702  -0.02383   0.00000  -0.04387  -0.04403   2.66299
   R20        1.84040  -0.00269   0.00000  -0.00370  -0.00370   1.83670
   R21        2.55153   0.03193   0.00000   0.04223   0.04223   2.59376
   R22        2.55937   0.05040   0.00000   0.06772   0.06765   2.62701
   R23        1.83930  -0.00089   0.00000  -0.00123  -0.00123   1.83808
   R24        2.05512  -0.00125   0.00000  -0.00246  -0.00246   2.05266
   R25        2.56511   0.03952   0.00000   0.05555   0.05559   2.62070
   R26        2.05387  -0.00127   0.00000  -0.00249  -0.00249   2.05138
    A1        1.91064  -0.00360   0.00000  -0.01335  -0.01341   1.89723
    A2        1.91052   0.00642   0.00000   0.02410   0.02397   1.93450
    A3        1.91051  -0.00472   0.00000  -0.01664  -0.01684   1.89367
    A4        1.91056   0.00077   0.00000   0.00245   0.00242   1.91298
    A5        1.91067  -0.00249   0.00000  -0.00996  -0.00997   1.90070
    A6        1.91090   0.00362   0.00000   0.01339   0.01328   1.92418
    A7        1.93258  -0.00821   0.00000  -0.03759  -0.03769   1.89489
    A8        1.86942   0.00005   0.00000   0.00221   0.00256   1.87198
    A9        1.94513   0.00358   0.00000   0.00114   0.00062   1.94575
   A10        1.84467   0.00600   0.00000   0.03836   0.03845   1.88312
   A11        1.96621  -0.00007   0.00000  -0.00658  -0.00710   1.95911
   A12        1.90020  -0.00109   0.00000   0.00583   0.00574   1.90595
   A13        2.07970  -0.02600   0.00000  -0.06786  -0.06788   2.01183
   A14        2.06462   0.00817   0.00000   0.02143   0.02141   2.08603
   A15        2.13845   0.01785   0.00000   0.04674   0.04673   2.18517
   A16        1.77759   0.02551   0.00000   0.09432   0.09432   1.87191
   A17        1.97728  -0.00861   0.00000  -0.03819  -0.03830   1.93898
   A18        1.92513  -0.00621   0.00000  -0.02461  -0.02483   1.90030
   A19        1.91845   0.01044   0.00000   0.02736   0.02755   1.94600
   A20        1.80837   0.00645   0.00000   0.03073   0.03025   1.83862
   A21        1.92749  -0.00142   0.00000  -0.00034  -0.00011   1.92739
   A22        1.90357  -0.00103   0.00000   0.00539   0.00558   1.90915
   A23        2.09830   0.00291   0.00000   0.00601   0.00591   2.10421
   A24        2.06429   0.01034   0.00000   0.02531   0.02518   2.08947
   A25        2.11918  -0.01323   0.00000  -0.03094  -0.03073   2.08845
   A26        2.04908   0.00342   0.00000   0.01878   0.01871   2.06780
   A27        2.09491   0.00850   0.00000   0.02061   0.02060   2.11551
   A28        2.13252  -0.01164   0.00000  -0.03726  -0.03737   2.09515
   A29        2.09281   0.01112   0.00000   0.03387   0.03390   2.12671
   A30        2.07213   0.00810   0.00000   0.01384   0.01351   2.08563
   A31        2.11235  -0.01895   0.00000  -0.04503  -0.04505   2.06730
   A32        1.95087  -0.01195   0.00000  -0.04417  -0.04417   1.90670
   A33        2.21716  -0.03510   0.00000  -0.08984  -0.08975   2.12741
   A34        2.06218   0.00034   0.00000  -0.00292  -0.00315   2.05902
   A35        2.00385   0.03477   0.00000   0.09279   0.09286   2.09671
   A36        1.81656   0.01634   0.00000   0.06042   0.06042   1.87698
   A37        2.10798  -0.00726   0.00000  -0.02863  -0.02887   2.07911
   A38        2.13553  -0.00095   0.00000   0.00181   0.00157   2.13710
   A39        2.03152   0.00867   0.00000   0.03104   0.03098   2.06249
   A40        2.07384  -0.00237   0.00000   0.00135   0.00151   2.07535
   A41        2.12858  -0.00213   0.00000  -0.01299  -0.01308   2.11550
   A42        2.08066   0.00450   0.00000   0.01161   0.01153   2.09219
    D1       -0.80026  -0.00293   0.00000  -0.03036  -0.03033  -0.83059
    D2        1.20295  -0.00001   0.00000  -0.00294  -0.00293   1.20002
    D3       -3.00356   0.00073   0.00000   0.00617   0.00602  -2.99754
    D4       -2.89456  -0.00292   0.00000  -0.03027  -0.03021  -2.92477
    D5       -0.89134   0.00000   0.00000  -0.00284  -0.00281  -0.89415
    D6        1.18533   0.00074   0.00000   0.00626   0.00614   1.19147
    D7        1.29407  -0.00256   0.00000  -0.02778  -0.02766   1.26642
    D8       -2.98590   0.00036   0.00000  -0.00035  -0.00026  -2.98616
    D9       -0.90922   0.00110   0.00000   0.00875   0.00869  -0.90053
   D10        2.27103   0.00033   0.00000   0.01349   0.01317   2.28420
   D11       -0.90067   0.00142   0.00000   0.02592   0.02554  -0.87513
   D12        0.25235   0.00099   0.00000   0.00816   0.00843   0.26078
   D13       -2.91936   0.00209   0.00000   0.02059   0.02080  -2.89856
   D14       -1.82065  -0.00142   0.00000  -0.01949  -0.01935  -1.84001
   D15        1.29083  -0.00033   0.00000  -0.00707  -0.00698   1.28384
   D16        1.08252  -0.00363   0.00000  -0.01869  -0.01856   1.06395
   D17       -0.93547  -0.00233   0.00000  -0.01747  -0.01774  -0.95321
   D18       -3.03510  -0.00378   0.00000  -0.02603  -0.02610  -3.06120
   D19       -1.10216   0.00455   0.00000   0.03559   0.03582  -1.06634
   D20       -3.12015   0.00585   0.00000   0.03681   0.03665  -3.08351
   D21        1.06341   0.00439   0.00000   0.02825   0.02829   1.09170
   D22        3.14075  -0.00213   0.00000  -0.01165  -0.01142   3.12933
   D23        1.12276  -0.00083   0.00000  -0.01044  -0.01060   1.11216
   D24       -0.97686  -0.00228   0.00000  -0.01900  -0.01896  -0.99582
   D25       -3.08224  -0.00224   0.00000  -0.01727  -0.01719  -3.09943
   D26        0.09080  -0.00316   0.00000  -0.02967  -0.02975   0.06106
   D27       -1.81833   0.00098   0.00000   0.00980   0.00998  -1.80835
   D28        1.37957   0.00084   0.00000   0.00323   0.00312   1.38269
   D29        0.37589  -0.00358   0.00000  -0.01980  -0.01964   0.35625
   D30       -2.70940  -0.00372   0.00000  -0.02636  -0.02650  -2.73590
   D31        2.35223   0.00280   0.00000   0.01971   0.01981   2.37204
[...]
 Alpha  occ. eigenvalues --   -0.44778  -0.41214
 Alpha virt. eigenvalues --   -0.10834  -0.07438  -0.07047  -0.05892  -0.04232
 Alpha virt. eigenvalues --   -0.03903  -0.03570  -0.03455  -0.02717  -0.01936
 Alpha virt. eigenvalues --   -0.01308  -0.00859  -0.00128   0.00089   0.00213
 Alpha virt. eigenvalues --    0.00938   0.01362   0.01835   0.02253   0.02756
 Alpha virt. eigenvalues --    0.02858   0.03627   0.03858   0.04097   0.04810
 Alpha virt. eigenvalues --    0.05168   0.05860   0.06190   0.06290   0.06646
 Alpha virt. eigenvalues --    0.06967   0.07351   0.07669   0.08121   0.08478
 Alpha virt. eigenvalues --    0.08939   0.09505   0.09979   0.10323   0.10990
 Alpha virt. eigenvalues --    0.11140   0.11817   0.12757   0.13047   0.13617
 Alpha virt. eigenvalues --    0.13720   0.14255   0.14727   0.15299   0.15586
 Alpha virt. eigenvalues --    0.16057   0.17324   0.17545   0.18188   0.18861
 Alpha virt. eigenvalues --    0.19430   0.19759   0.20305   0.20873   0.21290
 Alpha virt. eigenvalues --    0.21323   0.22082   0.22731   0.22975   0.23281
 Alpha virt. eigenvalues --    0.23807   0.24020   0.24316   0.24658   0.25098
 Alpha virt. eigenvalues --    0.25811   0.26183   0.26664   0.26888   0.27220
 Alpha virt. eigenvalues --    0.27935   0.28919   0.28982   0.29358   0.29858
 Alpha virt. eigenvalues --    0.30581   0.31725   0.32221   0.32580   0.33477
 Alpha virt. eigenvalues --    0.33982   0.34165   0.34899   0.35151   0.35650
 Alpha virt. eigenvalues --    0.35741   0.36298   0.36789   0.37264   0.37675
 Alpha virt. eigenvalues --    0.39088   0.39271   0.39630   0.39817   0.40065
 Alpha virt. eigenvalues --    0.41416   0.41514   0.42196   0.42486   0.43244
 Alpha virt. eigenvalues --    0.43918   0.44331   0.45235   0.45965   0.46648
 Alpha virt. eigenvalues --    0.47156   0.47458   0.47783   0.48476   0.48939
 Alpha virt. eigenvalues --    0.49429   0.49702   0.50863   0.51438   0.52091
 Alpha virt. eigenvalues --    0.53071   0.53416   0.54655   0.55046   0.55391
 Alpha virt. eigenvalues --    0.56345   0.57120   0.57755   0.58238   0.58415
 Alpha virt. eigenvalues --    0.58768   0.59225   0.60398   0.60734   0.61679
 Alpha virt. eigenvalues --    0.62202   0.62611   0.62853   0.63782   0.63881
 Alpha virt. eigenvalues --    0.64469   0.65156   0.65679   0.66233   0.66757
 Alpha virt. eigenvalues --    0.67928   0.68970   0.69366   0.69932   0.70412
 Alpha virt. eigenvalues --    0.72278   0.72547   0.73401   0.74736   0.74865
 Alpha virt. eigenvalues --    0.75631   0.76869   0.77180   0.78244   0.78571
 Alpha virt. eigenvalues --    0.79579   0.79608   0.80603   0.81237   0.82835
 Alpha virt. eigenvalues --    0.83520   0.84047   0.85013   0.86335   0.86662
 Alpha virt. eigenvalues --    0.87708   0.88016   0.88873   0.89727   0.90529
 Alpha virt. eigenvalues --    0.90850   0.91225   0.92946   0.93679   0.94070
 Alpha virt. eigenvalues --    0.94897   0.95426   0.96628   0.97692   0.98227
 Alpha virt. eigenvalues --    0.99604   1.01211   1.01643   1.01862   1.03694
 Alpha virt. eigenvalues --    1.04408   1.05265   1.07320   1.07477   1.07891
 Alpha virt. eigenvalues --    1.09270   1.10632   1.11696   1.12281   1.15658
 Alpha virt. eigenvalues --    1.16326   1.16713   1.18372   1.19583   1.20240
 Alpha virt. eigenvalues --    1.21060   1.21251   1.22329   1.24618   1.26635
 Alpha virt. eigenvalues --    1.29029   1.29608   1.30263   1.33042   1.33719
 Alpha virt. eigenvalues --    1.34062   1.36416   1.37802   1.38329   1.39581
 Alpha virt. eigenvalues --    1.40684   1.41810   1.42031   1.43609   1.45056
 Alpha virt. eigenvalues --    1.46789   1.47235   1.47656   1.48710   1.50557
 Alpha virt. eigenvalues --    1.53567   1.54539   1.55351   1.57005   1.57547
 Alpha virt. eigenvalues --    1.57858   1.59294   1.60236   1.60950   1.61466
 Alpha virt. eigenvalues --    1.63102   1.63719   1.64632   1.65195   1.67132
 Alpha virt. eigenvalues --    1.67516   1.69791   1.70310   1.70770   1.71508
 Alpha virt. eigenvalues --    1.73306   1.73756   1.73933   1.76160   1.77929
 Alpha virt. eigenvalues --    1.78911   1.79676   1.80387   1.81287   1.82389
 Alpha virt. eigenvalues --    1.83429   1.83656   1.86060   1.87323   1.88693
 Alpha virt. eigenvalues --    1.90313   1.91170   1.91845   1.93049   1.95624
 Alpha virt. eigenvalues --    1.97626   1.98516   1.98700   2.00850   2.02215
 Alpha virt. eigenvalues --    2.02639   2.03639   2.04854   2.05169   2.06908
 Alpha virt. eigenvalues --    2.07625   2.08754   2.09491   2.10096   2.10392
 Alpha virt. eigenvalues --    2.12417   2.13621   2.14624   2.15060   2.16373
 Alpha virt. eigenvalues --    2.17296   2.17822   2.18783   2.20117   2.20702
 Alpha virt. eigenvalues --    2.21285   2.23860   2.25055   2.27114   2.27406
 Alpha virt. eigenvalues --    2.28910   2.30122   2.30842   2.31588   2.31984
 Alpha virt. eigenvalues --    2.34776   2.36295   2.36759   2.38513   2.41366
 Alpha virt. eigenvalues --    2.41538   2.42465   2.43760   2.45361   2.46844
 Alpha virt. eigenvalues --    2.48000   2.49400   2.50710   2.52378   2.53889
 Alpha virt. eigenvalues --    2.55661   2.57202   2.59315   2.62932   2.63835
 Alpha virt. eigenvalues --    2.69508   2.71227   2.74761   2.75652   2.76218
 Alpha virt. eigenvalues --    2.79514   2.83677   2.84658   2.85955   2.90843
 Alpha virt. eigenvalues --    2.92305   2.95510   2.96459   2.98697   3.02982
 Alpha virt. eigenvalues --    3.03365   3.08902   3.11137   3.11806   3.16274
 Alpha virt. eigenvalues --    3.18966   3.20726   3.28810   3.30625   3.37819
 Alpha virt. eigenvalues --    3.38936   3.41884   3.49639   3.54507   3.56034
 Alpha virt. eigenvalues --    3.59428   3.61925   3.63081   3.64058   3.65878
 Alpha virt. eigenvalues --    3.67316   3.68923   3.71001   3.71803   3.73331
 Alpha virt. eigenvalues --    3.73549   3.75401   3.79066   3.86939   3.87652
 Alpha virt. eigenvalues --    3.93621   3.96256   4.02352   4.09605   4.19090
 Alpha virt. eigenvalues --    4.25488   4.38315   4.92476
          Condensed to atoms (all electrons):
               1          2          3          4          5          6
     1  N    7.237183   0.376082   0.395704  -1.450408   0.319669  -0.024287
     2  H    0.376082   0.570905  -0.070385   0.004532  -0.027654  -0.000174
     3  H    0.395704  -0.070385   0.543008   0.009704  -0.011320   0.000265
     4  C   -1.450408   0.004532   0.009704  11.146890  -1.915313   0.030096
     5  C    0.319669  -0.027654  -0.011320  -1.915313   5.717024  -0.092208
     6  O   -0.024287  -0.000174   0.000265   0.030096  -0.092208   8.454748
     7  H    0.005784   0.000012   0.000380  -0.005888  -0.031744   0.328930
     8  O   -0.050998   0.018733  -0.000013   0.087877   0.169526  -0.031833
     9  H   -0.059159  -0.034708  -0.024337  -0.191777   0.082305   0.001206
    10  C    0.046851   0.017236  -0.053920   0.610675  -0.038879   0.034393
    11  H   -0.065715   0.003053  -0.001965   0.016962   0.004931  -0.014587
    12  H    0.025089  -0.002356  -0.003393  -0.259405   0.097738   0.008052
    13  C    0.304161  -0.001260   0.009439  -1.082019   0.291140  -0.120559
    14  C   -0.000379   0.000434   0.013165  -0.912861   0.161382   0.052797
    15  H    0.008633  -0.000652  -0.000635  -0.106111   0.053660   0.010298
    16  C    0.016497   0.001831  -0.002205  -0.142171   0.148291   0.026753
    17  O   -0.000415  -0.000046   0.000073   0.012296  -0.009997  -0.001895
    18  H    0.000071   0.000025  -0.000000   0.000654  -0.000488  -0.000106
    19  C   -0.004076  -0.000706   0.001018  -0.137734   0.014513  -0.002847
    20  O   -0.000029   0.000004   0.000014   0.003521  -0.001288  -0.000344
    21  H    0.000018   0.000001   0.000008  -0.001166   0.000341   0.000067
    22  C    0.028775   0.000437  -0.003929   0.112913   0.039123   0.010898
    23  H    0.000283  -0.000042  -0.000125   0.003036  -0.000674  -0.000702
    24  C    0.021683  -0.003309  -0.009296  -0.448373  -0.159536   0.057834
    25  H    0.018200   0.001739  -0.000089  -0.074058   0.041286   0.002874
    26  H    0.409218  -0.053070  -0.026997  -0.107420  -0.000344   0.001853
               7          8          9         10         11         12
     1  N    0.005784  -0.050998  -0.059159   0.046851  -0.065715   0.025089
     2  H    0.000012   0.018733  -0.034708   0.017236   0.003053  -0.002356
     3  H    0.000380  -0.000013  -0.024337  -0.053920  -0.001965  -0.003393
     4  C   -0.005888   0.087877  -0.191777   0.610675   0.016962  -0.259405
     5  C   -0.031744   0.169526   0.082305  -0.038879   0.004931   0.097738
     6  O    0.328930  -0.031833   0.001206   0.034393  -0.014587   0.008052
     7  H    0.484885  -0.042539  -0.005714  -0.008202  -0.000371   0.001103
     8  O   -0.042539   8.587191  -0.016501   0.018839   0.018548  -0.000901
     9  H   -0.005714  -0.016501   1.469644   0.013312   0.062983  -0.018964
    10  C   -0.008202   0.018839   0.013312   8.049538  -0.072906  -0.074005
    11  H   -0.000371   0.018548   0.062983  -0.072906   1.576454  -0.260633
    12  H    0.001103  -0.000901  -0.018964  -0.074005  -0.260633   1.379854
    13  C    0.027659  -0.024989   0.013389  -0.502900  -0.168117   0.060429
    14  C   -0.012430   0.031573  -0.004968  -1.579196   0.448233  -0.226437
    15  H    0.002744  -0.004167   0.001970   0.085883  -0.068087   0.025889
    16  C   -0.004347  -0.004037  -0.004206   0.033048   0.117565  -0.041136
    17  O    0.000191   0.000278   0.000826   0.023336   0.000360  -0.000139
    18  H   -0.000014   0.000082  -0.000132   0.001239   0.001067  -0.000639
    19  C   -0.003512   0.002599  -0.003157  -0.135289   0.035229   0.012448
    20  O    0.000150   0.000016   0.000739   0.018630   0.001516  -0.000178
    21  H   -0.000045  -0.000001  -0.000400  -0.006962  -0.000127  -0.000148
    22  C    0.003962  -0.006357   0.011918   0.189326  -0.103097   0.111866
    23  H    0.000140  -0.000071   0.001108   0.055942  -0.000812   0.000537
    24  C    0.002148   0.003672  -0.053030  -0.960995  -0.382021   0.310870
    25  H    0.001377   0.000887  -0.029091  -0.077983   0.008717   0.001943
    26  H   -0.000353   0.002435   0.013293  -0.002911   0.000717  -0.000750
              13         14         15         16         17         18
     1  N    0.304161  -0.000379   0.008633   0.016497  -0.000415   0.000071
     2  H   -0.001260   0.000434  -0.000652   0.001831  -0.000046   0.000025
     3  H    0.009439   0.013165  -0.000635  -0.002205   0.000073  -0.000000
     4  C   -1.082019  -0.912861  -0.106111  -0.142171   0.012296   0.000654
     5  C    0.291140   0.161382   0.053660   0.148291  -0.009997  -0.000488
     6  O   -0.120559   0.052797   0.010298   0.026753  -0.001895  -0.000106
     7  H    0.027659  -0.012430   0.002744  -0.004347   0.000191  -0.000014
     8  O   -0.024989   0.031573  -0.004167  -0.004037   0.000278   0.000082
     9  H    0.013389  -0.004968   0.001970  -0.004206   0.000826  -0.000132
    10  C   -0.502900  -1.579196   0.085883   0.033048   0.023336   0.001239
    11  H   -0.168117   0.448233  -0.068087   0.117565   0.000360   0.001067
    12  H    0.060429  -0.226437   0.025889  -0.041136  -0.000139  -0.000639
    13  C   18.270180  -6.136106   1.059132   2.600663  -0.099498   0.005720
    14  C   -6.136106  21.347927  -1.936005  -5.907060   0.601542  -0.061020
    15  H    1.059132  -1.936005   2.360196   0.760484  -0.141386   0.013434
    16  C    2.600663  -5.907060   0.760484  14.012824  -1.047854   0.002380
    17  O   -0.099498   0.601542  -0.141386  -1.047854   9.115465   0.270243
    18  H    0.005720  -0.061020   0.013434   0.002380   0.270243   0.561752
    19  C   -5.507474   4.009029  -0.453055  -3.381059   0.311958  -0.020786
    20  O    0.270660  -0.230007  -0.008483   0.365201  -0.077544   0.012242
    21  H   -0.052322   0.074779  -0.001126  -0.128358   0.012708  -0.001523
    22  C    2.774932  -6.065074   0.199774   3.589650  -0.255944   0.055296
    23  H   -0.327419   0.133847   0.015892  -0.249108  -0.003962  -0.001683
    24  C   -7.722380   1.482519  -0.045583  -5.243777   0.183781  -0.038527
    25  H    0.963478  -0.019655  -0.029046   0.139774   0.002870   0.000446
    26  H    0.018722  -0.005318   0.002731   0.000024  -0.000079  -0.000079
              19         20         21         22         23         24
     1  N   -0.004076  -0.000029   0.000018   0.028775   0.000283   0.021683
     2  H   -0.000706   0.000004   0.000001   0.000437  -0.000042  -0.003309
     3  H    0.001018   0.000014   0.000008  -0.003929  -0.000125  -0.009296
     4  C   -0.137734   0.003521  -0.001166   0.112913   0.003036  -0.448373
     5  C    0.014513  -0.001288   0.000341   0.039123  -0.000674  -0.159536
     6  O   -0.002847  -0.000344   0.000067   0.010898  -0.000702   0.057834
     7  H   -0.003512   0.000150  -0.000045   0.003962   0.000140   0.002148
     8  O    0.002599   0.000016  -0.000001  -0.006357  -0.000071   0.003672
     9  H   -0.003157   0.000739  -0.000400   0.011918   0.001108  -0.053030
    10  C   -0.135289   0.018630  -0.006962   0.189326   0.055942  -0.960995
    11  H    0.035229   0.001516  -0.000127  -0.103097  -0.000812  -0.382021
    12  H    0.012448  -0.000178  -0.000148   0.111866   0.000537   0.310870
    13  C   -5.507474   0.270660  -0.052322   2.774932  -0.327419  -7.722380
    14  C    4.009029  -0.230007   0.074779  -6.065074   0.133847   1.482519
    15  H   -0.453055  -0.008483  -0.001126   0.199774   0.015892  -0.045583
    16  C   -3.381059   0.365201  -0.128358   3.589650  -0.249108  -5.243777
    17  O    0.311958  -0.077544   0.012708  -0.255944  -0.003962   0.183781
    18  H   -0.020786   0.012242  -0.001523   0.055296  -0.001683  -0.038527
    19  C   12.896589  -1.140899   0.047414  -5.902759   1.105927   3.583351
    20  O   -1.140899   9.130574   0.260751   0.638472  -0.131715  -0.193851
    21  H    0.047414   0.260751   0.568285  -0.081203   0.019024   0.077583
    22  C   -5.902759   0.638472  -0.081203  16.117045  -1.365687  -5.024518
    23  H    1.105927  -0.131715   0.019024  -1.365687   1.942262   0.514712
    24  C    3.583351  -0.193851   0.077583  -5.024518   0.514712  21.223904
    25  H   -0.330066   0.002880  -0.001465   0.477390  -0.103214  -1.437204
    26  H    0.000526  -0.000030   0.000003   0.000618   0.000002   0.007005
              25         26
     1  N    0.018200   0.409218
     2  H    0.001739  -0.053070
     3  H   -0.000089  -0.026997
     4  C   -0.074058  -0.107420
     5  C    0.041286  -0.000344
     6  O    0.002874   0.001853
     7  H    0.001377  -0.000353
     8  O    0.000887   0.002435
     9  H   -0.029091   0.013293
    10  C   -0.077983  -0.002911
    11  H    0.008717   0.000717
    12  H    0.001943  -0.000750
    13  C    0.963478   0.018722
    14  C   -0.019655  -0.005318
    15  H   -0.029046   0.002731
    16  C    0.139774   0.000024
    17  O    0.002870  -0.000079
    18  H    0.000446  -0.000079
    19  C   -0.330066   0.000526
    20  O    0.002880  -0.000030
    21  H   -0.001465   0.000003
    22  C    0.477390   0.000618
    23  H   -0.103214   0.000002
    24  C   -1.437204   0.007005
    25  H    2.144974  -0.000319
    26  H   -0.000319   0.443150
 Mulliken charges:
               1
     1  N   -0.558434
     2  H    0.199337
     3  H    0.235829
     4  C    0.795549
     5  C    1.148514
     6  O   -0.731522
     7  H    0.255692
     8  O   -0.759847
     9  H   -0.226549
    10  C    0.315899
    11  H   -0.157900
    12  H   -0.146734
    13  C    1.075338
    14  C    0.739288
    15  H   -0.806383
    16  C    0.340332
    17  O   -0.897169
    18  H    0.200343
    19  C    1.002820
    20  O   -0.921002
    21  H    0.213861
    22  C    0.446175
    23  H   -0.607501
    24  C    0.253336
    25  H   -0.706643
    26  H    0.297372
 Sum of Mulliken charges =   1.00000
 Mulliken charges with hydrogens summed into heavy atoms:
               1
     1  N    0.174104
     4  C    0.569001
     5  C    1.148514
     6  O   -0.475830
     8  O   -0.759847
    10  C    0.011265
    13  C    1.075338
    14  C   -0.067096
    16  C    0.340332
    17  O   -0.696826
    19  C    1.002820
    20  O   -0.707141
    22  C   -0.161327
    24  C   -0.453307
 Electronic spatial extent (au):  <R**2>=           3281.2611
 Charge=              1.0000 electrons
 Dipole moment (field-independent basis, Debye):
    X=            -13.2257    Y=             -5.2357    Z=             -0.3602  Tot=             14.2289
 Quadrupole moment (field-independent basis, Debye-Ang):
   XX=            -27.8718   YY=            -64.2463   ZZ=            -71.6925
   XY=             12.1434   XZ=              8.3580   YZ=             -1.5267
 Traceless Quadrupole moment (field-independent basis, Debye-Ang):
   XX=             26.7317   YY=             -9.6427   ZZ=            -17.0890
   XY=             12.1434   XZ=              8.3580   YZ=             -1.5267
 Octapole moment (field-independent basis, Debye-Ang**2):
  XXX=           -217.0282  YYY=             11.3718  ZZZ=              4.5783  XYY=            -10.2753
  XXY=           -118.3470  XXZ=             11.6461  XZZ=            -15.8154  YZZ=             15.6733
  YYZ=              7.3770  XYZ=            -31.5107
 Hexadecapole moment (field-independent basis, Debye-Ang**3):
 XXXX=          -2047.0185 YYYY=           -601.7370 ZZZZ=           -346.0059 XXXY=            142.1771
 XXXZ=            196.4617 YYYX=             75.5293 YYYZ=             -3.5007 ZZZX=             13.4786
 ZZZY=              7.8558 XXYY=           -532.0705 XXZZ=           -456.4452 YYZZ=           -126.5734
 XXYZ=            -24.0637 YYXZ=             -4.2809 ZZXY=             -0.6343
 N-N= 9.059024362981D+02 E-N=-3.443239258166D+03  KE= 7.005063074481D+02
 Leave Link  601 at Sun Jul 18 14:19:08 2021, MaxMem=   262144000 cpu:               1.1 elap:               0.5
 (Enter /prod/apps/gaussian/g16b1/l9999.exe)
 1\1\GINC-PIRINEUS48\SP\RMP2-FC\Aug-CC-pVDZ\C9H12N1O4(1+)\UBATOR02\18-J
 ul-2021\0\\#p mp2/aug-cc-pVDZ scf=tight maxdisk=180GB geom=allcheck\\S
 ET_328_BBB292_conf1.geo_255_060_255 geometry\\1,1\N,0,-1.9804050976,-0
 .8716683659,2.9518381341\H,0,-1.7212632971,-1.5572240018,3.6836874145\
 H,0,-2.905237989,-1.1445438459,2.5811795492\C,0,-0.9549019721,-0.81906
 59155,1.8577122566\C,0,0.3527310583,-0.383891792,2.5105266103\O,0,1.40
 90663924,-0.8379343124,1.8429157007\H,0,2.2245064453,-0.4941338191,2.2
 677691336\O,0,0.3914766021,0.306206152,3.5094952911\H,0,-0.8577916584,
 -1.829058374,1.461040448\C,0,-1.439263285,0.1598875327,0.759512352\H,0
 ,-1.5417866047,1.1543534568,1.2034041829\H,0,-2.4397859609,-0.16959819
 3,0.4610586422\C,0,-0.535479909,0.2255559457,-0.4517496994\C,0,0.33224
 79644,1.3137864295,-0.6226706687\H,0,0.3470346012,2.1100354016,0.11576
 73645\C,0,1.1761803226,1.4004143207,-1.7273450641\O,0,2.0376035387,2.4
 364395401,-1.9410695456\H,0,1.9604535471,3.0735660158,-1.2101764866\C,
 0,1.1589255619,0.3774910161,-2.6972816414\O,0,2.0041915529,0.518873361
 3,-3.7581390442\H,0,1.9011015772,-0.2451523479,-4.3530049348\C,0,0.292
 7224911,-0.702323672,-2.5324102012\H,0,0.2739539508,-1.4836691387,-3.2
 841365511\C,0,-0.5501269259,-0.7798588919,-1.4206091905\H,0,-1.2211050
 861,-1.6269146332,-1.3208464038\H,0,-2.0760478201,0.050428131,3.415532
 352\\Version=ES64L-G16RevB.01\State=1-A\HF=-701.5882722\MP2=-703.78878
 39\RMSD=8.618e-09\PG=C01 [X(C9H12N1O4)]\\@


 POCKETA-POCKETA
 BARON VON RICHTOFEN
 SLAUGHTERED THE ALLIES WITH
 HARDLY A CARE.
 KILLED EIGHTY-ONE WITH HIS
 BLOOD-COLORED TRIPLANE, THEN
 UN-AEROBATICALLY
 PLUNGED FROM THE AIR.
   -- TONY HOFFMAN
 Job cpu time:       0 days  0 hours 54 minutes 38.1 seconds.
 Elapsed time:       0 days  0 hours 14 minutes 48.1 seconds.
 File lengths (MBytes):  RWF=  27369 Int=      0 D2E=      0 Chk=     16 Scr=      1
 Normal termination of Gaussian 16 at Sun Jul 18 14:19:10 2021.
