 Entering Gaussian System, Link 0=g16
 Initial command:
 /prod/apps/gaussian/g16b1/l1.exe "/tmp/ubator02/1839599/Gau-71347.inp" -scrdir="/tmp/ubator02/1839599/"
 Entering Link 1 = /prod/apps/gaussian/g16b1/l1.exe PID=     71353.
  
 Copyright (c) 1988-2017, Gaussian, Inc.  All Rights Reserved.
  
 This is part of the Gaussian(R) 16 program.  It is based on
 the Gaussian(R) 09 system (copyright 2009, Gaussian, Inc.),
 the Gaussian(R) 03 system (copyright 2003, Gaussian, Inc.),
 the Gaussian(R) 98 system (copyright 1998, Gaussian, Inc.),
 the Gaussian(R) 94 system (copyright 1995, Gaussian, Inc.),
 the Gaussian 92(TM) system (copyright 1992, Gaussian, Inc.),
 the Gaussian 90(TM) system (copyright 1990, Gaussian, Inc.),
 the Gaussian 88(TM) system (copyright 1988, Gaussian, Inc.),
 the Gaussian 86(TM) system (copyright 1986, Carnegie Mellon
 University), and the Gaussian 82(TM) system (copyright 1983,
 Carnegie Mellon University). Gaussian is a federally registered
 trademark of Gaussian, Inc.
  
 This software contains proprietary and confidential information,
 including trade secrets, belonging to Gaussian, Inc.
  
 This software is provided under written license and may be
 used, copied, transmitted, or stored only in accord with that
 written license.
  
 The following legend is applicable only to US Government
 contracts under FAR:
  
                    RESTRICTED RIGHTS LEGEND
  
 Use, reproduction and disclosure by the US Government is
 subject to restrictions as set forth in subparagraphs (a)
 and (c) of the Commercial Computer Software - Restricted
 Rights clause in FAR 52.227-19.
  
 Gaussian, Inc.
 340 Quinnipiac St., Bldg. 40, Wallingford CT 06492
  
  
 ---------------------------------------------------------------
 Warning -- This program may not be used in any manner that
 competes with the business of Gaussian, Inc. or will provide
 assistance to any competitor of Gaussian, Inc.  The licensee
 of this program is prohibited from giving any competitor of
 Gaussian, Inc. access to this program.  By using this program,
 the user acknowledges that Gaussian, Inc. is engaged in the
 business of creating and licensing software in the field of
 computational chemistry and represents and warrants to the
 licensee that it is not a competitor of Gaussian, Inc. and that
 it will not use this program in any manner prohibited above.
 ---------------------------------------------------------------
  

 Cite this work as:
 Gaussian 16, Revision B.01,
 M. J. Frisch, G. W. Trucks, H. B. Schlegel, G. E. Scuseria, 
 M. A. Robb, J. R. Cheeseman, G. Scalmani, V. Barone, 
 G. A. Petersson, H. Nakatsuji, X. Li, M. Caricato, A. V. Marenich, 
 J. Bloino, B. G. Janesko, R. Gomperts, B. Mennucci, H. P. Hratchian, 
 J. V. Ortiz, A. F. Izmaylov, J. L. Sonnenberg, D. Williams-Young, 
 F. Ding, F. Lipparini, F. Egidi, J. Goings, B. Peng, A. Petrone, 
 T. Henderson, D. Ranasinghe, V. G. Zakrzewski, J. Gao, N. Rega, 
 G. Zheng, W. Liang, M. Hada, M. Ehara, K. Toyota, R. Fukuda, 
 J. Hasegawa, M. Ishida, T. Nakajima, Y. Honda, O. Kitao, H. Nakai, 
 T. Vreven, K. Throssell, J. A. Montgomery, Jr., J. E. Peralta, 
 F. Ogliaro, M. J. Bearpark, J. J. Heyd, E. N. Brothers, K. N. Kudin, 
 V. N. Staroverov, T. A. Keith, R. Kobayashi, J. Normand, 
 K. Raghavachari, A. P. Rendell, J. C. Burant, S. S. Iyengar, 
 J. Tomasi, M. Cossi, J. M. Millam, M. Klene, C. Adamo, R. Cammi, 
 J. W. Ochterski, R. L. Martin, K. Morokuma, O. Farkas, 
 J. B. Foresman, and D. J. Fox, Gaussian, Inc., Wallingford CT, 2016.
 
 ******************************************
 Gaussian 16:  ES64L-G16RevB.01 20-Dec-2017
                18-Jul-2021 
 ******************************************
 %mem=800MB
 %nproc=4
 Will use up to    4 processors via shared memory.
 %chk=SET_328_BBB29_conf1.geo_285_180_180.chk
 -----------------------------------------------------------
 #p b3lyp/6-31G(d) opt freq scrf=(iefpcm,read,solvent=water)
 -----------------------------------------------------------
 1/18=20,19=15,26=3,38=1,40=2/1,3;
 2/9=110,12=2,17=6,18=5,40=1/2;
 3/5=1,6=6,7=1,11=2,25=1,30=1,70=2203,71=1,72=1,74=-5/1,2,3;
 4//1;
 5/5=2,38=5,53=1/2;
 6/7=2,8=2,9=2,10=2,28=1/1;
 7//1,2,3,16;
 1/18=20,19=15,26=3/3(2);
 2/9=110/2;
 99//99;
 2/9=110/2;
 3/5=1,6=6,7=1,11=2,25=1,30=1,70=2205,71=1,72=1,74=-5/1,2,3;
 4/5=5,16=3,69=1/1;
 5/5=2,38=5,53=1/2;
 7//1,2,3,16;
 1/18=20,19=15,26=3/3(-5);
 2/9=110/2;
 6/7=2,8=2,9=2,10=2,19=2,28=1/1;
 99/9=1/99;
 Leave Link    1 at Sun Jul 18 13:49:17 2021, MaxMem=   104857600 cpu:               0.6 elap:               0.2
 (Enter /prod/apps/gaussian/g16b1/l101.exe)
 --------------------------------------------
 SET_328_BBB29_conf1.geo_285_180_180 geometry
 --------------------------------------------
 Symbolic Z-matrix:
 Charge =  1 Multiplicity = 1
 N                     4.592    -0.535     0.162 
 H                     4.511    -1.237     0.869 
 H                     5.459    -0.049     0.273 
 C                     3.499     0.397     0.282 
 H                     3.658     1.205    -0.437 
 H                     3.584     0.75      1.313 
 C                     2.278    -0.402     0.04 
 H                     2.194    -1.366     0.547 
 H                     2.221    -0.748    -0.994 
 C                     1.025     0.534     0.175 
 H                     1.189     1.43     -0.43 
 H                     1.025     1.003     1.163 
 N                    -0.311    -0.111    -0.045 
 C                    -0.955     0.071    -1.24 
 C                    -0.257    -0.278    -2.39 
 H                     0.692    -0.807    -2.344 
 C                    -0.669     0.092    -3.616 
 Cl                    0.394    -0.155    -4.994 
 C                    -1.899     0.709    -3.803 
 H                    -2.215     0.941    -4.817 
 C                    -2.684     1.02     -2.669 
 H                    -3.672     1.468    -2.734 
 C                    -2.192     0.758    -1.432 
 S                    -3.162     1.211    -0.039 
 C                    -2.411     0.244     1.193 
 C                    -1.109    -0.313     1.058 
 C                    -0.597    -1.098     2.103 
 H                     0.383    -1.564     2.051 
 C                    -1.309    -1.301     3.308 
 H                    -0.904    -1.897     4.122 
 C                    -2.465    -0.532     3.502 
 H                    -2.93     -0.533     4.485 
 C                    -3.008     0.181     2.444 
 H                    -3.919     0.742     2.636 
 H                     4.565    -0.966    -0.74 
 
 ITRead=  0  0  0  0  0  0  0  0  0  0  0  0  0  0  0  0  0  0  0  0
 ITRead=  0  0  0  0  0  0  0  0  0  0  0  0  0  0  0
 MicOpt= -1 -1 -1 -1 -1 -1 -1 -1 -1 -1 -1 -1 -1 -1 -1 -1 -1 -1 -1 -1
 MicOpt= -1 -1 -1 -1 -1 -1 -1 -1 -1 -1 -1 -1 -1 -1 -1
 NAtoms=     35 NQM=       35 NQMF=       0 NMMI=      0 NMMIF=      0
                NMic=       0 NMicF=      0.
                    Isotopes and Nuclear Properties:
 (Nuclear quadrupole moments (NQMom) in fm**2, nuclear magnetic moments (NMagM)
  in nuclear magnetons)

  Atom         1           2           3           4           5           6           7           8           9          10
 IAtWgt=          14           1           1          12           1           1          12           1           1          12
 AtmWgt=  14.0030740   1.0078250   1.0078250  12.0000000   1.0078250   1.0078250  12.0000000   1.0078250   1.0078250  12.0000000
 NucSpn=           2           1           1           0           1           1           0           1           1           0
 AtZEff=  -0.0000000  -0.0000000  -0.0000000  -0.0000000  -0.0000000  -0.0000000  -0.0000000  -0.0000000  -0.0000000  -0.0000000
 NQMom=    2.0440000   0.0000000   0.0000000   0.0000000   0.0000000   0.0000000   0.0000000   0.0000000   0.0000000   0.0000000
 NMagM=    0.4037610   2.7928460   2.7928460   0.0000000   2.7928460   2.7928460   0.0000000   2.7928460   2.7928460   0.0000000
 AtZNuc=   7.0000000   1.0000000   1.0000000   6.0000000   1.0000000   1.0000000   6.0000000   1.0000000   1.0000000   6.0000000

  Atom        11          12          13          14          15          16          17          18          19          20
 IAtWgt=           1           1          14          12          12           1          12          35          12           1
 AtmWgt=   1.0078250   1.0078250  14.0030740  12.0000000  12.0000000   1.0078250  12.0000000  34.9688527  12.0000000   1.0078250
 NucSpn=           1           1           2           0           0           1           0           3           0           1
 AtZEff=  -0.0000000  -0.0000000  -0.0000000  -0.0000000  -0.0000000  -0.0000000  -0.0000000  -0.0000000  -0.0000000  -0.0000000
 NQMom=    0.0000000   0.0000000   2.0440000   0.0000000   0.0000000   0.0000000   0.0000000  -8.1650000   0.0000000   0.0000000
 NMagM=    2.7928460   2.7928460   0.4037610   0.0000000   0.0000000   2.7928460   0.0000000   0.8218740   0.0000000   2.7928460
 AtZNuc=   1.0000000   1.0000000   7.0000000   6.0000000   6.0000000   1.0000000   6.0000000  17.0000000   6.0000000   1.0000000

  Atom        21          22          23          24          25          26          27          28          29          30
 IAtWgt=          12           1          12          32          12          12          12           1          12           1
 AtmWgt=  12.0000000   1.0078250  12.0000000  31.9720718  12.0000000  12.0000000  12.0000000   1.0078250  12.0000000   1.0078250
 NucSpn=           0           1           0           0           0           0           0           1           0           1
 AtZEff=  -0.0000000  -0.0000000  -0.0000000  -0.0000000  -0.0000000  -0.0000000  -0.0000000  -0.0000000  -0.0000000  -0.0000000
 NQMom=    0.0000000   0.0000000   0.0000000   0.0000000   0.0000000   0.0000000   0.0000000   0.0000000   0.0000000   0.0000000
 NMagM=    0.0000000   2.7928460   0.0000000   0.0000000   0.0000000   0.0000000   0.0000000   2.7928460   0.0000000   2.7928460
 AtZNuc=   6.0000000   1.0000000   6.0000000  16.0000000   6.0000000   6.0000000   6.0000000   1.0000000   6.0000000   1.0000000

  Atom        31          32          33          34          35
 IAtWgt=          12           1          12           1           1
 AtmWgt=  12.0000000   1.0078250  12.0000000   1.0078250   1.0078250
 NucSpn=           0           1           0           1           1
 AtZEff=  -0.0000000  -0.0000000  -0.0000000  -0.0000000  -0.0000000
 NQMom=    0.0000000   0.0000000   0.0000000   0.0000000   0.0000000
 NMagM=    0.0000000   2.7928460   0.0000000   2.7928460   2.7928460
 AtZNuc=   6.0000000   1.0000000   6.0000000   1.0000000   1.0000000
 Leave Link  101 at Sun Jul 18 13:49:18 2021, MaxMem=   104857600 cpu:               0.5 elap:               0.1
 (Enter /prod/apps/gaussian/g16b1/l103.exe)

 GradGradGradGradGradGradGradGradGradGradGradGradGradGradGradGradGradGrad
 Berny optimization.
 Initialization pass.
                           ----------------------------
                           !    Initial Parameters    !
                           ! (Angstroms and Degrees)  !
 --------------------------                            --------------------------
 ! Name  Definition              Value          Derivative Info.                !
 --------------------------------------------------------------------------------
 ! R1    R(1,2)                  0.9996         estimate D2E/DX2                !
 ! R2    R(1,3)                  1.0001         estimate D2E/DX2                !
 ! R3    R(1,4)                  1.4414         estimate D2E/DX2                !
 ! R4    R(1,35)                 1.0            estimate D2E/DX2                !
 ! R5    R(4,5)                  1.0932         estimate D2E/DX2                !
 ! R6    R(4,6)                  1.0931         estimate D2E/DX2                !
 ! R7    R(4,7)                  1.4791         estimate D2E/DX2                !
 ! R8    R(7,8)                  1.0924         estimate D2E/DX2                !
 ! R9    R(7,9)                  1.0918         estimate D2E/DX2                !
 ! R10   R(7,10)                 1.5698         estimate D2E/DX2                !
 ! R11   R(10,11)                1.0935         estimate D2E/DX2                !
 ! R12   R(10,12)                1.0937         estimate D2E/DX2                !
 ! R13   R(10,13)                1.4998         estimate D2E/DX2                !
 ! R14   R(13,14)                1.3696         estimate D2E/DX2                !
 ! R15   R(13,26)                1.3763         estimate D2E/DX2                !
 ! R16   R(14,15)                1.3898         estimate D2E/DX2                !
 ! R17   R(14,23)                1.4279         estimate D2E/DX2                !
 ! R18   R(15,16)                1.0875         estimate D2E/DX2                !
 ! R19   R(15,17)                1.3453         estimate D2E/DX2                !
 ! R20   R(17,18)                1.7578         estimate D2E/DX2                !
 ! R21   R(17,19)                1.3887         estimate D2E/DX2                !
 ! R22   R(19,20)                1.0871         estimate D2E/DX2                !
 ! R23   R(19,21)                1.4138         estimate D2E/DX2                !
 ! R24   R(21,22)                1.0868         estimate D2E/DX2                !
 ! R25   R(21,23)                1.3568         estimate D2E/DX2                !
 ! R26   R(23,24)                1.7569         estimate D2E/DX2                !
 ! R27   R(24,25)                1.7369         estimate D2E/DX2                !
 ! R28   R(25,26)                1.4226         estimate D2E/DX2                !
 ! R29   R(25,33)                1.3876         estimate D2E/DX2                !
 ! R30   R(26,27)                1.4037         estimate D2E/DX2                !
 ! R31   R(27,28)                1.0864         estimate D2E/DX2                !
 ! R32   R(27,29)                1.4143         estimate D2E/DX2                !
 ! R33   R(29,30)                1.0871         estimate D2E/DX2                !
 ! R34   R(29,31)                1.4019         estimate D2E/DX2                !
 ! R35   R(31,32)                1.0874         estimate D2E/DX2                !
 ! R36   R(31,33)                1.3866         estimate D2E/DX2                !
 ! R37   R(33,34)                1.087          estimate D2E/DX2                !
 ! A1    A(2,1,3)              109.4521         estimate D2E/DX2                !
 ! A2    A(2,1,4)              109.4969         estimate D2E/DX2                !
 ! A3    A(2,1,35)             109.4558         estimate D2E/DX2                !
 ! A4    A(3,1,4)              109.5066         estimate D2E/DX2                !
 ! A5    A(3,1,35)             109.4477         estimate D2E/DX2                !
 ! A6    A(4,1,35)             109.4682         estimate D2E/DX2                !
 ! A7    A(1,4,5)              108.2315         estimate D2E/DX2                !
 ! A8    A(1,4,6)              103.2011         estimate D2E/DX2                !
 ! A9    A(1,4,7)              105.2515         estimate D2E/DX2                !
 ! A10   A(5,4,6)              111.7372         estimate D2E/DX2                !
 ! A11   A(5,4,7)              114.3124         estimate D2E/DX2                !
 ! A12   A(6,4,7)              113.139          estimate D2E/DX2                !
 ! A13   A(4,7,8)              117.6598         estimate D2E/DX2                !
 ! A14   A(4,7,9)              111.6675         estimate D2E/DX2                !
 ! A15   A(4,7,10)             108.8285         estimate D2E/DX2                !
 ! A16   A(8,7,9)               98.9668         estimate D2E/DX2                !
 ! A17   A(8,7,10)             115.1421         estimate D2E/DX2                !
 ! A18   A(9,7,10)             103.2217         estimate D2E/DX2                !
 ! A19   A(7,10,11)            108.7397         estimate D2E/DX2                !
 ! A20   A(7,10,12)            109.474          estimate D2E/DX2                !
 ! A21   A(7,10,13)            116.2303         estimate D2E/DX2                !
 ! A22   A(11,10,12)            98.5362         estimate D2E/DX2                !
 ! A23   A(11,10,13)           113.8806         estimate D2E/DX2                !
 ! A24   A(12,10,13)           108.4781         estimate D2E/DX2                !
 ! A25   A(10,13,14)           119.3204         estimate D2E/DX2                !
 ! A26   A(10,13,26)           117.5201         estimate D2E/DX2                !
 ! A27   A(14,13,26)           116.4946         estimate D2E/DX2                !
 ! A28   A(13,14,15)           116.9005         estimate D2E/DX2                !
 ! A29   A(13,14,23)           126.056          estimate D2E/DX2                !
 ! A30   A(15,14,23)           116.4            estimate D2E/DX2                !
 ! A31   A(14,15,16)           121.6983         estimate D2E/DX2                !
 ! A32   A(14,15,17)           122.0884         estimate D2E/DX2                !
 ! A33   A(16,15,17)           116.0792         estimate D2E/DX2                !
 ! A34   A(15,17,18)           119.379          estimate D2E/DX2                !
 ! A35   A(15,17,19)           121.0759         estimate D2E/DX2                !
 ! A36   A(18,17,19)           119.504          estimate D2E/DX2                !
 ! A37   A(17,19,20)           118.5456         estimate D2E/DX2                !
 ! A38   A(17,19,21)           118.7832         estimate D2E/DX2                !
 ! A39   A(20,19,21)           122.669          estimate D2E/DX2                !
 ! A40   A(19,21,22)           123.1939         estimate D2E/DX2                !
 ! A41   A(19,21,23)           119.1731         estimate D2E/DX2                !
 ! A42   A(22,21,23)           117.6323         estimate D2E/DX2                !
 ! A43   A(14,23,21)           121.9802         estimate D2E/DX2                !
 ! A44   A(14,23,24)           119.7183         estimate D2E/DX2                !
 ! A45   A(21,23,24)           118.2218         estimate D2E/DX2                !
 ! A46   A(23,24,25)           100.377          estimate D2E/DX2                !
 ! A47   A(24,25,26)           123.1207         estimate D2E/DX2                !
 ! A48   A(24,25,33)           118.6027         estimate D2E/DX2                !
 ! A49   A(26,25,33)           117.488          estimate D2E/DX2                !
 ! A50   A(13,26,25)           123.3164         estimate D2E/DX2                !
 ! A51   A(13,26,27)           117.8537         estimate D2E/DX2                !
 ! A52   A(25,26,27)           118.8262         estimate D2E/DX2                !
 ! A53   A(26,27,28)           122.2267         estimate D2E/DX2                !
 ! A54   A(26,27,29)           122.0689         estimate D2E/DX2                !
 ! A55   A(28,27,29)           115.6801         estimate D2E/DX2                !
 ! A56   A(27,29,30)           121.9451         estimate D2E/DX2                !
 ! A57   A(27,29,31)           117.02           estimate D2E/DX2                !
 ! A58   A(30,29,31)           120.2855         estimate D2E/DX2                !
 ! A59   A(29,31,32)           118.5023         estimate D2E/DX2                !
 ! A60   A(29,31,33)           119.9603         estimate D2E/DX2                !
 ! A61   A(32,31,33)           121.5181         estimate D2E/DX2                !
 ! A62   A(25,33,31)           122.8734         estimate D2E/DX2                !
 ! A63   A(25,33,34)           119.7628         estimate D2E/DX2                !
 ! A64   A(31,33,34)           117.3116         estimate D2E/DX2                !
 ! D1    D(2,1,4,5)            174.7626         estimate D2E/DX2                !
 ! D2    D(2,1,4,6)             56.2226         estimate D2E/DX2                !
 ! D3    D(2,1,4,7)            -62.6145         estimate D2E/DX2                !
 ! D4    D(3,1,4,5)             54.7486         estimate D2E/DX2                !
 ! D5    D(3,1,4,6)            -63.7914         estimate D2E/DX2                !
 ! D6    D(3,1,4,7)            177.3715         estimate D2E/DX2                !
 ! D7    D(35,1,4,5)           -65.2424         estimate D2E/DX2                !
 ! D8    D(35,1,4,6)           176.2176         estimate D2E/DX2                !
 ! D9    D(35,1,4,7)            57.3805         estimate D2E/DX2                !
 ! D10   D(1,4,7,8)             45.7999         estimate D2E/DX2                !
 ! D11   D(1,4,7,9)            -67.627          estimate D2E/DX2                !
 ! D12   D(1,4,7,10)           179.0763         estimate D2E/DX2                !
 ! D13   D(5,4,7,8)            164.4211         estimate D2E/DX2                !
 ! D14   D(5,4,7,9)             50.9942         estimate D2E/DX2                !
 ! D15   D(5,4,7,10)           -62.3025         estimate D2E/DX2                !
 ! D16   D(6,4,7,8)            -66.1585         estimate D2E/DX2                !
 ! D17   D(6,4,7,9)           -179.5854         estimate D2E/DX2                !
 ! D18   D(6,4,7,10)            67.1179         estimate D2E/DX2                !
 ! D19   D(4,7,10,11)           49.7114         estimate D2E/DX2                !
 ! D20   D(4,7,10,12)          -56.9203         estimate D2E/DX2                !
 ! D21   D(4,7,10,13)          179.7816         estimate D2E/DX2                !
 ! D22   D(8,7,10,11)         -175.7145         estimate D2E/DX2                !
 ! D23   D(8,7,10,12)           77.6539         estimate D2E/DX2                !
 ! D24   D(8,7,10,13)          -45.6442         estimate D2E/DX2                !
 ! D25   D(9,7,10,11)          -69.0282         estimate D2E/DX2                !
 ! D26   D(9,7,10,12)         -175.6599         estimate D2E/DX2                !
 ! D27   D(9,7,10,13)           61.042          estimate D2E/DX2                !
 ! D28   D(7,10,13,14)        -102.0344         estimate D2E/DX2                !
 ! D29   D(7,10,13,26)         107.5577         estimate D2E/DX2                !
 ! D30   D(11,10,13,14)         25.5425         estimate D2E/DX2                !
 ! D31   D(11,10,13,26)       -124.8654         estimate D2E/DX2                !
 ! D32   D(12,10,13,14)        134.1513         estimate D2E/DX2                !
 ! D33   D(12,10,13,26)        -16.2566         estimate D2E/DX2                !
 ! D34   D(10,13,14,15)         55.5748         estimate D2E/DX2                !
 ! D35   D(10,13,14,23)       -114.8554         estimate D2E/DX2                !
 ! D36   D(26,13,14,15)       -153.7223         estimate D2E/DX2                !
 ! D37   D(26,13,14,23)         35.8476         estimate D2E/DX2                !
 ! D38   D(10,13,26,25)        120.7758         estimate D2E/DX2                !
 ! D39   D(10,13,26,27)        -58.5167         estimate D2E/DX2                !
 ! D40   D(14,13,26,25)        -30.4678         estimate D2E/DX2                !
 ! D41   D(14,13,26,27)        150.2397         estimate D2E/DX2                !
 ! D42   D(13,14,15,16)          8.9043         estimate D2E/DX2                !
 ! D43   D(13,14,15,17)       -166.7212         estimate D2E/DX2                !
 ! D44   D(23,14,15,16)       -179.7256         estimate D2E/DX2                !
 ! D45   D(23,14,15,17)          4.6489         estimate D2E/DX2                !
 ! D46   D(13,14,23,21)        172.5173         estimate D2E/DX2                !
 ! D47   D(13,14,23,24)        -10.7871         estimate D2E/DX2                !
 ! D48   D(15,14,23,21)          2.0449         estimate D2E/DX2                !
 ! D49   D(15,14,23,24)        178.7404         estimate D2E/DX2                !
 ! D50   D(14,15,17,18)        170.0077         estimate D2E/DX2                !
 ! D51   D(14,15,17,19)         -7.6475         estimate D2E/DX2                !
 ! D52   D(16,15,17,18)         -5.8489         estimate D2E/DX2                !
 ! D53   D(16,15,17,19)        176.4959         estimate D2E/DX2                !
 ! D54   D(15,17,19,20)       -176.6646         estimate D2E/DX2                !
 ! D55   D(15,17,19,21)          3.8562         estimate D2E/DX2                !
 ! D56   D(18,17,19,20)          5.6831         estimate D2E/DX2                !
 ! D57   D(18,17,19,21)       -173.7961         estimate D2E/DX2                !
 ! D58   D(17,19,21,22)       -177.63           estimate D2E/DX2                !
 ! D59   D(17,19,21,23)          2.668          estimate D2E/DX2                !
 ! D60   D(20,19,21,22)          2.9135         estimate D2E/DX2                !
 ! D61   D(20,19,21,23)       -176.7885         estimate D2E/DX2                !
 ! D62   D(19,21,23,14)         -5.5694         estimate D2E/DX2                !
 ! D63   D(19,21,23,24)        177.6876         estimate D2E/DX2                !
 ! D64   D(22,21,23,14)        174.7121         estimate D2E/DX2                !
 ! D65   D(22,21,23,24)         -2.0309         estimate D2E/DX2                !
 ! D66   D(14,23,24,25)        -14.4954         estimate D2E/DX2                !
 ! D67   D(21,23,24,25)        162.3236         estimate D2E/DX2                !
 ! D68   D(23,24,25,26)         18.7821         estimate D2E/DX2                !
 ! D69   D(23,24,25,33)       -171.6548         estimate D2E/DX2                !
 ! D70   D(24,25,26,13)          1.6603         estimate D2E/DX2                !
 ! D71   D(24,25,26,27)       -179.0537         estimate D2E/DX2                !
 ! D72   D(33,25,26,13)       -168.0115         estimate D2E/DX2                !
 ! D73   D(33,25,26,27)         11.2745         estimate D2E/DX2                !
 ! D74   D(24,25,33,31)       -178.1095         estimate D2E/DX2                !
 ! D75   D(24,25,33,34)         -0.811          estimate D2E/DX2                !
 ! D76   D(26,25,33,31)         -7.957          estimate D2E/DX2                !
 ! D77   D(26,25,33,34)        169.3415         estimate D2E/DX2                !
 ! D78   D(13,26,27,28)         -1.7541         estimate D2E/DX2                !
 ! D79   D(13,26,27,29)        176.3771         estimate D2E/DX2                !
 ! D80   D(25,26,27,28)        178.9207         estimate D2E/DX2                !
 ! D81   D(25,26,27,29)         -2.9481         estimate D2E/DX2                !
 ! D82   D(26,27,29,30)       -179.055          estimate D2E/DX2                !
 ! D83   D(26,27,29,31)         -8.9523         estimate D2E/DX2                !
 ! D84   D(28,27,29,30)         -0.8092         estimate D2E/DX2                !
 ! D85   D(28,27,29,31)        169.2935         estimate D2E/DX2                !
 ! D86   D(27,29,31,32)       -169.1254         estimate D2E/DX2                !
 ! D87   D(27,29,31,33)         12.4493         estimate D2E/DX2                !
 ! D88   D(30,29,31,32)          1.1506         estimate D2E/DX2                !
 ! D89   D(30,29,31,33)       -177.2747         estimate D2E/DX2                !
 ! D90   D(29,31,33,25)         -4.1858         estimate D2E/DX2                !
 ! D91   D(29,31,33,34)        178.4535         estimate D2E/DX2                !
 ! D92   D(32,31,33,25)        177.4375         estimate D2E/DX2                !
 ! D93   D(32,31,33,34)          0.0768         estimate D2E/DX2                !
 --------------------------------------------------------------------------------
 Trust Radius=3.00D-01 FncErr=1.00D-07 GrdErr=1.00D-06 EigMax=2.50D+02 EigMin=1.00D-04
 Number of steps in this run=    204 maximum allowed number of steps=    210.
 GradGradGradGradGradGradGradGradGradGradGradGradGradGradGradGradGradGrad

 Leave Link  103 at Sun Jul 18 13:49:19 2021, MaxMem=   104857600 cpu:               0.1 elap:               1.0
 (Enter /prod/apps/gaussian/g16b1/l202.exe)
                          Input orientation:                          
 ---------------------------------------------------------------------
 Center     Atomic      Atomic             Coordinates (Angstroms)
 Number     Number       Type             X           Y           Z
 ---------------------------------------------------------------------
      1          7           0        4.592000   -0.535000    0.162000
      2          1           0        4.511000   -1.237000    0.869000
      3          1           0        5.459000   -0.049000    0.273000
      4          6           0        3.499000    0.397000    0.282000
      5          1           0        3.658000    1.205000   -0.437000
      6          1           0        3.584000    0.750000    1.313000
      7          6           0        2.278000   -0.402000    0.040000
      8          1           0        2.194000   -1.366000    0.547000
      9          1           0        2.221000   -0.748000   -0.994000
     10          6           0        1.025000    0.534000    0.175000
     11          1           0        1.189000    1.430000   -0.430000
     12          1           0        1.025000    1.003000    1.163000
     13          7           0       -0.311000   -0.111000   -0.045000
     14          6           0       -0.955000    0.071000   -1.240000
     15          6           0       -0.257000   -0.278000   -2.390000
     16          1           0        0.692000   -0.807000   -2.344000
     17          6           0       -0.669000    0.092000   -3.616000
     18         17           0        0.394000   -0.155000   -4.994000
     19          6           0       -1.899000    0.709000   -3.803000
     20          1           0       -2.215000    0.941000   -4.817000
     21          6           0       -2.684000    1.020000   -2.669000
     22          1           0       -3.672000    1.468000   -2.734000
     23          6           0       -2.192000    0.758000   -1.432000
     24         16           0       -3.162000    1.211000   -0.039000
     25          6           0       -2.411000    0.244000    1.193000
     26          6           0       -1.109000   -0.313000    1.058000
     27          6           0       -0.597000   -1.098000    2.103000
     28          1           0        0.383000   -1.564000    2.051000
     29          6           0       -1.309000   -1.301000    3.308000
     30          1           0       -0.904000   -1.897000    4.122000
     31          6           0       -2.465000   -0.532000    3.502000
     32          1           0       -2.930000   -0.533000    4.485000
     33          6           0       -3.008000    0.181000    2.444000
     34          1           0       -3.919000    0.742000    2.636000
     35          1           0        4.565000   -0.966000   -0.740000
 ---------------------------------------------------------------------
                    Distance matrix (angstroms):
                    1          2          3          4          5
     1  N    0.000000
     2  H    0.999607   0.000000
     3  H    1.000103   1.632564   0.000000
     4  C    1.441414   2.009644   2.010124   0.000000
     5  H    2.063676   2.897690   2.306560   1.093209   0.000000
     6  H    1.998022   2.237104   2.288149   1.093067   1.809696
     7  C    2.321028   2.524035   3.208997   1.479123   2.171262
     8  H    2.566942   2.342822   3.531259   2.209393   3.117947
     9  H    2.646384   2.992322   3.546623   2.138337   2.487856
    10  C    3.723764   3.971180   4.473237   2.480100   2.785224
    11  H    3.973927   4.453760   4.573243   2.628713   2.479241
    12  H    4.011351   4.154062   4.643184   2.695194   3.087636
    13  N    4.925651   5.035370   5.779089   3.857602   4.199819
    14  C    5.753438   6.002991   6.591128   4.718143   4.817731
    15  C    5.485577   5.854450   6.310045   4.658621   4.619602
    16  H    4.643708   5.009294   5.490678   4.027995   4.059797
    17  C    6.507268   6.979532   7.259241   5.714862   5.483406
    18  Cl   6.659725   7.245356   7.307992   6.146699   5.767976
    19  C    7.707259   8.167166   8.445620   6.776649   6.515844
    20  H    8.561791   9.072671   9.261667   7.677599   7.331182
    21  C    7.960701   8.329437   8.723908   6.879391   6.725847
    22  H    8.982902   9.341313   9.732343   7.852804   7.685979
    23  C    7.087689   7.362393   7.880106   5.954460   5.950826
    24  S    7.950688   8.105066   8.718176   6.718226   6.831606
    25  C    7.121223   7.086072   7.929007   5.981758   6.357136
    26  C    5.775249   5.698587   6.620011   4.726515   5.221459
    27  C    5.568678   5.256780   6.412834   4.725281   5.464470
    28  H    4.726822   4.306325   5.587690   4.084647   4.958138
    29  C    6.730964   6.310722   7.522270   5.929312   6.706426
    30  H    6.909606   6.351365   7.662746   6.276499   7.156726
    31  C    7.807487   7.489612   8.570269   6.841106   7.484919
    32  H    8.675760   8.302985   9.399496   7.737063   8.405265
    33  C    7.967445   7.811959   8.743925   6.860171   7.333778
    34  H    8.954805   8.837626   9.703419   7.790190   8.189544
    35  H    1.000047   1.632556   1.632879   2.009629   2.372277
                    6          7          8          9         10
     6  H    0.000000
     7  C    2.157144   0.000000
     8  H    2.645054   1.092429   0.000000
     9  H    3.069857   1.091843   1.660522   0.000000
    10  C    2.808947   1.569818   2.261624   2.107250   0.000000
    11  H    3.039157   2.182440   3.127646   2.475238   1.093498
    12  H    2.575847   2.192068   2.712596   3.024742   1.093666
    13  N    4.213847   2.606689   2.863654   2.778020   1.499774
    14  C    5.251797   3.509191   3.895451   3.289111   2.477296
    15  C    5.433440   3.513759   3.977074   2.882742   2.980284
    16  H    4.915441   2.891864   3.305505   2.040545   2.873070
    17  C    6.543395   4.721777   5.258622   3.991564   4.175725
    18  Cl   7.125544   5.380671   5.950563   4.437294   5.252756
    19  C    7.499228   5.783623   6.323035   5.194972   4.940130
    20  H    8.440485   6.751381   7.316695   6.094764   5.965175
    21  C    7.430817   5.829426   6.311144   5.476356   4.699065
    22  H    8.339261   6.826015   7.294277   6.531899   5.603253
    23  C    6.395097   4.846987   5.259735   4.683423   3.603015
    24  S    6.895574   5.674646   5.972526   5.807443   4.246775
    25  C    6.017513   4.871698   4.920919   5.217514   3.595347
    26  C    4.818635   3.537798   3.504246   3.935585   2.459889
    27  C    4.638962   3.606385   3.206656   4.201789   3.001915
    28  H    4.018164   2.997564   2.362402   3.649127   2.886719
    29  C    5.668163   4.935037   4.460757   5.592308   4.316303
    30  H    5.919395   5.387288   4.760272   6.104038   5.020917
    31  C    6.559394   5.873533   5.579773   6.497636   4.938156
    32  H    7.357980   6.848244   6.515912   7.523195   5.946143
    33  C    6.712480   5.836172   5.749141   6.326557   4.640911
    34  H    7.618753   6.815480   6.795319   7.286741   5.526565
    35  H    2.849882   2.481303   2.727272   2.367779   3.952066
                   11         12         13         14         15
    11  H    0.000000
    12  H    1.657370   0.000000
    13  N    2.184698   2.117819   0.000000
    14  C    2.664529   3.250144   1.369630   0.000000
    15  C    2.974858   3.988520   2.351559   1.389786   0.000000
    16  H    2.985728   3.960560   2.603042   2.168481   1.087455
    17  C    3.923392   5.151543   3.594637   2.393243   1.345258
    18  Cl   4.896360   6.296648   4.999156   3.995422   2.686959
    19  C    4.629548   5.770387   4.161335   2.804844   2.380526
    20  H    5.574236   6.801606   5.244416   3.890942   3.348142
    21  C    4.492366   5.333029   3.714252   2.435587   2.766401
    22  H    5.379515   6.120837   4.584788   3.400843   3.850854
    23  C    3.589812   4.140427   2.493410   1.427936   2.394846
    24  S    4.374019   4.361082   3.142598   2.759139   4.022853
    25  C    4.123194   3.518960   2.463467   2.840661   4.213085
    26  C    3.245458   2.509350   1.376306   2.334947   3.551877
    27  C    3.999584   2.815792   2.381149   3.559547   4.579853
    28  H    3.971024   2.791092   2.643116   3.910774   4.667534
    29  C    5.260324   3.918800   3.695228   4.763612   5.883913
    30  H    6.014173   4.570199   4.572235   5.711976   6.741358
    31  C    5.715049   4.472946   4.171111   5.013010   6.297257
    32  H    6.706471   5.388600   5.249585   6.086137   7.380757
    33  C    5.237813   4.310654   3.681602   4.218858   5.580881
    34  H    5.997113   5.165364   4.575263   4.925334   6.301692
    35  H    4.151420   4.475485   4.998942   5.638774   5.142716
                   16         17         18         19         20
    16  H    0.000000
    17  C    2.068455   0.000000
    18  Cl   2.745252   1.757800   0.000000
    19  C    3.337697   1.388725   2.724486   0.000000
    20  H    4.197843   2.133851   2.835388   1.087141   0.000000
    21  C    3.852393   2.412098   4.032410   1.413825   2.200024
    22  H    4.936823   3.418963   4.926874   2.205078   2.596048
    23  C    3.405646   2.744620   4.495421   2.389538   3.390021
    24  S    4.923278   4.501349   6.250049   4.001858   4.878421
    25  C    4.821160   5.117045   6.804866   5.043648   6.053456
    26  C    3.880881   4.712102   6.237842   5.029702   6.108304
    27  C    4.639182   5.841938   7.227637   6.311996   7.393365
    28  H    4.470409   5.996993   7.184527   6.681569   7.758483
    29  C    6.016074   7.091673   8.552001   7.413132   8.477206
    30  H    6.748664   7.992996   9.371277   8.401600   9.469883
    31  C    6.649661   7.367558   8.972069   7.431249   8.452100
    32  H    7.734934   8.433798  10.052030   8.443724   9.445163
    33  C    6.131157   6.496341   8.185985   6.366606   7.343607
    34  H    6.961402   7.076193   8.810419   6.748497   7.647903
    35  H    4.195024   6.065105   6.012610   7.346488   8.137996
                   21         22         23         24         25
    21  C    0.000000
    22  H    1.086772   0.000000
    23  C    1.356789   2.095162   0.000000
    24  S    2.679900   2.754846   1.756860   0.000000
    25  C    3.948639   4.302281   2.683800   1.736927   0.000000
    26  C    4.260052   4.911231   2.918909   2.782228   1.422560
    27  C    5.622586   6.279853   4.299417   4.061880   2.433035
    28  H    6.193702   6.966511   4.914631   4.963441   3.436781
    29  C    6.557606   7.053857   5.242783   4.576698   2.841594
    30  H    7.602300   8.123410   6.289267   5.663228   3.928609
    31  C    6.366939   6.659170   5.107150   4.007810   2.436508
    32  H    7.324755   7.527850   6.101001   4.854064   3.422039
    33  C    5.191499   5.376704   4.002769   2.692565   1.387580
    34  H    5.453947   5.424480   4.419435   2.819332   2.145767
    35  H    7.759719   8.817514   7.007716   8.058366   7.339289
                   26         27         28         29         30
    26  C    0.000000
    27  C    1.403707   0.000000
    28  H    2.185661   1.086398   0.000000
    29  C    2.465491   1.414276   2.124166   0.000000
    30  H    3.455311   2.192946   2.460955   1.087123   0.000000
    31  C    2.803539   2.401454   3.358799   1.401903   2.164335
    32  H    3.887000   3.381721   4.238312   2.145412   2.469198
    33  C    2.402339   2.750462   3.833843   2.414419   3.400086
    34  H    3.391048   3.834759   4.916001   3.381942   4.273493
    35  H    5.987778   5.894601   5.063241   7.141597   7.376704
                   31         32         33         34         35
    31  C    0.000000
    32  H    1.087435   0.000000
    33  C    1.386572   2.163692   0.000000
    34  H    2.118289   2.454088   1.086971   0.000000
    35  H    8.222154   9.146756   8.294805   9.289397   0.000000
 Stoichiometry    C15H16ClN2S(1+)
 Framework group  C1[X(C15H16ClN2S)]
 Deg. of freedom    99
 Full point group                 C1      NOp   1
 Largest Abelian subgroup         C1      NOp   1
 Largest concise Abelian subgroup C1      NOp   1
                         Standard orientation:                         
 ---------------------------------------------------------------------
 Center     Atomic      Atomic             Coordinates (Angstroms)
 Number     Number       Type             X           Y           Z
 ---------------------------------------------------------------------
      1          7           0       -1.212377    5.017615    0.222447
      2          1           0       -0.495808    5.323538   -0.403774
      3          1           0       -1.457667    5.765911    0.838964
      4          6           0       -0.732511    3.897421    0.992231
      5          1           0       -1.494315    3.639897    1.732799
      6          1           0        0.173737    4.287652    1.462582
      7          6           0       -0.461176    2.832593    0.002117
      8          1           0        0.083283    3.109142   -0.903690
      9          1           0       -1.381045    2.465663   -0.457582
     10          6           0        0.092557    1.570741    0.754074
     11          1           0       -0.569605    1.343743    1.594164
     12          1           0        0.985718    1.847210    1.321465
     13          7           0        0.420524    0.381634   -0.099027
     14          6           0       -0.451526   -0.673602   -0.142526
     15          6           0       -1.762520   -0.391293   -0.507355
     16          1           0       -2.052850    0.586660   -0.884017
     17          6           0       -2.759011   -1.278515   -0.335414
     18         17           0       -4.422889   -0.762940   -0.571116
     19          6           0       -2.497496   -2.580250    0.071591
     20          1           0       -3.327632   -3.278403    0.144625
     21          6           0       -1.166875   -2.941304    0.384622
     22          1           0       -0.875797   -3.947620    0.673889
     23          6           0       -0.195175   -1.995850    0.331758
     24         16           0        1.438288   -2.457054    0.785242
     25          6           0        2.339885   -1.152628    0.076363
     26          6           0        1.750569    0.087508   -0.295721
     27          6           0        2.560729    1.073369   -0.880624
     28          1           0        2.165191    2.033033   -1.201333
     29          6           0        3.952881    0.895155   -1.054778
     30          1           0        4.580930    1.666026   -1.494267
     31          6           0        4.532304   -0.227187   -0.446543
     32          1           0        5.616971   -0.295488   -0.409821
     33          6           0        3.725029   -1.233492    0.061629
     34          1           0        4.219890   -2.095856    0.500886
     35          1           0       -2.017513    4.741002   -0.302276
 ---------------------------------------------------------------------
 Rotational constants (GHZ):           0.3444185           0.2536744           0.1551778
 Leave Link  202 at Sun Jul 18 13:49:19 2021, MaxMem=   104857600 cpu:               0.1 elap:               0.0
 (Enter /prod/apps/gaussian/g16b1/l301.exe)
 Standard basis: 6-31G(d) (6D, 7F)
 Ernie: Thresh=  0.10000D-02 Tol=  0.10000D-05 Strict=F.
 There are   325 symmetry adapted cartesian basis functions of A   symmetry.
 There are   325 symmetry adapted basis functions of A   symmetry.
   325 basis functions,   644 primitive gaussians,   325 cartesian basis functions
    76 alpha electrons       76 beta electrons
       nuclear repulsion energy      1643.0828115183 Hartrees.
 IExCor=  402 DFT=T Ex+Corr=B3LYP ExCW=0 ScaHFX=  0.200000
 ScaDFX=  0.800000  0.720000  1.000000  0.810000 ScalE2=  1.000000  1.000000
 IRadAn=      5 IRanWt=     -1 IRanGd=            0 ICorTp=0 IEmpDi=  4
 NAtoms=   35 NActive=   35 NUniq=   35 SFac= 1.00D+00 NAtFMM=   60 NAOKFM=F Big=F
 Integral buffers will be    131072 words long.
 Raffenetti 2 integral format.
 Two-electron integral symmetry is turned on.
 Using the following non-standard input for PCM:
 MSTModel=DFT cav MSTCharged
 --- end of non-standard input.
 MST model for solvation energy: B3LYP parametrization.
 MST cavity parameters:
 ISph   IAn     Re0     Alpha   Atom Type   QCorr
 ------------------------------------------------
   1      7     1.70     1.15      NH         T
   2      1     0.90     1.15      NH         T
   3      1     0.90     1.15      NH         T
   4      6     1.50     1.25      CH2        F
   5      1     1.20     1.25      CH2        F
   6      1     1.20     1.25      CH2        F
   7      6     1.50     1.25      CH2        F
   8      1     1.20     1.25      CH2        F
   9      1     1.20     1.25      CH2        F
  10      6     1.50     1.25      CH2        F
  11      1     1.20     1.25      CH2        F
  12      1     1.20     1.25      CH2        F
  13      7     1.40     1.25      N          F
  14      6     1.50     1.25      C          F
  15      6     1.50     1.25      CH         F
  16      1     1.20     1.25      CH         F
  17      6     1.50     1.25      C          F
  18     17     1.80     1.25      Cl         F
  19      6     1.50     1.25      CH         F
  20      1     1.20     1.25      CH         F
  21      6     1.50     1.25      CH         F
  22      1     1.20     1.25      CH         F
  23      6     1.50     1.25      C          F
  24     16     1.75     1.25      S          F
  25      6     1.50     1.25      C          F
  26      6     1.50     1.25      C          F
  27      6     1.50     1.25      CH         F
  28      1     1.20     1.25      CH         F
  29      6     1.50     1.25      CH         F
  30      1     1.20     1.25      CH         F
  31      6     1.50     1.25      CH         F
  32      1     1.20     1.25      CH         F
  33      6     1.50     1.25      CH         F
  34      1     1.20     1.25      CH         F
  35      1     0.90     1.15      NH         T
 ------------------------------------------------------------------------------
 Polarizable Continuum Model (PCM)
 =================================
 Model                : PCM.
 Atomic radii         : MST.
 Polarization charges : Total charges.
 Charge compensation  : None.
 Solution method      : On-the-fly selection.
 Cavity type          : Scaled VdW (van der Waals Surface) (Alpha=1.250).
 Cavity algorithm     : GePol (No added spheres)
                        Default sphere list used, NSphG=   35.
                        Lebedev-Laikov grids with approx.  5.0 points / Ang**2.
                        Smoothing algorithm: York/Karplus (Gamma=1.0000).
                        Polarization charges: spherical gaussians, with
                                              point-specific exponents (IZeta= 3).
                        Self-potential: point-specific (ISelfS= 7).
                        Self-field    : sphere-specific E.n sum rule (ISelfD= 2).
 1st derivatives      : Analytical E(r).r(x)/FMM algorithm (CHGder, D1EAlg=3).
                        Cavity 1st derivative terms included.
 Solvent              : Water, Eps=  78.355300 Eps(inf)=   1.777849
 ------------------------------------------------------------------------------
 GePol: Number of generator spheres                  =      35
 GePol: Total number of spheres                      =      35
 GePol: Number of exposed spheres                    =      35 (100.00%)
 GePol: Number of points                             =    2667
 GePol: Average weight of points                     =       0.13
 GePol: Minimum weight of points                     =   0.87D-10
 GePol: Maximum weight of points                     =    0.21948
 GePol: Number of points with low weight             =     185
 GePol: Fraction of low-weight points (<1% of avg)   =       6.94%
 GePol: Cavity surface area                          =    337.522 Ang**2
 GePol: Cavity volume                                =    338.326 Ang**3
 PCM non-electrostatic energy =         0.0018575983 Hartrees.
 Nuclear repulsion after PCM non-electrostatic terms =     1643.0846691166 Hartrees.
 Leave Link  301 at Sun Jul 18 13:49:19 2021, MaxMem=   104857600 cpu:               0.4 elap:               0.1
 (Enter /prod/apps/gaussian/g16b1/l302.exe)
 NPDir=0 NMtPBC=     1 NCelOv=     1 NCel=       1 NClECP=     1 NCelD=      1
         NCelK=      1 NCelE2=     1 NClLst=     1 CellRange=     0.0.
 One-electron integrals computed using PRISM.
 One-electron integral symmetry used in STVInt
 NBasis=   325 RedAO= T EigKep=  3.85D-04  NBF=   325
 NBsUse=   325 1.00D-06 EigRej= -1.00D+00 NBFU=   325
 Precomputing XC quadrature grid using
 IXCGrd= 4 IRadAn=           5 IRanWt=          -1 IRanGd=           0 AccXCQ= 0.00D+00.
 Generated NRdTot=       0 NPtTot=           0 NUsed=           0 NTot=          32
 NSgBfM=   323   323   323   323   323 MxSgAt=    35 MxSgA2=    35.
 Leave Link  302 at Sun Jul 18 13:49:19 2021, MaxMem=   104857600 cpu:               1.8 elap:               0.5
 (Enter /prod/apps/gaussian/g16b1/l303.exe)
 DipDrv:  MaxL=1.
 Leave Link  303 at Sun Jul 18 13:49:20 2021, MaxMem=   104857600 cpu:               0.2 elap:               0.1
 (Enter /prod/apps/gaussian/g16b1/l401.exe)
 ExpMin= 1.17D-01 ExpMax= 2.52D+04 ExpMxC= 3.78D+03 IAcc=3 IRadAn=         5 AccDes= 0.00D+00
 Harris functional with IExCor=  402 and IRadAn=       5 diagonalized for initial guess.
 HarFok:  IExCor=  402 AccDes= 0.00D+00 IRadAn=         5 IDoV= 1 UseB2=F ITyADJ=14
 ICtDFT=  3500011 ScaDFX=  1.000000  1.000000  1.000000  1.000000
 FoFCou: FMM=F IPFlag=           0 FMFlag=      100000 FMFlg1=           0
         NFxFlg=           0 DoJE=T BraDBF=F KetDBF=T FulRan=T
         wScrn=  0.000000 ICntrl=       500 IOpCl=  0 I1Cent=   200000004 NGrid=           0
         NMat0=    1 NMatS0=      1 NMatT0=    0 NMatD0=    1 NMtDS0=    0 NMtDT0=    0
 Petite list used in FoFCou.
 Harris En= -1548.75370724293    
 JPrj=0 DoOrth=F DoCkMO=F.
 Leave Link  401 at Sun Jul 18 13:49:22 2021, MaxMem=   104857600 cpu:               9.6 elap:               2.5
 (Enter /prod/apps/gaussian/g16b1/l502.exe)
 Integral symmetry usage will be decided dynamically.
 Closed shell SCF:
 Using DIIS extrapolation, IDIIS=  1040.
 NGot=   104857600 LenX=   104640764 LenY=   104534698
 Requested convergence on RMS density matrix=1.00D-08 within 128 cycles.
 Requested convergence on MAX density matrix=1.00D-06.
 Requested convergence on             energy=1.00D-06.
 No special actions if energy rises.
 Fock matrices will be formed incrementally for  20 cycles.

 Cycle   1  Pass 1  IDiag  1:
 FoFJK:  IHMeth= 1 ICntrl=       0 DoSepK=F KAlg= 0 I1Cent=           0 FoldK=F
 IRaf= 810000000 NMat=       1 IRICut=       1 DoRegI=T DoRafI=F ISym2E= 0 IDoP0=0 IntGTp=1.
 FoFCou: FMM=F IPFlag=           0 FMFlag=      100000 FMFlg1=           0
         NFxFlg=           0 DoJE=F BraDBF=F KetDBF=F FulRan=T
         wScrn=  0.000000 ICntrl=         0 IOpCl=  0 I1Cent=           0 NGrid=           0
         NMat0=    1 NMatS0=      1 NMatT0=    0 NMatD0=    1 NMtDS0=    0 NMtDT0=    0
 Symmetry not used in FoFCou.
 Inv3:  Mode=1 IEnd=    21338667.
 Iteration    1 A*A^-1 deviation from unit magnitude is 3.77D-15 for   1502.
 Iteration    1 A*A^-1 deviation from orthogonality  is 2.56D-15 for   1634    845.
 Iteration    1 A^-1*A deviation from unit magnitude is 3.77D-15 for   1502.
 Iteration    1 A^-1*A deviation from orthogonality  is 2.56D-14 for   1737   1732.
 E= -1548.51903193086    
 DIIS: error= 2.85D-02 at cycle   1 NSaved=   1.
 NSaved= 1 IEnMin= 1 EnMin= -1548.51903193086     IErMin= 1 ErrMin= 2.85D-02
 ErrMax= 2.85D-02  0.00D+00 EMaxC= 1.00D-01 BMatC= 4.10D-01 BMatP= 4.10D-01
 IDIUse=3 WtCom= 7.15D-01 WtEn= 2.85D-01
 Coeff-Com:  0.100D+01
 Coeff-En:   0.100D+01
 Coeff:      0.100D+01
 Gap=     0.247 Goal=   None    Shift=    0.000
 GapD=    0.247 DampG=1.000 DampE=0.500 DampFc=0.5000 IDamp=-1.
 Damping current iteration by 5.00D-01
 RMSDP=4.84D-03 MaxDP=1.64D-01              OVMax= 2.64D-01

 Cycle   2  Pass 1  IDiag  1:
 RMSU=  2.39D-03    CP:  9.82D-01
 E= -1548.70643578298     Delta-E=       -0.187403852117 Rises=F Damp=T
 DIIS: error= 8.93D-03 at cycle   2 NSaved=   2.
 NSaved= 2 IEnMin= 2 EnMin= -1548.70643578298     IErMin= 2 ErrMin= 8.93D-03
 ErrMax= 8.93D-03  0.00D+00 EMaxC= 1.00D-01 BMatC= 2.94D-02 BMatP= 4.10D-01
 IDIUse=3 WtCom= 9.11D-01 WtEn= 8.93D-02
 Coeff-Com:  0.648D-01 0.935D+00
 Coeff-En:   0.133D+00 0.867D+00
 Coeff:      0.709D-01 0.929D+00
 Gap=     0.236 Goal=   None    Shift=    0.000
 RMSDP=1.33D-03 MaxDP=7.84D-02 DE=-1.87D-01 OVMax= 1.75D-01

 Cycle   3  Pass 1  IDiag  1:
 RMSU=  1.29D-03    CP:  9.74D-01  8.85D-01
 E= -1548.93198850022     Delta-E=       -0.225552717243 Rises=F Damp=F
 DIIS: error= 5.38D-03 at cycle   3 NSaved=   3.
 NSaved= 3 IEnMin= 3 EnMin= -1548.93198850022     IErMin= 3 ErrMin= 5.38D-03
 ErrMax= 5.38D-03  0.00D+00 EMaxC= 1.00D-01 BMatC= 1.67D-02 BMatP= 2.94D-02
 IDIUse=3 WtCom= 9.46D-01 WtEn= 5.38D-02
 Coeff-Com: -0.185D-01 0.415D+00 0.604D+00
 Coeff-En:   0.000D+00 0.000D+00 0.100D+01
 Coeff:     -0.175D-01 0.393D+00 0.625D+00
 Gap=     0.167 Goal=   None    Shift=    0.000
 RMSDP=7.84D-04 MaxDP=3.32D-02 DE=-2.26D-01 OVMax= 8.20D-02

 Cycle   4  Pass 1  IDiag  1:
 RMSU=  6.30D-04    CP:  9.75D-01  9.60D-01  6.65D-01
 E= -1548.94204140640     Delta-E=       -0.010052906173 Rises=F Damp=F
 DIIS: error= 3.67D-03 at cycle   4 NSaved=   4.
 NSaved= 4 IEnMin= 4 EnMin= -1548.94204140640     IErMin= 4 ErrMin= 3.67D-03
 ErrMax= 3.67D-03  0.00D+00 EMaxC= 1.00D-01 BMatC= 7.55D-03 BMatP= 1.67D-02
 IDIUse=3 WtCom= 9.63D-01 WtEn= 3.67D-02
 Coeff-Com: -0.178D-01 0.892D-01 0.415D+00 0.513D+00
 Coeff-En:   0.000D+00 0.000D+00 0.340D+00 0.660D+00
 Coeff:     -0.171D-01 0.860D-01 0.412D+00 0.519D+00
 Gap=     0.164 Goal=   None    Shift=    0.000
 RMSDP=3.59D-04 MaxDP=1.40D-02 DE=-1.01D-02 OVMax= 3.20D-02

 Cycle   5  Pass 1  IDiag  1:
 RMSU=  1.51D-04    CP:  9.75D-01  9.57D-01  7.73D-01  5.34D-01
 E= -1548.95011810345     Delta-E=       -0.008076697049 Rises=F Damp=F
 DIIS: error= 5.15D-04 at cycle   5 NSaved=   5.
 NSaved= 5 IEnMin= 5 EnMin= -1548.95011810345     IErMin= 5 ErrMin= 5.15D-04
 ErrMax= 5.15D-04  0.00D+00 EMaxC= 1.00D-01 BMatC= 1.85D-04 BMatP= 7.55D-03
 IDIUse=3 WtCom= 9.95D-01 WtEn= 5.15D-03
 Coeff-Com: -0.562D-02 0.144D-01 0.151D+00 0.235D+00 0.605D+00
 Coeff-En:   0.000D+00 0.000D+00 0.000D+00 0.000D+00 0.100D+01
 Coeff:     -0.559D-02 0.143D-01 0.150D+00 0.234D+00 0.607D+00
 Gap=     0.162 Goal=   None    Shift=    0.000
 RMSDP=6.98D-05 MaxDP=6.98D-03 DE=-8.08D-03 OVMax= 4.75D-03

 Cycle   6  Pass 1  IDiag  1:
 RMSU=  3.95D-05    CP:  9.75D-01  9.52D-01  7.87D-01  5.72D-01  6.91D-01
 E= -1548.95030942236     Delta-E=       -0.000191318914 Rises=F Damp=F
 DIIS: error= 1.30D-04 at cycle   6 NSaved=   6.
 NSaved= 6 IEnMin= 6 EnMin= -1548.95030942236     IErMin= 6 ErrMin= 1.30D-04
 ErrMax= 1.30D-04  0.00D+00 EMaxC= 1.00D-01 BMatC= 1.54D-05 BMatP= 1.85D-04
 IDIUse=3 WtCom= 9.99D-01 WtEn= 1.30D-03
 Coeff-Com: -0.144D-02 0.847D-03 0.465D-01 0.787D-01 0.291D+00 0.585D+00
 Coeff-En:   0.000D+00 0.000D+00 0.000D+00 0.000D+00 0.000D+00 0.100D+01
 Coeff:     -0.144D-02 0.846D-03 0.464D-01 0.786D-01 0.290D+00 0.585D+00
 Gap=     0.162 Goal=   None    Shift=    0.000
 RMSDP=1.62D-05 MaxDP=7.24D-04 DE=-1.91D-04 OVMax= 1.24D-03

 Cycle   7  Pass 1  IDiag  1:
 RMSU=  1.10D-05    CP:  9.75D-01  9.52D-01  7.89D-01  5.75D-01  7.32D-01
                    CP:  7.57D-01
 E= -1548.95032413383     Delta-E=       -0.000014711467 Rises=F Damp=F
 DIIS: error= 3.12D-05 at cycle   7 NSaved=   7.
 NSaved= 7 IEnMin= 7 EnMin= -1548.95032413383     IErMin= 7 ErrMin= 3.12D-05
 ErrMax= 3.12D-05  0.00D+00 EMaxC= 1.00D-01 BMatC= 1.58D-06 BMatP= 1.54D-05
 IDIUse=1 WtCom= 1.00D+00 WtEn= 0.00D+00
 Coeff-Com: -0.208D-03-0.870D-03 0.111D-01 0.192D-01 0.924D-01 0.297D+00
 Coeff-Com:  0.582D+00
 Coeff:     -0.208D-03-0.870D-03 0.111D-01 0.192D-01 0.924D-01 0.297D+00
 Coeff:      0.582D+00
 Gap=     0.162 Goal=   None    Shift=    0.000
 RMSDP=5.27D-06 MaxDP=2.74D-04 DE=-1.47D-05 OVMax= 3.88D-04

 Cycle   8  Pass 1  IDiag  1:
 RMSU=  3.82D-06    CP:  9.75D-01  9.52D-01  7.89D-01  5.76D-01  7.41D-01
                    CP:  7.98D-01  7.36D-01
 E= -1548.95032558950     Delta-E=       -0.000001455677 Rises=F Damp=F
 DIIS: error= 1.37D-05 at cycle   8 NSaved=   8.
 NSaved= 8 IEnMin= 8 EnMin= -1548.95032558950     IErMin= 8 ErrMin= 1.37D-05
 ErrMax= 1.37D-05  0.00D+00 EMaxC= 1.00D-01 BMatC= 1.86D-07 BMatP= 1.58D-06
 IDIUse=1 WtCom= 1.00D+00 WtEn= 0.00D+00
 Coeff-Com:  0.141D-03-0.658D-03-0.655D-03-0.180D-02 0.578D-02 0.744D-01
 Coeff-Com:  0.287D+00 0.636D+00
 Coeff:      0.141D-03-0.658D-03-0.655D-03-0.180D-02 0.578D-02 0.744D-01
 Coeff:      0.287D+00 0.636D+00
 Gap=     0.162 Goal=   None    Shift=    0.000
 RMSDP=2.09D-06 MaxDP=6.86D-05 DE=-1.46D-06 OVMax= 2.14D-04

 Cycle   9  Pass 1  IDiag  1:
 RMSU=  1.46D-06    CP:  9.75D-01  9.52D-01  7.89D-01  5.76D-01  7.43D-01
                    CP:  8.09D-01  8.32D-01  7.87D-01
 E= -1548.95032577443     Delta-E=       -0.000000184922 Rises=F Damp=F
 DIIS: error= 5.55D-06 at cycle   9 NSaved=   9.
 NSaved= 9 IEnMin= 9 EnMin= -1548.95032577443     IErMin= 9 ErrMin= 5.55D-06
 ErrMax= 5.55D-06  0.00D+00 EMaxC= 1.00D-01 BMatC= 3.21D-08 BMatP= 1.86D-07
 IDIUse=1 WtCom= 1.00D+00 WtEn= 0.00D+00
 Coeff-Com:  0.118D-03-0.280D-03-0.168D-02-0.354D-02-0.836D-02 0.529D-02
 Coeff-Com:  0.815D-01 0.357D+00 0.570D+00
 Coeff:      0.118D-03-0.280D-03-0.168D-02-0.354D-02-0.836D-02 0.529D-02
 Coeff:      0.815D-01 0.357D+00 0.570D+00
 Gap=     0.162 Goal=   None    Shift=    0.000
 RMSDP=7.50D-07 MaxDP=3.93D-05 DE=-1.85D-07 OVMax= 5.71D-05

 Cycle  10  Pass 1  IDiag  1:
 RMSU=  3.77D-07    CP:  9.75D-01  9.52D-01  7.89D-01  5.76D-01  7.43D-01
                    CP:  8.18D-01  8.39D-01  8.71D-01  7.44D-01
 E= -1548.95032581063     Delta-E=       -0.000000036201 Rises=F Damp=F
 DIIS: error= 8.84D-07 at cycle  10 NSaved=  10.
 NSaved=10 IEnMin=10 EnMin= -1548.95032581063     IErMin=10 ErrMin= 8.84D-07
 ErrMax= 8.84D-07  0.00D+00 EMaxC= 1.00D-01 BMatC= 9.75D-10 BMatP= 3.21D-08
 IDIUse=1 WtCom= 1.00D+00 WtEn= 0.00D+00
 Coeff-Com:  0.334D-04-0.496D-04-0.501D-03-0.113D-02-0.320D-02-0.318D-02
 Coeff-Com:  0.498D-02 0.790D-01 0.197D+00 0.727D+00
 Coeff:      0.334D-04-0.496D-04-0.501D-03-0.113D-02-0.320D-02-0.318D-02
 Coeff:      0.498D-02 0.790D-01 0.197D+00 0.727D+00
 Gap=     0.162 Goal=   None    Shift=    0.000
 RMSDP=1.75D-07 MaxDP=6.46D-06 DE=-3.62D-08 OVMax= 1.96D-05

 Cycle  11  Pass 1  IDiag  1:
 RMSU=  1.33D-07    CP:  9.75D-01  9.52D-01  7.89D-01  5.76D-01  7.43D-01
                    CP:  8.19D-01  8.45D-01  8.84D-01  7.73D-01  9.03D-01
 E= -1548.95032581167     Delta-E=       -0.000000001048 Rises=F Damp=F
 DIIS: error= 3.72D-07 at cycle  11 NSaved=  11.
 NSaved=11 IEnMin=11 EnMin= -1548.95032581167     IErMin=11 ErrMin= 3.72D-07
 ErrMax= 3.72D-07  0.00D+00 EMaxC= 1.00D-01 BMatC= 2.05D-10 BMatP= 9.75D-10
 IDIUse=1 WtCom= 1.00D+00 WtEn= 0.00D+00
 Coeff-Com:  0.360D-05 0.670D-05-0.484D-04-0.158D-03-0.572D-03-0.210D-02
 Coeff-Com: -0.772D-02-0.284D-02 0.305D-01 0.366D+00 0.617D+00
 Coeff:      0.360D-05 0.670D-05-0.484D-04-0.158D-03-0.572D-03-0.210D-02
 Coeff:     -0.772D-02-0.284D-02 0.305D-01 0.366D+00 0.617D+00
 Gap=     0.162 Goal=   None    Shift=    0.000
 RMSDP=7.16D-08 MaxDP=2.26D-06 DE=-1.05D-09 OVMax= 6.57D-06

 Cycle  12  Pass 1  IDiag  1:
 RMSU=  4.25D-08    CP:  9.75D-01  9.52D-01  7.89D-01  5.76D-01  7.43D-01
                    CP:  8.19D-01  8.45D-01  8.91D-01  7.89D-01  9.72D-01
                    CP:  7.36D-01
 E= -1548.95032581192     Delta-E=       -0.000000000245 Rises=F Damp=F
 DIIS: error= 1.34D-07 at cycle  12 NSaved=  12.
 NSaved=12 IEnMin=12 EnMin= -1548.95032581192     IErMin=12 ErrMin= 1.34D-07
 ErrMax= 1.34D-07  0.00D+00 EMaxC= 1.00D-01 BMatC= 2.12D-11 BMatP= 2.05D-10
 IDIUse=1 WtCom= 1.00D+00 WtEn= 0.00D+00
 Coeff-Com: -0.147D-05 0.783D-05 0.309D-04 0.430D-04 0.805D-04-0.645D-03
 Coeff-Com: -0.441D-02-0.955D-02-0.525D-02 0.101D+00 0.303D+00 0.616D+00
 Coeff:     -0.147D-05 0.783D-05 0.309D-04 0.430D-04 0.805D-04-0.645D-03
 Coeff:     -0.441D-02-0.955D-02-0.525D-02 0.101D+00 0.303D+00 0.616D+00
 Gap=     0.162 Goal=   None    Shift=    0.000
 RMSDP=2.42D-08 MaxDP=1.06D-06 DE=-2.45D-10 OVMax= 2.64D-06

 Cycle  13  Pass 1  IDiag  1:
 RMSU=  1.57D-08    CP:  9.75D-01  9.52D-01  7.89D-01  5.76D-01  7.43D-01
                    CP:  8.19D-01  8.46D-01  8.91D-01  7.93D-01  9.90D-01
                    CP:  8.04D-01  7.28D-01
 E= -1548.95032581194     Delta-E=       -0.000000000024 Rises=F Damp=F
 DIIS: error= 5.58D-08 at cycle  13 NSaved=  13.
 NSaved=13 IEnMin=13 EnMin= -1548.95032581194     IErMin=13 ErrMin= 5.58D-08
 ErrMax= 5.58D-08  0.00D+00 EMaxC= 1.00D-01 BMatC= 3.11D-12 BMatP= 2.12D-11
 IDIUse=1 WtCom= 1.00D+00 WtEn= 0.00D+00
 Coeff-Com: -0.124D-05 0.325D-05 0.213D-04 0.424D-04 0.110D-03-0.108D-03
 Coeff-Com: -0.151D-02-0.513D-02-0.723D-02 0.576D-02 0.819D-01 0.331D+00
 Coeff-Com:  0.595D+00
 Coeff:     -0.124D-05 0.325D-05 0.213D-04 0.424D-04 0.110D-03-0.108D-03
 Coeff:     -0.151D-02-0.513D-02-0.723D-02 0.576D-02 0.819D-01 0.331D+00
 Coeff:      0.595D+00
 Gap=     0.162 Goal=   None    Shift=    0.000
 RMSDP=7.64D-09 MaxDP=2.69D-07 DE=-2.36D-11 OVMax= 6.82D-07

 Error on total polarization charges =  0.01959
 SCF Done:  E(RB3LYP) =  -1548.95032581     A.U. after   13 cycles
            NFock= 13  Conv=0.76D-08     -V/T= 2.0057
 KE= 1.540116073962D+03 PE=-6.908209220440D+03 EE= 2.176058151549D+03
 Leave Link  502 at Sun Jul 18 13:50:38 2021, MaxMem=   104857600 cpu:             303.1 elap:              76.0
 (Enter /prod/apps/gaussian/g16b1/l601.exe)
 Copying SCF densities to generalized density rwf, IOpCl= 0 IROHF=0.

 **********************************************************************

            Population analysis using the SCF Density.

 **********************************************************************

 Orbital symmetries:
       Occupied  (A) (A) (A) (A) (A) (A) (A) (A) (A) (A) (A) (A)
                 (A) (A) (A) (A) (A) (A) (A) (A) (A) (A) (A) (A)
                 (A) (A) (A) (A) (A) (A) (A) (A) (A) (A) (A) (A)
                 (A) (A) (A) (A) (A) (A) (A) (A) (A) (A) (A) (A)
                 (A) (A) (A) (A) (A) (A) (A) (A) (A) (A) (A) (A)
                 (A) (A) (A) (A) (A) (A) (A) (A) (A) (A) (A) (A)
                 (A) (A) (A) (A)
       Virtual   (A) (A) (A) (A) (A) (A) (A) (A) (A) (A) (A) (A)
                 (A) (A) (A) (A) (A) (A) (A) (A) (A) (A) (A) (A)
                 (A) (A) (A) (A) (A) (A) (A) (A) (A) (A) (A) (A)
                 (A) (A) (A) (A) (A) (A) (A) (A) (A) (A) (A) (A)
                 (A) (A) (A) (A) (A) (A) (A) (A) (A) (A) (A) (A)
                 (A) (A) (A) (A) (A) (A) (A) (A) (A) (A) (A) (A)
                 (A) (A) (A) (A) (A) (A) (A) (A) (A) (A) (A) (A)
                 (A) (A) (A) (A) (A) (A) (A) (A) (A) (A) (A) (A)
                 (A) (A) (A) (A) (A) (A) (A) (A) (A) (A) (A) (A)
                 (A) (A) (A) (A) (A) (A) (A) (A) (A) (A) (A) (A)
                 (A) (A) (A) (A) (A) (A) (A) (A) (A) (A) (A) (A)
                 (A) (A) (A) (A) (A) (A) (A) (A) (A) (A) (A) (A)
                 (A) (A) (A) (A) (A) (A) (A) (A) (A) (A) (A) (A)
                 (A) (A) (A) (A) (A) (A) (A) (A) (A) (A) (A) (A)
                 (A) (A) (A) (A) (A) (A) (A) (A) (A) (A) (A) (A)
                 (A) (A) (A) (A) (A) (A) (A) (A) (A) (A) (A) (A)
                 (A) (A) (A) (A) (A) (A) (A) (A) (A) (A) (A) (A)
                 (A) (A) (A) (A) (A) (A) (A) (A) (A) (A) (A) (A)
                 (A) (A) (A) (A) (A) (A) (A) (A) (A) (A) (A) (A)
                 (A) (A) (A) (A) (A) (A) (A) (A) (A) (A) (A) (A)
                 (A) (A) (A) (A) (A) (A) (A) (A) (A)
 The electronic state is 1-A.
 Alpha  occ. eigenvalues -- -101.55562 -88.90232 -14.44610 -14.36622 -10.25057
 Alpha  occ. eigenvalues --  -10.25022 -10.24518 -10.23830 -10.23595 -10.23172
 Alpha  occ. eigenvalues --  -10.22974 -10.20712 -10.20563 -10.20333 -10.19795
 Alpha  occ. eigenvalues --  -10.19692 -10.19443 -10.19393 -10.19088  -9.47197
 Alpha  occ. eigenvalues --   -7.96434  -7.23581  -7.22630  -7.22601  -5.92924
 Alpha  occ. eigenvalues --   -5.92538  -5.91957  -1.02512  -0.98395  -0.89987
 Alpha  occ. eigenvalues --   -0.86658  -0.85505  -0.80828  -0.80528  -0.77278
 Alpha  occ. eigenvalues --   -0.75037  -0.73860  -0.71301  -0.68121  -0.65008
 Alpha  occ. eigenvalues --   -0.63925  -0.61891  -0.60474  -0.60244  -0.58048
 Alpha  occ. eigenvalues --   -0.56219  -0.54819  -0.52836  -0.50235  -0.48846
 Alpha  occ. eigenvalues --   -0.48250  -0.47367  -0.46775  -0.46138  -0.44803
 Alpha  occ. eigenvalues --   -0.43832  -0.43226  -0.42711  -0.40861  -0.40642
 Alpha  occ. eigenvalues --   -0.40249  -0.39265  -0.38734  -0.38265  -0.36236
 Alpha  occ. eigenvalues --   -0.35663  -0.35289  -0.34341  -0.33783  -0.32159
 Alpha  occ. eigenvalues --   -0.31163  -0.29872  -0.26593  -0.25537  -0.23155
 Alpha  occ. eigenvalues --   -0.19020
 Alpha virt. eigenvalues --   -0.02793  -0.01615  -0.00728  -0.00005   0.01900
 Alpha virt. eigenvalues --    0.03276   0.05237   0.07861   0.09335   0.09620
 Alpha virt. eigenvalues --    0.10914   0.11498   0.11796   0.13433   0.13779
 Alpha virt. eigenvalues --    0.14032   0.14402   0.15335   0.15549   0.16097
 Alpha virt. eigenvalues --    0.16912   0.17545   0.17998   0.19344   0.20331
 Alpha virt. eigenvalues --    0.21115   0.22523   0.23414   0.24702   0.24983
 Alpha virt. eigenvalues --    0.26410   0.26969   0.27663   0.28709   0.30426
 Alpha virt. eigenvalues --    0.31683   0.32460   0.32982   0.35401   0.36356
 Alpha virt. eigenvalues --    0.38008   0.38629   0.39163   0.40841   0.42815
 Alpha virt. eigenvalues --    0.43446   0.44383   0.46518   0.48780   0.50166
 Alpha virt. eigenvalues --    0.50847   0.51289   0.51812   0.52067   0.53218
 Alpha virt. eigenvalues --    0.54300   0.54680   0.55637   0.56473   0.57001
 Alpha virt. eigenvalues --    0.57222   0.57876   0.58667   0.59501   0.59777
 Alpha virt. eigenvalues --    0.60378   0.60525   0.60777   0.61683   0.62536
 Alpha virt. eigenvalues --    0.63302   0.63844   0.64101   0.65204   0.65786
 Alpha virt. eigenvalues --    0.66723   0.68456   0.69792   0.70953   0.71290
 Alpha virt. eigenvalues --    0.72018   0.75957   0.76552   0.78148   0.80196
 Alpha virt. eigenvalues --    0.80674   0.81692   0.82611   0.83550   0.83948
 Alpha virt. eigenvalues --    0.84484   0.84660   0.84751   0.85536   0.86051
 Alpha virt. eigenvalues --    0.86269   0.86837   0.87027   0.87384   0.89219
 Alpha virt. eigenvalues --    0.90110   0.90442   0.90723   0.91603   0.92457
 Alpha virt. eigenvalues --    0.93029   0.93627   0.94261   0.95000   0.96405
 Alpha virt. eigenvalues --    0.97289   0.97709   0.98589   1.00681   1.02044
 Alpha virt. eigenvalues --    1.02890   1.04717   1.05060   1.05554   1.06493
 Alpha virt. eigenvalues --    1.08526   1.09001   1.09629   1.11224   1.14207
 Alpha virt. eigenvalues --    1.15936   1.17569   1.18999   1.21035   1.22556
 Alpha virt. eigenvalues --    1.23463   1.24601   1.27726   1.28931   1.30588
 Alpha virt. eigenvalues --    1.33177   1.36316   1.36874   1.40424   1.41352
 Alpha virt. eigenvalues --    1.41916   1.43451   1.44232   1.45702   1.46599
 Alpha virt. eigenvalues --    1.48413   1.50013   1.51808   1.53286   1.54514
 Alpha virt. eigenvalues --    1.55214   1.57486   1.59833   1.60393   1.63104
 Alpha virt. eigenvalues --    1.67644   1.69722   1.73795   1.74773   1.79223
 Alpha virt. eigenvalues --    1.80036   1.80818   1.82109   1.83719   1.85015
 Alpha virt. eigenvalues --    1.88250   1.88949   1.89505   1.92247   1.92597
 Alpha virt. eigenvalues --    1.93539   1.94842   1.95737   1.97490   1.98571
 Alpha virt. eigenvalues --    1.99527   2.00534   2.04118   2.04427   2.07269
 Alpha virt. eigenvalues --    2.08220   2.08978   2.11704   2.11907   2.13198
 Alpha virt. eigenvalues --    2.14992   2.15615   2.17339   2.18620   2.21333
 Alpha virt. eigenvalues --    2.22570   2.24874   2.25497   2.27626   2.28722
 Alpha virt. eigenvalues --    2.30897   2.32702   2.34697   2.35306   2.35769
 Alpha virt. eigenvalues --    2.38430   2.42580   2.47604   2.48482   2.51188
 Alpha virt. eigenvalues --    2.52337   2.55511   2.56106   2.58900   2.61359
 Alpha virt. eigenvalues --    2.61686   2.63225   2.65526   2.66796   2.69069
 Alpha virt. eigenvalues --    2.70704   2.73765   2.74335   2.75908   2.77428
 Alpha virt. eigenvalues --    2.79110   2.79152   2.80530   2.86621   2.92579
 Alpha virt. eigenvalues --    2.97231   3.06988   3.27070   3.33319   3.40547
 Alpha virt. eigenvalues --    3.79552   3.97614   4.06417   4.08753   4.09805
 Alpha virt. eigenvalues --    4.11487   4.12759   4.14790   4.19516   4.26384
 Alpha virt. eigenvalues --    4.28831   4.32866   4.35134   4.36048   4.37923
 Alpha virt. eigenvalues --    4.42076   4.52532   4.65320   4.75655
          Condensed to atoms (all electrons):
               1          2          3          4          5          6
     1  N    6.697449   0.305981   0.304669   0.236605  -0.033763  -0.042766
     2  H    0.305981   0.273359  -0.009819  -0.020242   0.003851  -0.004894
     3  H    0.304669  -0.009819   0.271160  -0.019378  -0.002466  -0.002390
     4  C    0.236605  -0.020242  -0.019378   4.979691   0.389486   0.391574
     5  H   -0.033763   0.003851  -0.002466   0.389486   0.479103  -0.025689
     6  H   -0.042766  -0.004894  -0.002390   0.391574  -0.025689   0.497604
     7  C   -0.066923  -0.001992   0.005080   0.350313  -0.032654  -0.038228
     8  H   -0.001674   0.004765   0.000057  -0.030855   0.003768  -0.003476
     9  H   -0.002986  -0.000692  -0.000089  -0.032041  -0.005947   0.004746
    10  C    0.003431  -0.000009  -0.000125  -0.036679  -0.000937  -0.003010
    11  H   -0.000029   0.000010   0.000015   0.000072   0.003698  -0.000264
    12  H   -0.000081  -0.000006   0.000007  -0.000982  -0.000387   0.003996
    13  N   -0.000052  -0.000001   0.000001   0.002955   0.000011  -0.000003
    14  C   -0.000000   0.000000   0.000000   0.000082   0.000006  -0.000002
    15  C    0.000005   0.000000  -0.000000   0.000031   0.000018  -0.000001
    16  H   -0.000020   0.000000   0.000000   0.000097   0.000020   0.000001
    17  C   -0.000000  -0.000000   0.000000  -0.000001  -0.000000   0.000000
    18  Cl   0.000000  -0.000000  -0.000000  -0.000001  -0.000000   0.000000
    19  C   -0.000000   0.000000  -0.000000  -0.000000   0.000000  -0.000000
    20  H   -0.000000  -0.000000  -0.000000  -0.000000  -0.000000   0.000000
    21  C    0.000000  -0.000000  -0.000000  -0.000000  -0.000000  -0.000000
    22  H   -0.000000  -0.000000   0.000000   0.000000   0.000000   0.000000
    23  C   -0.000000  -0.000000   0.000000   0.000008   0.000000   0.000000
    24  S   -0.000000   0.000000  -0.000000  -0.000002  -0.000000  -0.000000
    25  C   -0.000000  -0.000000   0.000000   0.000006   0.000000   0.000000
    26  C   -0.000000  -0.000000   0.000000   0.000015  -0.000001   0.000005
    27  C    0.000003  -0.000002  -0.000000  -0.000033  -0.000000   0.000016
    28  H   -0.000012  -0.000004   0.000000   0.000077   0.000001   0.000011
    29  C   -0.000000   0.000000   0.000000  -0.000000   0.000000  -0.000001
    30  H    0.000000   0.000000  -0.000000  -0.000000  -0.000000  -0.000000
    31  C   -0.000000  -0.000000  -0.000000  -0.000000  -0.000000   0.000000
    32  H    0.000000   0.000000   0.000000   0.000000   0.000000  -0.000000
    33  C    0.000000  -0.000000  -0.000000  -0.000000  -0.000000  -0.000000
    34  H   -0.000000  -0.000000   0.000000   0.000000  -0.000000   0.000000
    35  H    0.303059  -0.011840  -0.010250  -0.021407  -0.003285   0.004836
               7          8          9         10         11         12
     1  N   -0.066923  -0.001674  -0.002986   0.003431  -0.000029  -0.000081
     2  H   -0.001992   0.004765  -0.000692  -0.000009   0.000010  -0.000006
     3  H    0.005080   0.000057  -0.000089  -0.000125   0.000015   0.000007
     4  C    0.350313  -0.030855  -0.032041  -0.036679   0.000072  -0.000982
     5  H   -0.032654   0.003768  -0.005947  -0.000937   0.003698  -0.000387
     6  H   -0.038228  -0.003476   0.004746  -0.003010  -0.000264   0.003996
     7  C    5.132718   0.375077   0.365307   0.367720  -0.046271  -0.048027
     8  H    0.375077   0.522585  -0.046137  -0.023266   0.003899  -0.003153
     9  H    0.365307  -0.046137   0.558908  -0.039757  -0.005340   0.005427
    10  C    0.367720  -0.023266  -0.039757   4.950764   0.365240   0.368286
    11  H   -0.046271   0.003899  -0.005340   0.365240   0.549497  -0.033937
    12  H   -0.048027  -0.003153   0.005427   0.368286  -0.033937   0.553578
    13  N   -0.043361   0.001280  -0.000072   0.287853  -0.032085  -0.038075
    14  C   -0.003208   0.000299  -0.000690  -0.031133   0.002147   0.002724
    15  C   -0.002941   0.000072   0.000932  -0.008209   0.002951   0.000405
    16  H   -0.000913   0.000147   0.006992   0.000948   0.000455   0.000029
    17  C    0.000085  -0.000003   0.000288  -0.000533  -0.000031   0.000024
    18  Cl  -0.000001  -0.000000   0.000003   0.000003  -0.000001  -0.000001
    19  C   -0.000000   0.000000  -0.000003   0.000064  -0.000038  -0.000002
    20  H    0.000000  -0.000000   0.000000   0.000000  -0.000000  -0.000000
    21  C    0.000005  -0.000000  -0.000000  -0.000042  -0.000110  -0.000000
    22  H   -0.000000   0.000000   0.000000   0.000000   0.000001   0.000000
    23  C   -0.000209   0.000003  -0.000007   0.000545   0.001636   0.000227
    24  S    0.000016  -0.000001  -0.000001   0.001916  -0.000401  -0.000372
    25  C   -0.000169  -0.000010   0.000004   0.001083   0.000213   0.001531
    26  C   -0.001652  -0.000483   0.000354  -0.031178   0.002198   0.004321
    27  C   -0.000568   0.000149   0.000007  -0.009343   0.000419   0.003412
    28  H    0.000511   0.003803  -0.000043   0.001114   0.000030   0.000270
    29  C    0.000045   0.000051  -0.000003  -0.000294   0.000011  -0.000148
    30  H    0.000001  -0.000004  -0.000000   0.000003  -0.000000  -0.000004
    31  C    0.000001   0.000000   0.000000   0.000050  -0.000003  -0.000053
    32  H    0.000000  -0.000000  -0.000000  -0.000000   0.000000   0.000000
    33  C    0.000003  -0.000000  -0.000000   0.000008  -0.000005  -0.000145
    34  H   -0.000000   0.000000   0.000000   0.000002  -0.000000   0.000002
    35  H   -0.002429  -0.000943   0.005876  -0.000101  -0.000006   0.000018
              13         14         15         16         17         18
     1  N   -0.000052  -0.000000   0.000005  -0.000020  -0.000000   0.000000
     2  H   -0.000001   0.000000   0.000000   0.000000  -0.000000  -0.000000
     3  H    0.000001   0.000000  -0.000000   0.000000   0.000000  -0.000000
     4  C    0.002955   0.000082   0.000031   0.000097  -0.000001  -0.000001
     5  H    0.000011   0.000006   0.000018   0.000020  -0.000000  -0.000000
     6  H   -0.000003  -0.000002  -0.000001   0.000001   0.000000   0.000000
     7  C   -0.043361  -0.003208  -0.002941  -0.000913   0.000085  -0.000001
     8  H    0.001280   0.000299   0.000072   0.000147  -0.000003  -0.000000
     9  H   -0.000072  -0.000690   0.000932   0.006992   0.000288   0.000003
    10  C    0.287853  -0.031133  -0.008209   0.000948  -0.000533   0.000003
    11  H   -0.032085   0.002147   0.002951   0.000455  -0.000031  -0.000001
    12  H   -0.038075   0.002724   0.000405   0.000029   0.000024  -0.000001
    13  N    7.085663   0.314506  -0.070689  -0.007920   0.006098  -0.000138
    14  C    0.314506   4.620042   0.492911  -0.034328  -0.013844   0.004422
    15  C   -0.070689   0.492911   5.133363   0.347770   0.499794  -0.067914
    16  H   -0.007920  -0.034328   0.347770   0.545599  -0.043752  -0.001614
    17  C    0.006098  -0.013844   0.499794  -0.043752   4.943459   0.228336
    18  Cl  -0.000138   0.004422  -0.067914  -0.001614   0.228336  16.943216
    19  C    0.000359  -0.041659  -0.038477   0.005496   0.534535  -0.066940
    20  H    0.000003   0.000851   0.005029  -0.000230  -0.042080  -0.000527
    21  C    0.005554  -0.000627  -0.049250   0.000442  -0.026505   0.004435
    22  H   -0.000134   0.003359   0.000616   0.000016   0.003568  -0.000130
    23  C   -0.078285   0.481307  -0.070544   0.005887  -0.030663   0.000381
    24  S   -0.000809  -0.055593   0.006433  -0.000210   0.000466   0.000014
    25  C   -0.084529  -0.007457   0.001367   0.000005   0.000015   0.000000
    26  C    0.298060  -0.027100   0.005584   0.000255  -0.000204   0.000002
    27  C   -0.075606   0.003659  -0.000589  -0.000021   0.000002  -0.000000
    28  H   -0.007995   0.000214   0.000002   0.000009   0.000000  -0.000000
    29  C    0.005316  -0.000094   0.000003   0.000000   0.000000   0.000000
    30  H   -0.000103   0.000001  -0.000000  -0.000000  -0.000000  -0.000000
    31  C    0.000308  -0.000043  -0.000000   0.000000   0.000000  -0.000000
    32  H    0.000003   0.000000   0.000000   0.000000   0.000000  -0.000000
    33  C    0.005218   0.001042   0.000004   0.000000  -0.000000   0.000000
    34  H   -0.000136   0.000001  -0.000000   0.000000   0.000000  -0.000000
    35  H   -0.000001  -0.000000  -0.000005  -0.000008   0.000000   0.000000
              19         20         21         22         23         24
     1  N   -0.000000  -0.000000   0.000000  -0.000000  -0.000000  -0.000000
     2  H    0.000000  -0.000000  -0.000000  -0.000000  -0.000000   0.000000
     3  H   -0.000000  -0.000000  -0.000000   0.000000   0.000000  -0.000000
     4  C   -0.000000  -0.000000  -0.000000   0.000000   0.000008  -0.000002
     5  H    0.000000  -0.000000  -0.000000   0.000000   0.000000  -0.000000
     6  H   -0.000000   0.000000  -0.000000   0.000000   0.000000  -0.000000
     7  C   -0.000000   0.000000   0.000005  -0.000000  -0.000209   0.000016
     8  H    0.000000  -0.000000  -0.000000   0.000000   0.000003  -0.000001
     9  H   -0.000003   0.000000  -0.000000   0.000000  -0.000007  -0.000001
    10  C    0.000064   0.000000  -0.000042   0.000000   0.000545   0.001916
    11  H   -0.000038  -0.000000  -0.000110   0.000001   0.001636  -0.000401
    12  H   -0.000002  -0.000000  -0.000000   0.000000   0.000227  -0.000372
    13  N    0.000359   0.000003   0.005554  -0.000134  -0.078285  -0.000809
    14  C   -0.041659   0.000851  -0.000627   0.003359   0.481307  -0.055593
    15  C   -0.038477   0.005029  -0.049250   0.000616  -0.070544   0.006433
    16  H    0.005496  -0.000230   0.000442   0.000016   0.005887  -0.000210
    17  C    0.534535  -0.042080  -0.026505   0.003568  -0.030663   0.000466
    18  Cl  -0.066940  -0.000527   0.004435  -0.000130   0.000381   0.000014
    19  C    4.966375   0.361727   0.500624  -0.033920  -0.036154   0.005172
    20  H    0.361727   0.539792  -0.033884  -0.004068   0.004044  -0.000164
    21  C    0.500624  -0.033884   4.974007   0.362599   0.513955  -0.063400
    22  H   -0.033920  -0.004068   0.362599   0.533891  -0.042264  -0.000652
    23  C   -0.036154   0.004044   0.513955  -0.042264   5.123866   0.234226
    24  S    0.005172  -0.000164  -0.063400  -0.000652   0.234226  15.567154
    25  C   -0.000094   0.000000   0.000379   0.000109  -0.003435   0.241105
    26  C   -0.000029   0.000000   0.000754  -0.000011  -0.015086  -0.058197
    27  C   -0.000000   0.000000   0.000017  -0.000000   0.000755   0.005478
    28  H    0.000000   0.000000  -0.000000   0.000000  -0.000011  -0.000173
    29  C    0.000000  -0.000000  -0.000000   0.000000   0.000009   0.000200
    30  H   -0.000000   0.000000   0.000000  -0.000000   0.000000   0.000014
    31  C   -0.000000   0.000000   0.000001   0.000000  -0.000100   0.004813
    32  H    0.000000  -0.000000  -0.000000  -0.000000   0.000000  -0.000148
    33  C    0.000001  -0.000000  -0.000103   0.000003   0.001470  -0.061809
    34  H    0.000000  -0.000000   0.000000   0.000001   0.000096  -0.000489
[...]
     35          1           0       -1.861951    4.574115   -1.181020
 ---------------------------------------------------------------------
 Rotational constants (GHZ):           0.3519680           0.2525563           0.1525033
 Leave Link  202 at Sun Jul 18 14:30:55 2021, MaxMem=   262144000 cpu:               0.0 elap:               0.0
 (Enter /prod/apps/gaussian/g16b1/l301.exe)
 Standard basis: Aug-CC-pVDZ (5D, 7F)
 Ernie: Thresh=  0.10000D-02 Tol=  0.10000D-05 Strict=F.
 Ernie:  54 primitive shells out of 643 were deleted.
 There are   627 symmetry adapted cartesian basis functions of A   symmetry.
 There are   589 symmetry adapted basis functions of A   symmetry.
   589 basis functions,  1069 primitive gaussians,   627 cartesian basis functions
    76 alpha electrons       76 beta electrons
       nuclear repulsion energy      1636.9666314580 Hartrees.
 IExCor=    0 DFT=F Ex=HF Corr=None ExCW=0 ScaHFX=  1.000000
 ScaDFX=  1.000000  1.000000  1.000000  1.000000 ScalE2=  1.000000  1.000000
 IRadAn=      5 IRanWt=     -1 IRanGd=            0 ICorTp=0 IEmpDi=  4
 NAtoms=   35 NActive=   35 NUniq=   35 SFac= 1.00D+00 NAtFMM=   60 NAOKFM=F Big=F
 Integral buffers will be    131072 words long.
 Raffenetti 1 integral format.
 Two-electron integral symmetry is turned on.
 Leave Link  301 at Sun Jul 18 14:30:55 2021, MaxMem=   262144000 cpu:               0.3 elap:               0.1
 (Enter /prod/apps/gaussian/g16b1/l302.exe)
 NPDir=0 NMtPBC=     1 NCelOv=     1 NCel=       1 NClECP=     1 NCelD=      1
         NCelK=      1 NCelE2=     1 NClLst=     1 CellRange=     0.0.
 One-electron integrals computed using PRISM.
 One-electron integral symmetry used in STVInt
 NBasis=   589 RedAO= T EigKep=  1.27D-06  NBF=   589
 NBsUse=   588 1.00D-06 EigRej=  7.04D-07 NBFU=   588
 Leave Link  302 at Sun Jul 18 14:30:55 2021, MaxMem=   262144000 cpu:               1.9 elap:               0.5
 (Enter /prod/apps/gaussian/g16b1/l303.exe)
 DipDrv:  MaxL=1.
 Leave Link  303 at Sun Jul 18 14:30:55 2021, MaxMem=   262144000 cpu:               0.5 elap:               0.1
 (Enter /prod/apps/gaussian/g16b1/l401.exe)
 ExpMin= 2.97D-02 ExpMax= 1.28D+05 ExpMxC= 1.24D+03 IAcc=3 IRadAn=         5 AccDes= 0.00D+00
 Harris functional with IExCor=  205 and IRadAn=       5 diagonalized for initial guess.
 HarFok:  IExCor=  205 AccDes= 0.00D+00 IRadAn=         5 IDoV= 1 UseB2=F ITyADJ=14
 ICtDFT=  3500011 ScaDFX=  1.000000  1.000000  1.000000  1.000000
 FoFCou: FMM=F IPFlag=           0 FMFlag=      100000 FMFlg1=           0
         NFxFlg=           0 DoJE=T BraDBF=F KetDBF=T FulRan=T
         wScrn=  0.000000 ICntrl=       500 IOpCl=  0 I1Cent=   200000004 NGrid=           0
         NMat0=    1 NMatS0=      1 NMatT0=    0 NMatD0=    1 NMtDS0=    0 NMtDT0=    0
 Petite list used in FoFCou.
 Harris En= -1543.28681230644    
 JPrj=0 DoOrth=F DoCkMO=F.
 Leave Link  401 at Sun Jul 18 14:30:59 2021, MaxMem=   262144000 cpu:              16.7 elap:               4.2
 (Enter /prod/apps/gaussian/g16b1/l502.exe)
 Integral symmetry usage will be decided dynamically.
 Closed shell SCF:
 Using DIIS extrapolation, IDIIS=  1040.
 NGot=   262144000 LenX=   261348123 LenY=   260954367
 Requested convergence on RMS density matrix=1.00D-08 within 128 cycles.
 Requested convergence on MAX density matrix=1.00D-06.
 Requested convergence on             energy=1.00D-06.
 No special actions if energy rises.
 Fock matrices will be formed incrementally for  20 cycles.

 Cycle   1  Pass 1  IDiag  1:
 FoFJK:  IHMeth= 1 ICntrl=       0 DoSepK=F KAlg= 0 I1Cent=           0 FoldK=F
 IRaf= 940000000 NMat=       1 IRICut=       1 DoRegI=T DoRafI=F ISym2E= 0 IDoP0=0 IntGTp=1.
 FoFCou: FMM=F IPFlag=           0 FMFlag=      100000 FMFlg1=           0
         NFxFlg=           0 DoJE=F BraDBF=F KetDBF=F FulRan=T
         wScrn=  0.000000 ICntrl=         0 IOpCl=  0 I1Cent=           0 NGrid=           0
         NMat0=    1 NMatS0=      1 NMatT0=    0 NMatD0=    1 NMtDS0=    0 NMtDT0=    0
 Symmetry not used in FoFCou.
 E= -1542.37087125601    
 DIIS: error= 1.64D-02 at cycle   1 NSaved=   1.
 NSaved= 1 IEnMin= 1 EnMin= -1542.37087125601     IErMin= 1 ErrMin= 1.64D-02
 ErrMax= 1.64D-02  0.00D+00 EMaxC= 1.00D-01 BMatC= 9.15D-01 BMatP= 9.15D-01
 IDIUse=3 WtCom= 8.36D-01 WtEn= 1.64D-01
 Coeff-Com:  0.100D+01
 Coeff-En:   0.100D+01
 Coeff:      0.100D+01
 Gap=     0.476 Goal=   None    Shift=    0.000
 GapD=    0.476 DampG=2.000 DampE=0.500 DampFc=1.0000 IDamp=-1.
 RMSDP=5.75D-02 MaxDP=3.66D+00              OVMax= 2.11D-01

 Cycle   2  Pass 1  IDiag  1:
 RMSU=  2.84D-02    CP:  5.30D-01
 E= -1542.94067045506     Delta-E=       -0.569799199058 Rises=F Damp=F
 DIIS: error= 1.23D-02 at cycle   2 NSaved=   2.
 NSaved= 2 IEnMin= 2 EnMin= -1542.94067045506     IErMin= 2 ErrMin= 1.23D-02
 ErrMax= 1.23D-02  0.00D+00 EMaxC= 1.00D-01 BMatC= 1.65D-01 BMatP= 9.15D-01
 IDIUse=3 WtCom= 8.77D-01 WtEn= 1.23D-01
 Coeff-Com:  0.242D+00 0.758D+00
 Coeff-En:   0.000D+00 0.100D+01
 Coeff:      0.213D+00 0.787D+00
 Gap=     0.258 Goal=   None    Shift=    0.000
 RMSDP=6.76D-03 MaxDP=2.60D-01 DE=-5.70D-01 OVMax= 7.97D-02

 Cycle   3  Pass 1  IDiag  1:
 RMSU=  6.19D-03    CP:  5.27D-01  9.06D-01
 E= -1543.09338486073     Delta-E=       -0.152714405667 Rises=F Damp=F
 DIIS: error= 3.08D-03 at cycle   3 NSaved=   3.
 NSaved= 3 IEnMin= 3 EnMin= -1543.09338486073     IErMin= 3 ErrMin= 3.08D-03
 ErrMax= 3.08D-03  0.00D+00 EMaxC= 1.00D-01 BMatC= 1.73D-02 BMatP= 1.65D-01
 IDIUse=3 WtCom= 9.69D-01 WtEn= 3.08D-02
 Coeff-Com: -0.170D-01 0.209D+00 0.808D+00
 Coeff-En:   0.000D+00 0.000D+00 0.100D+01
 Coeff:     -0.165D-01 0.203D+00 0.814D+00
 Gap=     0.249 Goal=   None    Shift=    0.000
 RMSDP=2.24D-03 MaxDP=1.67D-01 DE=-1.53D-01 OVMax= 5.41D-02

 Cycle   4  Pass 1  IDiag  1:
 RMSU=  1.74D-03    CP:  5.19D-01  9.31D-01  8.67D-01
 E= -1543.11162390885     Delta-E=       -0.018239048117 Rises=F Damp=F
 DIIS: error= 1.09D-03 at cycle   4 NSaved=   4.
 NSaved= 4 IEnMin= 4 EnMin= -1543.11162390885     IErMin= 4 ErrMin= 1.09D-03
 ErrMax= 1.09D-03  0.00D+00 EMaxC= 1.00D-01 BMatC= 1.81D-03 BMatP= 1.73D-02
 IDIUse=3 WtCom= 9.89D-01 WtEn= 1.09D-02
 Coeff-Com: -0.175D-01 0.342D-01 0.301D+00 0.682D+00
 Coeff-En:   0.000D+00 0.000D+00 0.000D+00 0.100D+01
 Coeff:     -0.173D-01 0.338D-01 0.298D+00 0.685D+00
 Gap=     0.239 Goal=   None    Shift=    0.000
 RMSDP=7.09D-04 MaxDP=4.05D-02 DE=-1.82D-02 OVMax= 1.08D-02

 Cycle   5  Pass 1  IDiag  1:
 RMSU=  5.59D-04    CP:  5.15D-01  9.33D-01  8.65D-01  8.96D-01
 E= -1543.11364601715     Delta-E=       -0.002022108303 Rises=F Damp=F
 DIIS: error= 3.56D-04 at cycle   5 NSaved=   5.
 NSaved= 5 IEnMin= 5 EnMin= -1543.11364601715     IErMin= 5 ErrMin= 3.56D-04
 ErrMax= 3.56D-04  0.00D+00 EMaxC= 1.00D-01 BMatC= 1.09D-04 BMatP= 1.81D-03
 IDIUse=3 WtCom= 9.96D-01 WtEn= 3.56D-03
 Coeff-Com: -0.455D-03-0.210D-01-0.476D-01 0.830D-01 0.986D+00
 Coeff-En:   0.000D+00 0.000D+00 0.000D+00 0.000D+00 0.100D+01
 Coeff:     -0.453D-03-0.209D-01-0.474D-01 0.827D-01 0.986D+00
 Gap=     0.241 Goal=   None    Shift=    0.000
 RMSDP=2.79D-04 MaxDP=1.57D-02 DE=-2.02D-03 OVMax= 9.68D-03

 Cycle   6  Pass 1  IDiag  1:
 RMSU=  1.67D-04    CP:  5.15D-01  9.33D-01  8.83D-01  1.00D+00  1.02D+00
 E= -1543.11391617321     Delta-E=       -0.000270156054 Rises=F Damp=F
 DIIS: error= 9.25D-05 at cycle   6 NSaved=   6.
 NSaved= 6 IEnMin= 6 EnMin= -1543.11391617321     IErMin= 6 ErrMin= 9.25D-05
 ErrMax= 9.25D-05  0.00D+00 EMaxC= 1.00D-01 BMatC= 2.14D-05 BMatP= 1.09D-04
 IDIUse=1 WtCom= 1.00D+00 WtEn= 0.00D+00
 Coeff-Com:  0.190D-02-0.919D-02-0.414D-01-0.772D-01 0.217D+00 0.909D+00
 Coeff:      0.190D-02-0.919D-02-0.414D-01-0.772D-01 0.217D+00 0.909D+00
 Gap=     0.242 Goal=   None    Shift=    0.000
 RMSDP=1.05D-04 MaxDP=3.87D-03 DE=-2.70D-04 OVMax= 3.65D-03

 Cycle   7  Pass 1  IDiag  1:
 RMSU=  6.29D-05    CP:  5.14D-01  9.33D-01  8.84D-01  1.02D+00  1.15D+00
                    CP:  1.18D+00
 E= -1543.11396735379     Delta-E=       -0.000051180587 Rises=F Damp=F
 DIIS: error= 5.83D-05 at cycle   7 NSaved=   7.
 NSaved= 7 IEnMin= 7 EnMin= -1543.11396735379     IErMin= 7 ErrMin= 5.83D-05
 ErrMax= 5.83D-05  0.00D+00 EMaxC= 1.00D-01 BMatC= 2.68D-06 BMatP= 2.14D-05
 IDIUse=1 WtCom= 1.00D+00 WtEn= 0.00D+00
 Coeff-Com:  0.190D-03 0.154D-02 0.398D-02-0.234D-01-0.963D-01 0.337D-01
 Coeff-Com:  0.108D+01
 Coeff:      0.190D-03 0.154D-02 0.398D-02-0.234D-01-0.963D-01 0.337D-01
 Coeff:      0.108D+01
 Gap=     0.243 Goal=   None    Shift=    0.000
 RMSDP=4.70D-05 MaxDP=1.58D-03 DE=-5.12D-05 OVMax= 2.28D-03

 Cycle   8  Pass 1  IDiag  1:
 RMSU=  2.68D-05    CP:  5.14D-01  9.33D-01  8.86D-01  1.03D+00  1.17D+00
                    CP:  1.33D+00  1.24D+00
 E= -1543.11397815487     Delta-E=       -0.000010801079 Rises=F Damp=F
 DIIS: error= 2.28D-05 at cycle   8 NSaved=   8.
 NSaved= 8 IEnMin= 8 EnMin= -1543.11397815487     IErMin= 8 ErrMin= 2.28D-05
 ErrMax= 2.28D-05  0.00D+00 EMaxC= 1.00D-01 BMatC= 5.70D-07 BMatP= 2.68D-06
 IDIUse=1 WtCom= 1.00D+00 WtEn= 0.00D+00
 Coeff-Com: -0.312D-03 0.159D-02 0.785D-02 0.126D-01-0.263D-01-0.181D+00
 Coeff-Com:  0.282D-02 0.118D+01
 Coeff:     -0.312D-03 0.159D-02 0.785D-02 0.126D-01-0.263D-01-0.181D+00
 Coeff:      0.282D-02 0.118D+01
 Gap=     0.243 Goal=   None    Shift=    0.000
 RMSDP=2.36D-05 MaxDP=9.18D-04 DE=-1.08D-05 OVMax= 1.18D-03

 Cycle   9  Pass 1  IDiag  1:
 RMSU=  1.26D-05    CP:  5.14D-01  9.33D-01  8.86D-01  1.03D+00  1.18D+00
                    CP:  1.38D+00  1.45D+00  1.30D+00
 E= -1543.11398100011     Delta-E=       -0.000002845240 Rises=F Damp=F
 DIIS: error= 1.01D-05 at cycle   9 NSaved=   9.
 NSaved= 9 IEnMin= 9 EnMin= -1543.11398100011     IErMin= 9 ErrMin= 1.01D-05
 ErrMax= 1.01D-05  0.00D+00 EMaxC= 1.00D-01 BMatC= 1.15D-07 BMatP= 5.70D-07
 IDIUse=1 WtCom= 1.00D+00 WtEn= 0.00D+00
 Coeff-Com: -0.772D-04-0.567D-04 0.438D-03 0.606D-02 0.150D-01-0.359D-01
 Coeff-Com: -0.186D+00 0.167D+00 0.103D+01
 Coeff:     -0.772D-04-0.567D-04 0.438D-03 0.606D-02 0.150D-01-0.359D-01
 Coeff:     -0.186D+00 0.167D+00 0.103D+01
 Gap=     0.243 Goal=   None    Shift=    0.000
 RMSDP=9.75D-06 MaxDP=4.13D-04 DE=-2.85D-06 OVMax= 5.03D-04

 Cycle  10  Pass 1  IDiag  1:
 RMSU=  5.15D-06    CP:  5.14D-01  9.33D-01  8.86D-01  1.03D+00  1.19D+00
                    CP:  1.39D+00  1.50D+00  1.53D+00  1.26D+00
 E= -1543.11398162037     Delta-E=       -0.000000620254 Rises=F Damp=F
 DIIS: error= 5.40D-06 at cycle  10 NSaved=  10.
 NSaved=10 IEnMin=10 EnMin= -1543.11398162037     IErMin=10 ErrMin= 5.40D-06
 ErrMax= 5.40D-06  0.00D+00 EMaxC= 1.00D-01 BMatC= 2.60D-08 BMatP= 1.15D-07
 IDIUse=1 WtCom= 1.00D+00 WtEn= 0.00D+00
 Coeff-Com:  0.819D-04-0.420D-03-0.208D-02-0.340D-02 0.511D-02 0.472D-01
 Coeff-Com:  0.235D-01-0.313D+00-0.154D+00 0.140D+01
 Coeff:      0.819D-04-0.420D-03-0.208D-02-0.340D-02 0.511D-02 0.472D-01
 Coeff:      0.235D-01-0.313D+00-0.154D+00 0.140D+01
 Gap=     0.243 Goal=   None    Shift=    0.000
 RMSDP=6.43D-06 MaxDP=2.47D-04 DE=-6.20D-07 OVMax= 3.12D-04

 Cycle  11  Pass 1  IDiag  1:
 RMSU=  2.78D-06    CP:  5.14D-01  9.33D-01  8.87D-01  1.03D+00  1.19D+00
                    CP:  1.40D+00  1.52D+00  1.62D+00  1.60D+00  1.49D+00
 E= -1543.11398180480     Delta-E=       -0.000000184438 Rises=F Damp=F
 DIIS: error= 1.83D-06 at cycle  11 NSaved=  11.
 NSaved=11 IEnMin=11 EnMin= -1543.11398180480     IErMin=11 ErrMin= 1.83D-06
 ErrMax= 1.83D-06  0.00D+00 EMaxC= 1.00D-01 BMatC= 4.27D-09 BMatP= 2.60D-08
 IDIUse=1 WtCom= 1.00D+00 WtEn= 0.00D+00
 Coeff-Com:  0.277D-04-0.716D-04-0.464D-03-0.146D-02-0.201D-02 0.135D-01
 Coeff-Com:  0.371D-01-0.804D-01-0.225D+00 0.267D+00 0.991D+00
 Coeff:      0.277D-04-0.716D-04-0.464D-03-0.146D-02-0.201D-02 0.135D-01
 Coeff:      0.371D-01-0.804D-01-0.225D+00 0.267D+00 0.991D+00
 Gap=     0.243 Goal=   None    Shift=    0.000
 RMSDP=2.27D-06 MaxDP=1.04D-04 DE=-1.84D-07 OVMax= 9.68D-05

 Cycle  12  Pass 1  IDiag  1:
 RMSU=  1.05D-06    CP:  5.14D-01  9.33D-01  8.87D-01  1.03D+00  1.19D+00
                    CP:  1.40D+00  1.53D+00  1.64D+00  1.67D+00  1.72D+00
                    CP:  1.23D+00
 E= -1543.11398182438     Delta-E=       -0.000000019571 Rises=F Damp=F
 DIIS: error= 6.04D-07 at cycle  12 NSaved=  12.
 NSaved=12 IEnMin=12 EnMin= -1543.11398182438     IErMin=12 ErrMin= 6.04D-07
 ErrMax= 6.04D-07  0.00D+00 EMaxC= 1.00D-01 BMatC= 6.73D-10 BMatP= 4.27D-09
 IDIUse=1 WtCom= 1.00D+00 WtEn= 0.00D+00
 Coeff-Com: -0.583D-05 0.468D-04 0.208D-03 0.306D-03-0.126D-02-0.451D-02
 Coeff-Com:  0.455D-02 0.361D-01-0.301D-01-0.166D+00 0.189D+00 0.971D+00
 Coeff:     -0.583D-05 0.468D-04 0.208D-03 0.306D-03-0.126D-02-0.451D-02
 Coeff:      0.455D-02 0.361D-01-0.301D-01-0.166D+00 0.189D+00 0.971D+00
 Gap=     0.243 Goal=   None    Shift=    0.000
 RMSDP=8.24D-07 MaxDP=4.57D-05 DE=-1.96D-08 OVMax= 3.05D-05

 Cycle  13  Pass 1  IDiag  1:
 RMSU=  4.50D-07    CP:  5.14D-01  9.33D-01  8.87D-01  1.03D+00  1.19D+00
                    CP:  1.40D+00  1.53D+00  1.65D+00  1.68D+00  1.78D+00
                    CP:  1.40D+00  1.22D+00
 E= -1543.11398182665     Delta-E=       -0.000000002276 Rises=F Damp=F
 DIIS: error= 3.16D-07 at cycle  13 NSaved=  13.
 NSaved=13 IEnMin=13 EnMin= -1543.11398182665     IErMin=13 ErrMin= 3.16D-07
 ErrMax= 3.16D-07  0.00D+00 EMaxC= 1.00D-01 BMatC= 9.63D-11 BMatP= 6.73D-10
 IDIUse=1 WtCom= 1.00D+00 WtEn= 0.00D+00
 Coeff-Com: -0.494D-05 0.152D-04 0.873D-04 0.300D-03 0.122D-03-0.243D-02
 Coeff-Com: -0.586D-02 0.153D-01 0.294D-01-0.425D-01-0.144D+00 0.570D-01
 Coeff-Com:  0.109D+01
 Coeff:     -0.494D-05 0.152D-04 0.873D-04 0.300D-03 0.122D-03-0.243D-02
 Coeff:     -0.586D-02 0.153D-01 0.294D-01-0.425D-01-0.144D+00 0.570D-01
 Coeff:      0.109D+01
 Gap=     0.243 Goal=   None    Shift=    0.000
 RMSDP=2.96D-07 MaxDP=1.17D-05 DE=-2.28D-09 OVMax= 1.17D-05

 Cycle  14  Pass 1  IDiag  1:
 RMSU=  1.81D-07    CP:  5.14D-01  9.33D-01  8.87D-01  1.03D+00  1.19D+00
                    CP:  1.40D+00  1.53D+00  1.65D+00  1.69D+00  1.78D+00
                    CP:  1.44D+00  1.36D+00  1.22D+00
 E= -1543.11398182703     Delta-E=       -0.000000000377 Rises=F Damp=F
 DIIS: error= 1.76D-07 at cycle  14 NSaved=  14.
 NSaved=14 IEnMin=14 EnMin= -1543.11398182703     IErMin=14 ErrMin= 1.76D-07
 ErrMax= 1.76D-07  0.00D+00 EMaxC= 1.00D-01 BMatC= 1.75D-11 BMatP= 9.63D-11
 IDIUse=1 WtCom= 1.00D+00 WtEn= 0.00D+00
 Coeff-Com:  0.186D-05-0.101D-04-0.501D-04-0.998D-04 0.119D-03 0.128D-02
 Coeff-Com:  0.583D-03-0.845D-02-0.323D-02 0.370D-01-0.242D-02-0.155D+00
 Coeff-Com: -0.252D+00 0.138D+01
 Coeff:      0.186D-05-0.101D-04-0.501D-04-0.998D-04 0.119D-03 0.128D-02
 Coeff:      0.583D-03-0.845D-02-0.323D-02 0.370D-01-0.242D-02-0.155D+00
 Coeff:     -0.252D+00 0.138D+01
 Gap=     0.243 Goal=   None    Shift=    0.000
 RMSDP=1.50D-07 MaxDP=5.96D-06 DE=-3.77D-10 OVMax= 7.40D-06

 Cycle  15  Pass 1  IDiag  1:
 RMSU=  8.39D-08    CP:  5.14D-01  9.33D-01  8.87D-01  1.03D+00  1.19D+00
                    CP:  1.40D+00  1.53D+00  1.65D+00  1.69D+00  1.79D+00
                    CP:  1.44D+00  1.39D+00  1.40D+00  1.41D+00
 E= -1543.11398182721     Delta-E=       -0.000000000181 Rises=F Damp=F
 DIIS: error= 8.01D-08 at cycle  15 NSaved=  15.
 NSaved=15 IEnMin=15 EnMin= -1543.11398182721     IErMin=15 ErrMin= 8.01D-08
 ErrMax= 8.01D-08  0.00D+00 EMaxC= 1.00D-01 BMatC= 3.64D-12 BMatP= 1.75D-11
 IDIUse=1 WtCom= 1.00D+00 WtEn= 0.00D+00
 Coeff-Com:  0.909D-06-0.260D-05-0.150D-04-0.542D-04-0.361D-04 0.418D-03
 Coeff-Com:  0.118D-02-0.254D-02-0.652D-02 0.728D-02 0.303D-01-0.203D-02
 Coeff-Com: -0.243D+00-0.123D-02 0.122D+01
 Coeff:      0.909D-06-0.260D-05-0.150D-04-0.542D-04-0.361D-04 0.418D-03
 Coeff:      0.118D-02-0.254D-02-0.652D-02 0.728D-02 0.303D-01-0.203D-02
 Coeff:     -0.243D+00-0.123D-02 0.122D+01
 Gap=     0.243 Goal=   None    Shift=    0.000
 RMSDP=7.18D-08 MaxDP=3.33D-06 DE=-1.81D-10 OVMax= 3.53D-06

 Cycle  16  Pass 1  IDiag  1:
 RMSU=  3.13D-08    CP:  5.14D-01  9.33D-01  8.87D-01  1.03D+00  1.19D+00
                    CP:  1.40D+00  1.53D+00  1.65D+00  1.69D+00  1.79D+00
                    CP:  1.44D+00  1.40D+00  1.44D+00  1.59D+00  1.49D+00
 E= -1543.11398182723     Delta-E=       -0.000000000019 Rises=F Damp=F
 DIIS: error= 2.87D-08 at cycle  16 NSaved=  16.
 NSaved=16 IEnMin=16 EnMin= -1543.11398182723     IErMin=16 ErrMin= 2.87D-08
 ErrMax= 2.87D-08  0.00D+00 EMaxC= 1.00D-01 BMatC= 5.23D-13 BMatP= 3.64D-12
 IDIUse=1 WtCom= 1.00D+00 WtEn= 0.00D+00
 Coeff-Com: -0.339D-06 0.199D-05 0.102D-04 0.176D-04-0.268D-04-0.260D-03
 Coeff-Com: -0.175D-04 0.172D-02 0.802D-04-0.740D-02 0.327D-02 0.340D-01
 Coeff-Com:  0.312D-01-0.274D+00 0.615D-01 0.115D+01
 Coeff:     -0.339D-06 0.199D-05 0.102D-04 0.176D-04-0.268D-04-0.260D-03
 Coeff:     -0.175D-04 0.172D-02 0.802D-04-0.740D-02 0.327D-02 0.340D-01
 Coeff:      0.312D-01-0.274D+00 0.615D-01 0.115D+01
 Gap=     0.243 Goal=   None    Shift=    0.000
 RMSDP=3.14D-08 MaxDP=1.16D-06 DE=-1.91D-11 OVMax= 1.36D-06

 Cycle  17  Pass 1  IDiag  1:
 RMSU=  1.35D-08    CP:  5.14D-01  9.33D-01  8.87D-01  1.03D+00  1.19D+00
                    CP:  1.40D+00  1.53D+00  1.65D+00  1.69D+00  1.80D+00
                    CP:  1.44D+00  1.40D+00  1.45D+00  1.60D+00  1.72D+00
                    CP:  1.44D+00
 E= -1543.11398182723     Delta-E=        0.000000000001 Rises=F Damp=F
 DIIS: error= 8.03D-09 at cycle  17 NSaved=  17.
 NSaved=17 IEnMin=16 EnMin= -1543.11398182723     IErMin=17 ErrMin= 8.03D-09
 ErrMax= 8.03D-09  0.00D+00 EMaxC= 1.00D-01 BMatC= 6.24D-14 BMatP= 5.23D-13
 IDIUse=1 WtCom= 1.00D+00 WtEn= 0.00D+00
 Coeff-Com: -0.158D-06 0.639D-06 0.363D-05 0.928D-05 0.121D-05-0.102D-03
 Coeff-Com: -0.141D-03 0.615D-03 0.792D-03-0.233D-02-0.286D-02 0.651D-02
 Coeff-Com:  0.342D-01-0.493D-01-0.134D+00 0.211D+00 0.935D+00
 Coeff:     -0.158D-06 0.639D-06 0.363D-05 0.928D-05 0.121D-05-0.102D-03
 Coeff:     -0.141D-03 0.615D-03 0.792D-03-0.233D-02-0.286D-02 0.651D-02
 Coeff:      0.342D-01-0.493D-01-0.134D+00 0.211D+00 0.935D+00
 Gap=     0.243 Goal=   None    Shift=    0.000
 RMSDP=7.69D-09 MaxDP=3.63D-07 DE= 1.36D-12 OVMax= 2.62D-07

 SCF Done:  E(RHF) =  -1543.11398183     A.U. after   17 cycles
            NFock= 17  Conv=0.77D-08     -V/T= 2.0005
 KE= 1.542374076708D+03 PE=-6.894995219171D+03 EE= 2.172540529178D+03
 Leave Link  502 at Sun Jul 18 14:49:04 2021, MaxMem=   262144000 cpu:            4328.7 elap:            1084.8
 (Enter /prod/apps/gaussian/g16b1/l801.exe)
 ExpMin= 2.97D-02 ExpMax= 1.28D+05 ExpMxC= 1.24D+03 IAcc=3 IRadAn=         5 AccDes= 0.00D+00
 HarFok:  IExCor=  205 AccDes= 0.00D+00 IRadAn=         5 IDoV=-2 UseB2=F ITyADJ=14
 ICtDFT= 12500011 ScaDFX=  1.000000  1.000000  1.000000  1.000000
 GSVD:  LWork=        -945 too small for GESVD, short by        4050 words or        4050 for optimal perf.
 Largest valence mixing into a core orbital is  3.27D-04
 Largest core mixing into a valence orbital is  7.26D-05
 Range of M.O.s used for correlation:    28   588
 NBasis=   589 NAE=    76 NBE=    76 NFC=    27 NFV=     0
 NROrb=    561 NOA=    49 NOB=    49 NVA=   512 NVB=   512

 **** Warning!!: The largest alpha MO coefficient is  0.10483750D+03

 Leave Link  801 at Sun Jul 18 14:49:05 2021, MaxMem=   262144000 cpu:               1.3 elap:               0.4
 (Enter /prod/apps/gaussian/g16b1/l906.exe)
 FulOut=F Deriv=F AODrv=F NAtomX=    35
   MMem=           3  MDisk=          49 MDiskD=          49
  W3Min=    15730176 MinDsk=    16236966 NBas6D=         627
 NBas2D=      197721    NTT=      196878    LW2=     2000000
    MDV=   259652952 MDiskM=        5707 NBas2p=      181874
 Disk-based method using OVN memory for 49 occupieds at a time.
 Estimated scratch disk usage= 13947670528 words.
 IMap=   1   2   3   4   5   6   7   8   9  10  11  12  13  14  15  16  17  18  19  20
 IMap=  21  22  23  24  25  26  27  28  29  30  31  32  33  34  35  36  37  38  39  40
 IMap=  41  42  43  44  45  46  47  48  49
 Actual    scratch disk usage= 13724360704 words.
 JobTyp=1 Pass  1:  I=   1 to  49 NPSUse=  4 ParTrn=T ParDer=T DoDerP=F.
