 Entering Gaussian System, Link 0=g16
 Initial command:
 /prod/apps/gaussian/g16b1/l1.exe "/tmp/ubator02/1839674/Gau-151688.inp" -scrdir="/tmp/ubator02/1839674/"
 Entering Link 1 = /prod/apps/gaussian/g16b1/l1.exe PID=    151689.
  
 Copyright (c) 1988-2017, Gaussian, Inc.  All Rights Reserved.
  
 This is part of the Gaussian(R) 16 program.  It is based on
 the Gaussian(R) 09 system (copyright 2009, Gaussian, Inc.),
 the Gaussian(R) 03 system (copyright 2003, Gaussian, Inc.),
 the Gaussian(R) 98 system (copyright 1998, Gaussian, Inc.),
 the Gaussian(R) 94 system (copyright 1995, Gaussian, Inc.),
 the Gaussian 92(TM) system (copyright 1992, Gaussian, Inc.),
 the Gaussian 90(TM) system (copyright 1990, Gaussian, Inc.),
 the Gaussian 88(TM) system (copyright 1988, Gaussian, Inc.),
 the Gaussian 86(TM) system (copyright 1986, Carnegie Mellon
 University), and the Gaussian 82(TM) system (copyright 1983,
 Carnegie Mellon University). Gaussian is a federally registered
 trademark of Gaussian, Inc.
  
 This software contains proprietary and confidential information,
 including trade secrets, belonging to Gaussian, Inc.
  
 This software is provided under written license and may be
 used, copied, transmitted, or stored only in accord with that
 written license.
  
 The following legend is applicable only to US Government
 contracts under FAR:
  
                    RESTRICTED RIGHTS LEGEND
  
 Use, reproduction and disclosure by the US Government is
 subject to restrictions as set forth in subparagraphs (a)
 and (c) of the Commercial Computer Software - Restricted
 Rights clause in FAR 52.227-19.
  
 Gaussian, Inc.
 340 Quinnipiac St., Bldg. 40, Wallingford CT 06492
  
  
 ---------------------------------------------------------------
 Warning -- This program may not be used in any manner that
 competes with the business of Gaussian, Inc. or will provide
 assistance to any competitor of Gaussian, Inc.  The licensee
 of this program is prohibited from giving any competitor of
 Gaussian, Inc. access to this program.  By using this program,
 the user acknowledges that Gaussian, Inc. is engaged in the
 business of creating and licensing software in the field of
 computational chemistry and represents and warrants to the
 licensee that it is not a competitor of Gaussian, Inc. and that
 it will not use this program in any manner prohibited above.
 ---------------------------------------------------------------
  

 Cite this work as:
 Gaussian 16, Revision B.01,
 M. J. Frisch, G. W. Trucks, H. B. Schlegel, G. E. Scuseria, 
 M. A. Robb, J. R. Cheeseman, G. Scalmani, V. Barone, 
 G. A. Petersson, H. Nakatsuji, X. Li, M. Caricato, A. V. Marenich, 
 J. Bloino, B. G. Janesko, R. Gomperts, B. Mennucci, H. P. Hratchian, 
 J. V. Ortiz, A. F. Izmaylov, J. L. Sonnenberg, D. Williams-Young, 
 F. Ding, F. Lipparini, F. Egidi, J. Goings, B. Peng, A. Petrone, 
 T. Henderson, D. Ranasinghe, V. G. Zakrzewski, J. Gao, N. Rega, 
 G. Zheng, W. Liang, M. Hada, M. Ehara, K. Toyota, R. Fukuda, 
 J. Hasegawa, M. Ishida, T. Nakajima, Y. Honda, O. Kitao, H. Nakai, 
 T. Vreven, K. Throssell, J. A. Montgomery, Jr., J. E. Peralta, 
 F. Ogliaro, M. J. Bearpark, J. J. Heyd, E. N. Brothers, K. N. Kudin, 
 V. N. Staroverov, T. A. Keith, R. Kobayashi, J. Normand, 
 K. Raghavachari, A. P. Rendell, J. C. Burant, S. S. Iyengar, 
 J. Tomasi, M. Cossi, J. M. Millam, M. Klene, C. Adamo, R. Cammi, 
 J. W. Ochterski, R. L. Martin, K. Morokuma, O. Farkas, 
 J. B. Foresman, and D. J. Fox, Gaussian, Inc., Wallingford CT, 2016.
 
 ******************************************
 Gaussian 16:  ES64L-G16RevB.01 20-Dec-2017
                18-Jul-2021 
 ******************************************
 %mem=800MB
 %nproc=4
 Will use up to    4 processors via shared memory.
 %chk=SET_328_BBB321_conf1.geo_195_210_120.chk
 -----------------------------------------------------------
 #p b3lyp/6-31G(d) opt freq scrf=(iefpcm,read,solvent=water)
 -----------------------------------------------------------
 1/18=20,19=15,26=3,38=1,40=2/1,3;
 2/9=110,12=2,17=6,18=5,40=1/2;
 3/5=1,6=6,7=1,11=2,25=1,30=1,70=2203,71=1,72=1,74=-5/1,2,3;
 4//1;
 5/5=2,38=5,53=1/2;
 6/7=2,8=2,9=2,10=2,28=1/1;
 7//1,2,3,16;
 1/18=20,19=15,26=3/3(2);
 2/9=110/2;
 99//99;
 2/9=110/2;
 3/5=1,6=6,7=1,11=2,25=1,30=1,70=2205,71=1,72=1,74=-5/1,2,3;
 4/5=5,16=3,69=1/1;
 5/5=2,38=5,53=1/2;
 7//1,2,3,16;
 1/18=20,19=15,26=3/3(-5);
 2/9=110/2;
 6/7=2,8=2,9=2,10=2,19=2,28=1/1;
 99/9=1/99;
 Leave Link    1 at Sun Jul 18 15:48:38 2021, MaxMem=   104857600 cpu:               0.1 elap:               0.0
 (Enter /prod/apps/gaussian/g16b1/l101.exe)
 ---------------------------------------------
 SET_328_BBB321_conf1.geo_195_210_120 geometry
 ---------------------------------------------
 Symbolic Z-matrix:
 Charge =  1 Multiplicity = 1
 C                    -4.34     -3.218     2.764 
 H                    -4.722    -2.421     3.406 
 H                    -3.664    -3.784     3.407 
 H                    -5.225    -3.845     2.637 
 C                    -3.653    -2.742     1.564 
 O                    -4.312    -2.53      0.58 
 N                    -2.324    -2.552     1.674 
 H                    -1.933    -2.49      2.601 
 C                    -1.517    -1.981     0.678 
 C                    -1.336    -2.735    -0.444 
 C                    -0.474    -2.375    -1.479 
 C                     0.294    -1.215    -1.318 
 H                     1.031    -0.934    -2.066 
 H                    -0.382    -2.998    -2.365 
 H                    -1.815    -3.7      -0.592 
 C                    -0.818    -0.826     0.835 
 H                    -0.936    -0.317     1.789 
 C                     0.154    -0.486    -0.095 
 C                     0.975     0.724     0.165 
 N                     1.492     1.497    -0.867 
 C                     1.398     1.026     1.415 
 H                     1.138     0.563     2.359 
 S                     2.518     2.388     1.373 
 C                     2.293     2.401    -0.283 
 N                     3.185     3.259    -0.912 
 C                     2.908     3.578    -2.073 
 N                     3.945     3.824    -2.781 
 H                     4.639     3.144    -2.49 
 H                     3.668     3.853    -3.756 
 N                     2.396     4.75     -2.123 
 H                     2.168     4.946    -1.155 
 H                     3.246     5.199    -2.446 
 H                     4.005     3.599    -0.452 
 
 ITRead=  0  0  0  0  0  0  0  0  0  0  0  0  0  0  0  0  0  0  0  0
 ITRead=  0  0  0  0  0  0  0  0  0  0  0  0  0
 MicOpt= -1 -1 -1 -1 -1 -1 -1 -1 -1 -1 -1 -1 -1 -1 -1 -1 -1 -1 -1 -1
 MicOpt= -1 -1 -1 -1 -1 -1 -1 -1 -1 -1 -1 -1 -1
 NAtoms=     33 NQM=       33 NQMF=       0 NMMI=      0 NMMIF=      0
                NMic=       0 NMicF=      0.
                    Isotopes and Nuclear Properties:
 (Nuclear quadrupole moments (NQMom) in fm**2, nuclear magnetic moments (NMagM)
  in nuclear magnetons)

  Atom         1           2           3           4           5           6           7           8           9          10
 IAtWgt=          12           1           1           1          12          16          14           1          12          12
 AtmWgt=  12.0000000   1.0078250   1.0078250   1.0078250  12.0000000  15.9949146  14.0030740   1.0078250  12.0000000  12.0000000
 NucSpn=           0           1           1           1           0           0           2           1           0           0
 AtZEff=  -0.0000000  -0.0000000  -0.0000000  -0.0000000  -0.0000000  -0.0000000  -0.0000000  -0.0000000  -0.0000000  -0.0000000
 NQMom=    0.0000000   0.0000000   0.0000000   0.0000000   0.0000000   0.0000000   2.0440000   0.0000000   0.0000000   0.0000000
 NMagM=    0.0000000   2.7928460   2.7928460   2.7928460   0.0000000   0.0000000   0.4037610   2.7928460   0.0000000   0.0000000
 AtZNuc=   6.0000000   1.0000000   1.0000000   1.0000000   6.0000000   8.0000000   7.0000000   1.0000000   6.0000000   6.0000000

  Atom        11          12          13          14          15          16          17          18          19          20
 IAtWgt=          12          12           1           1           1          12           1          12          12          14
 AtmWgt=  12.0000000  12.0000000   1.0078250   1.0078250   1.0078250  12.0000000   1.0078250  12.0000000  12.0000000  14.0030740
 NucSpn=           0           0           1           1           1           0           1           0           0           2
 AtZEff=  -0.0000000  -0.0000000  -0.0000000  -0.0000000  -0.0000000  -0.0000000  -0.0000000  -0.0000000  -0.0000000  -0.0000000
 NQMom=    0.0000000   0.0000000   0.0000000   0.0000000   0.0000000   0.0000000   0.0000000   0.0000000   0.0000000   2.0440000
 NMagM=    0.0000000   0.0000000   2.7928460   2.7928460   2.7928460   0.0000000   2.7928460   0.0000000   0.0000000   0.4037610
 AtZNuc=   6.0000000   6.0000000   1.0000000   1.0000000   1.0000000   6.0000000   1.0000000   6.0000000   6.0000000   7.0000000

  Atom        21          22          23          24          25          26          27          28          29          30
 IAtWgt=          12           1          32          12          14          12          14           1           1          14
 AtmWgt=  12.0000000   1.0078250  31.9720718  12.0000000  14.0030740  12.0000000  14.0030740   1.0078250   1.0078250  14.0030740
 NucSpn=           0           1           0           0           2           0           2           1           1           2
 AtZEff=  -0.0000000  -0.0000000  -0.0000000  -0.0000000  -0.0000000  -0.0000000  -0.0000000  -0.0000000  -0.0000000  -0.0000000
 NQMom=    0.0000000   0.0000000   0.0000000   0.0000000   2.0440000   0.0000000   2.0440000   0.0000000   0.0000000   2.0440000
 NMagM=    0.0000000   2.7928460   0.0000000   0.0000000   0.4037610   0.0000000   0.4037610   2.7928460   2.7928460   0.4037610
 AtZNuc=   6.0000000   1.0000000  16.0000000   6.0000000   7.0000000   6.0000000   7.0000000   1.0000000   1.0000000   7.0000000

  Atom        31          32          33
 IAtWgt=           1           1           1
 AtmWgt=   1.0078250   1.0078250   1.0078250
 NucSpn=           1           1           1
 AtZEff=  -0.0000000  -0.0000000  -0.0000000
 NQMom=    0.0000000   0.0000000   0.0000000
 NMagM=    2.7928460   2.7928460   2.7928460
 AtZNuc=   1.0000000   1.0000000   1.0000000
 Leave Link  101 at Sun Jul 18 15:48:38 2021, MaxMem=   104857600 cpu:               0.5 elap:               0.1
 (Enter /prod/apps/gaussian/g16b1/l103.exe)

 GradGradGradGradGradGradGradGradGradGradGradGradGradGradGradGradGradGrad
 Berny optimization.
 Initialization pass.
                           ----------------------------
                           !    Initial Parameters    !
                           ! (Angstroms and Degrees)  !
 --------------------------                            --------------------------
 ! Name  Definition              Value          Derivative Info.                !
 --------------------------------------------------------------------------------
 ! R1    R(1,2)                  1.0924         estimate D2E/DX2                !
 ! R2    R(1,3)                  1.0912         estimate D2E/DX2                !
 ! R3    R(1,4)                  1.092          estimate D2E/DX2                !
 ! R4    R(1,5)                  1.4624         estimate D2E/DX2                !
 ! R5    R(5,6)                  1.2031         estimate D2E/DX2                !
 ! R6    R(5,7)                  1.347          estimate D2E/DX2                !
 ! R7    R(7,8)                  1.008          estimate D2E/DX2                !
 ! R8    R(7,9)                  1.4033         estimate D2E/DX2                !
 ! R9    R(9,10)                 1.3639         estimate D2E/DX2                !
 ! R10   R(9,16)                 1.3591         estimate D2E/DX2                !
 ! R11   R(10,11)                1.3942         estimate D2E/DX2                !
 ! R12   R(10,15)                1.0875         estimate D2E/DX2                !
 ! R13   R(11,12)                1.4005         estimate D2E/DX2                !
 ! R14   R(11,14)                1.087          estimate D2E/DX2                !
 ! R15   R(12,13)                1.087          estimate D2E/DX2                !
 ! R16   R(12,18)                1.4307         estimate D2E/DX2                !
 ! R17   R(16,17)                1.0877         estimate D2E/DX2                !
 ! R18   R(16,18)                1.3875         estimate D2E/DX2                !
 ! R19   R(18,19)                1.4852         estimate D2E/DX2                !
 ! R20   R(19,20)                1.3892         estimate D2E/DX2                !
 ! R21   R(19,21)                1.3537         estimate D2E/DX2                !
 ! R22   R(20,24)                1.3416         estimate D2E/DX2                !
 ! R23   R(21,22)                1.0831         estimate D2E/DX2                !
 ! R24   R(21,23)                1.7639         estimate D2E/DX2                !
 ! R25   R(23,24)                1.6713         estimate D2E/DX2                !
 ! R26   R(24,25)                1.3883         estimate D2E/DX2                !
 ! R27   R(25,26)                1.2355         estimate D2E/DX2                !
 ! R28   R(25,33)                0.9998         estimate D2E/DX2                !
 ! R29   R(26,27)                1.2795         estimate D2E/DX2                !
 ! R30   R(26,30)                1.2799         estimate D2E/DX2                !
 ! R31   R(27,28)                1.0143         estimate D2E/DX2                !
 ! R32   R(27,29)                1.014          estimate D2E/DX2                !
 ! R33   R(30,31)                1.0136         estimate D2E/DX2                !
 ! R34   R(30,32)                1.0141         estimate D2E/DX2                !
 ! A1    A(2,1,3)              104.404          estimate D2E/DX2                !
 ! A2    A(2,1,4)              101.7628         estimate D2E/DX2                !
 ! A3    A(2,1,5)              114.1458         estimate D2E/DX2                !
 ! A4    A(3,1,4)              105.829          estimate D2E/DX2                !
 ! A5    A(3,1,5)              111.1818         estimate D2E/DX2                !
 ! A6    A(4,1,5)              118.1763         estimate D2E/DX2                !
 ! A7    A(1,5,6)              118.1103         estimate D2E/DX2                !
 ! A8    A(1,5,7)              116.2573         estimate D2E/DX2                !
 ! A9    A(6,5,7)              125.6164         estimate D2E/DX2                !
 ! A10   A(5,7,8)              117.8066         estimate D2E/DX2                !
 ! A11   A(5,7,9)              124.528          estimate D2E/DX2                !
 ! A12   A(8,7,9)              113.8674         estimate D2E/DX2                !
 ! A13   A(7,9,10)             115.8011         estimate D2E/DX2                !
 ! A14   A(7,9,16)             124.0242         estimate D2E/DX2                !
 ! A15   A(10,9,16)            119.7737         estimate D2E/DX2                !
 ! A16   A(9,10,11)            123.3669         estimate D2E/DX2                !
 ! A17   A(9,10,15)            122.9622         estimate D2E/DX2                !
 ! A18   A(11,10,15)           113.605          estimate D2E/DX2                !
 ! A19   A(10,11,12)           117.877          estimate D2E/DX2                !
 ! A20   A(10,11,14)           120.6247         estimate D2E/DX2                !
 ! A21   A(12,11,14)           121.467          estimate D2E/DX2                !
 ! A22   A(11,12,13)           120.4515         estimate D2E/DX2                !
 ! A23   A(11,12,18)           117.8184         estimate D2E/DX2                !
 ! A24   A(13,12,18)           121.5244         estimate D2E/DX2                !
 ! A25   A(9,16,17)            116.3074         estimate D2E/DX2                !
 ! A26   A(9,16,18)            119.4117         estimate D2E/DX2                !
 ! A27   A(17,16,18)           123.311          estimate D2E/DX2                !
 ! A28   A(12,18,16)           121.1081         estimate D2E/DX2                !
 ! A29   A(12,18,19)           120.7108         estimate D2E/DX2                !
 ! A30   A(16,18,19)           118.0047         estimate D2E/DX2                !
 ! A31   A(18,19,20)           121.9393         estimate D2E/DX2                !
 ! A32   A(18,19,21)           121.0729         estimate D2E/DX2                !
 ! A33   A(20,19,21)           116.4571         estimate D2E/DX2                !
 ! A34   A(19,20,24)           105.8884         estimate D2E/DX2                !
 ! A35   A(19,21,22)           129.3759         estimate D2E/DX2                !
 ! A36   A(19,21,23)           110.4065         estimate D2E/DX2                !
 ! A37   A(22,21,23)           120.2162         estimate D2E/DX2                !
 ! A38   A(21,23,24)            86.7964         estimate D2E/DX2                !
 ! A39   A(20,24,23)           120.4287         estimate D2E/DX2                !
 ! A40   A(20,24,25)           127.0717         estimate D2E/DX2                !
 ! A41   A(23,24,25)           111.545          estimate D2E/DX2                !
 ! A42   A(24,25,26)           116.1848         estimate D2E/DX2                !
 ! A43   A(24,25,33)           121.9155         estimate D2E/DX2                !
 ! A44   A(26,25,33)           121.8998         estimate D2E/DX2                !
 ! A45   A(25,26,27)           112.8245         estimate D2E/DX2                !
 ! A46   A(25,26,30)           111.2736         estimate D2E/DX2                !
 ! A47   A(27,26,30)            97.2697         estimate D2E/DX2                !
 ! A48   A(26,27,28)           105.4799         estimate D2E/DX2                !
 ! A49   A(26,27,29)           108.4305         estimate D2E/DX2                !
 ! A50   A(28,27,29)           118.814          estimate D2E/DX2                !
 ! A51   A(26,30,31)           103.2814         estimate D2E/DX2                !
 ! A52   A(26,30,32)            94.7364         estimate D2E/DX2                !
 ! A53   A(31,30,32)           114.0222         estimate D2E/DX2                !
 ! D1    D(2,1,5,6)            -87.7093         estimate D2E/DX2                !
 ! D2    D(2,1,5,7)             90.9203         estimate D2E/DX2                !
 ! D3    D(3,1,5,6)            154.511          estimate D2E/DX2                !
 ! D4    D(3,1,5,7)            -26.8595         estimate D2E/DX2                !
 ! D5    D(4,1,5,6)             31.866          estimate D2E/DX2                !
 ! D6    D(4,1,5,7)           -149.5044         estimate D2E/DX2                !
 ! D7    D(1,5,7,8)            -16.9564         estimate D2E/DX2                !
 ! D8    D(1,5,7,9)           -173.6056         estimate D2E/DX2                !
 ! D9    D(6,5,7,8)            161.5566         estimate D2E/DX2                !
 ! D10   D(6,5,7,9)              4.9075         estimate D2E/DX2                !
 ! D11   D(5,7,9,10)           -69.4035         estimate D2E/DX2                !
 ! D12   D(5,7,9,16)           117.9054         estimate D2E/DX2                !
 ! D13   D(8,7,9,10)           133.1395         estimate D2E/DX2                !
 ! D14   D(8,7,9,16)           -39.5516         estimate D2E/DX2                !
 ! D15   D(7,9,10,11)         -174.2279         estimate D2E/DX2                !
 ! D16   D(7,9,10,15)            2.6303         estimate D2E/DX2                !
 ! D17   D(16,9,10,11)          -1.2051         estimate D2E/DX2                !
 ! D18   D(16,9,10,15)         175.6532         estimate D2E/DX2                !
 ! D19   D(7,9,16,17)           -2.1097         estimate D2E/DX2                !
 ! D20   D(7,9,16,18)          166.9983         estimate D2E/DX2                !
 ! D21   D(10,9,16,17)        -174.5272         estimate D2E/DX2                !
 ! D22   D(10,9,16,18)          -5.4191         estimate D2E/DX2                !
 ! D23   D(9,10,11,12)           3.5017         estimate D2E/DX2                !
 ! D24   D(9,10,11,14)        -178.5035         estimate D2E/DX2                !
 ! D25   D(15,10,11,12)       -173.6218         estimate D2E/DX2                !
 ! D26   D(15,10,11,14)          4.373          estimate D2E/DX2                !
 ! D27   D(10,11,12,13)        175.6007         estimate D2E/DX2                !
 ! D28   D(10,11,12,18)          0.7327         estimate D2E/DX2                !
 ! D29   D(14,11,12,13)         -2.3763         estimate D2E/DX2                !
 ! D30   D(14,11,12,18)       -177.2442         estimate D2E/DX2                !
 ! D31   D(11,12,18,16)         -7.263          estimate D2E/DX2                !
 ! D32   D(11,12,18,19)        177.66           estimate D2E/DX2                !
 ! D33   D(13,12,18,16)        177.9273         estimate D2E/DX2                !
 ! D34   D(13,12,18,19)          2.8503         estimate D2E/DX2                !
 ! D35   D(9,16,18,12)           9.7086         estimate D2E/DX2                !
 ! D36   D(9,16,18,19)        -175.085          estimate D2E/DX2                !
 ! D37   D(17,16,18,12)        178.0144         estimate D2E/DX2                !
 ! D38   D(17,16,18,19)         -6.7792         estimate D2E/DX2                !
 ! D39   D(12,18,19,20)         25.5757         estimate D2E/DX2                !
 ! D40   D(12,18,19,21)       -145.7714         estimate D2E/DX2                !
 ! D41   D(16,18,19,20)       -149.6506         estimate D2E/DX2                !
 ! D42   D(16,18,19,21)         39.0022         estimate D2E/DX2                !
 ! D43   D(18,19,20,24)       -173.1752         estimate D2E/DX2                !
 ! D44   D(21,19,20,24)         -1.4508         estimate D2E/DX2                !
 ! D45   D(18,19,21,22)         -7.8819         estimate D2E/DX2                !
 ! D46   D(18,19,21,23)        172.5489         estimate D2E/DX2                !
 ! D47   D(20,19,21,22)       -179.6832         estimate D2E/DX2                !
 ! D48   D(20,19,21,23)          0.7476         estimate D2E/DX2                !
 ! D49   D(19,20,24,23)          1.6585         estimate D2E/DX2                !
 ! D50   D(19,20,24,25)        169.4948         estimate D2E/DX2                !
 ! D51   D(19,21,23,24)          0.1597         estimate D2E/DX2                !
 ! D52   D(22,21,23,24)       -179.455          estimate D2E/DX2                !
 ! D53   D(21,23,24,20)         -1.1189         estimate D2E/DX2                !
 ! D54   D(21,23,24,25)       -170.7055         estimate D2E/DX2                !
 ! D55   D(20,24,25,26)         27.5271         estimate D2E/DX2                !
 ! D56   D(20,24,25,33)       -152.4408         estimate D2E/DX2                !
 ! D57   D(23,24,25,26)       -163.737          estimate D2E/DX2                !
 ! D58   D(23,24,25,33)         16.2951         estimate D2E/DX2                !
 ! D59   D(24,25,26,27)       -150.3855         estimate D2E/DX2                !
 ! D60   D(24,25,26,30)        101.4833         estimate D2E/DX2                !
 ! D61   D(33,25,26,27)         29.5823         estimate D2E/DX2                !
 ! D62   D(33,25,26,30)        -78.5489         estimate D2E/DX2                !
 ! D63   D(25,26,27,28)         38.0309         estimate D2E/DX2                !
 ! D64   D(25,26,27,29)        166.3061         estimate D2E/DX2                !
 ! D65   D(30,26,27,28)        154.8082         estimate D2E/DX2                !
 ! D66   D(30,26,27,29)        -76.9166         estimate D2E/DX2                !
 ! D67   D(25,26,30,31)        -13.8895         estimate D2E/DX2                !
 ! D68   D(25,26,30,32)        102.1677         estimate D2E/DX2                !
 ! D69   D(27,26,30,31)       -131.8795         estimate D2E/DX2                !
 ! D70   D(27,26,30,32)        -15.8222         estimate D2E/DX2                !
 --------------------------------------------------------------------------------
 Trust Radius=3.00D-01 FncErr=1.00D-07 GrdErr=1.00D-06 EigMax=2.50D+02 EigMin=1.00D-04
 Number of steps in this run=    167 maximum allowed number of steps=    198.
 GradGradGradGradGradGradGradGradGradGradGradGradGradGradGradGradGradGrad

 Leave Link  103 at Sun Jul 18 15:48:38 2021, MaxMem=   104857600 cpu:               0.1 elap:               0.0
 (Enter /prod/apps/gaussian/g16b1/l202.exe)
                          Input orientation:                          
 ---------------------------------------------------------------------
 Center     Atomic      Atomic             Coordinates (Angstroms)
 Number     Number       Type             X           Y           Z
 ---------------------------------------------------------------------
      1          6           0       -4.340000   -3.218000    2.764000
      2          1           0       -4.722000   -2.421000    3.406000
      3          1           0       -3.664000   -3.784000    3.407000
      4          1           0       -5.225000   -3.845000    2.637000
      5          6           0       -3.653000   -2.742000    1.564000
      6          8           0       -4.312000   -2.530000    0.580000
      7          7           0       -2.324000   -2.552000    1.674000
      8          1           0       -1.933000   -2.490000    2.601000
      9          6           0       -1.517000   -1.981000    0.678000
     10          6           0       -1.336000   -2.735000   -0.444000
     11          6           0       -0.474000   -2.375000   -1.479000
     12          6           0        0.294000   -1.215000   -1.318000
     13          1           0        1.031000   -0.934000   -2.066000
     14          1           0       -0.382000   -2.998000   -2.365000
     15          1           0       -1.815000   -3.700000   -0.592000
     16          6           0       -0.818000   -0.826000    0.835000
     17          1           0       -0.936000   -0.317000    1.789000
     18          6           0        0.154000   -0.486000   -0.095000
     19          6           0        0.975000    0.724000    0.165000
     20          7           0        1.492000    1.497000   -0.867000
     21          6           0        1.398000    1.026000    1.415000
     22          1           0        1.138000    0.563000    2.359000
     23         16           0        2.518000    2.388000    1.373000
     24          6           0        2.293000    2.401000   -0.283000
     25          7           0        3.185000    3.259000   -0.912000
     26          6           0        2.908000    3.578000   -2.073000
     27          7           0        3.945000    3.824000   -2.781000
     28          1           0        4.639000    3.144000   -2.490000
     29          1           0        3.668000    3.853000   -3.756000
     30          7           0        2.396000    4.750000   -2.123000
     31          1           0        2.168000    4.946000   -1.155000
     32          1           0        3.246000    5.199000   -2.446000
     33          1           0        4.005000    3.599000   -0.452000
 ---------------------------------------------------------------------
                    Distance matrix (angstroms):
                    1          2          3          4          5
     1  C    0.000000
     2  H    1.092381   0.000000
     3  H    1.091229   1.725437   0.000000
     4  H    1.092009   1.694741   1.741649   0.000000
     5  C    1.462376   2.153779   2.117200   2.199800   0.000000
     6  O    2.289975   2.857666   3.159802   2.606539   1.203113
     7  N    2.386611   2.960978   2.513307   3.318888   1.347012
     8  H    2.519961   2.903671   2.306606   3.560138   2.024172
     9  C    3.721679   4.231738   3.912526   4.589275   2.434464
    10  C    4.421376   5.136739   4.620626   5.084189   3.066040
    11  C    5.801694   6.473859   6.002864   6.455568   4.415946
    12  C    6.492202   6.995060   6.677661   7.281366   5.120201
    13  H    7.575830   8.077807   7.753661   8.350429   6.195613
    14  H    6.482346   7.243823   6.686203   7.013705   5.118791
    15  H    4.227373   5.105927   4.406570   4.698464   2.990710
    16  C    4.674098   4.939158   4.844034   5.637660   3.498531
    17  H    4.577515   4.623343   4.698936   5.617954   3.648745
    18  C    5.986129   6.306869   6.141493   6.905096   4.725999
    19  C    7.109387   7.269863   7.235534   8.088668   5.948844
    20  N    8.332323   8.498414   8.528797   9.270009   7.095767
    21  C    7.263331   7.300705   7.261405   8.311682   6.303382
    22  H    6.668468   6.658834   6.561548   7.745677   5.874413
    23  S    8.966286   8.926207   8.969273  10.020082   8.027118
    24  C    9.211626   9.277426   9.346452  10.200943   8.075690
    25  N   10.587263  10.650266  10.731561  11.566776   9.428723
    26  C   11.050597  11.145597  11.288075  11.976256   9.809021
    27  N   12.205655  12.344873  12.412489  13.124678  10.941709
    28  H   12.194343  12.383875  12.317126  13.131289  10.947017
    29  H   12.515491  12.690525  12.782432  13.387124  11.197922
    30  N   11.521523  11.517769  11.837806  12.434278  10.310889
    31  H   11.151839  11.070118  11.447138  12.096173  10.019099
    32  H   12.471463  12.481960  12.755391  13.393605  11.257699
    33  H   11.245140  11.282070  11.323168  12.253488  10.144826
                    6          7          8          9         10
     6  O    0.000000
     7  N    2.269243   0.000000
     8  H    3.121807   1.007995   0.000000
     9  C    2.850093   1.403320   2.032256   0.000000
    10  C    3.153915   2.344260   3.112629   1.363877   0.000000
    11  C    4.358182   3.659951   4.334548   2.428113   1.394227
    12  C    5.152365   4.194467   4.684412   2.801873   2.393987
    13  H    6.172210   5.278404   5.743459   3.888194   3.387798
    14  H    4.933249   4.503754   5.227315   3.403287   2.160909
    15  H    2.996246   2.590703   3.416617   2.157931   1.087460
    16  C    3.895725   2.439474   2.670370   1.359145   2.355514
    17  H    4.213837   2.633438   2.524932   2.083453   3.315571
    18  C    4.957693   3.679429   3.954744   2.371665   2.720276
    19  C    6.221986   4.888012   4.971957   3.713524   4.204317
    20  N    7.210891   6.116612   6.297128   4.851555   5.107479
    21  C    6.778382   5.169376   4.986423   4.252346   5.007570
    22  H    6.514138   4.707217   4.337097   4.043108   4.985408
    23  S    8.453666   6.923811   6.716716   5.987688   6.663328
    24  C    8.287675   7.048315   7.078023   5.885707   6.290792
    25  N    9.588722   8.414523   8.460857   7.217652   7.522400
    26  C    9.822142   8.887673   9.061025   7.619128   7.779405
    27  N   10.947497   9.990033  10.167763   8.688852   8.739051
    28  H   11.033566   9.912955  10.042481   8.613837   8.628406
    29  H   11.100630  10.315667  10.583775   8.976644   8.911291
    30  N   10.261670   9.487614   9.668196   8.274269   8.530656
    31  H   10.044461   9.187019   9.285464   8.057446   8.472384
    32  H   11.225751  10.396023  10.555329   9.165039   9.378224
    33  H   10.382782   9.078046   9.036403   7.931317   8.285282
                   11         12         13         14         15
    11  C    0.000000
    12  C    1.400480   0.000000
    13  H    2.164734   1.087030   0.000000
    14  H    1.087009   2.175379   2.519140   0.000000
    15  H    2.083429   3.339189   4.233574   2.385335   0.000000
    16  C    2.805768   2.454236   3.441840   3.892002   3.360091
    17  H    3.889554   3.460167   4.371590   4.974977   4.229242
    18  C    2.424492   1.430654   2.203332   3.427877   3.801811
    19  C    3.795542   2.534319   2.780191   4.700599   5.284782
    20  N    4.385440   2.998925   2.749524   5.095184   6.166091
    21  C    4.842150   3.702727   4.011689   5.800808   6.056938
    22  H    5.095158   4.170605   4.672588   6.107970   5.966723
    23  S    6.306515   5.016898   5.007352   7.168796   7.726568
    24  C    5.647732   4.259423   3.986723   6.374916   7.361613
    25  N    6.741790   5.342227   4.853110   7.347431   8.574968
    26  C    6.872334   5.511431   4.886852   7.358882   8.801669
    27  N    7.723365   6.392315   5.625050   8.089232   9.725220
    28  H    7.591064   6.265261   5.461458   7.934118   9.596711
    29  H    7.818496   6.558380   5.720598   8.079207   9.855049
    30  N    7.708259   6.375551   5.845881   8.234522   9.564465
    31  H    7.789877   6.441767   6.057812   8.430524   9.535962
    32  H    8.493466   7.150251   6.531793   8.964360  10.404001
    33  H    7.536899   6.139713   5.656656   8.150199   9.336348
                   16         17         18         19         20
    16  C    0.000000
    17  H    1.087714   0.000000
    18  C    1.387546   2.183144   0.000000
    19  C    2.462976   2.715323   1.485174   0.000000
    20  N    3.691779   4.029903   2.513666   1.389188   0.000000
    21  C    2.945668   2.718654   2.472606   1.353748   2.331995
    22  H    2.842153   2.323957   2.844428   2.205930   3.377092
    23  S    4.663490   4.406835   4.000424   2.570799   2.619954
    24  C    4.619716   4.701824   3.597976   2.179485   1.341593
    25  N    5.980238   6.088170   4.886663   3.531325   2.443955
    26  C    6.460244   6.697940   5.292740   4.109799   2.791067
    27  N    7.575231   7.864918   6.337379   5.206709   3.885297
    28  H    7.522990   7.833836   6.247251   5.131308   3.905169
    29  H    7.943206   8.326628   6.676679   5.693604   4.316484
    30  N    7.083173   7.216679   6.046077   4.843848   3.602327
    31  H    6.796490   6.782413   5.889518   4.581586   3.526403
    32  H    7.973812   8.114839   6.885266   5.656888   4.390280
    33  H    6.670706   6.691085   5.625378   4.222229   3.302393
                   21         22         23         24         25
    21  C    0.000000
    22  H    1.083100   0.000000
    23  S    1.763862   2.491430   0.000000
    24  C    2.361113   3.419420   1.671266   0.000000
    25  N    3.687084   4.707235   2.534710   1.388333   0.000000
    26  C    4.578094   5.644976   3.666486   2.228823   1.235480
    27  N    5.649994   6.703206   4.621054   3.315726   2.095229
    28  H    5.499003   6.513936   4.471347   3.305543   2.148819
    29  H    6.315384   7.390414   5.456681   4.007575   2.945244
    30  N    5.232745   6.261139   4.220894   2.985634   2.076565
    31  H    4.750179   5.711373   3.613398   2.693146   1.984769
    32  H    5.977989   7.001727   4.797548   3.662729   2.473960
    33  H    4.111261   5.033757   2.647322   2.096356   0.999800
                   26         27         28         29         30
    26  C    0.000000
    27  N    1.279511   0.000000
    28  H    1.832650   1.014257   0.000000
    29  H    1.867007   1.014000   1.745932   0.000000
    30  N    1.279933   1.920896   2.782979   2.255944   0.000000
    31  H    1.806031   2.657158   3.336955   3.195286   1.013619
    32  H    1.697355   1.578433   2.483024   1.925071   1.014115
    33  H    1.957419   2.340612   2.182298   3.330841   2.589580
                   31         32         33
    31  H    0.000000
    32  H    1.700816   0.000000
    33  H    2.383944   2.666855   0.000000
 Stoichiometry    C12H14N5OS(1+)
 Framework group  C1[X(C12H14N5OS)]
 Deg. of freedom    93
 Full point group                 C1      NOp   1
 Largest Abelian subgroup         C1      NOp   1
 Largest concise Abelian subgroup C1      NOp   1
                         Standard orientation:                         
 ---------------------------------------------------------------------
 Center     Atomic      Atomic             Coordinates (Angstroms)
 Number     Number       Type             X           Y           Z
 ---------------------------------------------------------------------
      1          6           0       -6.309532   -1.185552    0.616196
      2          1           0       -6.196735   -2.028003    1.302380
      3          1           0       -6.419174   -1.648243   -0.365983
      4          1           0       -7.300913   -0.812917    0.882259
      5          6           0       -5.190206   -0.244649    0.635064
      6          8           0       -5.218161    0.653614    1.434952
      7          7           0       -4.194783   -0.485087   -0.240016
      8          1           0       -4.143757   -1.402911   -0.653597
      9          6           0       -2.985547    0.225622   -0.284143
     10          6           0       -3.072266    1.518967   -0.708287
     11          6           0       -1.959986    2.331602   -0.923522
     12          6           0       -0.691171    1.761203   -0.761970
     13          1           0        0.203786    2.335322   -0.987965
     14          1           0       -2.081703    3.364704   -1.238916
     15          1           0       -4.016200    1.997728   -0.957983
     16          6           0       -1.765547   -0.335482   -0.074293
     17          1           0       -1.758242   -1.394507    0.173768
     18          6           0       -0.621753    0.378211   -0.402410
     19          6           0        0.689841   -0.304863   -0.265031
     20          7           0        1.852164    0.390961    0.042663
     21          6           0        0.838229   -1.607182   -0.603527
     22          1           0        0.085886   -2.334593   -0.882738
     23         16           0        2.538568   -2.070999   -0.533323
     24          6           0        2.851289   -0.498152   -0.062700
     25          7           0        4.213732   -0.231687   -0.048028
     26          6           0        4.565197    0.777605    0.571821
     27          7           0        5.627256    1.308292    0.094798
     28          1           0        5.548340    1.213942   -0.911973
     29          1           0        5.728651    2.235606    0.492295
     30          7           0        5.037935    0.474999    1.722115
     31          1           0        4.752585   -0.489875    1.844664
     32          1           0        6.007386    0.586961    1.446327
     33          1           0        4.872886   -0.822458   -0.512898
 ---------------------------------------------------------------------
 Rotational constants (GHZ):           0.9027682           0.1287183           0.1203439
 Leave Link  202 at Sun Jul 18 15:48:38 2021, MaxMem=   104857600 cpu:               0.1 elap:               0.0
 (Enter /prod/apps/gaussian/g16b1/l301.exe)
 Standard basis: 6-31G(d) (6D, 7F)
 Ernie: Thresh=  0.10000D-02 Tol=  0.10000D-05 Strict=F.
 There are   317 symmetry adapted cartesian basis functions of A   symmetry.
 There are   317 symmetry adapted basis functions of A   symmetry.
   317 basis functions,   612 primitive gaussians,   317 cartesian basis functions
    72 alpha electrons       72 beta electrons
       nuclear repulsion energy      1462.9518714597 Hartrees.
 IExCor=  402 DFT=T Ex+Corr=B3LYP ExCW=0 ScaHFX=  0.200000
 ScaDFX=  0.800000  0.720000  1.000000  0.810000 ScalE2=  1.000000  1.000000
 IRadAn=      5 IRanWt=     -1 IRanGd=            0 ICorTp=0 IEmpDi=  4
 NAtoms=   33 NActive=   33 NUniq=   33 SFac= 1.00D+00 NAtFMM=   60 NAOKFM=F Big=F
 Integral buffers will be    131072 words long.
 Raffenetti 2 integral format.
 Two-electron integral symmetry is turned on.
 Using the following non-standard input for PCM:
 MSTModel=DFT cav MSTCharged
 --- end of non-standard input.
 MST model for solvation energy: B3LYP parametrization.
 MST cavity parameters:
 ISph   IAn     Re0     Alpha   Atom Type   QCorr
 ------------------------------------------------
   1      6     1.50     1.25      CH3        F
   2      1     1.20     1.25      CH3        F
   3      1     1.20     1.25      CH3        F
   4      1     1.20     1.25      CH3        F
   5      6     1.50     1.25      C          F
   6      8     1.40     1.25      O          F
   7      7     1.50     1.25      NH         F
   8      1     0.90     1.25      NH         F
   9      6     1.50     1.25      C          F
  10      6     1.50     1.25      CH         F
  11      6     1.50     1.25      CH         F
  12      6     1.50     1.25      CH         F
  13      1     1.20     1.25      CH         F
  14      1     1.20     1.25      CH         F
  15      1     1.20     1.25      CH         F
  16      6     1.50     1.25      CH         F
  17      1     1.20     1.25      CH         F
  18      6     1.50     1.25      C          F
  19      6     1.50     1.25      C          F
  20      7     1.40     1.25      N          F
  21      6     1.50     1.25      CH         F
  22      1     1.20     1.25      CH         F
  23     16     1.75     1.25      S          F
  24      6     1.50     1.25      C          F
  25      7     1.50     1.15      NH         T
  26      6     1.50     1.15      C          T
  27      7     1.55     1.15      NH         T
  28      1     0.90     1.15      NH         T
  29      1     0.90     1.15      NH         T
  30      7     1.55     1.15      NH         T
  31      1     0.90     1.15      NH         T
  32      1     0.90     1.15      NH         T
  33      1     0.90     1.15      NH         T
 ------------------------------------------------------------------------------
 Polarizable Continuum Model (PCM)
 =================================
 Model                : PCM.
 Atomic radii         : MST.
 Polarization charges : Total charges.
 Charge compensation  : None.
 Solution method      : On-the-fly selection.
 Cavity type          : Scaled VdW (van der Waals Surface) (Alpha=1.250).
 Cavity algorithm     : GePol (No added spheres)
                        Default sphere list used, NSphG=   33.
                        Lebedev-Laikov grids with approx.  5.0 points / Ang**2.
                        Smoothing algorithm: York/Karplus (Gamma=1.0000).
                        Polarization charges: spherical gaussians, with
                                              point-specific exponents (IZeta= 3).
                        Self-potential: point-specific (ISelfS= 7).
                        Self-field    : sphere-specific E.n sum rule (ISelfD= 2).
 1st derivatives      : Analytical E(r).r(x)/FMM algorithm (CHGder, D1EAlg=3).
                        Cavity 1st derivative terms included.
 Solvent              : Water, Eps=  78.355300 Eps(inf)=   1.777849
 ------------------------------------------------------------------------------
 GePol: Number of generator spheres                  =      33
 GePol: Total number of spheres                      =      33
 GePol: Number of exposed spheres                    =      33 (100.00%)
 GePol: Number of points                             =    2500
 GePol: Average weight of points                     =       0.13
 GePol: Minimum weight of points                     =   0.19D-08
 GePol: Maximum weight of points                     =    0.22001
 GePol: Number of points with low weight             =     145
 GePol: Fraction of low-weight points (<1% of avg)   =       5.80%
 GePol: Cavity surface area                          =    317.260 Ang**2
 GePol: Cavity volume                                =    294.806 Ang**3
 PCM non-electrostatic energy =         0.0015529755 Hartrees.
 Nuclear repulsion after PCM non-electrostatic terms =     1462.9534244352 Hartrees.
 Leave Link  301 at Sun Jul 18 15:48:38 2021, MaxMem=   104857600 cpu:               0.4 elap:               0.1
 (Enter /prod/apps/gaussian/g16b1/l302.exe)
 NPDir=0 NMtPBC=     1 NCelOv=     1 NCel=       1 NClECP=     1 NCelD=      1
         NCelK=      1 NCelE2=     1 NClLst=     1 CellRange=     0.0.
 One-electron integrals computed using PRISM.
 One-electron integral symmetry used in STVInt
 NBasis=   317 RedAO= T EigKep=  4.52D-04  NBF=   317
 NBsUse=   317 1.00D-06 EigRej= -1.00D+00 NBFU=   317
 Precomputing XC quadrature grid using
 IXCGrd= 4 IRadAn=           5 IRanWt=          -1 IRanGd=           0 AccXCQ= 0.00D+00.
 Generated NRdTot=       0 NPtTot=           0 NUsed=           0 NTot=          32
 NSgBfM=   311   310   310   310   311 MxSgAt=    33 MxSgA2=    33.
 Leave Link  302 at Sun Jul 18 15:48:39 2021, MaxMem=   104857600 cpu:               1.8 elap:               0.5
 (Enter /prod/apps/gaussian/g16b1/l303.exe)
 DipDrv:  MaxL=1.
 Leave Link  303 at Sun Jul 18 15:48:39 2021, MaxMem=   104857600 cpu:               0.1 elap:               0.1
 (Enter /prod/apps/gaussian/g16b1/l401.exe)
 ExpMin= 1.17D-01 ExpMax= 2.19D+04 ExpMxC= 3.30D+03 IAcc=3 IRadAn=         5 AccDes= 0.00D+00
 Harris functional with IExCor=  402 and IRadAn=       5 diagonalized for initial guess.
 HarFok:  IExCor=  402 AccDes= 0.00D+00 IRadAn=         5 IDoV= 1 UseB2=F ITyADJ=14
 ICtDFT=  3500011 ScaDFX=  1.000000  1.000000  1.000000  1.000000
 FoFCou: FMM=F IPFlag=           0 FMFlag=      100000 FMFlg1=           0
         NFxFlg=           0 DoJE=T BraDBF=F KetDBF=T FulRan=T
         wScrn=  0.000000 ICntrl=       500 IOpCl=  0 I1Cent=   200000004 NGrid=           0
         NMat0=    1 NMatS0=      1 NMatT0=    0 NMatD0=    1 NMtDS0=    0 NMtDT0=    0
 Petite list used in FoFCou.
 Harris En= -1212.38740588020    
 JPrj=0 DoOrth=F DoCkMO=F.
 Leave Link  401 at Sun Jul 18 15:48:41 2021, MaxMem=   104857600 cpu:               7.9 elap:               2.0
 (Enter /prod/apps/gaussian/g16b1/l502.exe)
 Integral symmetry usage will be decided dynamically.
 Closed shell SCF:
 Using DIIS extrapolation, IDIIS=  1040.
 NGot=   104857600 LenX=   104651207 LenY=   104550277
 Requested convergence on RMS density matrix=1.00D-08 within 128 cycles.
 Requested convergence on MAX density matrix=1.00D-06.
 Requested convergence on             energy=1.00D-06.
 No special actions if energy rises.
 Fock matrices will be formed incrementally for  20 cycles.

 Cycle   1  Pass 1  IDiag  1:
 FoFJK:  IHMeth= 1 ICntrl=       0 DoSepK=F KAlg= 0 I1Cent=           0 FoldK=F
 IRaf= 710000000 NMat=       1 IRICut=       1 DoRegI=T DoRafI=F ISym2E= 0 IDoP0=0 IntGTp=1.
 FoFCou: FMM=F IPFlag=           0 FMFlag=      100000 FMFlg1=           0
         NFxFlg=           0 DoJE=F BraDBF=F KetDBF=F FulRan=T
         wScrn=  0.000000 ICntrl=         0 IOpCl=  0 I1Cent=           0 NGrid=           0
         NMat0=    1 NMatS0=      1 NMatT0=    0 NMatD0=    1 NMtDS0=    0 NMtDT0=    0
 Symmetry not used in FoFCou.
 Inv3:  Mode=1 IEnd=    18750000.
 Iteration    1 A*A^-1 deviation from unit magnitude is 2.66D-15 for    245.
 Iteration    1 A*A^-1 deviation from orthogonality  is 2.79D-15 for   2065   1635.
 Iteration    1 A^-1*A deviation from unit magnitude is 2.89D-15 for    377.
 Iteration    1 A^-1*A deviation from orthogonality  is 1.93D-13 for   2444   1862.
 E= -1212.02207646494    
 DIIS: error= 2.36D-02 at cycle   1 NSaved=   1.
 NSaved= 1 IEnMin= 1 EnMin= -1212.02207646494     IErMin= 1 ErrMin= 2.36D-02
 ErrMax= 2.36D-02  0.00D+00 EMaxC= 1.00D-01 BMatC= 5.31D-01 BMatP= 5.31D-01
 IDIUse=3 WtCom= 7.64D-01 WtEn= 2.36D-01
 Coeff-Com:  0.100D+01
 Coeff-En:   0.100D+01
 Coeff:      0.100D+01
 Gap=     0.076 Goal=   None    Shift=    0.000
 GapD=    0.076 DampG=0.500 DampE=0.500 DampFc=0.2500 IDamp=-1.
 Damping current iteration by 2.50D-01
 RMSDP=5.46D-03 MaxDP=2.18D-01              OVMax= 3.09D-01

 Cycle   2  Pass 1  IDiag  1:
 RMSU=  1.35D-03    CP:  9.91D-01
 E= -1212.19980038463     Delta-E=       -0.177723919689 Rises=F Damp=T
 DIIS: error= 1.20D-02 at cycle   2 NSaved=   2.
 NSaved= 2 IEnMin= 2 EnMin= -1212.19980038463     IErMin= 2 ErrMin= 1.20D-02
 ErrMax= 1.20D-02  0.00D+00 EMaxC= 1.00D-01 BMatC= 1.20D-01 BMatP= 5.31D-01
 IDIUse=3 WtCom= 8.80D-01 WtEn= 1.20D-01
 Coeff-Com: -0.710D+00 0.171D+01
 Coeff-En:   0.000D+00 0.100D+01
 Coeff:     -0.625D+00 0.163D+01
 Gap=     0.112 Goal=   None    Shift=    0.000
 RMSDP=1.64D-03 MaxDP=5.14D-02 DE=-1.78D-01 OVMax= 2.18D-01

 Cycle   3  Pass 1  IDiag  1:
 RMSU=  1.39D-03    CP:  9.74D-01  1.58D+00
 E= -1212.47697670796     Delta-E=       -0.277176323335 Rises=F Damp=F
 DIIS: error= 8.76D-03 at cycle   3 NSaved=   3.
 NSaved= 3 IEnMin= 3 EnMin= -1212.47697670796     IErMin= 3 ErrMin= 8.76D-03
 ErrMax= 8.76D-03  0.00D+00 EMaxC= 1.00D-01 BMatC= 3.90D-02 BMatP= 1.20D-01
 IDIUse=3 WtCom= 9.12D-01 WtEn= 8.76D-02
 Coeff-Com: -0.407D+00 0.922D+00 0.484D+00
 Coeff-En:   0.000D+00 0.000D+00 0.100D+01
 Coeff:     -0.371D+00 0.842D+00 0.529D+00
 Gap=     0.075 Goal=   None    Shift=    0.000
 RMSDP=8.26D-04 MaxDP=3.35D-02 DE=-2.77D-01 OVMax= 5.47D-02

 Cycle   4  Pass 1  IDiag  1:
 RMSU=  6.45D-04    CP:  9.78D-01  1.64D+00  6.39D-01
 E= -1212.50651674549     Delta-E=       -0.029540037527 Rises=F Damp=F
 DIIS: error= 3.77D-03 at cycle   4 NSaved=   4.
 NSaved= 4 IEnMin= 4 EnMin= -1212.50651674549     IErMin= 4 ErrMin= 3.77D-03
 ErrMax= 3.77D-03  0.00D+00 EMaxC= 1.00D-01 BMatC= 6.65D-03 BMatP= 3.90D-02
 IDIUse=3 WtCom= 9.62D-01 WtEn= 3.77D-02
 Coeff-Com: -0.642D-01 0.133D+00 0.297D+00 0.635D+00
 Coeff-En:   0.000D+00 0.000D+00 0.150D+00 0.850D+00
 Coeff:     -0.618D-01 0.128D+00 0.291D+00 0.643D+00
 Gap=     0.078 Goal=   None    Shift=    0.000
 RMSDP=2.93D-04 MaxDP=1.28D-02 DE=-2.95D-02 OVMax= 2.28D-02

 Cycle   5  Pass 1  IDiag  1:
 RMSU=  1.58D-04    CP:  9.77D-01  1.62D+00  7.36D-01  6.82D-01
 E= -1212.51190116426     Delta-E=       -0.005384418770 Rises=F Damp=F
 DIIS: error= 5.51D-04 at cycle   5 NSaved=   5.
 NSaved= 5 IEnMin= 5 EnMin= -1212.51190116426     IErMin= 5 ErrMin= 5.51D-04
 ErrMax= 5.51D-04  0.00D+00 EMaxC= 1.00D-01 BMatC= 3.99D-04 BMatP= 6.65D-03
 IDIUse=3 WtCom= 9.94D-01 WtEn= 5.51D-03
 Coeff-Com: -0.887D-02 0.143D-01 0.120D+00 0.334D+00 0.541D+00
 Coeff-En:   0.000D+00 0.000D+00 0.000D+00 0.000D+00 0.100D+01
 Coeff:     -0.882D-02 0.142D-01 0.119D+00 0.333D+00 0.543D+00
 Gap=     0.078 Goal=   None    Shift=    0.000
 RMSDP=7.58D-05 MaxDP=3.70D-03 DE=-5.38D-03 OVMax= 4.16D-03

 Cycle   6  Pass 1  IDiag  1:
 RMSU=  4.86D-05    CP:  9.77D-01  1.63D+00  7.38D-01  7.22D-01  6.77D-01
 E= -1212.51225059380     Delta-E=       -0.000349429539 Rises=F Damp=F
 DIIS: error= 1.75D-04 at cycle   6 NSaved=   6.
 NSaved= 6 IEnMin= 6 EnMin= -1212.51225059380     IErMin= 6 ErrMin= 1.75D-04
 ErrMax= 1.75D-04  0.00D+00 EMaxC= 1.00D-01 BMatC= 2.81D-05 BMatP= 3.99D-04
 IDIUse=3 WtCom= 9.98D-01 WtEn= 1.75D-03
 Coeff-Com: -0.476D-03-0.101D-02 0.420D-01 0.128D+00 0.287D+00 0.545D+00
 Coeff-En:   0.000D+00 0.000D+00 0.000D+00 0.000D+00 0.000D+00 0.100D+01
 Coeff:     -0.475D-03-0.100D-02 0.419D-01 0.128D+00 0.286D+00 0.546D+00
 Gap=     0.078 Goal=   None    Shift=    0.000
 RMSDP=2.29D-05 MaxDP=1.47D-03 DE=-3.49D-04 OVMax= 1.98D-03

 Cycle   7  Pass 1  IDiag  1:
 RMSU=  1.66D-05    CP:  9.77D-01  1.62D+00  7.40D-01  7.26D-01  6.88D-01
                    CP:  7.09D-01
 E= -1212.51227560184     Delta-E=       -0.000025008045 Rises=F Damp=F
 DIIS: error= 5.26D-05 at cycle   7 NSaved=   7.
 NSaved= 7 IEnMin= 7 EnMin= -1212.51227560184     IErMin= 7 ErrMin= 5.26D-05
 ErrMax= 5.26D-05  0.00D+00 EMaxC= 1.00D-01 BMatC= 2.97D-06 BMatP= 2.81D-05
 IDIUse=1 WtCom= 1.00D+00 WtEn= 0.00D+00
 Coeff-Com:  0.461D-03-0.172D-02 0.113D-01 0.362D-01 0.104D+00 0.291D+00
 Coeff-Com:  0.558D+00
 Coeff:      0.461D-03-0.172D-02 0.113D-01 0.362D-01 0.104D+00 0.291D+00
 Coeff:      0.558D+00
 Gap=     0.078 Goal=   None    Shift=    0.000
 RMSDP=7.75D-06 MaxDP=4.74D-04 DE=-2.50D-05 OVMax= 8.39D-04

 Cycle   8  Pass 1  IDiag  1:
 RMSU=  5.19D-06    CP:  9.77D-01  1.62D+00  7.41D-01  7.27D-01  6.96D-01
                    CP:  7.65D-01  7.04D-01
 E= -1212.51227854412     Delta-E=       -0.000002942278 Rises=F Damp=F
 DIIS: error= 1.76D-05 at cycle   8 NSaved=   8.
 NSaved= 8 IEnMin= 8 EnMin= -1212.51227854412     IErMin= 8 ErrMin= 1.76D-05
 ErrMax= 1.76D-05  0.00D+00 EMaxC= 1.00D-01 BMatC= 2.62D-07 BMatP= 2.97D-06
 IDIUse=1 WtCom= 1.00D+00 WtEn= 0.00D+00
 Coeff-Com:  0.204D-03-0.564D-03 0.414D-03 0.164D-02 0.153D-01 0.601D-01
 Coeff-Com:  0.262D+00 0.661D+00
 Coeff:      0.204D-03-0.564D-03 0.414D-03 0.164D-02 0.153D-01 0.601D-01
 Coeff:      0.262D+00 0.661D+00
 Gap=     0.078 Goal=   None    Shift=    0.000
 RMSDP=2.43D-06 MaxDP=9.55D-05 DE=-2.94D-06 OVMax= 3.00D-04

 Cycle   9  Pass 1  IDiag  1:
 RMSU=  1.86D-06    CP:  9.77D-01  1.62D+00  7.41D-01  7.27D-01  7.02D-01
                    CP:  7.70D-01  7.67D-01  8.75D-01
 E= -1212.51227879677     Delta-E=       -0.000000252650 Rises=F Damp=F
 DIIS: error= 5.20D-06 at cycle   9 NSaved=   9.
 NSaved= 9 IEnMin= 9 EnMin= -1212.51227879677     IErMin= 9 ErrMin= 5.20D-06
 ErrMax= 5.20D-06  0.00D+00 EMaxC= 1.00D-01 BMatC= 3.47D-08 BMatP= 2.62D-07
 IDIUse=1 WtCom= 1.00D+00 WtEn= 0.00D+00
 Coeff-Com:  0.715D-04-0.151D-03-0.958D-03-0.290D-02-0.268D-02-0.163D-02
 Coeff-Com:  0.814D-01 0.343D+00 0.584D+00
 Coeff:      0.715D-04-0.151D-03-0.958D-03-0.290D-02-0.268D-02-0.163D-02
 Coeff:      0.814D-01 0.343D+00 0.584D+00
 Gap=     0.078 Goal=   None    Shift=    0.000
 RMSDP=9.10D-07 MaxDP=3.57D-05 DE=-2.53D-07 OVMax= 1.27D-04

 Cycle  10  Pass 1  IDiag  1:
 RMSU=  6.30D-07    CP:  9.77D-01  1.62D+00  7.41D-01  7.27D-01  7.02D-01
                    CP:  7.75D-01  7.89D-01  9.48D-01  8.66D-01
 E= -1212.51227882980     Delta-E=       -0.000000033030 Rises=F Damp=F
 DIIS: error= 2.11D-06 at cycle  10 NSaved=  10.
 NSaved=10 IEnMin=10 EnMin= -1212.51227882980     IErMin=10 ErrMin= 2.11D-06
 ErrMax= 2.11D-06  0.00D+00 EMaxC= 1.00D-01 BMatC= 4.93D-09 BMatP= 3.47D-08
 IDIUse=1 WtCom= 1.00D+00 WtEn= 0.00D+00
 Coeff-Com:  0.881D-05-0.118D-04-0.594D-03-0.183D-02-0.310D-02-0.779D-02
 Coeff-Com:  0.209D-01 0.129D+00 0.334D+00 0.530D+00
 Coeff:      0.881D-05-0.118D-04-0.594D-03-0.183D-02-0.310D-02-0.779D-02
 Coeff:      0.209D-01 0.129D+00 0.334D+00 0.530D+00
 Gap=     0.078 Goal=   None    Shift=    0.000
 RMSDP=3.01D-07 MaxDP=1.29D-05 DE=-3.30D-08 OVMax= 3.23D-05

 Cycle  11  Pass 1  IDiag  1:
 RMSU=  2.17D-07    CP:  9.77D-01  1.62D+00  7.41D-01  7.27D-01  7.02D-01
                    CP:  7.76D-01  7.95D-01  9.64D-01  9.21D-01  8.35D-01
 E= -1212.51227883466     Delta-E=       -0.000000004860 Rises=F Damp=F
 DIIS: error= 6.89D-07 at cycle  11 NSaved=  11.
 NSaved=11 IEnMin=11 EnMin= -1212.51227883466     IErMin=11 ErrMin= 6.89D-07
 ErrMax= 6.89D-07  0.00D+00 EMaxC= 1.00D-01 BMatC= 3.86D-10 BMatP= 4.93D-09
 IDIUse=1 WtCom= 1.00D+00 WtEn= 0.00D+00
 Coeff-Com: -0.131D-04 0.280D-04-0.159D-03-0.489D-03-0.124D-02-0.420D-02
 Coeff-Com: -0.291D-02 0.877D-02 0.693D-01 0.234D+00 0.697D+00
 Coeff:     -0.131D-04 0.280D-04-0.159D-03-0.489D-03-0.124D-02-0.420D-02
 Coeff:     -0.291D-02 0.877D-02 0.693D-01 0.234D+00 0.697D+00
 Gap=     0.078 Goal=   None    Shift=    0.000
 RMSDP=1.68D-07 MaxDP=4.34D-06 DE=-4.86D-09 OVMax= 2.97D-05

 Cycle  12  Pass 1  IDiag  1:
 RMSU=  8.80D-08    CP:  9.77D-01  1.62D+00  7.41D-01  7.27D-01  7.02D-01
                    CP:  7.76D-01  7.98D-01  9.77D-01  9.60D-01  9.67D-01
                    CP:  9.83D-01
 E= -1212.51227883522     Delta-E=       -0.000000000558 Rises=F Damp=F
 DIIS: error= 5.14D-07 at cycle  12 NSaved=  12.
 NSaved=12 IEnMin=12 EnMin= -1212.51227883522     IErMin=12 ErrMin= 5.14D-07
 ErrMax= 5.14D-07  0.00D+00 EMaxC= 1.00D-01 BMatC= 1.04D-10 BMatP= 3.86D-10
 IDIUse=1 WtCom= 1.00D+00 WtEn= 0.00D+00
 Coeff-Com: -0.753D-05 0.135D-04-0.119D-04-0.310D-04-0.219D-03-0.115D-02
 Coeff-Com: -0.314D-02-0.725D-02 0.807D-03 0.494D-01 0.388D+00 0.573D+00
 Coeff:     -0.753D-05 0.135D-04-0.119D-04-0.310D-04-0.219D-03-0.115D-02
 Coeff:     -0.314D-02-0.725D-02 0.807D-03 0.494D-01 0.388D+00 0.573D+00
 Gap=     0.078 Goal=   None    Shift=    0.000
 RMSDP=6.59D-08 MaxDP=2.21D-06 DE=-5.58D-10 OVMax= 1.23D-05

 Cycle  13  Pass 1  IDiag  1:
 RMSU=  4.17D-08    CP:  9.77D-01  1.62D+00  7.41D-01  7.27D-01  7.02D-01
                    CP:  7.76D-01  7.99D-01  9.80D-01  9.72D-01  1.01D+00
                    CP:  1.11D+00  9.42D-01
 E= -1212.51227883532     Delta-E=       -0.000000000106 Rises=F Damp=F
 DIIS: error= 1.01D-07 at cycle  13 NSaved=  13.
 NSaved=13 IEnMin=13 EnMin= -1212.51227883532     IErMin=13 ErrMin= 1.01D-07
 ErrMax= 1.01D-07  0.00D+00 EMaxC= 1.00D-01 BMatC= 1.59D-11 BMatP= 1.04D-10
 IDIUse=1 WtCom= 1.00D+00 WtEn= 0.00D+00
 Coeff-Com: -0.103D-05 0.861D-06 0.262D-04 0.830D-04 0.135D-03 0.286D-03
 Coeff-Com: -0.129D-02-0.559D-02-0.161D-01-0.409D-01 0.472D-01 0.295D+00
 Coeff-Com:  0.721D+00
 Coeff:     -0.103D-05 0.861D-06 0.262D-04 0.830D-04 0.135D-03 0.286D-03
 Coeff:     -0.129D-02-0.559D-02-0.161D-01-0.409D-01 0.472D-01 0.295D+00
 Coeff:      0.721D+00
 Gap=     0.078 Goal=   None    Shift=    0.000
 RMSDP=3.83D-08 MaxDP=1.19D-06 DE=-1.06D-10 OVMax= 6.62D-06

 Cycle  14  Pass 1  IDiag  1:
 RMSU=  1.22D-08    CP:  9.77D-01  1.62D+00  7.41D-01  7.27D-01  7.03D-01
                    CP:  7.76D-01  7.99D-01  9.82D-01  9.80D-01  1.03D+00
                    CP:  1.19D+00  1.12D+00  1.02D+00
 E= -1212.51227883535     Delta-E=       -0.000000000023 Rises=F Damp=F
 DIIS: error= 4.25D-08 at cycle  14 NSaved=  14.
 NSaved=14 IEnMin=14 EnMin= -1212.51227883535     IErMin=14 ErrMin= 4.25D-08
 ErrMax= 4.25D-08  0.00D+00 EMaxC= 1.00D-01 BMatC= 1.63D-12 BMatP= 1.59D-11
 IDIUse=1 WtCom= 1.00D+00 WtEn= 0.00D+00
 Coeff-Com:  0.464D-06-0.124D-05 0.108D-04 0.317D-04 0.730D-04 0.255D-03
 Coeff-Com: -0.928D-04-0.422D-03-0.542D-02-0.254D-01-0.186D-01 0.677D-01
 Coeff-Com:  0.279D+00 0.703D+00
 Coeff:      0.464D-06-0.124D-05 0.108D-04 0.317D-04 0.730D-04 0.255D-03
 Coeff:     -0.928D-04-0.422D-03-0.542D-02-0.254D-01-0.186D-01 0.677D-01
 Coeff:      0.279D+00 0.703D+00
 Gap=     0.078 Goal=   None    Shift=    0.000
 RMSDP=1.33D-08 MaxDP=4.87D-07 DE=-2.27D-11 OVMax= 2.37D-06

 Cycle  15  Pass 1  IDiag  1:
 RMSU=  6.35D-09    CP:  9.77D-01  1.62D+00  7.41D-01  7.27D-01  7.03D-01
                    CP:  7.76D-01  7.99D-01  9.82D-01  9.81D-01  1.04D+00
                    CP:  1.22D+00  1.18D+00  1.14D+00  9.87D-01
 E= -1212.51227883535     Delta-E=       -0.000000000005 Rises=F Damp=F
 DIIS: error= 3.35D-08 at cycle  15 NSaved=  15.
 NSaved=15 IEnMin=15 EnMin= -1212.51227883535     IErMin=15 ErrMin= 3.35D-08
 ErrMax= 3.35D-08  0.00D+00 EMaxC= 1.00D-01 BMatC= 6.05D-13 BMatP= 1.63D-12
 IDIUse=1 WtCom= 1.00D+00 WtEn= 0.00D+00
 Coeff-Com:  0.574D-06-0.995D-06 0.193D-06-0.136D-05 0.764D-05 0.841D-04
 Coeff-Com:  0.138D-03 0.975D-03 0.152D-03-0.737D-02-0.191D-01-0.208D-01
 Coeff-Com: -0.106D-01 0.415D+00 0.641D+00
 Coeff:      0.574D-06-0.995D-06 0.193D-06-0.136D-05 0.764D-05 0.841D-04
 Coeff:      0.138D-03 0.975D-03 0.152D-03-0.737D-02-0.191D-01-0.208D-01
 Coeff:     -0.106D-01 0.415D+00 0.641D+00
 Gap=     0.078 Goal=   None    Shift=    0.000
 RMSDP=6.11D-09 MaxDP=2.39D-07 DE=-5.46D-12 OVMax= 9.37D-07

 Error on total polarization charges =  0.02535
 SCF Done:  E(RB3LYP) =  -1212.51227884     A.U. after   15 cycles
            NFock= 15  Conv=0.61D-08     -V/T= 2.0056
 KE= 1.205707178976D+03 PE=-5.748206249884D+03 EE= 1.867033367638D+03
 Leave Link  502 at Sun Jul 18 15:49:48 2021, MaxMem=   104857600 cpu:             266.1 elap:              66.6
 (Enter /prod/apps/gaussian/g16b1/l601.exe)
 Copying SCF densities to generalized density rwf, IOpCl= 0 IROHF=0.

 **********************************************************************

            Population analysis using the SCF Density.

 **********************************************************************

 Orbital symmetries:
       Occupied  (A) (A) (A) (A) (A) (A) (A) (A) (A) (A) (A) (A)
                 (A) (A) (A) (A) (A) (A) (A) (A) (A) (A) (A) (A)
                 (A) (A) (A) (A) (A) (A) (A) (A) (A) (A) (A) (A)
                 (A) (A) (A) (A) (A) (A) (A) (A) (A) (A) (A) (A)
                 (A) (A) (A) (A) (A) (A) (A) (A) (A) (A) (A) (A)
                 (A) (A) (A) (A) (A) (A) (A) (A) (A) (A) (A) (A)
       Virtual   (A) (A) (A) (A) (A) (A) (A) (A) (A) (A) (A) (A)
                 (A) (A) (A) (A) (A) (A) (A) (A) (A) (A) (A) (A)
                 (A) (A) (A) (A) (A) (A) (A) (A) (A) (A) (A) (A)
                 (A) (A) (A) (A) (A) (A) (A) (A) (A) (A) (A) (A)
                 (A) (A) (A) (A) (A) (A) (A) (A) (A) (A) (A) (A)
                 (A) (A) (A) (A) (A) (A) (A) (A) (A) (A) (A) (A)
                 (A) (A) (A) (A) (A) (A) (A) (A) (A) (A) (A) (A)
                 (A) (A) (A) (A) (A) (A) (A) (A) (A) (A) (A) (A)
                 (A) (A) (A) (A) (A) (A) (A) (A) (A) (A) (A) (A)
                 (A) (A) (A) (A) (A) (A) (A) (A) (A) (A) (A) (A)
                 (A) (A) (A) (A) (A) (A) (A) (A) (A) (A) (A) (A)
                 (A) (A) (A) (A) (A) (A) (A) (A) (A) (A) (A) (A)
                 (A) (A) (A) (A) (A) (A) (A) (A) (A) (A) (A) (A)
                 (A) (A) (A) (A) (A) (A) (A) (A) (A) (A) (A) (A)
                 (A) (A) (A) (A) (A) (A) (A) (A) (A) (A) (A) (A)
                 (A) (A) (A) (A) (A) (A) (A) (A) (A) (A) (A) (A)
                 (A) (A) (A) (A) (A) (A) (A) (A) (A) (A) (A) (A)
                 (A) (A) (A) (A) (A) (A) (A) (A) (A) (A) (A) (A)
                 (A) (A) (A) (A) (A) (A) (A) (A) (A) (A) (A) (A)
                 (A) (A) (A) (A) (A) (A) (A) (A) (A) (A) (A) (A)
                 (A) (A) (A) (A) (A)
 The electronic state is 1-A.
 Alpha  occ. eigenvalues --  -88.92662 -19.11515 -14.39093 -14.37123 -14.36267
 Alpha  occ. eigenvalues --  -14.35492 -14.34835 -10.34577 -10.30790 -10.28883
 Alpha  occ. eigenvalues --  -10.23959 -10.22806 -10.22274 -10.21450 -10.20012
 Alpha  occ. eigenvalues --  -10.19696 -10.19566 -10.18897 -10.17799  -7.99012
 Alpha  occ. eigenvalues --   -5.95388  -5.95045  -5.94686  -1.13619  -1.05130
 Alpha  occ. eigenvalues --   -1.00862  -0.95375  -0.94686  -0.91082  -0.86325
 Alpha  occ. eigenvalues --   -0.82310  -0.79017  -0.76758  -0.74217  -0.72513
 Alpha  occ. eigenvalues --   -0.67597  -0.65379  -0.62923  -0.62585  -0.61511
 Alpha  occ. eigenvalues --   -0.59067  -0.56766  -0.55050  -0.53758  -0.52898
 Alpha  occ. eigenvalues --   -0.51509  -0.49757  -0.48358  -0.48137  -0.46988
 Alpha  occ. eigenvalues --   -0.45595  -0.45000  -0.44254  -0.43570  -0.42353
 Alpha  occ. eigenvalues --   -0.41654  -0.41136  -0.39434  -0.39012  -0.38123
 Alpha  occ. eigenvalues --   -0.36640  -0.35793  -0.35102  -0.32655  -0.30980
 Alpha  occ. eigenvalues --   -0.30011  -0.28953  -0.28547  -0.26467  -0.25486
 Alpha  occ. eigenvalues --   -0.24287  -0.21767
 Alpha virt. eigenvalues --   -0.13965  -0.03615  -0.01807  -0.01269   0.00512
 Alpha virt. eigenvalues --    0.03122   0.05961   0.09063   0.09579   0.10352
 Alpha virt. eigenvalues --    0.11343   0.12368   0.13478   0.13789   0.14478
 Alpha virt. eigenvalues --    0.15576   0.15742   0.16296   0.16774   0.17414
 Alpha virt. eigenvalues --    0.17882   0.19304   0.19669   0.20022   0.22489
 Alpha virt. eigenvalues --    0.24688   0.26076   0.26774   0.27603   0.28937
 Alpha virt. eigenvalues --    0.29659   0.30236   0.31620   0.32006   0.34238
 Alpha virt. eigenvalues --    0.35697   0.36283   0.36623   0.37702   0.39116
 Alpha virt. eigenvalues --    0.41455   0.42783   0.43488   0.46366   0.49320
 Alpha virt. eigenvalues --    0.50728   0.51551   0.52049   0.52672   0.53593
 Alpha virt. eigenvalues --    0.54011   0.55407   0.55630   0.56155   0.56908
 Alpha virt. eigenvalues --    0.57993   0.58529   0.58938   0.59789   0.61066
 Alpha virt. eigenvalues --    0.61452   0.62082   0.63076   0.64155   0.64719
 Alpha virt. eigenvalues --    0.66853   0.67438   0.68411   0.69447   0.70206
 Alpha virt. eigenvalues --    0.71176   0.71716   0.73260   0.75145   0.75747
 Alpha virt. eigenvalues --    0.76093   0.76350   0.77708   0.78246   0.79232
 Alpha virt. eigenvalues --    0.79923   0.80936   0.81861   0.82784   0.83095
 Alpha virt. eigenvalues --    0.83444   0.84152   0.84576   0.85574   0.85735
 Alpha virt. eigenvalues --    0.86725   0.86842   0.86982   0.88126   0.88602
 Alpha virt. eigenvalues --    0.89547   0.90674   0.91523   0.91947   0.92936
 Alpha virt. eigenvalues --    0.93393   0.94033   0.96253   0.96665   0.97055
 Alpha virt. eigenvalues --    0.99016   1.00144   1.00460   1.01989   1.03957
 Alpha virt. eigenvalues --    1.04441   1.05555   1.06985   1.08285   1.09809
 Alpha virt. eigenvalues --    1.11346   1.12768   1.14735   1.15913   1.18440
 Alpha virt. eigenvalues --    1.19192   1.21776   1.23795   1.25738   1.26444
 Alpha virt. eigenvalues --    1.28432   1.29624   1.32027   1.33203   1.36594
 Alpha virt. eigenvalues --    1.38288   1.39758   1.41339   1.42278   1.45407
 Alpha virt. eigenvalues --    1.46335   1.47601   1.49236   1.49503   1.53025
 Alpha virt. eigenvalues --    1.53246   1.56648   1.59736   1.62439   1.63421
 Alpha virt. eigenvalues --    1.67181   1.69102   1.70914   1.73276   1.75021
 Alpha virt. eigenvalues --    1.76192   1.79046   1.80082   1.81070   1.82014
 Alpha virt. eigenvalues --    1.82330   1.84195   1.85622   1.89800   1.90689
 Alpha virt. eigenvalues --    1.91363   1.92248   1.94498   1.94663   1.95280
 Alpha virt. eigenvalues --    1.97948   1.98165   2.00319   2.02645   2.04274
 Alpha virt. eigenvalues --    2.07560   2.08408   2.09158   2.11028   2.12410
 Alpha virt. eigenvalues --    2.15613   2.16375   2.17600   2.19994   2.20604
 Alpha virt. eigenvalues --    2.22326   2.23162   2.23644   2.26202   2.26702
 Alpha virt. eigenvalues --    2.28162   2.29739   2.31054   2.32505   2.34953
 Alpha virt. eigenvalues --    2.35555   2.36615   2.39443   2.42392   2.44884
 Alpha virt. eigenvalues --    2.45954   2.47464   2.48374   2.49269   2.51710
 Alpha virt. eigenvalues --    2.53305   2.60455   2.60824   2.61565   2.62547
 Alpha virt. eigenvalues --    2.63305   2.66954   2.70215   2.71415   2.72474
 Alpha virt. eigenvalues --    2.75859   2.76946   2.78286   2.79282   2.80691
 Alpha virt. eigenvalues --    2.84003   2.88909   2.95080   2.96997   3.01507
 Alpha virt. eigenvalues --    3.03178   3.06566   3.15891   3.20223   3.24146
 Alpha virt. eigenvalues --    3.44805   3.80372   3.87231   3.93597   4.02597
 Alpha virt. eigenvalues --    4.06251   4.07333   4.09310   4.11539   4.12622
 Alpha virt. eigenvalues --    4.17813   4.19917   4.22690   4.28342   4.34208
 Alpha virt. eigenvalues --    4.35652   4.44001   4.53132   4.54167   4.75067
          Condensed to atoms (all electrons):
               1          2          3          4          5          6
     1  C    5.359544   0.358586   0.337092   0.367076   0.362557  -0.101826
     2  H    0.358586   0.517991  -0.025185  -0.029592  -0.016524  -0.000186
     3  H    0.337092  -0.025185   0.561171  -0.027612  -0.027705   0.004162
     4  H    0.367076  -0.029592  -0.027612   0.518172  -0.016670   0.000369
     5  C    0.362557  -0.016524  -0.027705  -0.016670   4.225864   0.629743
     6  O   -0.101826  -0.000186   0.004162   0.000369   0.629743   8.115259
     7  N   -0.124323   0.000026   0.008749   0.003054   0.259933  -0.103531
     8  H   -0.000300   0.000329   0.001046   0.000002  -0.018531   0.002647
     9  C    0.006909  -0.000299   0.000296  -0.000070  -0.009060   0.010408
    10  C    0.000336   0.000001  -0.000039   0.000000  -0.003318   0.003920
    11  C    0.000004   0.000000  -0.000000  -0.000000   0.000211  -0.000016
    12  C    0.000000  -0.000000   0.000000  -0.000000   0.000002  -0.000006
    13  H    0.000000  -0.000000   0.000000  -0.000000  -0.000000   0.000000
    14  H   -0.000000  -0.000000  -0.000000   0.000000  -0.000011   0.000001
    15  H   -0.000150   0.000002   0.000002   0.000004   0.002810   0.000673
    16  C   -0.000368   0.000028  -0.000018   0.000001   0.000716  -0.000668
    17  H   -0.000026  -0.000004  -0.000001   0.000001   0.000090  -0.000004
    18  C    0.000004  -0.000000  -0.000000   0.000000  -0.000031  -0.000006
    19  C   -0.000000   0.000000   0.000000   0.000000   0.000001   0.000000
    20  N    0.000000  -0.000000   0.000000  -0.000000  -0.000000  -0.000000
    21  C    0.000000   0.000000   0.000000  -0.000000  -0.000000  -0.000000
    22  H   -0.000000  -0.000000  -0.000000   0.000000   0.000000  -0.000000
    23  S   -0.000000   0.000000   0.000000   0.000000  -0.000000  -0.000000
    24  C   -0.000000  -0.000000   0.000000   0.000000   0.000000   0.000000
    25  N    0.000000  -0.000000   0.000000   0.000000  -0.000000   0.000000
    26  C    0.000000  -0.000000  -0.000000   0.000000   0.000000   0.000000
    27  N   -0.000000   0.000000   0.000000   0.000000  -0.000000  -0.000000
    28  H   -0.000000  -0.000000  -0.000000  -0.000000   0.000000   0.000000
    29  H   -0.000000   0.000000   0.000000   0.000000   0.000000  -0.000000
    30  N    0.000000  -0.000000   0.000000  -0.000000   0.000000  -0.000000
    31  H   -0.000000  -0.000000  -0.000000   0.000000   0.000000   0.000000
    32  H    0.000000  -0.000000  -0.000000   0.000000   0.000000   0.000000
    33  H   -0.000000  -0.000000  -0.000000   0.000000   0.000000   0.000000
               7          8          9         10         11         12
     1  C   -0.124323  -0.000300   0.006909   0.000336   0.000004   0.000000
     2  H    0.000026   0.000329  -0.000299   0.000001   0.000000  -0.000000
     3  H    0.008749   0.001046   0.000296  -0.000039  -0.000000   0.000000
     4  H    0.003054   0.000002  -0.000070   0.000000  -0.000000  -0.000000
     5  C    0.259933  -0.018531  -0.009060  -0.003318   0.000211   0.000002
     6  O   -0.103531   0.002647   0.010408   0.003920  -0.000016  -0.000006
     7  N    7.271391   0.304040   0.193379  -0.071929   0.005383   0.000731
     8  H    0.304040   0.337433  -0.023972   0.004572  -0.000095   0.000005
     9  C    0.193379  -0.023972   4.574140   0.566534  -0.014168  -0.038034
    10  C   -0.071929   0.004572   0.566534   4.947413   0.530350  -0.046110
    11  C    0.005383  -0.000095  -0.014168   0.530350   4.908330   0.499424
    12  C    0.000731   0.000005  -0.038034  -0.046110   0.499424   5.034814
    13  H    0.000006  -0.000000   0.000608   0.004555  -0.041545   0.362272
    14  H   -0.000144   0.000004   0.003982  -0.035062   0.360727  -0.038280
    15  H   -0.008836   0.000065  -0.041045   0.357787  -0.045891   0.005981
    16  C   -0.051711  -0.003879   0.506934  -0.070703  -0.045116  -0.065102
    17  H   -0.004766   0.003490  -0.037850   0.006581   0.000066   0.004694
    18  C    0.005017  -0.000145  -0.010260  -0.038846  -0.010450   0.498396
    19  C   -0.000212   0.000009   0.005447   0.001395   0.005524  -0.047652
    20  N    0.000000   0.000000  -0.000105  -0.000012   0.000414  -0.003295
    21  C    0.000002  -0.000003   0.000368   0.000051  -0.000245   0.007680
    22  H    0.000001  -0.000001  -0.000008   0.000003  -0.000000  -0.000196
    23  S   -0.000000   0.000000  -0.000004  -0.000001   0.000011  -0.000002
    24  C   -0.000000   0.000000   0.000004   0.000001  -0.000007   0.000004
    25  N   -0.000000   0.000000  -0.000000   0.000000  -0.000000  -0.000013
    26  C    0.000000   0.000000  -0.000000   0.000000   0.000000   0.000005
    27  N   -0.000000   0.000000   0.000000  -0.000000   0.000000  -0.000000
    28  H    0.000000  -0.000000  -0.000000   0.000000  -0.000000  -0.000000
    29  H   -0.000000   0.000000   0.000000   0.000000  -0.000000  -0.000000
    30  N    0.000000  -0.000000  -0.000000   0.000000   0.000000   0.000000
    31  H    0.000000  -0.000000  -0.000000  -0.000000   0.000000   0.000000
    32  H    0.000000  -0.000000  -0.000000  -0.000000  -0.000000   0.000000
    33  H    0.000000  -0.000000  -0.000000   0.000000  -0.000000  -0.000000
              13         14         15         16         17         18
     1  C    0.000000  -0.000000  -0.000150  -0.000368  -0.000026   0.000004
     2  H   -0.000000  -0.000000   0.000002   0.000028  -0.000004  -0.000000
     3  H    0.000000  -0.000000   0.000002  -0.000018  -0.000001  -0.000000
     4  H   -0.000000   0.000000   0.000004   0.000001   0.000001   0.000000
     5  C   -0.000000  -0.000011   0.002810   0.000716   0.000090  -0.000031
     6  O    0.000000   0.000001   0.000673  -0.000668  -0.000004  -0.000006
     7  N    0.000006  -0.000144  -0.008836  -0.051711  -0.004766   0.005017
     8  H   -0.000000   0.000004   0.000065  -0.003879   0.003490  -0.000145
     9  C    0.000608   0.003982  -0.041045   0.506934  -0.037850  -0.010260
    10  C    0.004555  -0.035062   0.357787  -0.070703   0.006581  -0.038846
    11  C   -0.041545   0.360727  -0.045891  -0.045116   0.000066  -0.010450
    12  C    0.362272  -0.038280   0.005981  -0.065102   0.004694   0.498396
    13  H    0.559117  -0.003900  -0.000195   0.004297  -0.000103  -0.042134
    14  H   -0.003900   0.554099  -0.006453   0.000794   0.000017   0.002987
    15  H   -0.000195  -0.006453   0.577227   0.007300  -0.000189   0.000221
    16  C    0.004297   0.000794   0.007300   5.130720   0.348143   0.489116
    17  H   -0.000103   0.000017  -0.000189   0.348143   0.558475  -0.038983
    18  C   -0.042134   0.002987   0.000221   0.489116  -0.038983   4.854909
    19  C   -0.008227  -0.000151   0.000003  -0.031049  -0.009641   0.339023
    20  N    0.008201  -0.000002   0.000000   0.003235   0.000002  -0.060403
    21  C    0.000398   0.000002  -0.000000  -0.015174   0.005918  -0.054309
    22  H   -0.000011   0.000000  -0.000000   0.003333   0.002402  -0.005686
    23  S    0.000033  -0.000000   0.000000   0.000195  -0.000092   0.005408
    24  C   -0.000143  -0.000000  -0.000000  -0.000009  -0.000007   0.007145
    25  N   -0.000015   0.000000  -0.000000   0.000002   0.000000  -0.000134
    26  C    0.000024  -0.000000  -0.000000  -0.000000  -0.000000  -0.000028
    27  N   -0.000000  -0.000000  -0.000000   0.000000   0.000000  -0.000000
    28  H    0.000000  -0.000000  -0.000000  -0.000000  -0.000000   0.000000
    29  H    0.000000  -0.000000   0.000000  -0.000000  -0.000000   0.000000
    30  N    0.000000  -0.000000   0.000000  -0.000000  -0.000000   0.000000
    31  H    0.000000   0.000000  -0.000000   0.000000  -0.000000   0.000000
    32  H    0.000000   0.000000  -0.000000  -0.000000   0.000000   0.000000
    33  H   -0.000000   0.000000  -0.000000  -0.000000  -0.000000   0.000003
              19         20         21         22         23         24
     1  C   -0.000000   0.000000   0.000000  -0.000000  -0.000000  -0.000000
     2  H    0.000000  -0.000000   0.000000  -0.000000   0.000000  -0.000000
     3  H    0.000000   0.000000   0.000000  -0.000000   0.000000   0.000000
     4  H    0.000000  -0.000000  -0.000000   0.000000   0.000000   0.000000
     5  C    0.000001  -0.000000  -0.000000   0.000000  -0.000000   0.000000
     6  O    0.000000  -0.000000  -0.000000  -0.000000  -0.000000   0.000000
     7  N   -0.000212   0.000000   0.000002   0.000001  -0.000000  -0.000000
     8  H    0.000009   0.000000  -0.000003  -0.000001   0.000000   0.000000
     9  C    0.005447  -0.000105   0.000368  -0.000008  -0.000004   0.000004
    10  C    0.001395  -0.000012   0.000051   0.000003  -0.000001   0.000001
    11  C    0.005524   0.000414  -0.000245  -0.000000   0.000011  -0.000007
    12  C   -0.047652  -0.003295   0.007680  -0.000196  -0.000002   0.000004
    13  H   -0.008227   0.008201   0.000398  -0.000011   0.000033  -0.000143
    14  H   -0.000151  -0.000002   0.000002   0.000000  -0.000000  -0.000000
    15  H    0.000003   0.000000  -0.000000  -0.000000   0.000000  -0.000000
    16  C   -0.031049   0.003235  -0.015174   0.003333   0.000195  -0.000009
    17  H   -0.009641   0.000002   0.005918   0.002402  -0.000092  -0.000007
    18  C    0.339023  -0.060403  -0.054309  -0.005686   0.005408   0.007145
    19  C    4.664646   0.387668   0.541109  -0.013348  -0.064512  -0.050223
    20  N    0.387668   6.998375  -0.096763   0.004617  -0.080363   0.430938
    21  C    0.541109  -0.096763   5.431678   0.348622   0.286092  -0.059434
    22  H   -0.013348   0.004617   0.348622   0.476154  -0.028038   0.002114
    23  S   -0.064512  -0.080363   0.286092  -0.028038  15.353120   0.326471
    24  C   -0.050223   0.430938  -0.059434   0.002114   0.326471   4.780919
    25  N    0.002283  -0.063773   0.003205  -0.000033  -0.086295   0.272731
    26  C    0.000489   0.013638  -0.000015  -0.000001   0.007939  -0.041042
    27  N   -0.000026   0.000454   0.000006  -0.000000  -0.000592   0.004334
    28  H    0.000008  -0.000140   0.000002  -0.000000  -0.000109  -0.000040
    29  H    0.000001   0.000015  -0.000000   0.000000   0.000023  -0.000160
    30  N    0.000031  -0.000196  -0.000021  -0.000000   0.001301  -0.001044
    31  H   -0.000007   0.000040  -0.000001  -0.000000   0.000023   0.006018
    32  H    0.000001   0.000004   0.000000   0.000000   0.000059   0.000414
    33  H    0.000027   0.001353   0.000070  -0.000002  -0.002126  -0.014934
              25         26         27         28         29         30
     1  C    0.000000   0.000000  -0.000000  -0.000000  -0.000000   0.000000
     2  H   -0.000000  -0.000000   0.000000  -0.000000   0.000000  -0.000000
     3  H    0.000000  -0.000000   0.000000  -0.000000   0.000000   0.000000
     4  H    0.000000   0.000000   0.000000  -0.000000   0.000000  -0.000000
     5  C   -0.000000   0.000000  -0.000000   0.000000   0.000000   0.000000
     6  O    0.000000   0.000000  -0.000000   0.000000  -0.000000  -0.000000
     7  N   -0.000000   0.000000  -0.000000   0.000000  -0.000000   0.000000
     8  H    0.000000   0.000000   0.000000  -0.000000   0.000000  -0.000000
     9  C   -0.000000  -0.000000   0.000000  -0.000000   0.000000  -0.000000
    10  C    0.000000   0.000000  -0.000000   0.000000   0.000000   0.000000
    11  C   -0.000000   0.000000   0.000000  -0.000000  -0.000000   0.000000
    12  C   -0.000013   0.000005  -0.000000  -0.000000  -0.000000   0.000000
    13  H   -0.000015   0.000024  -0.000000   0.000000   0.000000   0.000000
    14  H    0.000000  -0.000000  -0.000000  -0.000000  -0.000000  -0.000000
    15  H   -0.000000  -0.000000  -0.000000  -0.000000   0.000000   0.000000
    16  C    0.000002  -0.000000   0.000000  -0.000000  -0.000000  -0.000000
    17  H    0.000000  -0.000000   0.000000  -0.000000  -0.000000  -0.000000
    18  C   -0.000134  -0.000028  -0.000000   0.000000   0.000000   0.000000
    19  C    0.002283   0.000489  -0.000026   0.000008   0.000001   0.000031
    20  N   -0.063773   0.013638   0.000454  -0.000140   0.000015  -0.000196
    21  C    0.003205  -0.000015   0.000006   0.000002  -0.000000  -0.000021
    22  H   -0.000033  -0.000001  -0.000000  -0.000000   0.000000  -0.000000
    23  S   -0.086295   0.007939  -0.000592  -0.000109   0.000023   0.001301
    24  C    0.272731  -0.041042   0.004334  -0.000040  -0.000160  -0.001044
    25  N    7.051801   0.381022  -0.072467  -0.000326   0.004558  -0.195874
    26  C    0.381022   4.478665   0.353133  -0.033136  -0.020491   0.396126
    27  N   -0.072467   0.353133   7.207582   0.294536   0.294694  -0.318888
    28  H   -0.000326  -0.033136   0.294536   0.320249  -0.006660   0.016681
    29  H    0.004558  -0.020491   0.294694  -0.006660   0.273779  -0.000736
    30  N   -0.195874   0.396126  -0.318888   0.016681  -0.000736   7.068902
    31  H   -0.003531  -0.050519   0.015060  -0.001167  -0.000008   0.322908
    32  H    0.010001  -0.063046  -0.036178   0.002838   0.002971   0.352165
    33  H    0.314046  -0.029206  -0.004838   0.002292   0.000186   0.000769
              31         32         33
     1  C   -0.000000   0.000000  -0.000000
     2  H   -0.000000  -0.000000  -0.000000
     3  H   -0.000000  -0.000000  -0.000000
     4  H    0.000000   0.000000   0.000000
     5  C    0.000000   0.000000   0.000000
     6  O    0.000000   0.000000   0.000000
     7  N    0.000000   0.000000   0.000000
     8  H   -0.000000  -0.000000  -0.000000
     9  C   -0.000000  -0.000000  -0.000000
    10  C   -0.000000  -0.000000   0.000000
    11  C    0.000000  -0.000000  -0.000000
    12  C    0.000000   0.000000  -0.000000
    13  H    0.000000   0.000000  -0.000000
    14  H    0.000000   0.000000   0.000000
    15  H   -0.000000  -0.000000  -0.000000
    16  C    0.000000  -0.000000  -0.000000
[...]
 Alpha virt. eigenvalues --    4.13039   4.15961   4.21913   4.96199
          Condensed to atoms (all electrons):
               1          2          3          4          5          6
     1  C    4.686683   0.331938   0.255388   0.399865   0.001499  -0.054269
     2  H    0.331938   0.684716  -0.057912  -0.051009   0.005205   0.001841
     3  H    0.255388  -0.057912   1.066169  -0.109984   0.189519  -0.002629
     4  H    0.399865  -0.051009  -0.109984   0.758256  -0.110583   0.025643
     5  C    0.001499   0.005205   0.189519  -0.110583   5.664729   0.129642
     6  O   -0.054269   0.001841  -0.002629   0.025643   0.129642   8.792087
     7  N   -0.056727   0.039612  -0.177248   0.079427   0.104172  -0.151824
     8  H   -0.084208   0.006637   0.010479  -0.012768  -0.066173  -0.011450
     9  C    0.240508  -0.053187  -0.022160   0.006774  -0.345799   0.220543
    10  C   -0.017648   0.005529   0.019976  -0.008009   0.258027   0.031908
    11  C   -0.010928   0.002934  -0.003403   0.002510  -0.002726  -0.075161
    12  C   -0.018459  -0.000506  -0.003612  -0.001205   0.055509   0.001507
    13  H   -0.001121  -0.000011  -0.000118  -0.000053  -0.011521   0.000636
    14  H    0.001986   0.000168   0.000125   0.000209   0.023117  -0.000945
    15  H   -0.021928  -0.001720   0.001425  -0.002267   0.125037  -0.086128
    16  C   -0.177734   0.015463  -0.038780   0.003927  -0.478674   0.014399
    17  H    0.044203  -0.001859  -0.002157   0.002645  -0.102986   0.014651
    18  C    0.036324  -0.005006   0.018025  -0.000359  -0.024315   0.019253
    19  C    0.002618   0.000760  -0.001298   0.000426   0.012673  -0.008763
    20  N   -0.000065   0.000018   0.000046   0.000011   0.004746  -0.000141
    21  C    0.000098   0.000121  -0.000203   0.000011   0.018834   0.000200
    22  H   -0.000771   0.000056   0.000748   0.000008   0.010290  -0.000724
    23  S   -0.000039  -0.000009  -0.000035  -0.000008  -0.000196   0.000031
    24  C    0.000011   0.000046  -0.000276   0.000034   0.006378  -0.000250
    25  N   -0.000003  -0.000001   0.000001  -0.000001  -0.000099   0.000002
    26  C    0.000001  -0.000000  -0.000002  -0.000000  -0.000047   0.000004
    27  N    0.000000  -0.000000   0.000000  -0.000000  -0.000000   0.000000
    28  H    0.000000  -0.000000   0.000000  -0.000000  -0.000001   0.000000
    29  H   -0.000000   0.000000  -0.000000  -0.000000   0.000001   0.000000
    30  N   -0.000000   0.000000   0.000001  -0.000000  -0.000043   0.000001
    31  H    0.000033   0.000002  -0.000007   0.000003   0.000956  -0.000051
    32  H   -0.000001  -0.000000   0.000000  -0.000000  -0.000026   0.000001
    33  H    0.000000   0.000000  -0.000001   0.000000   0.000032  -0.000000
               7          8          9         10         11         12
     1  C   -0.056727  -0.084208   0.240508  -0.017648  -0.010928  -0.018459
     2  H    0.039612   0.006637  -0.053187   0.005529   0.002934  -0.000506
     3  H   -0.177248   0.010479  -0.022160   0.019976  -0.003403  -0.003612
     4  H    0.079427  -0.012768   0.006774  -0.008009   0.002510  -0.001205
     5  C    0.104172  -0.066173  -0.345799   0.258027  -0.002726   0.055509
     6  O   -0.151824  -0.011450   0.220543   0.031908  -0.075161   0.001507
     7  N    8.101845   0.311283  -1.232405   0.904583  -0.270469   0.261006
     8  H    0.311283   0.970092  -0.210714  -0.121536   0.002252   0.016390
     9  C   -1.232405  -0.210714  20.410261  -7.232246   4.456978  -4.303801
    10  C    0.904583  -0.121536  -7.232246  17.877030  -7.705702   3.662355
    11  C   -0.270469   0.002252   4.456978  -7.705702  20.969673  -7.381848
    12  C    0.261006   0.016390  -4.303801   3.662355  -7.381848  23.066062
    13  H   -0.001772  -0.003745   0.040265  -0.392458   0.870457  -1.561869
    14  H   -0.006139  -0.000985  -0.401631   1.292324  -1.931706   1.037665
    15  H   -0.171393   0.011953   0.955209  -1.843902   0.911603  -0.277424
    16  C    0.638698   0.289831  -7.478327   3.177071  -5.145838  -1.646433
    17  H   -0.225757  -0.057212   0.605320  -0.295287   0.055083  -0.037076
    18  C   -0.584999  -0.064740   1.492488  -5.076133   2.032059  -6.546246
    19  C    0.033536  -0.002339  -2.585326   0.773235  -0.796014   1.134089
    20  N   -0.002436   0.000075   0.247363  -0.094504  -0.023737  -0.167892
    21  C   -0.010481   0.024023   1.490348  -0.283868   0.059116  -1.896010
    22  H    0.002155  -0.003880  -0.057765  -0.026166   0.017435   0.131639
    23  S    0.001782   0.002797  -0.011558   0.021591  -0.030727   0.049286
    24  C   -0.002605   0.013012   0.254855  -0.108989   0.143285  -0.443484
    25  N    0.000275  -0.000157  -0.019361   0.010951  -0.027645   0.043745
    26  C   -0.000274   0.000272   0.000517  -0.005302   0.050539  -0.034062
    27  N    0.000001  -0.000007  -0.000355   0.000469  -0.001630   0.000668
    28  H   -0.000002  -0.000008  -0.000080   0.000049  -0.000001   0.000677
    29  H    0.000000   0.000005   0.000007   0.000029   0.000336  -0.000174
    30  N   -0.000055  -0.000092   0.000493  -0.000507  -0.032627   0.000751
    31  H    0.001176   0.000455  -0.022453   0.049139  -0.070538   0.006880
    32  H   -0.000035  -0.000021   0.000483  -0.001418   0.007700   0.007589
    33  H    0.000035   0.000104   0.001406  -0.000361  -0.000440  -0.005401
              13         14         15         16         17         18
     1  C   -0.001121   0.001986  -0.021928  -0.177734   0.044203   0.036324
     2  H   -0.000011   0.000168  -0.001720   0.015463  -0.001859  -0.005006
     3  H   -0.000118   0.000125   0.001425  -0.038780  -0.002157   0.018025
     4  H   -0.000053   0.000209  -0.002267   0.003927   0.002645  -0.000359
     5  C   -0.011521   0.023117   0.125037  -0.478674  -0.102986  -0.024315
     6  O    0.000636  -0.000945  -0.086128   0.014399   0.014651   0.019253
     7  N   -0.001772  -0.006139  -0.171393   0.638698  -0.225757  -0.584999
     8  H   -0.003745  -0.000985   0.011953   0.289831  -0.057212  -0.064740
     9  C    0.040265  -0.401631   0.955209  -7.478327   0.605320   1.492488
    10  C   -0.392458   1.292324  -1.843902   3.177071  -0.295287  -5.076133
    11  C    0.870457  -1.931706   0.911603  -5.145838   0.055083   2.032059
    12  C   -1.561869   1.037665  -0.277424  -1.646433  -0.037076  -6.546246
    13  H    2.261946  -0.177705   0.000838  -0.251169  -0.002830   0.898463
    14  H   -0.177705   1.947696  -0.115115   0.139627   0.013862  -0.282618
    15  H    0.000838  -0.115115   2.380747  -0.196221  -0.040786   0.004449
    16  C   -0.251169   0.139627  -0.196221  30.862162  -2.279497 -10.374216
    17  H   -0.002830   0.013862  -0.040786  -2.279497   2.691572   1.420944
    18  C    0.898463  -0.282618   0.004449 -10.374216   1.420944  27.232606
    19  C    0.041019   0.012655   0.007038  -0.012905  -0.036296  -9.833958
    20  N   -0.087526   0.004932   0.000546  -0.081863   0.012477   0.778727
    21  C    0.002807   0.003511   0.000993  -2.040002   0.193541   3.075392
    22  H    0.008180  -0.000796   0.002083   0.099938  -0.085002  -0.227456
    23  S    0.001637  -0.001196   0.000447  -0.009732  -0.020793  -0.323361
    24  C   -0.070817   0.007693  -0.002767  -0.243909  -0.092960   0.973484
    25  N    0.004019  -0.001376   0.000286   0.070356   0.006335  -0.299634
    26  C    0.010273   0.001183  -0.000148  -0.065797  -0.003518   0.073656
    27  N    0.002420  -0.000159   0.000010   0.002534   0.000280  -0.006983
    28  H   -0.000440   0.000001   0.000001   0.000341   0.000130   0.000060
    29  H    0.000412   0.000012  -0.000002  -0.000534  -0.000067   0.000140
    30  N    0.001706  -0.000577   0.000059   0.022888   0.000651   0.012888
    31  H   -0.038429   0.009726  -0.000241   0.041029  -0.002011   0.004210
    32  H    0.003190  -0.000241   0.000002  -0.000732   0.000143  -0.009805
    33  H   -0.000689   0.000010  -0.000003  -0.006079  -0.002044   0.018754
              19         20         21         22         23         24
     1  C    0.002618  -0.000065   0.000098  -0.000771  -0.000039   0.000011
     2  H    0.000760   0.000018   0.000121   0.000056  -0.000009   0.000046
     3  H   -0.001298   0.000046  -0.000203   0.000748  -0.000035  -0.000276
     4  H    0.000426   0.000011   0.000011   0.000008  -0.000008   0.000034
     5  C    0.012673   0.004746   0.018834   0.010290  -0.000196   0.006378
     6  O   -0.008763  -0.000141   0.000200  -0.000724   0.000031  -0.000250
     7  N    0.033536  -0.002436  -0.010481   0.002155   0.001782  -0.002605
     8  H   -0.002339   0.000075   0.024023  -0.003880   0.002797   0.013012
     9  C   -2.585326   0.247363   1.490348  -0.057765  -0.011558   0.254855
    10  C    0.773235  -0.094504  -0.283868  -0.026166   0.021591  -0.108989
    11  C   -0.796014  -0.023737   0.059116   0.017435  -0.030727   0.143285
    12  C    1.134089  -0.167892  -1.896010   0.131639   0.049286  -0.443484
    13  H    0.041019  -0.087526   0.002807   0.008180   0.001637  -0.070817
    14  H    0.012655   0.004932   0.003511  -0.000796  -0.001196   0.007693
    15  H    0.007038   0.000546   0.000993   0.002083   0.000447  -0.002767
    16  C   -0.012905  -0.081863  -2.040002   0.099938  -0.009732  -0.243909
    17  H   -0.036296   0.012477   0.193541  -0.085002  -0.020793  -0.092960
    18  C   -9.833958   0.778727   3.075392  -0.227456  -0.323361   0.973484
    19  C   30.759847  -1.723782 -10.373131   1.127833   0.239752  -2.602983
    20  N   -1.723782   8.067393   0.804359   0.002118  -0.232472   0.309195
    21  C  -10.373131   0.804359  15.679093  -0.748641   0.101290  -0.406847
    22  H    1.127833   0.002118  -0.748641   1.714780  -0.267645  -0.062718
    23  S    0.239752  -0.232472   0.101290  -0.267645  15.935868   0.175197
    24  C   -2.602983   0.309195  -0.406847  -0.062718   0.175197   8.324104
    25  N    0.814994  -0.164896  -0.107109  -0.013261  -0.094643  -0.357570
    26  C   -0.036024   0.074720  -0.194993  -0.007005  -0.051139  -0.279533
    27  N    0.038576   0.006370  -0.002200  -0.000342   0.005491   0.010993
    28  H   -0.001131   0.001133   0.000707  -0.000011  -0.002488  -0.028039
    29  H    0.002262   0.002935  -0.003853  -0.000127  -0.000087  -0.011490
    30  N   -0.069201  -0.023336   0.084012   0.002636  -0.012912  -0.013239
    31  H   -0.022926   0.002789  -0.041966  -0.005048   0.002970  -0.019877
    32  H    0.011083  -0.002654  -0.000368   0.000042  -0.000556   0.004910
    33  H   -0.110015  -0.008347   0.003351   0.002184   0.017945  -0.082802
              25         26         27         28         29         30
     1  C   -0.000003   0.000001   0.000000   0.000000  -0.000000  -0.000000
     2  H   -0.000001  -0.000000  -0.000000  -0.000000   0.000000   0.000000
     3  H    0.000001  -0.000002   0.000000   0.000000  -0.000000   0.000001
     4  H   -0.000001  -0.000000  -0.000000  -0.000000  -0.000000  -0.000000
     5  C   -0.000099  -0.000047  -0.000000  -0.000001   0.000001  -0.000043
     6  O    0.000002   0.000004   0.000000   0.000000   0.000000   0.000001
     7  N    0.000275  -0.000274   0.000001  -0.000002   0.000000  -0.000055
     8  H   -0.000157   0.000272  -0.000007  -0.000008   0.000005  -0.000092
     9  C   -0.019361   0.000517  -0.000355  -0.000080   0.000007   0.000493
    10  C    0.010951  -0.005302   0.000469   0.000049   0.000029  -0.000507
    11  C   -0.027645   0.050539  -0.001630  -0.000001   0.000336  -0.032627
    12  C    0.043745  -0.034062   0.000668   0.000677  -0.000174   0.000751
    13  H    0.004019   0.010273   0.002420  -0.000440   0.000412   0.001706
    14  H   -0.001376   0.001183  -0.000159   0.000001   0.000012  -0.000577
    15  H    0.000286  -0.000148   0.000010   0.000001  -0.000002   0.000059
    16  C    0.070356  -0.065797   0.002534   0.000341  -0.000534   0.022888
    17  H    0.006335  -0.003518   0.000280   0.000130  -0.000067   0.000651
    18  C   -0.299634   0.073656  -0.006983   0.000060   0.000140   0.012888
    19  C    0.814994  -0.036024   0.038576  -0.001131   0.002262  -0.069201
    20  N   -0.164896   0.074720   0.006370   0.001133   0.002935  -0.023336
    21  C   -0.107109  -0.194993  -0.002200   0.000707  -0.003853   0.084012
    22  H   -0.013261  -0.007005  -0.000342  -0.000011  -0.000127   0.002636
    23  S   -0.094643  -0.051139   0.005491  -0.002488  -0.000087  -0.012912
    24  C   -0.357570  -0.279533   0.010993  -0.028039  -0.011490  -0.013239
    25  N    7.469936   0.136605  -0.105728   0.019837  -0.024012  -0.013378
    26  C    0.136605   5.192001   0.124897  -0.084967  -0.064023   0.173133
    27  N   -0.105728   0.124897   6.398547   0.455182   0.457626  -0.119207
    28  H    0.019837  -0.084967   0.455182   0.774389  -0.143618   0.005737
    29  H   -0.024012  -0.064023   0.457626  -0.143618   0.779253  -0.019907
    30  N   -0.013378   0.173133  -0.119207   0.005737  -0.019907   6.267470
    31  H   -0.036605  -0.134385   0.013112   0.002968  -0.001490   0.404483
    32  H    0.012872  -0.114190  -0.004972   0.002084  -0.007583   0.434392
    33  H    0.418649  -0.087172  -0.010266  -0.004558   0.002859   0.009190
              31         32         33
     1  C    0.000033  -0.000001   0.000000
     2  H    0.000002  -0.000000   0.000000
     3  H   -0.000007   0.000000  -0.000001
     4  H    0.000003  -0.000000   0.000000
     5  C    0.000956  -0.000026   0.000032
     6  O   -0.000051   0.000001  -0.000000
     7  N    0.001176  -0.000035   0.000035
     8  H    0.000455  -0.000021   0.000104
     9  C   -0.022453   0.000483   0.001406
    10  C    0.049139  -0.001418  -0.000361
    11  C   -0.070538   0.007700  -0.000440
    12  C    0.006880   0.007589  -0.005401
    13  H   -0.038429   0.003190  -0.000689
    14  H    0.009726  -0.000241   0.000010
    15  H   -0.000241   0.000002  -0.000003
    16  C    0.041029  -0.000732  -0.006079
    17  H   -0.002011   0.000143  -0.002044
    18  C    0.004210  -0.009805   0.018754
    19  C   -0.022926   0.011083  -0.110015
    20  N    0.002789  -0.002654  -0.008347
    21  C   -0.041966  -0.000368   0.003351
    22  H   -0.005048   0.000042   0.002184
    23  S    0.002970  -0.000556   0.017945
    24  C   -0.019877   0.004910  -0.082802
    25  N   -0.036605   0.012872   0.418649
    26  C   -0.134385  -0.114190  -0.087172
    27  N    0.013112  -0.004972  -0.010266
    28  H    0.002968   0.002084  -0.004558
    29  H   -0.001490  -0.007583   0.002859
    30  N    0.404483   0.434392   0.009190
    31  H    0.973904  -0.209385   0.001788
    32  H   -0.209385   0.857672  -0.000676
    33  H    0.001788  -0.000676   0.842542
 Mulliken charges:
               1
     1  C    0.442744
     2  H    0.076174
     3  H   -0.142077
     4  H    0.016498
     5  C    0.532823
     6  O   -0.860013
     7  N   -0.584965
     8  H   -0.019623
     9  C   -0.446649
    10  C    1.129771
    11  C   -0.070820
    12  C    0.849683
    13  H   -0.545995
    14  H   -0.575313
    15  H   -0.642683
    16  C    1.150180
    17  H   -0.773696
    18  C    1.567909
    19  C   -0.796303
    20  N   -0.706301
    21  C    0.567863
    22  H   -0.614767
    23  S    0.503513
    24  C    0.607957
    25  N   -0.743385
    26  C    1.324782
    27  N   -0.265326
    28  H    0.002047
    29  H    0.031091
    30  N   -0.115409
    31  H    0.089788
    32  H    0.010498
    33  H    0.000004
 Sum of Mulliken charges =   1.00000
 Mulliken charges with hydrogens summed into heavy atoms:
               1
     1  C    0.393340
     5  C    0.532823
     6  O   -0.860013
     7  N   -0.604588
     9  C   -0.446649
    10  C    0.487089
    11  C   -0.646132
    12  C    0.303688
    16  C    0.376483
    18  C    1.567909
    19  C   -0.796303
    20  N   -0.706301
    21  C   -0.046904
    23  S    0.503513
    24  C    0.607957
    25  N   -0.743381
    26  C    1.324782
    27  N   -0.232187
    30  N   -0.015123
 Electronic spatial extent (au):  <R**2>=           8755.8133
 Charge=              1.0000 electrons
 Dipole moment (field-independent basis, Debye):
    X=             20.2412    Y=             -0.9884    Z=              0.2783  Tot=             20.2673
 Quadrupole moment (field-independent basis, Debye-Ang):
   XX=             15.9989   YY=            -87.7697   ZZ=           -124.6031
   XY=             40.6882   XZ=              0.9018   YZ=              0.3271
 Traceless Quadrupole moment (field-independent basis, Debye-Ang):
   XX=             81.4569   YY=            -22.3118   ZZ=            -59.1451
   XY=             40.6882   XZ=              0.9018   YZ=              0.3271
 Octapole moment (field-independent basis, Debye-Ang**2):
  XXX=            753.9326  YYY=             35.6576  ZZZ=              1.0176  XYY=             82.9071
  XXY=            -10.2260  XXZ=             11.6251  XZZ=             -1.9649  YZZ=             -1.2597
  YYZ=              0.5399  XYZ=              2.9143
 Hexadecapole moment (field-independent basis, Debye-Ang**3):
 XXXX=          -4839.9601 YYYY=          -1274.9642 ZZZZ=           -142.8801 XXXY=           1417.8420
 XXXZ=             51.9051 YYYX=            243.3139 YYYZ=              3.7983 ZZZX=             -4.5344
 ZZZY=             -0.8722 XXYY=          -1446.9794 XXZZ=          -1713.2473 YYZZ=           -307.8350
 XXYZ=              8.2476 YYXZ=              5.5712 ZZXY=             16.1420
 N-N= 1.442083120329D+03 E-N=-5.704641923076D+03  KE= 1.205983482534D+03
 Leave Link  601 at Sun Jul 18 17:21:13 2021, MaxMem=   262144000 cpu:               1.0 elap:               0.3
 (Enter /prod/apps/gaussian/g16b1/l9999.exe)
 1\1\GINC-PIRINEUS38\SP\RMP2-FC\Aug-CC-pVDZ\C12H14N5O1S1(1+)\UBATOR02\1
 8-Jul-2021\0\\#p mp2/aug-cc-pVDZ scf=tight maxdisk=180GB geom=allcheck
 \\SET_328_BBB321_conf1.geo_195_210_120 geometry\\1,1\C,0,-3.9804198231
 ,-3.7351755148,2.9371947953\H,0,-4.8972523333,-3.1946055705,3.19365343
 32\H,0,-3.263887303,-3.6042468557,3.750069498\H,0,-4.232658497,-4.7929
 766791,2.8424661939\C,0,-3.4702620176,-3.2338472874,1.6000352036\O,0,-
 3.9732632578,-3.6036616832,0.5381028375\N,0,-2.4420083791,-2.333374098
 ,1.6836407309\H,0,-2.1158339034,-2.1101935454,2.6192967344\C,0,-1.7765
 718491,-1.6535465713,0.6449019655\C,0,-2.0874948549,-1.8213779861,-0.7
 158255049\C,0,-1.367394455,-1.1021921244,-1.6690013521\C,0,-0.34949130
 42,-0.223961994,-1.3040354411\H,0,0.202353304,0.3281761298,-2.05419443
 94\H,0,-1.6089296824,-1.233213393,-2.7188172301\H,0,-2.8759625192,-2.5
 021587854,-0.9975952469\C,0,-0.7534178344,-0.7709333444,1.0141304006\H
 ,0,-0.5197209984,-0.6474332378,2.0655979295\C,0,-0.0332308329,-0.05144
 74131,0.0523891702\C,0,1.0413320154,0.8725172497,0.4570871552\N,0,1.73
 8667552,1.5736496201,-0.5197972017\C,0,1.448690913,1.1288627244,1.7372
 966221\H,0,1.0746942159,0.7185885082,2.6620507155\S,0,2.7464731282,2.2
 815895425,1.7601933063\C,0,2.648416,2.3393297644,0.0061088547\N,0,3.50
 7207248,3.1631907371,-0.6986655774\C,0,3.5566245963,3.3323252326,-2.05
 31840707\N,0,4.4712047754,4.1720281104,-2.5301585087\H,0,5.0635205023,
 4.7090129882,-1.9049464653\H,0,4.5091869028,4.3664649227,-3.5253444502
 \N,0,2.7314637816,2.6752877705,-2.8529348692\H,0,2.0510820107,2.031004
 2398,-2.4534093738\H,0,2.7798948348,2.81745405,-3.8567594493\H,0,4.178
 9880647,3.7068644934,-0.1595463656\\Version=ES64L-G16RevB.01\State=1-A
 \HF=-1207.1543742\MP2=-1209.9710301\RMSD=6.320e-09\PG=C01 [X(C12H14N5O
 1S1)]\\@


 WE ARE REACHING THE STAGE WHERE THE PROBLEMS WE MUST SOLVE ARE 
 GOING TO BECOME INSOLUBLE WITHOUT COMPUTERS.
 I DO NOT FEAR COMPUTERS.  I FEAR THE LACK OF THEM.

                                   -- ISSAC ASIMOV
 Job cpu time:       0 days  1 hours 51 minutes 57.8 seconds.
 Elapsed time:       0 days  0 hours 30 minutes  5.6 seconds.
 File lengths (MBytes):  RWF=  86217 Int=      0 D2E=      0 Chk=     27 Scr=      1
 Normal termination of Gaussian 16 at Sun Jul 18 17:21:15 2021.
