 Entering Gaussian System, Link 0=g16
 Initial command:
 /prod/apps/gaussian/g16b1/l1.exe "/tmp/ubator02/1839527/Gau-182807.inp" -scrdir="/tmp/ubator02/1839527/"
 Entering Link 1 = /prod/apps/gaussian/g16b1/l1.exe PID=    182808.
  
 Copyright (c) 1988-2017, Gaussian, Inc.  All Rights Reserved.
  
 This is part of the Gaussian(R) 16 program.  It is based on
 the Gaussian(R) 09 system (copyright 2009, Gaussian, Inc.),
 the Gaussian(R) 03 system (copyright 2003, Gaussian, Inc.),
 the Gaussian(R) 98 system (copyright 1998, Gaussian, Inc.),
 the Gaussian(R) 94 system (copyright 1995, Gaussian, Inc.),
 the Gaussian 92(TM) system (copyright 1992, Gaussian, Inc.),
 the Gaussian 90(TM) system (copyright 1990, Gaussian, Inc.),
 the Gaussian 88(TM) system (copyright 1988, Gaussian, Inc.),
 the Gaussian 86(TM) system (copyright 1986, Carnegie Mellon
 University), and the Gaussian 82(TM) system (copyright 1983,
 Carnegie Mellon University). Gaussian is a federally registered
 trademark of Gaussian, Inc.
  
 This software contains proprietary and confidential information,
 including trade secrets, belonging to Gaussian, Inc.
  
 This software is provided under written license and may be
 used, copied, transmitted, or stored only in accord with that
 written license.
  
 The following legend is applicable only to US Government
 contracts under FAR:
  
                    RESTRICTED RIGHTS LEGEND
  
 Use, reproduction and disclosure by the US Government is
 subject to restrictions as set forth in subparagraphs (a)
 and (c) of the Commercial Computer Software - Restricted
 Rights clause in FAR 52.227-19.
  
 Gaussian, Inc.
 340 Quinnipiac St., Bldg. 40, Wallingford CT 06492
  
  
 ---------------------------------------------------------------
 Warning -- This program may not be used in any manner that
 competes with the business of Gaussian, Inc. or will provide
 assistance to any competitor of Gaussian, Inc.  The licensee
 of this program is prohibited from giving any competitor of
 Gaussian, Inc. access to this program.  By using this program,
 the user acknowledges that Gaussian, Inc. is engaged in the
 business of creating and licensing software in the field of
 computational chemistry and represents and warrants to the
 licensee that it is not a competitor of Gaussian, Inc. and that
 it will not use this program in any manner prohibited above.
 ---------------------------------------------------------------
  

 Cite this work as:
 Gaussian 16, Revision B.01,
 M. J. Frisch, G. W. Trucks, H. B. Schlegel, G. E. Scuseria, 
 M. A. Robb, J. R. Cheeseman, G. Scalmani, V. Barone, 
 G. A. Petersson, H. Nakatsuji, X. Li, M. Caricato, A. V. Marenich, 
 J. Bloino, B. G. Janesko, R. Gomperts, B. Mennucci, H. P. Hratchian, 
 J. V. Ortiz, A. F. Izmaylov, J. L. Sonnenberg, D. Williams-Young, 
 F. Ding, F. Lipparini, F. Egidi, J. Goings, B. Peng, A. Petrone, 
 T. Henderson, D. Ranasinghe, V. G. Zakrzewski, J. Gao, N. Rega, 
 G. Zheng, W. Liang, M. Hada, M. Ehara, K. Toyota, R. Fukuda, 
 J. Hasegawa, M. Ishida, T. Nakajima, Y. Honda, O. Kitao, H. Nakai, 
 T. Vreven, K. Throssell, J. A. Montgomery, Jr., J. E. Peralta, 
 F. Ogliaro, M. J. Bearpark, J. J. Heyd, E. N. Brothers, K. N. Kudin, 
 V. N. Staroverov, T. A. Keith, R. Kobayashi, J. Normand, 
 K. Raghavachari, A. P. Rendell, J. C. Burant, S. S. Iyengar, 
 J. Tomasi, M. Cossi, J. M. Millam, M. Klene, C. Adamo, R. Cammi, 
 J. W. Ochterski, R. L. Martin, K. Morokuma, O. Farkas, 
 J. B. Foresman, and D. J. Fox, Gaussian, Inc., Wallingford CT, 2016.
 
 ******************************************
 Gaussian 16:  ES64L-G16RevB.01 20-Dec-2017
                18-Jul-2021 
 ******************************************
 %mem=800MB
 %nproc=4
 Will use up to    4 processors via shared memory.
 %chk=SET_328_BBB256_conf1.geo_180_075_075.chk
 -----------------------------------------------------------
 #p b3lyp/6-31G(d) opt freq scrf=(iefpcm,read,solvent=water)
 -----------------------------------------------------------
 1/18=20,19=15,26=3,38=1,40=2/1,3;
 2/9=110,12=2,17=6,18=5,40=1/2;
 3/5=1,6=6,7=1,11=2,25=1,30=1,70=2203,71=1,72=1,74=-5/1,2,3;
 4//1;
 5/5=2,38=5,53=1/2;
 6/7=2,8=2,9=2,10=2,28=1/1;
 7//1,2,3,16;
 1/18=20,19=15,26=3/3(2);
 2/9=110/2;
 99//99;
 2/9=110/2;
 3/5=1,6=6,7=1,11=2,25=1,30=1,70=2205,71=1,72=1,74=-5/1,2,3;
 4/5=5,16=3,69=1/1;
 5/5=2,38=5,53=1/2;
 7//1,2,3,16;
 1/18=20,19=15,26=3/3(-5);
 2/9=110/2;
 6/7=2,8=2,9=2,10=2,19=2,28=1/1;
 99/9=1/99;
 Leave Link    1 at Sun Jul 18 13:37:05 2021, MaxMem=   104857600 cpu:               0.1 elap:               0.0
 (Enter /prod/apps/gaussian/g16b1/l101.exe)
 ---------------------------------------------
 SET_328_BBB256_conf1.geo_180_075_075 geometry
 ---------------------------------------------
 Symbolic Z-matrix:
 Charge =  1 Multiplicity = 1
 C                     2.821    -0.379     1.879 
 H                     3.269     0.47      1.355 
 H                     3.543    -1.178     1.694 
 H                     2.824     0.01      2.9 
 N                     1.466    -0.573     1.507 
 H                     1.02      0.32      1.451 
 C                     1.3      -1.25      0.243 
 H                     1.673    -2.275     0.306 
 H                     1.823    -0.69     -0.536 
 C                    -0.131    -1.457    -0.107 
 H                    -0.718    -1.849     0.726 
 H                    -0.262    -2.233    -0.865 
 C                    -0.807    -0.218    -0.587 
 N                    -0.468     0.214    -1.837 
 C                    -1.268     1.217    -2.344 
 H                    -1.238     1.474    -3.401 
 C                    -2.278     1.881    -1.605 
 H                    -2.912     2.601    -2.117 
 C                    -2.544     1.493    -0.266 
 H                    -3.342     1.968     0.298 
 C                    -1.768     0.434     0.209 
 H                    -1.946     0.04      1.206 
 H                     1.014    -1.111     2.218 
 
 ITRead=  0  0  0  0  0  0  0  0  0  0  0  0  0  0  0  0  0  0  0  0
 ITRead=  0  0  0
 MicOpt= -1 -1 -1 -1 -1 -1 -1 -1 -1 -1 -1 -1 -1 -1 -1 -1 -1 -1 -1 -1
 MicOpt= -1 -1 -1
 NAtoms=     23 NQM=       23 NQMF=       0 NMMI=      0 NMMIF=      0
                NMic=       0 NMicF=      0.
                    Isotopes and Nuclear Properties:
 (Nuclear quadrupole moments (NQMom) in fm**2, nuclear magnetic moments (NMagM)
  in nuclear magnetons)

  Atom         1           2           3           4           5           6           7           8           9          10
 IAtWgt=          12           1           1           1          14           1          12           1           1          12
 AtmWgt=  12.0000000   1.0078250   1.0078250   1.0078250  14.0030740   1.0078250  12.0000000   1.0078250   1.0078250  12.0000000
 NucSpn=           0           1           1           1           2           1           0           1           1           0
 AtZEff=  -0.0000000  -0.0000000  -0.0000000  -0.0000000  -0.0000000  -0.0000000  -0.0000000  -0.0000000  -0.0000000  -0.0000000
 NQMom=    0.0000000   0.0000000   0.0000000   0.0000000   2.0440000   0.0000000   0.0000000   0.0000000   0.0000000   0.0000000
 NMagM=    0.0000000   2.7928460   2.7928460   2.7928460   0.4037610   2.7928460   0.0000000   2.7928460   2.7928460   0.0000000
 AtZNuc=   6.0000000   1.0000000   1.0000000   1.0000000   7.0000000   1.0000000   6.0000000   1.0000000   1.0000000   6.0000000

  Atom        11          12          13          14          15          16          17          18          19          20
 IAtWgt=           1           1          12          14          12           1          12           1          12           1
 AtmWgt=   1.0078250   1.0078250  12.0000000  14.0030740  12.0000000   1.0078250  12.0000000   1.0078250  12.0000000   1.0078250
 NucSpn=           1           1           0           2           0           1           0           1           0           1
 AtZEff=  -0.0000000  -0.0000000  -0.0000000  -0.0000000  -0.0000000  -0.0000000  -0.0000000  -0.0000000  -0.0000000  -0.0000000
 NQMom=    0.0000000   0.0000000   0.0000000   2.0440000   0.0000000   0.0000000   0.0000000   0.0000000   0.0000000   0.0000000
 NMagM=    2.7928460   2.7928460   0.0000000   0.4037610   0.0000000   2.7928460   0.0000000   2.7928460   0.0000000   2.7928460
 AtZNuc=   1.0000000   1.0000000   6.0000000   7.0000000   6.0000000   1.0000000   6.0000000   1.0000000   6.0000000   1.0000000

  Atom        21          22          23
 IAtWgt=          12           1           1
 AtmWgt=  12.0000000   1.0078250   1.0078250
 NucSpn=           0           1           1
 AtZEff=  -0.0000000  -0.0000000  -0.0000000
 NQMom=    0.0000000   0.0000000   0.0000000
 NMagM=    0.0000000   2.7928460   2.7928460
 AtZNuc=   6.0000000   1.0000000   1.0000000
 Leave Link  101 at Sun Jul 18 13:37:05 2021, MaxMem=   104857600 cpu:               0.6 elap:               0.2
 (Enter /prod/apps/gaussian/g16b1/l103.exe)

 GradGradGradGradGradGradGradGradGradGradGradGradGradGradGradGradGradGrad
 Berny optimization.
 Initialization pass.
                           ----------------------------
                           !    Initial Parameters    !
                           ! (Angstroms and Degrees)  !
 --------------------------                            --------------------------
 ! Name  Definition              Value          Derivative Info.                !
 --------------------------------------------------------------------------------
 ! R1    R(1,2)                  1.0937         estimate D2E/DX2                !
 ! R2    R(1,3)                  1.0927         estimate D2E/DX2                !
 ! R3    R(1,4)                  1.0926         estimate D2E/DX2                !
 ! R4    R(1,5)                  1.4185         estimate D2E/DX2                !
 ! R5    R(5,6)                  0.9998         estimate D2E/DX2                !
 ! R6    R(5,7)                  1.4435         estimate D2E/DX2                !
 ! R7    R(5,23)                 0.9996         estimate D2E/DX2                !
 ! R8    R(7,8)                  1.0926         estimate D2E/DX2                !
 ! R9    R(7,9)                  1.0927         estimate D2E/DX2                !
 ! R10   R(7,10)                 1.4877         estimate D2E/DX2                !
 ! R11   R(10,11)                1.0918         estimate D2E/DX2                !
 ! R12   R(10,12)                1.0927         estimate D2E/DX2                !
 ! R13   R(10,13)                1.4908         estimate D2E/DX2                !
 ! R14   R(13,14)                1.3653         estimate D2E/DX2                !
 ! R15   R(13,21)                1.4079         estimate D2E/DX2                !
 ! R16   R(14,15)                1.3795         estimate D2E/DX2                !
 ! R17   R(15,16)                1.0882         estimate D2E/DX2                !
 ! R18   R(15,17)                1.4167         estimate D2E/DX2                !
 ! R19   R(17,18)                1.0874         estimate D2E/DX2                !
 ! R20   R(17,19)                1.4192         estimate D2E/DX2                !
 ! R21   R(19,20)                1.0865         estimate D2E/DX2                !
 ! R22   R(19,21)                1.3962         estimate D2E/DX2                !
 ! R23   R(21,22)                1.0867         estimate D2E/DX2                !
 ! A1    A(2,1,3)              102.4662         estimate D2E/DX2                !
 ! A2    A(2,1,4)               99.8006         estimate D2E/DX2                !
 ! A3    A(2,1,5)              111.8283         estimate D2E/DX2                !
 ! A4    A(3,1,4)              114.6294         estimate D2E/DX2                !
 ! A5    A(3,1,5)              119.1301         estimate D2E/DX2                !
 ! A6    A(4,1,5)              107.2407         estimate D2E/DX2                !
 ! A7    A(1,5,6)              108.583          estimate D2E/DX2                !
 ! A8    A(1,5,7)              113.8066         estimate D2E/DX2                !
 ! A9    A(1,5,23)             108.6031         estimate D2E/DX2                !
 ! A10   A(6,5,7)              108.577          estimate D2E/DX2                !
 ! A11   A(6,5,23)             108.5936         estimate D2E/DX2                !
 ! A12   A(7,5,23)             108.5669         estimate D2E/DX2                !
 ! A13   A(5,7,8)              110.5026         estimate D2E/DX2                !
 ! A14   A(5,7,9)              109.2004         estimate D2E/DX2                !
 ! A15   A(5,7,10)             112.4516         estimate D2E/DX2                !
 ! A16   A(8,7,9)              111.0083         estimate D2E/DX2                !
 ! A17   A(8,7,10)             102.2056         estimate D2E/DX2                !
 ! A18   A(9,7,10)             111.3455         estimate D2E/DX2                !
 ! A19   A(7,10,11)            112.806          estimate D2E/DX2                !
 ! A20   A(7,10,12)            112.1701         estimate D2E/DX2                !
 ! A21   A(7,10,13)            113.3462         estimate D2E/DX2                !
 ! A22   A(11,10,12)           102.1122         estimate D2E/DX2                !
 ! A23   A(11,10,13)           107.4723         estimate D2E/DX2                !
 ! A24   A(12,10,13)           108.2109         estimate D2E/DX2                !
 ! A25   A(10,13,14)           116.4338         estimate D2E/DX2                !
 ! A26   A(10,13,21)           120.8203         estimate D2E/DX2                !
 ! A27   A(14,13,21)           122.7229         estimate D2E/DX2                !
 ! A28   A(13,14,15)           114.9955         estimate D2E/DX2                !
 ! A29   A(14,15,16)           120.8441         estimate D2E/DX2                !
 ! A30   A(14,15,17)           124.2279         estimate D2E/DX2                !
 ! A31   A(16,15,17)           114.559          estimate D2E/DX2                !
 ! A32   A(15,17,18)           118.7095         estimate D2E/DX2                !
 ! A33   A(15,17,19)           119.8427         estimate D2E/DX2                !
 ! A34   A(18,17,19)           121.0615         estimate D2E/DX2                !
 ! A35   A(17,19,20)           120.5228         estimate D2E/DX2                !
 ! A36   A(17,19,21)           115.0986         estimate D2E/DX2                !
 ! A37   A(20,19,21)           124.2783         estimate D2E/DX2                !
 ! A38   A(13,21,19)           122.567          estimate D2E/DX2                !
 ! A39   A(13,21,22)           117.5553         estimate D2E/DX2                !
 ! A40   A(19,21,22)           119.7423         estimate D2E/DX2                !
 ! D1    D(2,1,5,6)            -41.7956         estimate D2E/DX2                !
 ! D2    D(2,1,5,7)             79.248          estimate D2E/DX2                !
 ! D3    D(2,1,5,23)          -159.7068         estimate D2E/DX2                !
 ! D4    D(3,1,5,6)           -161.0981         estimate D2E/DX2                !
 ! D5    D(3,1,5,7)            -40.0545         estimate D2E/DX2                !
 ! D6    D(3,1,5,23)            80.9906         estimate D2E/DX2                !
 ! D7    D(4,1,5,6)             66.6433         estimate D2E/DX2                !
 ! D8    D(4,1,5,7)           -172.3131         estimate D2E/DX2                !
 ! D9    D(4,1,5,23)           -51.2679         estimate D2E/DX2                !
 ! D10   D(1,5,7,8)             65.5781         estimate D2E/DX2                !
 ! D11   D(1,5,7,9)            -56.8007         estimate D2E/DX2                !
 ! D12   D(1,5,7,10)           179.0781         estimate D2E/DX2                !
 ! D13   D(6,5,7,8)           -173.375          estimate D2E/DX2                !
 ! D14   D(6,5,7,9)             64.2462         estimate D2E/DX2                !
 ! D15   D(6,5,7,10)           -59.875          estimate D2E/DX2                !
 ! D16   D(23,5,7,8)           -55.4873         estimate D2E/DX2                !
 ! D17   D(23,5,7,9)          -177.8661         estimate D2E/DX2                !
 ! D18   D(23,5,7,10)           58.0127         estimate D2E/DX2                !
 ! D19   D(5,7,10,11)          -46.5512         estimate D2E/DX2                !
 ! D20   D(5,7,10,12)         -161.2049         estimate D2E/DX2                !
 ! D21   D(5,7,10,13)           75.8771         estimate D2E/DX2                !
 ! D22   D(8,7,10,11)           71.9465         estimate D2E/DX2                !
 ! D23   D(8,7,10,12)          -42.7072         estimate D2E/DX2                !
 ! D24   D(8,7,10,13)         -165.6252         estimate D2E/DX2                !
 ! D25   D(9,7,10,11)         -169.4762         estimate D2E/DX2                !
 ! D26   D(9,7,10,12)           75.87           estimate D2E/DX2                !
 ! D27   D(9,7,10,13)          -47.0479         estimate D2E/DX2                !
 ! D28   D(7,10,13,14)          72.744          estimate D2E/DX2                !
 ! D29   D(7,10,13,21)        -108.9527         estimate D2E/DX2                !
 ! D30   D(11,10,13,14)       -161.9138         estimate D2E/DX2                !
 ! D31   D(11,10,13,21)         16.3895         estimate D2E/DX2                !
 ! D32   D(12,10,13,14)        -52.3333         estimate D2E/DX2                !
 ! D33   D(12,10,13,21)        125.97           estimate D2E/DX2                !
 ! D34   D(10,13,14,15)        169.2928         estimate D2E/DX2                !
 ! D35   D(21,13,14,15)         -8.9752         estimate D2E/DX2                !
 ! D36   D(10,13,21,19)       -171.703          estimate D2E/DX2                !
 ! D37   D(10,13,21,22)          4.0504         estimate D2E/DX2                !
 ! D38   D(14,13,21,19)          6.4911         estimate D2E/DX2                !
 ! D39   D(14,13,21,22)       -177.7555         estimate D2E/DX2                !
 ! D40   D(13,14,15,16)       -165.7539         estimate D2E/DX2                !
 ! D41   D(13,14,15,17)          6.8856         estimate D2E/DX2                !
 ! D42   D(14,15,17,18)       -174.9482         estimate D2E/DX2                !
 ! D43   D(14,15,17,19)         -2.0054         estimate D2E/DX2                !
 ! D44   D(16,15,17,18)         -1.8942         estimate D2E/DX2                !
 ! D45   D(16,15,17,19)        171.0486         estimate D2E/DX2                !
 ! D46   D(15,17,19,20)       -177.5892         estimate D2E/DX2                !
 ! D47   D(15,17,19,21)         -1.0791         estimate D2E/DX2                !
 ! D48   D(18,17,19,20)         -4.8158         estimate D2E/DX2                !
 ! D49   D(18,17,19,21)        171.6943         estimate D2E/DX2                !
 ! D50   D(17,19,21,13)         -1.0269         estimate D2E/DX2                !
 ! D51   D(17,19,21,22)       -176.6906         estimate D2E/DX2                !
 ! D52   D(20,19,21,13)        175.3347         estimate D2E/DX2                !
 ! D53   D(20,19,21,22)         -0.329          estimate D2E/DX2                !
 --------------------------------------------------------------------------------
 Trust Radius=3.00D-01 FncErr=1.00D-07 GrdErr=1.00D-06 EigMax=2.50D+02 EigMin=1.00D-04
 Number of steps in this run=    126 maximum allowed number of steps=    138.
 GradGradGradGradGradGradGradGradGradGradGradGradGradGradGradGradGradGrad

 Leave Link  103 at Sun Jul 18 13:37:05 2021, MaxMem=   104857600 cpu:               0.1 elap:               0.0
 (Enter /prod/apps/gaussian/g16b1/l202.exe)
                          Input orientation:                          
 ---------------------------------------------------------------------
 Center     Atomic      Atomic             Coordinates (Angstroms)
 Number     Number       Type             X           Y           Z
 ---------------------------------------------------------------------
      1          6           0        2.821000   -0.379000    1.879000
      2          1           0        3.269000    0.470000    1.355000
      3          1           0        3.543000   -1.178000    1.694000
      4          1           0        2.824000    0.010000    2.900000
      5          7           0        1.466000   -0.573000    1.507000
      6          1           0        1.020000    0.320000    1.451000
      7          6           0        1.300000   -1.250000    0.243000
      8          1           0        1.673000   -2.275000    0.306000
      9          1           0        1.823000   -0.690000   -0.536000
     10          6           0       -0.131000   -1.457000   -0.107000
     11          1           0       -0.718000   -1.849000    0.726000
     12          1           0       -0.262000   -2.233000   -0.865000
     13          6           0       -0.807000   -0.218000   -0.587000
     14          7           0       -0.468000    0.214000   -1.837000
     15          6           0       -1.268000    1.217000   -2.344000
     16          1           0       -1.238000    1.474000   -3.401000
     17          6           0       -2.278000    1.881000   -1.605000
     18          1           0       -2.912000    2.601000   -2.117000
     19          6           0       -2.544000    1.493000   -0.266000
     20          1           0       -3.342000    1.968000    0.298000
     21          6           0       -1.768000    0.434000    0.209000
     22          1           0       -1.946000    0.040000    1.206000
     23          1           0        1.014000   -1.111000    2.218000
 ---------------------------------------------------------------------
                    Distance matrix (angstroms):
                    1          2          3          4          5
     1  C    0.000000
     2  H    1.093655   0.000000
     3  H    1.092662   1.704670   0.000000
     4  H    1.092598   1.672319   1.839223   0.000000
     5  N    1.418466   2.088483   2.171387   2.030887   0.000000
     6  H    1.978733   2.256040   2.944246   2.334549   0.999750
     7  C    2.397619   2.841110   2.672384   3.312073   1.443461
     8  H    2.717913   3.344046   2.574267   3.643468   2.093336
     9  H    2.631530   2.648093   2.858224   3.646656   2.077255
    10  C    3.717605   4.172622   4.101185   4.463873   2.436567
    11  H    4.001853   4.655059   4.420790   4.552793   2.647261
    12  H    4.524571   4.970168   4.705266   5.360007   3.371642
    13  C    4.389699   4.567109   5.004704   5.039376   3.110850
    14  N    4.997782   4.921338   5.522114   5.772179   3.942342
    15  C    6.091048   5.901269   6.722142   6.760240   5.050649
    16  H    6.912850   6.628771   7.473292   7.638438   5.965760
    17  C    6.576143   6.443736   7.356964   7.058758   5.451990
    18  H    7.597085   7.402750   8.394736   8.048929   6.509573
    19  C    6.073601   6.120877   6.930181   6.406112   4.846853
    20  H    6.781632   6.860508   7.697360   6.973071   5.570927
    21  C    4.950635   5.165848   5.745476   5.339262   3.627342
    22  H    4.832471   5.234819   5.643650   5.061960   3.479672
    23  H    1.978887   2.886062   2.583584   2.235591   0.999634
                    6          7          8          9         10
     6  H    0.000000
     7  C    2.000641   0.000000
     8  H    2.910577   1.092576   0.000000
     9  H    2.369194   1.092689   1.801024   0.000000
    10  C    2.628668   1.487653   2.023390   2.142533   0.000000
    11  H    2.872426   2.159725   2.464702   3.064736   1.091843
    12  H    3.677661   2.152626   2.262130   2.614635   1.092658
    13  C    2.789412   2.488649   3.343516   2.672505   1.490804
    14  N    3.610585   3.097664   3.920644   2.785408   2.428726
    15  C    4.521236   4.401509   5.278830   4.057067   3.667044
    16  H    5.474686   5.209641   6.022522   4.718140   4.546058
    17  C    4.759481   5.101015   6.044391   4.956915   4.242152
    18  H    5.778772   6.175819   7.118183   5.979169   5.314266
    19  C    4.126271   4.749681   5.684021   4.889691   3.814492
    20  H    4.803369   5.648603   6.569120   5.868368   4.712236
    21  C    3.054260   3.499948   4.380476   3.835842   2.521013
    22  H    2.989244   3.623256   4.389349   4.215783   2.694291
    23  H    1.623603   2.000435   2.333435   2.901075   2.614645
                   11         12         13         14         15
    11  H    0.000000
    12  H    1.699021   0.000000
    13  C    2.095722   2.105833   0.000000
    14  N    3.299612   2.641028   1.365300   0.000000
    15  C    4.373529   3.886126   2.314907   1.379514   0.000000
    16  H    5.323989   4.596273   3.311679   2.150952   1.088209
    17  C    4.666911   4.640781   2.757892   2.471601   1.416728
    18  H    5.718285   5.653102   3.836494   3.427726   2.160954
    19  C    3.935391   4.410148   2.459213   2.900631   2.454065
    20  H    4.651672   5.337356   3.462376   3.986805   3.441750
    21  C    2.565517   3.245674   1.407921   2.434033   2.716781
    22  H    2.303629   3.505913   2.139798   3.387419   3.800988
    23  H    2.402193   3.520220   3.461433   4.516079   5.607045
                   16         17         18         19         20
    16  H    0.000000
    17  C    2.114915   0.000000
    18  H    2.391874   1.087428   0.000000
    19  C    3.396207   1.419233   2.188444   0.000000
    20  H    4.284093   2.181989   2.533340   1.086520   0.000000
    21  C    3.794022   2.375817   3.378595   1.396167   2.199671
    22  H    4.876686   3.376570   4.305137   2.153044   2.547639
    23  H    6.582316   5.865548   6.927095   5.060675   5.669337
                   21         22         23
    21  C    0.000000
    22  H    1.086706   0.000000
    23  H    3.763327   3.333248   0.000000
 Stoichiometry    C8H13N2(1+)
 Framework group  C1[X(C8H13N2)]
 Deg. of freedom    63
 Full point group                 C1      NOp   1
 Largest Abelian subgroup         C1      NOp   1
 Largest concise Abelian subgroup C1      NOp   1
                         Standard orientation:                         
 ---------------------------------------------------------------------
 Center     Atomic      Atomic             Coordinates (Angstroms)
 Number     Number       Type             X           Y           Z
 ---------------------------------------------------------------------
      1          6           0        3.540017    0.423032   -0.955045
      2          1           0        3.268199    0.160109   -1.981235
      3          1           0        4.307194   -0.317729   -0.717091
      4          1           0        3.918772    1.435089   -1.116463
      5          7           0        2.399692    0.529401   -0.118151
      6          1           0        1.678297    1.004519   -0.621493
      7          6           0        1.885891   -0.742555    0.330977
      8          1           0        2.608272   -1.238070    0.983935
      9          1           0        1.653033   -1.363060   -0.537770
     10          6           0        0.704752   -0.595096    1.223321
     11          1           0        0.850515    0.161662    1.996751
     12          1           0        0.520054   -1.494966    1.814947
     13          6           0       -0.548692   -0.252577    0.492531
     14          7           0       -1.114740   -1.252374   -0.245059
     15          6           0       -2.382059   -0.981874   -0.718125
     16          1           0       -3.011580   -1.776757   -1.113172
     17          6           0       -3.024922    0.275154   -0.600973
     18          1           0       -4.056825    0.366959   -0.931500
     19          6           0       -2.374906    1.340572    0.074737
     20          1           0       -2.873436    2.297128    0.205097
     21          6           0       -1.120097    1.029515    0.601975
     22          1           0       -0.579137    1.773244    1.180905
     23          1           0        2.642071    1.075655    0.683177
 ---------------------------------------------------------------------
 Rotational constants (GHZ):           2.8692123           0.6940844           0.6575700
 Leave Link  202 at Sun Jul 18 13:37:05 2021, MaxMem=   104857600 cpu:               0.1 elap:               0.1
 (Enter /prod/apps/gaussian/g16b1/l301.exe)
 Standard basis: 6-31G(d) (6D, 7F)
 Ernie: Thresh=  0.10000D-02 Tol=  0.10000D-05 Strict=F.
 There are   176 symmetry adapted cartesian basis functions of A   symmetry.
 There are   176 symmetry adapted basis functions of A   symmetry.
   176 basis functions,   332 primitive gaussians,   176 cartesian basis functions
    37 alpha electrons       37 beta electrons
       nuclear repulsion energy       517.4396079744 Hartrees.
 IExCor=  402 DFT=T Ex+Corr=B3LYP ExCW=0 ScaHFX=  0.200000
 ScaDFX=  0.800000  0.720000  1.000000  0.810000 ScalE2=  1.000000  1.000000
 IRadAn=      5 IRanWt=     -1 IRanGd=            0 ICorTp=0 IEmpDi=  4
 NAtoms=   23 NActive=   23 NUniq=   23 SFac= 1.00D+00 NAtFMM=   60 NAOKFM=F Big=F
 Integral buffers will be    131072 words long.
 Raffenetti 2 integral format.
 Two-electron integral symmetry is turned on.
 Using the following non-standard input for PCM:
 MSTModel=DFT cav MSTCharged
 --- end of non-standard input.
 MST model for solvation energy: B3LYP parametrization.
 MST cavity parameters:
 ISph   IAn     Re0     Alpha   Atom Type   QCorr
 ------------------------------------------------
   1      6     1.50     1.25      CH3        F
   2      1     1.20     1.25      CH3        F
   3      1     1.20     1.25      CH3        F
   4      1     1.20     1.25      CH3        F
   5      7     1.55     1.15      NH         T
   6      1     0.90     1.15      NH         T
   7      6     1.50     1.25      CH2        F
   8      1     1.20     1.25      CH2        F
   9      1     1.20     1.25      CH2        F
  10      6     1.50     1.25      CH2        F
  11      1     1.20     1.25      CH2        F
  12      1     1.20     1.25      CH2        F
  13      6     1.50     1.25      C          F
  14      7     1.40     1.25      N          F
  15      6     1.50     1.25      CH         F
  16      1     1.20     1.25      CH         F
  17      6     1.50     1.25      CH         F
  18      1     1.20     1.25      CH         F
  19      6     1.50     1.25      CH         F
  20      1     1.20     1.25      CH         F
  21      6     1.50     1.25      CH         F
  22      1     1.20     1.25      CH         F
  23      1     0.90     1.15      NH         T
 ------------------------------------------------------------------------------
 Polarizable Continuum Model (PCM)
 =================================
 Model                : PCM.
 Atomic radii         : MST.
 Polarization charges : Total charges.
 Charge compensation  : None.
 Solution method      : On-the-fly selection.
 Cavity type          : Scaled VdW (van der Waals Surface) (Alpha=1.250).
 Cavity algorithm     : GePol (No added spheres)
                        Default sphere list used, NSphG=   23.
                        Lebedev-Laikov grids with approx.  5.0 points / Ang**2.
                        Smoothing algorithm: York/Karplus (Gamma=1.0000).
                        Polarization charges: spherical gaussians, with
                                              point-specific exponents (IZeta= 3).
                        Self-potential: point-specific (ISelfS= 7).
                        Self-field    : sphere-specific E.n sum rule (ISelfD= 2).
 1st derivatives      : Analytical E(r).r(x)/FMM algorithm (CHGder, D1EAlg=3).
                        Cavity 1st derivative terms included.
 Solvent              : Water, Eps=  78.355300 Eps(inf)=   1.777849
 ------------------------------------------------------------------------------
 GePol: Number of generator spheres                  =      23
 GePol: Total number of spheres                      =      23
 GePol: Number of exposed spheres                    =      23 (100.00%)
 GePol: Number of points                             =    1675
 GePol: Average weight of points                     =       0.13
 GePol: Minimum weight of points                     =   0.87D-10
 GePol: Maximum weight of points                     =    0.22001
 GePol: Number of points with low weight             =     105
 GePol: Fraction of low-weight points (<1% of avg)   =       6.27%
 GePol: Cavity surface area                          =    215.445 Ang**2
 GePol: Cavity volume                                =    189.064 Ang**3
 PCM non-electrostatic energy =         0.0013693988 Hartrees.
 Nuclear repulsion after PCM non-electrostatic terms =      517.4409773731 Hartrees.
 Leave Link  301 at Sun Jul 18 13:37:05 2021, MaxMem=   104857600 cpu:               0.4 elap:               0.1
 (Enter /prod/apps/gaussian/g16b1/l302.exe)
 NPDir=0 NMtPBC=     1 NCelOv=     1 NCel=       1 NClECP=     1 NCelD=      1
         NCelK=      1 NCelE2=     1 NClLst=     1 CellRange=     0.0.
 One-electron integrals computed using PRISM.
 One-electron integral symmetry used in STVInt
 NBasis=   176 RedAO= T EigKep=  9.52D-04  NBF=   176
 NBsUse=   176 1.00D-06 EigRej= -1.00D+00 NBFU=   176
 Precomputing XC quadrature grid using
 IXCGrd= 4 IRadAn=           5 IRanWt=          -1 IRanGd=           0 AccXCQ= 0.00D+00.
 Generated NRdTot=       0 NPtTot=           0 NUsed=           0 NTot=          32
 NSgBfM=   176   176   176   176   176 MxSgAt=    23 MxSgA2=    23.
 Leave Link  302 at Sun Jul 18 13:37:06 2021, MaxMem=   104857600 cpu:               3.0 elap:               1.0
 (Enter /prod/apps/gaussian/g16b1/l303.exe)
 DipDrv:  MaxL=1.
 Leave Link  303 at Sun Jul 18 13:37:06 2021, MaxMem=   104857600 cpu:               0.2 elap:               0.1
 (Enter /prod/apps/gaussian/g16b1/l401.exe)
 ExpMin= 1.61D-01 ExpMax= 4.17D+03 ExpMxC= 6.27D+02 IAcc=3 IRadAn=         5 AccDes= 0.00D+00
 Harris functional with IExCor=  402 and IRadAn=       5 diagonalized for initial guess.
 HarFok:  IExCor=  402 AccDes= 0.00D+00 IRadAn=         5 IDoV= 1 UseB2=F ITyADJ=14
 ICtDFT=  3500011 ScaDFX=  1.000000  1.000000  1.000000  1.000000
 FoFCou: FMM=F IPFlag=           0 FMFlag=      100000 FMFlg1=           0
         NFxFlg=           0 DoJE=T BraDBF=F KetDBF=T FulRan=T
         wScrn=  0.000000 ICntrl=       500 IOpCl=  0 I1Cent=   200000004 NGrid=           0
         NMat0=    1 NMatS0=      1 NMatT0=    0 NMatD0=    1 NMtDS0=    0 NMtDT0=    0
 Petite list used in FoFCou.
 Harris En= -421.941891702103    
 JPrj=0 DoOrth=F DoCkMO=F.
 Leave Link  401 at Sun Jul 18 13:37:08 2021, MaxMem=   104857600 cpu:               4.3 elap:               1.5
 (Enter /prod/apps/gaussian/g16b1/l502.exe)
 Integral symmetry usage will be decided dynamically.
 Closed shell SCF:
 Using DIIS extrapolation, IDIIS=  1040.
 NGot=   104857600 LenX=   104792415 LenY=   104760998
 Requested convergence on RMS density matrix=1.00D-08 within 128 cycles.
 Requested convergence on MAX density matrix=1.00D-06.
 Requested convergence on             energy=1.00D-06.
 No special actions if energy rises.
 Fock matrices will be formed incrementally for  20 cycles.

 Cycle   1  Pass 1  IDiag  1:
 FoFJK:  IHMeth= 1 ICntrl=       0 DoSepK=F KAlg= 0 I1Cent=           0 FoldK=F
 IRaf= 910000000 NMat=       1 IRICut=       1 DoRegI=T DoRafI=F ISym2E= 0 IDoP0=0 IntGTp=1.
 FoFCou: FMM=F IPFlag=           0 FMFlag=      100000 FMFlg1=           0
         NFxFlg=           0 DoJE=F BraDBF=F KetDBF=F FulRan=T
         wScrn=  0.000000 ICntrl=         0 IOpCl=  0 I1Cent=           0 NGrid=           0
         NMat0=    1 NMatS0=      1 NMatT0=    0 NMatD0=    1 NMtDS0=    0 NMtDT0=    0
 Symmetry not used in FoFCou.
 Inv3:  Mode=1 IEnd=     8416875.
 Iteration    1 A*A^-1 deviation from unit magnitude is 3.55D-15 for    745.
 Iteration    1 A*A^-1 deviation from orthogonality  is 3.18D-15 for   1269    545.
 Iteration    1 A^-1*A deviation from unit magnitude is 3.77D-15 for    745.
 Iteration    1 A^-1*A deviation from orthogonality  is 8.33D-15 for   1351   1269.
 E= -421.845054602654    
 DIIS: error= 2.16D-02 at cycle   1 NSaved=   1.
 NSaved= 1 IEnMin= 1 EnMin= -421.845054602654     IErMin= 1 ErrMin= 2.16D-02
 ErrMax= 2.16D-02  0.00D+00 EMaxC= 1.00D-01 BMatC= 1.75D-01 BMatP= 1.75D-01
 IDIUse=3 WtCom= 7.84D-01 WtEn= 2.16D-01
 Coeff-Com:  0.100D+01
 Coeff-En:   0.100D+01
 Coeff:      0.100D+01
 Gap=     0.214 Goal=   None    Shift=    0.000
 GapD=    0.214 DampG=1.000 DampE=0.500 DampFc=0.5000 IDamp=-1.
 Damping current iteration by 5.00D-01
 RMSDP=4.87D-03 MaxDP=1.10D-01              OVMax= 1.58D-01

 Cycle   2  Pass 1  IDiag  1:
 RMSU=  2.36D-03    CP:  9.76D-01
 E= -421.936215041790     Delta-E=       -0.091160439136 Rises=F Damp=T
 DIIS: error= 5.82D-03 at cycle   2 NSaved=   2.
 NSaved= 2 IEnMin= 2 EnMin= -421.936215041790     IErMin= 2 ErrMin= 5.82D-03
 ErrMax= 5.82D-03  0.00D+00 EMaxC= 1.00D-01 BMatC= 1.06D-02 BMatP= 1.75D-01
 IDIUse=3 WtCom= 9.42D-01 WtEn= 5.82D-02
 Coeff-Com: -0.454D-01 0.105D+01
 Coeff-En:   0.000D+00 0.100D+01
 Coeff:     -0.427D-01 0.104D+01
 Gap=     0.219 Goal=   None    Shift=    0.000
 RMSDP=1.07D-03 MaxDP=2.54D-02 DE=-9.12D-02 OVMax= 1.08D-01

 Cycle   3  Pass 1  IDiag  1:
 RMSU=  1.04D-03    CP:  9.71D-01  1.09D+00
 E= -422.024338278874     Delta-E=       -0.088123237084 Rises=F Damp=F
 DIIS: error= 2.80D-03 at cycle   3 NSaved=   3.
 NSaved= 3 IEnMin= 3 EnMin= -422.024338278874     IErMin= 3 ErrMin= 2.80D-03
 ErrMax= 2.80D-03  0.00D+00 EMaxC= 1.00D-01 BMatC= 3.47D-03 BMatP= 1.06D-02
 IDIUse=3 WtCom= 9.72D-01 WtEn= 2.80D-02
 Coeff-Com: -0.584D-01 0.364D+00 0.694D+00
 Coeff-En:   0.000D+00 0.000D+00 0.100D+01
 Coeff:     -0.568D-01 0.354D+00 0.703D+00
 Gap=     0.216 Goal=   None    Shift=    0.000
 RMSDP=5.21D-04 MaxDP=1.47D-02 DE=-8.81D-02 OVMax= 4.63D-02

 Cycle   4  Pass 1  IDiag  1:
 RMSU=  4.31D-04    CP:  9.71D-01  1.09D+00  7.20D-01
 E= -422.026263396095     Delta-E=       -0.001925117220 Rises=F Damp=F
 DIIS: error= 2.05D-03 at cycle   4 NSaved=   4.
 NSaved= 4 IEnMin= 4 EnMin= -422.026263396095     IErMin= 4 ErrMin= 2.05D-03
 ErrMax= 2.05D-03  0.00D+00 EMaxC= 1.00D-01 BMatC= 1.54D-03 BMatP= 3.47D-03
 IDIUse=3 WtCom= 9.79D-01 WtEn= 2.05D-02
 Coeff-Com: -0.273D-01 0.102D+00 0.426D+00 0.500D+00
 Coeff-En:   0.000D+00 0.000D+00 0.331D+00 0.669D+00
 Coeff:     -0.267D-01 0.999D-01 0.424D+00 0.503D+00
 Gap=     0.217 Goal=   None    Shift=    0.000
 RMSDP=2.65D-04 MaxDP=6.40D-03 DE=-1.93D-03 OVMax= 2.01D-02

 Cycle   5  Pass 1  IDiag  1:
 RMSU=  9.92D-05    CP:  9.70D-01  1.10D+00  8.20D-01  4.91D-01
 E= -422.027866774253     Delta-E=       -0.001603378159 Rises=F Damp=F
 DIIS: error= 4.48D-04 at cycle   5 NSaved=   5.
 NSaved= 5 IEnMin= 5 EnMin= -422.027866774253     IErMin= 5 ErrMin= 4.48D-04
 ErrMax= 4.48D-04  0.00D+00 EMaxC= 1.00D-01 BMatC= 6.46D-05 BMatP= 1.54D-03
 IDIUse=3 WtCom= 9.96D-01 WtEn= 4.48D-03
 Coeff-Com: -0.861D-02 0.234D-01 0.160D+00 0.251D+00 0.575D+00
 Coeff-En:   0.000D+00 0.000D+00 0.000D+00 0.000D+00 0.100D+01
 Coeff:     -0.857D-02 0.232D-01 0.159D+00 0.250D+00 0.577D+00
 Gap=     0.216 Goal=   None    Shift=    0.000
 RMSDP=5.14D-05 MaxDP=2.03D-03 DE=-1.60D-03 OVMax= 4.08D-03

 Cycle   6  Pass 1  IDiag  1:
 RMSU=  3.01D-05    CP:  9.70D-01  1.10D+00  8.16D-01  5.44D-01  6.53D-01
 E= -422.027920313654     Delta-E=       -0.000053539401 Rises=F Damp=F
 DIIS: error= 1.61D-04 at cycle   6 NSaved=   6.
 NSaved= 6 IEnMin= 6 EnMin= -422.027920313654     IErMin= 6 ErrMin= 1.61D-04
 ErrMax= 1.61D-04  0.00D+00 EMaxC= 1.00D-01 BMatC= 1.04D-05 BMatP= 6.46D-05
 IDIUse=3 WtCom= 9.98D-01 WtEn= 1.61D-03
 Coeff-Com: -0.275D-02 0.475D-02 0.567D-01 0.104D+00 0.343D+00 0.494D+00
 Coeff-En:   0.000D+00 0.000D+00 0.000D+00 0.000D+00 0.808D-01 0.919D+00
 Coeff:     -0.275D-02 0.474D-02 0.566D-01 0.104D+00 0.343D+00 0.495D+00
 Gap=     0.217 Goal=   None    Shift=    0.000
 RMSDP=1.59D-05 MaxDP=7.02D-04 DE=-5.35D-05 OVMax= 1.07D-03

 Cycle   7  Pass 1  IDiag  1:
 RMSU=  6.82D-06    CP:  9.70D-01  1.11D+00  8.20D-01  5.44D-01  7.05D-01
                    CP:  5.71D-01
 E= -422.027929202677     Delta-E=       -0.000008889023 Rises=F Damp=F
 DIIS: error= 2.31D-05 at cycle   7 NSaved=   7.
 NSaved= 7 IEnMin= 7 EnMin= -422.027929202677     IErMin= 7 ErrMin= 2.31D-05
 ErrMax= 2.31D-05  0.00D+00 EMaxC= 1.00D-01 BMatC= 2.80D-07 BMatP= 1.04D-05
 IDIUse=1 WtCom= 1.00D+00 WtEn= 0.00D+00
 Coeff-Com: -0.948D-03 0.128D-02 0.205D-01 0.387D-01 0.139D+00 0.242D+00
 Coeff-Com:  0.560D+00
 Coeff:     -0.948D-03 0.128D-02 0.205D-01 0.387D-01 0.139D+00 0.242D+00
 Coeff:      0.560D+00
 Gap=     0.216 Goal=   None    Shift=    0.000
 RMSDP=3.49D-06 MaxDP=9.29D-05 DE=-8.89D-06 OVMax= 1.05D-04

 Cycle   8  Pass 1  IDiag  1:
 RMSU=  2.10D-06    CP:  9.70D-01  1.10D+00  8.20D-01  5.45D-01  7.07D-01
                    CP:  5.83D-01  6.24D-01
 E= -422.027929451607     Delta-E=       -0.000000248930 Rises=F Damp=F
 DIIS: error= 5.03D-06 at cycle   8 NSaved=   8.
 NSaved= 8 IEnMin= 8 EnMin= -422.027929451607     IErMin= 8 ErrMin= 5.03D-06
 ErrMax= 5.03D-06  0.00D+00 EMaxC= 1.00D-01 BMatC= 1.36D-08 BMatP= 2.80D-07
 IDIUse=1 WtCom= 1.00D+00 WtEn= 0.00D+00
 Coeff-Com: -0.199D-04-0.137D-03 0.963D-03 0.193D-02 0.104D-01 0.354D-01
 Coeff-Com:  0.207D+00 0.744D+00
 Coeff:     -0.199D-04-0.137D-03 0.963D-03 0.193D-02 0.104D-01 0.354D-01
 Coeff:      0.207D+00 0.744D+00
 Gap=     0.217 Goal=   None    Shift=    0.000
 RMSDP=7.69D-07 MaxDP=1.95D-05 DE=-2.49D-07 OVMax= 2.78D-05

 Cycle   9  Pass 1  IDiag  1:
 RMSU=  4.43D-07    CP:  9.70D-01  1.10D+00  8.20D-01  5.45D-01  7.08D-01
                    CP:  5.89D-01  6.83D-01  8.04D-01
 E= -422.027929463965     Delta-E=       -0.000000012358 Rises=F Damp=F
 DIIS: error= 1.41D-06 at cycle   9 NSaved=   9.
 NSaved= 9 IEnMin= 9 EnMin= -422.027929463965     IErMin= 9 ErrMin= 1.41D-06
 ErrMax= 1.41D-06  0.00D+00 EMaxC= 1.00D-01 BMatC= 1.08D-09 BMatP= 1.36D-08
 IDIUse=1 WtCom= 1.00D+00 WtEn= 0.00D+00
 Coeff-Com:  0.255D-04-0.107D-03-0.279D-03-0.570D-03-0.416D-03 0.789D-02
 Coeff-Com:  0.701D-01 0.329D+00 0.594D+00
 Coeff:      0.255D-04-0.107D-03-0.279D-03-0.570D-03-0.416D-03 0.789D-02
 Coeff:      0.701D-01 0.329D+00 0.594D+00
 Gap=     0.216 Goal=   None    Shift=    0.000
 RMSDP=2.15D-07 MaxDP=6.07D-06 DE=-1.24D-08 OVMax= 1.23D-05

 Cycle  10  Pass 1  IDiag  1:
 RMSU=  1.51D-07    CP:  9.70D-01  1.10D+00  8.20D-01  5.45D-01  7.08D-01
                    CP:  5.90D-01  6.87D-01  8.35D-01  7.24D-01
 E= -422.027929464874     Delta-E=       -0.000000000909 Rises=F Damp=F
 DIIS: error= 5.91D-07 at cycle  10 NSaved=  10.
 NSaved=10 IEnMin=10 EnMin= -422.027929464874     IErMin=10 ErrMin= 5.91D-07
 ErrMax= 5.91D-07  0.00D+00 EMaxC= 1.00D-01 BMatC= 1.65D-10 BMatP= 1.08D-09
 IDIUse=1 WtCom= 1.00D+00 WtEn= 0.00D+00
 Coeff-Com:  0.175D-04-0.385D-04-0.295D-03-0.631D-03-0.182D-02-0.476D-03
 Coeff-Com:  0.770D-02 0.709D-01 0.308D+00 0.617D+00
 Coeff:      0.175D-04-0.385D-04-0.295D-03-0.631D-03-0.182D-02-0.476D-03
 Coeff:      0.770D-02 0.709D-01 0.308D+00 0.617D+00
 Gap=     0.216 Goal=   None    Shift=    0.000
 RMSDP=7.17D-08 MaxDP=1.81D-06 DE=-9.09D-10 OVMax= 4.67D-06

 Cycle  11  Pass 1  IDiag  1:
 RMSU=  3.77D-08    CP:  9.70D-01  1.10D+00  8.20D-01  5.45D-01  7.08D-01
                    CP:  5.90D-01  6.87D-01  8.40D-01  8.04D-01  7.04D-01
 E= -422.027929465024     Delta-E=       -0.000000000150 Rises=F Damp=F
 DIIS: error= 1.28D-07 at cycle  11 NSaved=  11.
 NSaved=11 IEnMin=11 EnMin= -422.027929465024     IErMin=11 ErrMin= 1.28D-07
 ErrMax= 1.28D-07  0.00D+00 EMaxC= 1.00D-01 BMatC= 7.90D-12 BMatP= 1.65D-10
 IDIUse=1 WtCom= 1.00D+00 WtEn= 0.00D+00
 Coeff-Com:  0.666D-05-0.122D-04-0.113D-03-0.254D-03-0.786D-03-0.426D-03
 Coeff-Com: -0.360D-03 0.156D-01 0.110D+00 0.271D+00 0.606D+00
 Coeff:      0.666D-05-0.122D-04-0.113D-03-0.254D-03-0.786D-03-0.426D-03
 Coeff:     -0.360D-03 0.156D-01 0.110D+00 0.271D+00 0.606D+00
 Gap=     0.216 Goal=   None    Shift=    0.000
 RMSDP=1.91D-08 MaxDP=5.27D-07 DE=-1.50D-10 OVMax= 1.27D-06

 Cycle  12  Pass 1  IDiag  1:
 RMSU=  1.47D-08    CP:  9.70D-01  1.10D+00  8.20D-01  5.45D-01  7.08D-01
                    CP:  5.90D-01  6.87D-01  8.42D-01  8.05D-01  7.42D-01
                    CP:  7.43D-01
 E= -422.027929465032     Delta-E=       -0.000000000008 Rises=F Damp=F
 DIIS: error= 5.53D-08 at cycle  12 NSaved=  12.
 NSaved=12 IEnMin=12 EnMin= -422.027929465032     IErMin=12 ErrMin= 5.53D-08
 ErrMax= 5.53D-08  0.00D+00 EMaxC= 1.00D-01 BMatC= 1.57D-12 BMatP= 7.90D-12
 IDIUse=1 WtCom= 1.00D+00 WtEn= 0.00D+00
 Coeff-Com:  0.789D-06-0.333D-06-0.102D-04-0.326D-04-0.117D-03-0.605D-04
 Coeff-Com: -0.154D-02-0.291D-02 0.816D-02 0.374D-01 0.322D+00 0.637D+00
 Coeff:      0.789D-06-0.333D-06-0.102D-04-0.326D-04-0.117D-03-0.605D-04
 Coeff:     -0.154D-02-0.291D-02 0.816D-02 0.374D-01 0.322D+00 0.637D+00
 Gap=     0.216 Goal=   None    Shift=    0.000
 RMSDP=7.95D-09 MaxDP=2.22D-07 DE=-8.19D-12 OVMax= 7.04D-07

 Error on total polarization charges =  0.01623
 SCF Done:  E(RB3LYP) =  -422.027929465     A.U. after   12 cycles
            NFock= 12  Conv=0.79D-08     -V/T= 2.0097
 KE= 4.179626584422D+02 PE=-1.999577317409D+03 EE= 6.421457521285D+02
 Leave Link  502 at Sun Jul 18 13:37:40 2021, MaxMem=   104857600 cpu:              96.0 elap:              32.0
 (Enter /prod/apps/gaussian/g16b1/l601.exe)
 Copying SCF densities to generalized density rwf, IOpCl= 0 IROHF=0.

 **********************************************************************

            Population analysis using the SCF Density.

 **********************************************************************

 Orbital symmetries:
       Occupied  (A) (A) (A) (A) (A) (A) (A) (A) (A) (A) (A) (A)
                 (A) (A) (A) (A) (A) (A) (A) (A) (A) (A) (A) (A)
                 (A) (A) (A) (A) (A) (A) (A) (A) (A) (A) (A) (A)
                 (A)
       Virtual   (A) (A) (A) (A) (A) (A) (A) (A) (A) (A) (A) (A)
                 (A) (A) (A) (A) (A) (A) (A) (A) (A) (A) (A) (A)
                 (A) (A) (A) (A) (A) (A) (A) (A) (A) (A) (A) (A)
                 (A) (A) (A) (A) (A) (A) (A) (A) (A) (A) (A) (A)
                 (A) (A) (A) (A) (A) (A) (A) (A) (A) (A) (A) (A)
                 (A) (A) (A) (A) (A) (A) (A) (A) (A) (A) (A) (A)
                 (A) (A) (A) (A) (A) (A) (A) (A) (A) (A) (A) (A)
                 (A) (A) (A) (A) (A) (A) (A) (A) (A) (A) (A) (A)
                 (A) (A) (A) (A) (A) (A) (A) (A) (A) (A) (A) (A)
                 (A) (A) (A) (A) (A) (A) (A) (A) (A) (A) (A) (A)
                 (A) (A) (A) (A) (A) (A) (A) (A) (A) (A) (A) (A)
                 (A) (A) (A) (A) (A) (A) (A)
 The electronic state is 1-A.
 Alpha  occ. eigenvalues --  -14.45200 -14.34519 -10.24420 -10.23730 -10.23487
 Alpha  occ. eigenvalues --  -10.23274 -10.21508 -10.20322 -10.20229 -10.20016
 Alpha  occ. eigenvalues --   -1.03760  -0.93640  -0.81898  -0.80178  -0.75636
 Alpha  occ. eigenvalues --   -0.71621  -0.67432  -0.63204  -0.61565  -0.60005
 Alpha  occ. eigenvalues --   -0.53665  -0.52662  -0.51371  -0.48389  -0.46999
 Alpha  occ. eigenvalues --   -0.44483  -0.43569  -0.41523  -0.41391  -0.39374
 Alpha  occ. eigenvalues --   -0.38663  -0.37964  -0.37611  -0.35305  -0.29003
 Alpha  occ. eigenvalues --   -0.26993  -0.25703
 Alpha virt. eigenvalues --   -0.04053  -0.01539   0.06522   0.09226   0.10322
 Alpha virt. eigenvalues --    0.11062   0.11964   0.12715   0.13275   0.14449
 Alpha virt. eigenvalues --    0.14896   0.15729   0.16780   0.17929   0.18440
 Alpha virt. eigenvalues --    0.19023   0.20215   0.21234   0.23788   0.25136
 Alpha virt. eigenvalues --    0.26551   0.30833   0.31708   0.33127   0.44549
 Alpha virt. eigenvalues --    0.46199   0.47947   0.49426   0.51290   0.52310
 Alpha virt. eigenvalues --    0.52868   0.53924   0.56613   0.57996   0.58650
 Alpha virt. eigenvalues --    0.59152   0.59414   0.61294   0.61822   0.63717
 Alpha virt. eigenvalues --    0.64738   0.65780   0.69052   0.71496   0.72816
 Alpha virt. eigenvalues --    0.74550   0.75750   0.79876   0.81135   0.82536
 Alpha virt. eigenvalues --    0.83625   0.84105   0.85067   0.85269   0.85958
 Alpha virt. eigenvalues --    0.86596   0.88116   0.88918   0.91046   0.91759
 Alpha virt. eigenvalues --    0.93109   0.94629   0.95592   0.96260   0.99116
 Alpha virt. eigenvalues --    0.99984   1.03114   1.08115   1.08508   1.11776
 Alpha virt. eigenvalues --    1.16806   1.18606   1.26704   1.27246   1.32407
 Alpha virt. eigenvalues --    1.35506   1.38241   1.40698   1.43933   1.45766
 Alpha virt. eigenvalues --    1.49297   1.50119   1.57988   1.59817   1.61385
 Alpha virt. eigenvalues --    1.68989   1.71688   1.73372   1.79726   1.83012
 Alpha virt. eigenvalues --    1.88492   1.89635   1.90682   1.92294   1.93050
 Alpha virt. eigenvalues --    1.95180   1.97595   2.00135   2.01313   2.03372
 Alpha virt. eigenvalues --    2.06917   2.10670   2.13317   2.14461   2.16273
 Alpha virt. eigenvalues --    2.18969   2.21921   2.24937   2.28197   2.29127
 Alpha virt. eigenvalues --    2.31078   2.34014   2.39736   2.42045   2.44489
 Alpha virt. eigenvalues --    2.50181   2.54857   2.56938   2.59778   2.63407
 Alpha virt. eigenvalues --    2.66510   2.69152   2.71732   2.74529   2.76433
 Alpha virt. eigenvalues --    2.78920   2.84080   3.06834   3.32437   3.92928
 Alpha virt. eigenvalues --    4.04356   4.09143   4.13161   4.19133   4.23512
 Alpha virt. eigenvalues --    4.28185   4.39144   4.49403   4.59848
          Condensed to atoms (all electrons):
               1          2          3          4          5          6
     1  C    5.030419   0.382631   0.384628   0.381251   0.271312  -0.022099
     2  H    0.382631   0.500302  -0.031804  -0.033195  -0.030648  -0.005070
     3  H    0.384628  -0.031804   0.464921  -0.016911  -0.027280   0.002887
     4  H    0.381251  -0.033195  -0.016911   0.493418  -0.033656  -0.000295
     5  N    0.271312  -0.030648  -0.027280  -0.033656   6.633028   0.299174
     6  H   -0.022099  -0.005070   0.002887  -0.000295   0.299174   0.281919
     7  C   -0.046898  -0.003116  -0.001448   0.004930   0.252652  -0.025108
     8  H   -0.003285  -0.000215   0.003112   0.000063  -0.036225   0.004253
     9  H    0.000281   0.002851  -0.000652  -0.000034  -0.038725  -0.003046
    10  C    0.005269  -0.000044   0.000092  -0.000272  -0.049940  -0.003785
    11  H    0.000111  -0.000002   0.000006  -0.000000  -0.005759  -0.000249
    12  H   -0.000119   0.000001  -0.000007   0.000003   0.003882   0.000109
    13  C   -0.000096   0.000019  -0.000004   0.000004  -0.003487   0.008733
    14  N   -0.000010  -0.000003   0.000000   0.000000  -0.000102   0.000190
    15  C   -0.000000  -0.000000   0.000000   0.000000   0.000004  -0.000044
    16  H    0.000000  -0.000000  -0.000000  -0.000000   0.000000  -0.000000
    17  C    0.000000  -0.000000   0.000000  -0.000000   0.000001  -0.000029
    18  H    0.000000   0.000000   0.000000  -0.000000  -0.000000  -0.000000
    19  C    0.000000  -0.000000   0.000000   0.000000  -0.000005   0.000113
    20  H   -0.000000  -0.000000  -0.000000  -0.000000   0.000000  -0.000001
    21  C   -0.000015   0.000005  -0.000001   0.000002   0.000380   0.003680
    22  H    0.000003   0.000000  -0.000000  -0.000001   0.000001   0.000053
    23  H   -0.024900   0.003831  -0.001394  -0.005176   0.306739  -0.012310
               7          8          9         10         11         12
     1  C   -0.046898  -0.003285   0.000281   0.005269   0.000111  -0.000119
     2  H   -0.003116  -0.000215   0.002851  -0.000044  -0.000002   0.000001
     3  H   -0.001448   0.003112  -0.000652   0.000092   0.000006  -0.000007
     4  H    0.004930   0.000063  -0.000034  -0.000272  -0.000000   0.000003
     5  N    0.252652  -0.036225  -0.038725  -0.049940  -0.005759   0.003882
     6  H   -0.025108   0.004253  -0.003046  -0.003785  -0.000249   0.000109
     7  C    4.999675   0.382331   0.381986   0.350516  -0.030933  -0.026656
     8  H    0.382331   0.506785  -0.024002  -0.040202  -0.002154  -0.005623
     9  H    0.381986  -0.024002   0.494433  -0.038578   0.004445   0.000093
    10  C    0.350516  -0.040202  -0.038578   5.178948   0.369055   0.365254
    11  H   -0.030933  -0.002154   0.004445   0.369055   0.534983  -0.030783
    12  H   -0.026656  -0.005623   0.000093   0.365254  -0.030783   0.520909
    13  C   -0.039471   0.005225  -0.008670   0.363025  -0.041322  -0.027235
    14  N   -0.005655  -0.000028   0.010339  -0.075786   0.003898  -0.001072
    15  C    0.000142   0.000004  -0.000139   0.004519  -0.000220   0.000459
    16  H    0.000006  -0.000000  -0.000004  -0.000255   0.000004  -0.000008
    17  C   -0.000024   0.000000   0.000010   0.000646   0.000004   0.000042
    18  H    0.000000   0.000000  -0.000000   0.000008  -0.000001  -0.000001
    19  C   -0.000169   0.000003   0.000027   0.004979   0.000408  -0.000153
    20  H    0.000001  -0.000000   0.000000  -0.000129  -0.000007   0.000004
    21  C   -0.000869  -0.000173   0.000870  -0.063370   0.000854   0.002954
    22  H    0.000101  -0.000019  -0.000040  -0.006810   0.004064  -0.000037
    23  H   -0.023567  -0.003655   0.003997  -0.000452   0.004314  -0.000031
              13         14         15         16         17         18
     1  C   -0.000096  -0.000010  -0.000000   0.000000   0.000000   0.000000
     2  H    0.000019  -0.000003  -0.000000  -0.000000  -0.000000   0.000000
     3  H   -0.000004   0.000000   0.000000  -0.000000   0.000000   0.000000
     4  H    0.000004   0.000000   0.000000  -0.000000  -0.000000  -0.000000
     5  N   -0.003487  -0.000102   0.000004   0.000000   0.000001  -0.000000
     6  H    0.008733   0.000190  -0.000044  -0.000000  -0.000029  -0.000000
     7  C   -0.039471  -0.005655   0.000142   0.000006  -0.000024   0.000000
     8  H    0.005225  -0.000028   0.000004  -0.000000   0.000000   0.000000
     9  H   -0.008670   0.010339  -0.000139  -0.000004   0.000010  -0.000000
    10  C    0.363025  -0.075786   0.004519  -0.000255   0.000646   0.000008
    11  H   -0.041322   0.003898  -0.000220   0.000004   0.000004  -0.000001
    12  H   -0.027235  -0.001072   0.000459  -0.000008   0.000042  -0.000001
    13  C    4.654320   0.412708  -0.059410   0.003590  -0.031783   0.000249
    14  N    0.412708   6.901747   0.427781  -0.044186  -0.029265   0.004228
    15  C   -0.059410   0.427781   4.816224   0.373857   0.514477  -0.035469
    16  H    0.003590  -0.044186   0.373857   0.554257  -0.055911  -0.002881
    17  C   -0.031783  -0.029265   0.514477  -0.055911   4.952406   0.357283
    18  H    0.000249   0.004228  -0.035469  -0.002881   0.357283   0.553494
    19  C   -0.028436  -0.040314  -0.032867   0.003623   0.526845  -0.040906
    20  H    0.003546  -0.000216   0.004408  -0.000161  -0.041583  -0.004480
    21  C    0.528241  -0.041282  -0.038986   0.000860  -0.039606   0.005344
    22  H   -0.038576   0.005238   0.000161   0.000021   0.005517  -0.000123
    23  H   -0.000617   0.000008  -0.000001   0.000000  -0.000000  -0.000000
              19         20         21         22         23
     1  C    0.000000  -0.000000  -0.000015   0.000003  -0.024900
     2  H   -0.000000  -0.000000   0.000005   0.000000   0.003831
     3  H    0.000000  -0.000000  -0.000001  -0.000000  -0.001394
     4  H    0.000000  -0.000000   0.000002  -0.000001  -0.005176
     5  N   -0.000005   0.000000   0.000380   0.000001   0.306739
     6  H    0.000113  -0.000001   0.003680   0.000053  -0.012310
     7  C   -0.000169   0.000001  -0.000869   0.000101  -0.023567
     8  H    0.000003  -0.000000  -0.000173  -0.000019  -0.003655
     9  H    0.000027   0.000000   0.000870  -0.000040   0.003997
    10  C    0.004979  -0.000129  -0.063370  -0.006810  -0.000452
    11  H    0.000408  -0.000007   0.000854   0.004064   0.004314
    12  H   -0.000153   0.000004   0.002954  -0.000037  -0.000031
    13  C   -0.028436   0.003546   0.528241  -0.038576  -0.000617
    14  N   -0.040314  -0.000216  -0.041282   0.005238   0.000008
    15  C   -0.032867   0.004408  -0.038986   0.000161  -0.000001
    16  H    0.003623  -0.000161   0.000860   0.000021   0.000000
    17  C    0.526845  -0.041583  -0.039606   0.005517  -0.000000
    18  H   -0.040906  -0.004480   0.005344  -0.000123  -0.000000
    19  C    4.862150   0.367232   0.523294  -0.044814   0.000002
    20  H    0.367232   0.534969  -0.037867  -0.004835  -0.000000
    21  C    0.523294  -0.037867   4.978778   0.354938   0.000179
    22  H   -0.044814  -0.004835   0.354938   0.566881   0.000143
    23  H    0.000002  -0.000000   0.000179   0.000143   0.282488
 Mulliken charges:
               1
     1  C   -0.358482
     2  H    0.214457
     3  H    0.223854
     4  H    0.209866
     5  N   -0.541346
     6  H    0.470925
     7  C   -0.168426
     8  H    0.213805
     9  H    0.214560
    10  C   -0.362687
    11  H    0.189285
    12  H    0.198016
    13  C    0.299446
    14  N   -0.528218
    15  C    0.025101
    16  H    0.167190
    17  C   -0.159030
    18  H    0.163255
    19  C   -0.101012
    20  H    0.179119
    21  C   -0.178210
    22  H    0.158132
    23  H    0.470401
 Sum of Mulliken charges =   1.00000
 Mulliken charges with hydrogens summed into heavy atoms:
               1
     1  C    0.289695
     5  N    0.399981
     7  C    0.259939
    10  C    0.024614
    13  C    0.299446
    14  N   -0.528218
    15  C    0.192290
    17  C    0.004224
    19  C    0.078107
    21  C   -0.020079
 Electronic spatial extent (au):  <R**2>=           1835.4737
 Charge=              1.0000 electrons
 Dipole moment (field-independent basis, Debye):
    X=              9.8313    Y=              4.8170    Z=              0.3279  Tot=             10.9528
 Quadrupole moment (field-independent basis, Debye-Ang):
   XX=            -18.2970   YY=            -53.6391   ZZ=            -53.9513
   XY=              2.8643   XZ=              0.2920   YZ=             -0.0589
 Traceless Quadrupole moment (field-independent basis, Debye-Ang):
   XX=             23.6654   YY=            -11.6766   ZZ=            -11.9888
   XY=              2.8643   XZ=              0.2920   YZ=             -0.0589
 Octapole moment (field-independent basis, Debye-Ang**2):
  XXX=             76.0087  YYY=             18.5955  ZZZ=              1.4121  XYY=             11.1354
  XXY=             19.9843  XXZ=            -20.5999  XZZ=             19.6686  YZZ=              0.6780
  YYZ=              3.3058  XYZ=             -5.2014
 Hexadecapole moment (field-independent basis, Debye-Ang**3):
 XXXX=          -1366.5941 YYYY=           -343.4692 ZZZZ=           -246.1051 XXXY=             33.0999
 XXXZ=             -2.4083 YYYX=              1.4791 YYYZ=              1.6078 ZZZX=             -9.7826
 ZZZY=             -2.9199 XXYY=           -297.7567 XXZZ=           -310.6022 YYZZ=            -93.7538
 XXYZ=              4.9343 YYXZ=              1.0987 ZZXY=             11.5068
 N-N= 5.174409773731D+02 E-N=-1.999577322006D+03  KE= 4.179626584422D+02
 No NMR shielding tensors so no spin-rotation constants.
 Leave Link  601 at Sun Jul 18 13:37:40 2021, MaxMem=   104857600 cpu:               1.0 elap:               0.4
 (Enter /prod/apps/gaussian/g16b1/l701.exe)
 ... and contract with generalized density number  0.
 Compute integral first derivatives.
 D1PCM: PCM CHGder 1st derivatives, ID1Alg=3 FixD1E=F DoIter=F DoCFld=F I1PDM=0.
 GePol: Maximum number of non-zero 1st derivatives   =     189
 Leave Link  701 at Sun Jul 18 13:37:42 2021, MaxMem=   104857600 cpu:               6.0 elap:               2.0
 (Enter /prod/apps/gaussian/g16b1/l702.exe)
 L702 exits ... SP integral derivatives will be done elsewhere.
 Leave Link  702 at Sun Jul 18 13:37:42 2021, MaxMem=   104857600 cpu:               0.1 elap:               0.0
 (Enter /prod/apps/gaussian/g16b1/l703.exe)
 Integral derivatives from FoFJK, PRISM(SPDF).
 Compute integral first derivatives, UseDBF=F ICtDFT=           0.
 Calling FoFJK, ICntrl=      2127 FMM=F ISym2X=0 I1Cent= 0 IOpClX= 0 NMat=1 NMatS=1 NMatT=0.
 FoFJK:  IHMeth= 1 ICntrl=    2127 DoSepK=F KAlg= 0 I1Cent=           0 FoldK=F
 IRaf=         0 NMat=       1 IRICut=       1 DoRegI=T DoRafI=F ISym2E= 0 IDoP0=0 IntGTp=1.
 FoFCou: FMM=F IPFlag=           0 FMFlag=      100000 FMFlg1=         800
         NFxFlg=           0 DoJE=F BraDBF=F KetDBF=F FulRan=T
         wScrn=  0.000000 ICntrl=      2127 IOpCl=  0 I1Cent=           0 NGrid=           0
         NMat0=    1 NMatS0=      1 NMatT0=    0 NMatD0=    1 NMtDS0=    0 NMtDT0=    0
 Symmetry not used in FoFCou.
 Leave Link  703 at Sun Jul 18 13:37:48 2021, MaxMem=   104857600 cpu:              17.7 elap:               5.9
 (Enter /prod/apps/gaussian/g16b1/l716.exe)
 Dipole        = 3.86791196D+00 1.89513434D+00 1.29016600D-01
 ***** Axes restored to original set *****
 -------------------------------------------------------------------
 Center     Atomic                   Forces (Hartrees/Bohr)
 Number     Number              X              Y              Z
 -------------------------------------------------------------------
      1        6           0.060030993    0.041585990    0.019145289
      2        1          -0.008164303   -0.000343343   -0.010232392
      3        1          -0.015295384   -0.009908639    0.006572676
      4        1           0.003914514   -0.013414424    0.004541856
      5        7           0.002277169   -0.016565376   -0.013290165
      6        1          -0.016701948    0.025779163    0.003444070
      7        6           0.003463900   -0.033199772   -0.030281695
      8        1           0.015974248    0.006284282    0.005495014
      9        1           0.000838334   -0.002409821    0.002199408
     10        6          -0.030263840    0.002711284   -0.002976207
     11        1           0.004772547    0.000849739    0.006876682
     12        1           0.009241163    0.001526775   -0.004230651
     13        6          -0.006632634    0.025567649   -0.017649943
     14        7          -0.034210786    0.014408939   -0.002937406
     15        6          -0.006446804   -0.006685564    0.024255129
     16        1           0.014591472   -0.002782212    0.000715688
     17        6           0.001613709   -0.015203820    0.005707584
     18        1           0.003135066    0.001178980    0.002006809
     19        6           0.016674457    0.000396308   -0.029291453
     20        1           0.003795331   -0.002335707    0.002305925
     21        6          -0.005689204   -0.004945460    0.008297905
     22        1          -0.000041463   -0.000380977   -0.001107041
     23        1          -0.016876539   -0.012113996    0.020432919
 -------------------------------------------------------------------
 Cartesian Forces:  Max     0.060030993 RMS     0.015724324
 Leave Link  716 at Sun Jul 18 13:37:48 2021, MaxMem=   104857600 cpu:               0.1 elap:               0.1
 (Enter /prod/apps/gaussian/g16b1/l103.exe)

 GradGradGradGradGradGradGradGradGradGradGradGradGradGradGradGradGradGrad
 Berny optimization.
 FormGI is forming the generalized inverse of G from B-inverse, IUseBI=4.
 Internal  Forces:  Max     0.046373627 RMS     0.010054063
 Search for a local minimum.
 Step number   1 out of a maximum of  126
 All quantities printed in internal units (Hartrees-Bohrs-Radians)
 RMS Force = .10054D-01 SwitMx=.10000D-02 MixMth= 1
 Mixed Optimization -- RFO/linear search
 Second derivative matrix not updated -- first step.
 ITU=  0
     Eigenvalues ---    0.00888   0.00929   0.01117   0.01448   0.01532
     Eigenvalues ---    0.01864   0.01902   0.01934   0.01995   0.02035
     Eigenvalues ---    0.02061   0.02104   0.04163   0.04169   0.04241
     Eigenvalues ---    0.05158   0.05441   0.05474   0.05530   0.06560
     Eigenvalues ---    0.08468   0.08889   0.09952   0.12235   0.12502
     Eigenvalues ---    0.13111   0.15864   0.15937   0.15956   0.15975
     Eigenvalues ---    0.16000   0.16000   0.16000   0.21764   0.22011
     Eigenvalues ---    0.22024   0.22064   0.22372   0.24293   0.24992
     Eigenvalues ---    0.33362   0.33708   0.34394   0.34504   0.34507
     Eigenvalues ---    0.34507   0.34514   0.34517   0.34600   0.35020
     Eigenvalues ---    0.35112   0.35196   0.35218   0.39114   0.39909
     Eigenvalues ---    0.41568   0.42692   0.43723   0.45091   0.47732
     Eigenvalues ---    0.47753   0.48335   0.50741
 RFO step:  Lambda=-3.97218691D-02 EMin= 8.87591052D-03
 Linear search not attempted -- first point.
 Maximum step size (   0.300) exceeded in Quadratic search.
    -- Step size scaled by   0.887
 Iteration  1 RMS(Cart)=  0.06164733 RMS(Int)=  0.00268598
 Iteration  2 RMS(Cart)=  0.00305412 RMS(Int)=  0.00052697
 Iteration  3 RMS(Cart)=  0.00000681 RMS(Int)=  0.00052693
 Iteration  4 RMS(Cart)=  0.00000000 RMS(Int)=  0.00052693
 ITry= 1 IFail=0 DXMaxC= 2.46D-01 DCOld= 1.00D+10 DXMaxT= 3.00D-01 DXLimC= 3.00D+00 Rises=F
 Variable       Old X    -DE/DX   Delta X   Delta X   Delta X     New X
                                 (Linear)    (Quad)   (Total)
    R1        2.06671   0.00129   0.00000   0.00297   0.00297   2.06968
    R2        2.06483  -0.00397   0.00000  -0.00914  -0.00914   2.05569
    R3        2.06471  -0.00053   0.00000  -0.00121  -0.00121   2.06350
    R4        2.68051   0.04637   0.00000   0.08814   0.08814   2.76865
    R5        1.88925   0.03028   0.00000   0.05195   0.05195   1.94120
    R6        2.72775   0.03488   0.00000   0.07179   0.07179   2.79954
    R7        1.88904   0.02869   0.00000   0.04919   0.04919   1.93822
    R8        2.06467  -0.00012   0.00000  -0.00028  -0.00028   2.06439
    R9        2.06488  -0.00242   0.00000  -0.00557  -0.00557   2.05932
   R10        2.81126   0.02820   0.00000   0.06638   0.06638   2.87763
   R11        2.06328   0.00239   0.00000   0.00550   0.00550   2.06878
   R12        2.06482   0.00074   0.00000   0.00170   0.00170   2.06652
   R13        2.81721   0.01617   0.00000   0.03842   0.03842   2.85563
   R14        2.58004  -0.01669   0.00000  -0.02636  -0.02646   2.55359
   R15        2.66058  -0.00985   0.00000  -0.01646  -0.01657   2.64402
   R16        2.60690  -0.03385   0.00000  -0.05796  -0.05798   2.54892
   R17        2.05642  -0.00095   0.00000  -0.00215  -0.00215   2.05427
   R18        2.67723  -0.02024   0.00000  -0.03997  -0.03988   2.63735
   R19        2.05494  -0.00199   0.00000  -0.00452  -0.00452   2.05042
   R20        2.68196  -0.01848   0.00000  -0.03532  -0.03520   2.64676
   R21        2.05322  -0.00262   0.00000  -0.00592  -0.00592   2.04731
   R22        2.63837  -0.00622   0.00000  -0.00940  -0.00939   2.62899
   R23        2.05358  -0.00088   0.00000  -0.00199  -0.00199   2.05159
    A1        1.78837   0.01679   0.00000   0.07399   0.07209   1.86046
    A2        1.74185   0.00919   0.00000   0.07489   0.07494   1.81679
    A3        1.95177  -0.01039   0.00000  -0.03307  -0.03409   1.91769
    A4        2.00066  -0.00113   0.00000  -0.02695  -0.02859   1.97207
    A5        2.07921  -0.02044   0.00000  -0.10489  -0.10682   1.97240
    A6        1.87170   0.01037   0.00000   0.04591   0.04494   1.91665
    A7        1.89513  -0.00070   0.00000  -0.00249  -0.00251   1.89262
    A8        1.98630   0.00169   0.00000   0.01029   0.01020   1.99650
    A9        1.89548   0.00114   0.00000   0.00999   0.00992   1.90540
   A10        1.89503   0.00052   0.00000   0.00358   0.00357   1.89860
   A11        1.89532  -0.00248   0.00000  -0.02455  -0.02452   1.87079
   A12        1.89485  -0.00038   0.00000   0.00126   0.00113   1.89598
   A13        1.92863  -0.00866   0.00000  -0.04765  -0.04877   1.87986
   A14        1.90591   0.00079   0.00000  -0.01306  -0.01356   1.89234
   A15        1.96265  -0.00121   0.00000   0.00116   0.00122   1.96387
   A16        1.93746  -0.00264   0.00000  -0.02216  -0.02371   1.91375
   A17        1.78382   0.01393   0.00000   0.09565   0.09603   1.87986
   A18        1.94335  -0.00191   0.00000  -0.01019  -0.01021   1.93313
   A19        1.96884  -0.00670   0.00000  -0.03171  -0.03215   1.93669
   A20        1.95774  -0.00912   0.00000  -0.05161  -0.05182   1.90592
   A21        1.97826   0.00951   0.00000   0.02973   0.03001   2.00827
   A22        1.78219   0.00649   0.00000   0.03800   0.03708   1.81927
   A23        1.87575   0.00014   0.00000   0.01503   0.01526   1.89101
   A24        1.88864  -0.00035   0.00000   0.00379   0.00410   1.89274
   A25        2.03215  -0.00022   0.00000  -0.00234  -0.00231   2.02984
   A26        2.10871   0.00293   0.00000   0.00725   0.00727   2.11598
   A27        2.14192  -0.00268   0.00000  -0.00440  -0.00461   2.13731
   A28        2.00705   0.01059   0.00000   0.03007   0.02986   2.03691
   A29        2.10913  -0.01274   0.00000  -0.05226  -0.05294   2.05619
   A30        2.16819   0.00044   0.00000  -0.00224  -0.00280   2.16539
   A31        1.99943   0.01276   0.00000   0.06126   0.06071   2.06014
   A32        2.07187   0.00220   0.00000   0.01009   0.00965   2.08153
   A33        2.09165  -0.00417   0.00000  -0.01540  -0.01551   2.07614
   A34        2.11292   0.00229   0.00000   0.01044   0.01004   2.12296
   A35        2.10352  -0.00057   0.00000   0.00060   0.00036   2.10387
   A36        2.00885   0.00919   0.00000   0.03577   0.03573   2.04458
   A37        2.16907  -0.00847   0.00000  -0.03444  -0.03470   2.13437
   A38        2.13920  -0.01287   0.00000  -0.03663  -0.03684   2.10236
   A39        2.05173   0.00600   0.00000   0.01715   0.01707   2.06880
   A40        2.08990   0.00698   0.00000   0.02137   0.02129   2.11118
    D1       -0.72947  -0.00624   0.00000  -0.05556  -0.05505  -0.78452
    D2        1.38314  -0.00496   0.00000  -0.04600  -0.04552   1.33762
    D3       -2.78741  -0.00352   0.00000  -0.03044  -0.02989  -2.81730
    D4       -2.81169  -0.00466   0.00000  -0.04817  -0.04827  -2.85996
    D5       -0.69908  -0.00338   0.00000  -0.03861  -0.03874  -0.73783
    D6        1.41355  -0.00194   0.00000  -0.02306  -0.02311   1.39044
    D7        1.16315   0.00519   0.00000   0.04108   0.04066   1.20380
    D8       -3.00743   0.00647   0.00000   0.05064   0.05018  -2.95725
    D9       -0.89479   0.00791   0.00000   0.06620   0.06581  -0.82898
   D10        1.14455  -0.00575   0.00000  -0.04400  -0.04335   1.10120
   D11       -0.99136   0.00265   0.00000   0.02330   0.02291  -0.96845
   D12        3.12550   0.00538   0.00000   0.04522   0.04494  -3.11275
   D13       -3.02596  -0.00515   0.00000  -0.03783  -0.03716  -3.06313
   D14        1.12131   0.00325   0.00000   0.02947   0.02909   1.15040
   D15       -1.04502   0.00598   0.00000   0.05139   0.05112  -0.99389
   D16       -0.96844  -0.00804   0.00000  -0.06443  -0.06377  -1.03221
   D17       -3.10435   0.00036   0.00000   0.00287   0.00249  -3.10186
   D18        1.01251   0.00309   0.00000   0.02479   0.02451   1.03703
   D19       -0.81247  -0.00143   0.00000  -0.02363  -0.02359  -0.83606
   D20       -2.81356   0.00062   0.00000  -0.01765  -0.01829  -2.83184
   D21        1.32431   0.00090   0.00000  -0.00529  -0.00562   1.31869
   D22        1.25570  -0.00403   0.00000  -0.02310  -0.02252   1.23318
   D23       -0.74538  -0.00198   0.00000  -0.01712  -0.01722  -0.76261
   D24       -2.89070  -0.00170   0.00000  -0.00475  -0.00456  -2.89526
   D25       -2.95792  -0.00014   0.00000   0.00019   0.00062  -2.95730
   D26        1.32418   0.00190   0.00000   0.00616   0.00592   1.33010
   D27       -0.82114   0.00218   0.00000   0.01853   0.01859  -0.80255
   D28        1.26962  -0.00218   0.00000  -0.02979  -0.02987   1.23976
   D29       -1.90158  -0.00109   0.00000  -0.01100  -0.01117  -1.91275
   D30       -2.82593  -0.00414   0.00000  -0.03883  -0.03869  -2.86462
   D31        0.28605  -0.00305   0.00000  -0.02004  -0.02000   0.26605
   D32       -0.91339   0.00320   0.00000   0.01333   0.01341  -0.89998
   D33        2.19859   0.00430   0.00000   0.03212   0.03210   2.23070
   D34        2.95472   0.00471   0.00000   0.07657   0.07719   3.03191
   D35       -0.15665   0.00349   0.00000   0.05717   0.05802  -0.09863
   D36       -2.99678  -0.00443   0.00000  -0.06170  -0.06138  -3.05816
   D37        0.07069  -0.00225   0.00000  -0.03117  -0.03104   0.03965
   D38        0.11329  -0.00322   0.00000  -0.04165  -0.04145   0.07184
   D39       -3.10242  -0.00103   0.00000  -0.01111  -0.01112  -3.11354
   D40       -2.89295  -0.00832   0.00000  -0.11717  -0.11516  -3.00811
   D41        0.12018  -0.00291   0.00000  -0.04579  -0.04616   0.07401
   D42       -3.05342  -0.00187   0.00000  -0.03275  -0.03336  -3.08678
   D43       -0.03500   0.00126   0.00000   0.01464   0.01423  -0.02077
   D44       -0.03306   0.00160   0.00000   0.02736   0.02828  -0.00478
   D45        2.98536   0.00473   0.00000   0.07475   0.07586   3.06122
   D46       -3.09952  -0.00158   0.00000  -0.02379  -0.02409  -3.12361
   D47       -0.01883   0.00066   0.00000   0.00853   0.00870  -0.01013
   D48       -0.08405   0.00160   0.00000   0.02465   0.02458  -0.05947
   D49        2.99663   0.00384   0.00000   0.05698   0.05738   3.05401
   D50       -0.01792   0.00001   0.00000   0.00364   0.00377  -0.01415
   D51       -3.08383  -0.00216   0.00000  -0.02729  -0.02705  -3.11089
   D52        3.06017   0.00269   0.00000   0.03886   0.03863   3.09880
   D53       -0.00574   0.00053   0.00000   0.00793   0.00780   0.00206
         Item               Value     Threshold  Converged?
 Maximum Force            0.046374     0.000450     NO 
 RMS     Force            0.010054     0.000300     NO 
 Maximum Displacement     0.245665     0.001800     NO 
 RMS     Displacement     0.061269     0.001200     NO 
 Predicted change in Energy=-2.303294D-02
 Lowest energy point so far.  Saving SCF results.
 GradGradGradGradGradGradGradGradGradGradGradGradGradGradGradGradGradGrad

 Leave Link  103 at Sun Jul 18 13:37:50 2021, MaxMem=   104857600 cpu:               4.6 elap:               1.6
 (Enter /prod/apps/gaussian/g16b1/l202.exe)
                          Input orientation:                          
 ---------------------------------------------------------------------
 Center     Atomic      Atomic             Coordinates (Angstroms)
 Number     Number       Type             X           Y           Z
 ---------------------------------------------------------------------
      1          6           0        2.887744   -0.328979    1.879211
      2          1           0        3.277800    0.509170    1.291940
      3          1           0        3.533786   -1.179700    1.673621
      4          1           0        2.954000    0.016934    2.912807
      5          7           0        1.487149   -0.575082    1.526647
      6          1           0        0.998620    0.327685    1.487003
      7          6           0        1.295404   -1.278223    0.236868
      8          1           0        1.751703   -2.266758    0.326280
      9          1           0        1.801355   -0.710309   -0.543534
     10          6           0       -0.174872   -1.476101   -0.106626
     11          1           0       -0.726418   -1.878090    0.749343
     12          1           0       -0.264095   -2.251728   -0.872333
     13          6           0       -0.890563   -0.237891   -0.594627
     14          7           0       -0.554830    0.200861   -1.827831
     15          6           0       -1.278642    1.224791   -2.324830
     16          1           0       -1.110604    1.508963   -3.360558
     17          6           0       -2.275233    1.895156   -1.614065
     18          1           0       -2.845123    2.675474   -2.107662
     19          6           0       -2.574660    1.479504   -0.310506
     20          1           0       -3.354827    1.970751    0.258480
     21          6           0       -1.855124    0.400381    0.192685
     22          1           0       -2.056310    0.008949    1.185132
     23          1           0        1.044739   -1.126759    2.269553
 ---------------------------------------------------------------------
                    Distance matrix (angstroms):
                    1          2          3          4          5
     1  C    0.000000
     2  H    1.095228   0.000000
     3  H    1.087825   1.750282   0.000000
     4  H    1.091955   1.724631   1.817598   0.000000
     5  N    1.465105   2.106447   2.139132   2.103229   0.000000
     6  H    2.038093   2.294700   2.955351   2.439876   1.027239
     7  C    2.476671   2.870164   2.661638   3.404265   1.481453
     8  H    2.730782   3.311684   2.484521   3.653887   2.091085
     9  H    2.682414   2.652543   2.852616   3.715342   2.098252
    10  C    3.826101   4.221164   4.124472   4.597387   2.498345
    11  H    4.091272   4.693312   4.414903   4.670885   2.683637
    12  H    4.604567   4.985143   4.696277   5.461707   3.410733
    13  C    4.517053   4.635999   5.060318   5.210345   3.204219
    14  N    5.086669   4.951472   5.557238   5.900793   4.003035
    15  C    6.119390   5.861255   6.702883   6.841565   5.071786
    16  H    6.842513   6.473285   7.358139   7.622484   5.914079
    17  C    6.618617   6.418879   7.349036   7.166950   5.488322
    18  H    7.601819   7.330782   8.357688   8.118052   6.522492
    19  C    6.156568   6.144972   6.951348   6.564674   4.908640
    20  H    6.847278   6.869935   7.705903   7.117876   5.615536
    21  C    5.086367   5.250439   5.807769   5.538391   3.728508
    22  H    5.003959   5.358578   5.735911   5.299824   3.607468
    23  H    2.045846   2.935737   2.559939   2.316697   1.025662
                    6          7          8          9         10
     6  H    0.000000
     7  C    2.056662   0.000000
     8  H    2.940331   1.092431   0.000000
     9  H    2.417621   1.089743   1.783697   0.000000
    10  C    2.677756   1.522779   2.127025   2.163977   0.000000
    11  H    2.895745   2.170307   2.543841   3.069996   1.094751
    12  H    3.716757   2.147109   2.345280   2.598107   1.093556
    13  C    2.867416   2.559712   3.456290   2.733535   1.511133
    14  N    3.662979   3.142298   4.006174   2.833947   2.432924
    15  C    4.529988   4.410566   5.329380   4.050186   3.665181
    16  H    5.416926   5.147694   6.003469   4.619556   4.513787
    17  C    4.774066   5.123060   6.107593   4.955105   4.248443
    18  H    5.762646   6.186478   7.174994   5.958169   5.326346
    19  C    4.162458   4.783521   5.758245   4.898887   3.812631
    20  H    4.812633   5.672825   6.636093   5.866645   4.703850
    21  C    3.134390   3.570083   4.487837   3.891721   2.536537
    22  H    3.086311   3.713489   4.518565   4.288029   2.722833
    23  H    1.652247   2.053675   2.361293   2.942678   2.693644
                   11         12         13         14         15
    11  H    0.000000
    12  H    1.727189   0.000000
    13  C    2.126840   2.127233   0.000000
    14  N    3.315615   2.648150   1.351300   0.000000
    15  C    4.402653   3.901953   2.298618   1.348830   0.000000
    16  H    5.339570   4.588097   3.278764   2.090279   1.087071
    17  C    4.714013   4.668136   2.739792   2.424071   1.395625
    18  H    5.778091   5.697812   3.820638   3.383409   2.146044
    19  C    3.976520   4.424529   2.422056   2.831416   2.408743
    20  H    4.686476   5.353568   3.417381   3.914739   3.397129
    21  C    2.602936   3.270982   1.399153   2.411028   2.711063
    22  H    2.349349   3.543425   2.141831   3.371827   3.795111
    23  H    2.452046   3.584697   3.569175   4.594535   5.660056
                   16         17         18         19         20
    16  H    0.000000
    17  C    2.134419   0.000000
    18  H    2.437018   1.085038   0.000000
    19  C    3.383363   1.400604   2.175607   0.000000
    20  H    4.283366   2.162790   2.520924   1.083388   0.000000
    21  C    3.795892   2.382266   3.383451   1.391200   2.172441
    22  H    4.879313   3.382486   4.309881   2.160590   2.528537
    23  H    6.579565   5.936049   6.981978   5.152607   5.744142
                   21         22         23
    21  C    0.000000
[...]
 IMap=  21  22  23  24  25  26  27
 Actual    scratch disk usage=  1379309860 words.
 JobTyp=1 Pass  1:  I=   1 to  27 NPSUse=  4 ParTrn=T ParDer=T DoDerP=F.
 Spin components of T(2) and E(2):
     alpha-alpha T2 =       0.6924685756D-01 E2=     -0.1859689867D+00
     alpha-beta  T2 =       0.3759791681D+00 E2=     -0.1085570675D+01
     beta-beta   T2 =       0.6924685756D-01 E2=     -0.1859689867D+00
 The integrals were generated   1 times.
 ANorm=    0.1230639217D+01
 E2 =    -0.1457508648D+01 EUMP2 =    -0.42071515221252D+03
 Leave Link  906 at Sun Jul 18 14:25:58 2021, MaxMem=   262144000 cpu:             652.4 elap:             217.5
 (Enter /prod/apps/gaussian/g16b1/l601.exe)
 Copying SCF densities to generalized density rwf, IOpCl= 0 IROHF=0.

 **********************************************************************

            Population analysis using the SCF Density.

 **********************************************************************

 Orbital symmetries:
       Occupied  (A) (A) (A) (A) (A) (A) (A) (A) (A) (A) (A) (A)
                 (A) (A) (A) (A) (A) (A) (A) (A) (A) (A) (A) (A)
                 (A) (A) (A) (A) (A) (A) (A) (A) (A) (A) (A) (A)
                 (A)
       Virtual   (A) (A) (A) (A) (A) (A) (A) (A) (A) (A) (A) (A)
                 (A) (A) (A) (A) (A) (A) (A) (A) (A) (A) (A) (A)
                 (A) (A) (A) (A) (A) (A) (A) (A) (A) (A) (A) (A)
                 (A) (A) (A) (A) (A) (A) (A) (A) (A) (A) (A) (A)
                 (A) (A) (A) (A) (A) (A) (A) (A) (A) (A) (A) (A)
                 (A) (A) (A) (A) (A) (A) (A) (A) (A) (A) (A) (A)
                 (A) (A) (A) (A) (A) (A) (A) (A) (A) (A) (A) (A)
                 (A) (A) (A) (A) (A) (A) (A) (A) (A) (A) (A) (A)
                 (A) (A) (A) (A) (A) (A) (A) (A) (A) (A) (A) (A)
                 (A) (A) (A) (A) (A) (A) (A) (A) (A) (A) (A) (A)
                 (A) (A) (A) (A) (A) (A) (A) (A) (A) (A) (A) (A)
                 (A) (A) (A) (A) (A) (A) (A) (A) (A) (A) (A) (A)
                 (A) (A) (A) (A) (A) (A) (A) (A) (A) (A) (A) (A)
                 (A) (A) (A) (A) (A) (A) (A) (A) (A) (A) (A) (A)
                 (A) (A) (A) (A) (A) (A) (A) (A) (A) (A) (A) (A)
                 (A) (A) (A) (A) (A) (A) (A) (A) (A) (A) (A) (A)
                 (A) (A) (A) (A) (A) (A) (A) (A) (A) (A) (A) (A)
                 (A) (A) (A) (A) (A) (A) (A) (A) (A) (A) (A) (A)
                 (A) (A) (A) (A) (A) (A) (A) (A) (A) (A) (A) (A)
                 (A) (A) (A) (A) (A) (A) (A) (A) (A) (A) (A) (A)
                 (A) (A) (A) (A) (A) (A) (A) (A) (A) (A) (A) (A)
                 (A) (A) (A) (A) (A) (A) (A) (A) (A) (A) (A) (A)
                 (A) (A) (A) (A) (A) (A) (A) (A) (A) (A) (A) (A)
                 (A) (A) (A) (A) (A) (A) (A) (A) (A) (A) (A) (A)
                 (A) (A) (A) (A) (A) (A) (A) (A) (A) (A) (A) (A)
                 (A) (A) (A) (A) (A) (A) (A) (A) (A) (A)
 The electronic state is 1-A.
 Alpha  occ. eigenvalues --  -15.87344 -15.69831 -11.46318 -11.45712 -11.41721
 Alpha  occ. eigenvalues --  -11.40114 -11.39780 -11.38238 -11.36903 -11.36189
 Alpha  occ. eigenvalues --   -1.49618  -1.38759  -1.23088  -1.20821  -1.15742
 Alpha  occ. eigenvalues --   -1.12264  -1.04996  -0.98265  -0.96098  -0.94750
 Alpha  occ. eigenvalues --   -0.85666  -0.83768  -0.82731  -0.79003  -0.77221
 Alpha  occ. eigenvalues --   -0.75194  -0.74889  -0.74012  -0.71327  -0.70421
 Alpha  occ. eigenvalues --   -0.68119  -0.67726  -0.64833  -0.63352  -0.54283
 Alpha  occ. eigenvalues --   -0.50172  -0.46370
 Alpha virt. eigenvalues --   -0.09199  -0.06782  -0.06549  -0.05406  -0.04086
 Alpha virt. eigenvalues --   -0.03779  -0.03489  -0.03264  -0.02965  -0.02429
 Alpha virt. eigenvalues --   -0.01642  -0.01387  -0.00905  -0.00524   0.00308
 Alpha virt. eigenvalues --    0.00716   0.01813   0.02441   0.02548   0.03552
 Alpha virt. eigenvalues --    0.03597   0.04309   0.04796   0.04996   0.05128
 Alpha virt. eigenvalues --    0.05821   0.05917   0.06322   0.06542   0.06853
 Alpha virt. eigenvalues --    0.07283   0.07796   0.08180   0.08348   0.08885
 Alpha virt. eigenvalues --    0.09169   0.09890   0.10631   0.10823   0.11100
 Alpha virt. eigenvalues --    0.11326   0.12348   0.12666   0.13317   0.13591
 Alpha virt. eigenvalues --    0.14874   0.16290   0.17081   0.17495   0.18229
 Alpha virt. eigenvalues --    0.18605   0.18863   0.19582   0.20192   0.20637
 Alpha virt. eigenvalues --    0.21323   0.21693   0.22369   0.22987   0.23154
 Alpha virt. eigenvalues --    0.24083   0.24582   0.25128   0.26522   0.26657
 Alpha virt. eigenvalues --    0.27452   0.28342   0.28570   0.29241   0.29648
 Alpha virt. eigenvalues --    0.30552   0.31159   0.31694   0.32123   0.32366
 Alpha virt. eigenvalues --    0.32584   0.33337   0.33758   0.34148   0.34688
 Alpha virt. eigenvalues --    0.35197   0.36059   0.36828   0.37631   0.38335
 Alpha virt. eigenvalues --    0.39350   0.39974   0.40541   0.40734   0.41542
 Alpha virt. eigenvalues --    0.42121   0.42403   0.43112   0.44152   0.44745
 Alpha virt. eigenvalues --    0.45593   0.46038   0.46400   0.47137   0.47552
 Alpha virt. eigenvalues --    0.47662   0.48230   0.49444   0.49968   0.50426
 Alpha virt. eigenvalues --    0.51122   0.51488   0.51741   0.52365   0.54079
 Alpha virt. eigenvalues --    0.54564   0.54813   0.55701   0.56626   0.56880
 Alpha virt. eigenvalues --    0.58235   0.58473   0.59340   0.59654   0.60448
 Alpha virt. eigenvalues --    0.60689   0.60949   0.61863   0.62462   0.63473
 Alpha virt. eigenvalues --    0.64285   0.64702   0.65181   0.65466   0.65923
 Alpha virt. eigenvalues --    0.66750   0.67956   0.68639   0.70282   0.71081
 Alpha virt. eigenvalues --    0.72400   0.73444   0.73700   0.74631   0.76161
 Alpha virt. eigenvalues --    0.76457   0.76874   0.77374   0.78096   0.78838
 Alpha virt. eigenvalues --    0.79612   0.80858   0.82049   0.82601   0.83335
 Alpha virt. eigenvalues --    0.84286   0.85084   0.85381   0.86216   0.87594
 Alpha virt. eigenvalues --    0.88212   0.88897   0.89726   0.90391   0.91273
 Alpha virt. eigenvalues --    0.92465   0.93743   0.94851   0.95761   0.96789
 Alpha virt. eigenvalues --    0.98316   0.99205   1.00062   1.02086   1.04391
 Alpha virt. eigenvalues --    1.05541   1.07614   1.08763   1.09663   1.10961
 Alpha virt. eigenvalues --    1.12042   1.15046   1.17114   1.17711   1.20028
 Alpha virt. eigenvalues --    1.23033   1.25771   1.26763   1.28417   1.30594
 Alpha virt. eigenvalues --    1.32276   1.34087   1.34936   1.36200   1.39996
 Alpha virt. eigenvalues --    1.41284   1.43328   1.44316   1.45562   1.46847
 Alpha virt. eigenvalues --    1.48178   1.49709   1.50731   1.52183   1.54511
 Alpha virt. eigenvalues --    1.55389   1.56404   1.56976   1.57897   1.60730
 Alpha virt. eigenvalues --    1.61639   1.62686   1.64804   1.65354   1.67496
 Alpha virt. eigenvalues --    1.68719   1.69276   1.70461   1.70699   1.72519
 Alpha virt. eigenvalues --    1.73231   1.73808   1.74784   1.78001   1.78487
 Alpha virt. eigenvalues --    1.79904   1.81082   1.82817   1.83946   1.84329
 Alpha virt. eigenvalues --    1.86936   1.89025   1.90415   1.91389   1.92305
 Alpha virt. eigenvalues --    1.93232   1.94525   1.95081   1.97452   1.99106
 Alpha virt. eigenvalues --    1.99806   2.01366   2.02046   2.04563   2.05744
 Alpha virt. eigenvalues --    2.07268   2.07516   2.09431   2.10481   2.12005
 Alpha virt. eigenvalues --    2.12938   2.14734   2.15682   2.16259   2.18117
 Alpha virt. eigenvalues --    2.19242   2.20027   2.21902   2.22241   2.22976
 Alpha virt. eigenvalues --    2.26693   2.27293   2.28911   2.29872   2.30482
 Alpha virt. eigenvalues --    2.32983   2.35828   2.37182   2.37984   2.38692
 Alpha virt. eigenvalues --    2.41897   2.43271   2.44471   2.49893   2.51720
 Alpha virt. eigenvalues --    2.52794   2.54735   2.56488   2.58162   2.61123
 Alpha virt. eigenvalues --    2.61310   2.63028   2.65985   2.68336   2.70476
 Alpha virt. eigenvalues --    2.71070   2.72463   2.72798   2.74938   2.77684
 Alpha virt. eigenvalues --    2.78870   2.80668   2.82590   2.85005   2.88329
 Alpha virt. eigenvalues --    2.89500   2.91579   2.93868   2.95792   2.99147
 Alpha virt. eigenvalues --    3.01975   3.03737   3.06576   3.08164   3.12126
 Alpha virt. eigenvalues --    3.18995   3.23558   3.26608   3.33355   3.44080
 Alpha virt. eigenvalues --    3.47254   3.50617   3.65346   3.85331   4.36232
          Condensed to atoms (all electrons):
               1          2          3          4          5          6
     1  C    4.024949   0.345792   0.349954   0.463672   0.166727  -0.017478
     2  H    0.345792   1.032865  -0.099293  -0.205302   0.010333  -0.024350
     3  H    0.349954  -0.099293   1.065705  -0.208956  -0.046863   0.019407
     4  H    0.463672  -0.205302  -0.208956   1.161543  -0.081964  -0.000042
     5  N    0.166727   0.010333  -0.046863  -0.081964   6.886554   0.412269
     6  H   -0.017478  -0.024350   0.019407  -0.000042   0.412269   0.531900
     7  C   -0.011734  -0.046960   0.003879   0.025066  -0.031552  -0.056900
     8  H   -0.019289  -0.015350   0.003559   0.005005  -0.066408   0.020860
     9  H   -0.003269   0.006991  -0.005558  -0.000274  -0.049332  -0.050682
    10  C   -0.020813   0.039260   0.006353  -0.032595   0.012597  -0.034493
    11  H   -0.012841   0.000255   0.004366  -0.004563  -0.004467  -0.004628
    12  H    0.007669   0.000664  -0.000188  -0.000162   0.016712   0.003712
    13  C    0.013226  -0.010898   0.013301   0.003727  -0.114731  -0.007951
    14  N   -0.003700   0.001973  -0.000294  -0.001388   0.050104   0.023909
    15  C    0.001505  -0.002426   0.002048   0.000240  -0.036110  -0.003128
    16  H   -0.000002   0.000267  -0.000003  -0.000117   0.002387  -0.001539
    17  C   -0.005392   0.002742  -0.001122  -0.001501   0.033842   0.009963
    18  H    0.000103  -0.000102  -0.000001   0.000056  -0.000388  -0.001148
    19  C    0.002892  -0.002902   0.000879   0.001526  -0.022657  -0.001719
    20  H    0.000041   0.000008   0.000006  -0.000000  -0.000209  -0.000618
    21  C   -0.015516   0.007856  -0.005983  -0.003478   0.096872   0.014847
    22  H    0.001447  -0.000181   0.000151   0.000377  -0.008371   0.001327
    23  H   -0.045028   0.016345  -0.028552  -0.001859   0.443416  -0.062134
               7          8          9         10         11         12
     1  C   -0.011734  -0.019289  -0.003269  -0.020813  -0.012841   0.007669
     2  H   -0.046960  -0.015350   0.006991   0.039260   0.000255   0.000664
     3  H    0.003879   0.003559  -0.005558   0.006353   0.004366  -0.000188
     4  H    0.025066   0.005005  -0.000274  -0.032595  -0.004563  -0.000162
     5  N   -0.031552  -0.066408  -0.049332   0.012597  -0.004467   0.016712
     6  H   -0.056900   0.020860  -0.050682  -0.034493  -0.004628   0.003712
     7  C    4.772449   0.230454   0.154401   0.337788  -0.245720   0.067592
     8  H    0.230454   1.327213  -0.181337   0.000360  -0.013407  -0.066741
     9  H    0.154401  -0.181337   1.330912  -0.169768   0.075866  -0.019225
    10  C    0.337788   0.000360  -0.169768   5.933031   0.110047   0.182213
    11  H   -0.245720  -0.013407   0.075866   0.110047   1.408711  -0.177563
    12  H    0.067592  -0.066741  -0.019225   0.182213  -0.177563   0.923721
    13  C    0.006796   0.014623   0.106612  -0.373171   0.315481  -0.134384
    14  N   -0.044427  -0.002079  -0.035407   0.085418  -0.025309  -0.003549
    15  C   -0.022455  -0.002398   0.051246  -0.241559   0.028988  -0.044234
    16  H    0.003651   0.001264  -0.003349   0.026361   0.001272  -0.001319
    17  C   -0.022931   0.003722  -0.035080   0.244236  -0.029727   0.022763
    18  H    0.002288   0.000022   0.000415  -0.013334  -0.000815   0.000243
    19  C    0.028020  -0.003108   0.036200  -0.345213   0.057879  -0.026685
    20  H   -0.003216   0.000000   0.000945   0.047904   0.004703   0.000898
    21  C   -0.192407   0.007800  -0.047545   0.032932  -0.223097   0.152837
    22  H    0.069820  -0.000079   0.000554  -0.094377  -0.078356   0.012517
    23  H   -0.042134  -0.053589   0.030735  -0.050145   0.004058   0.004749
              13         14         15         16         17         18
     1  C    0.013226  -0.003700   0.001505  -0.000002  -0.005392   0.000103
     2  H   -0.010898   0.001973  -0.002426   0.000267   0.002742  -0.000102
     3  H    0.013301  -0.000294   0.002048  -0.000003  -0.001122  -0.000001
     4  H    0.003727  -0.001388   0.000240  -0.000117  -0.001501   0.000056
     5  N   -0.114731   0.050104  -0.036110   0.002387   0.033842  -0.000388
     6  H   -0.007951   0.023909  -0.003128  -0.001539   0.009963  -0.001148
     7  C    0.006796  -0.044427  -0.022455   0.003651  -0.022931   0.002288
     8  H    0.014623  -0.002079  -0.002398   0.001264   0.003722   0.000022
     9  H    0.106612  -0.035407   0.051246  -0.003349  -0.035080   0.000415
    10  C   -0.373171   0.085418  -0.241559   0.026361   0.244236  -0.013334
    11  H    0.315481  -0.025309   0.028988   0.001272  -0.029727  -0.000815
    12  H   -0.134384  -0.003549  -0.044234  -0.001319   0.022763   0.000243
    13  C    7.841350  -0.154619   0.340319   0.193255  -0.993983  -0.024782
    14  N   -0.154619   7.715352   0.189390  -0.189563   0.188612  -0.030933
    15  C    0.340319   0.189390   6.279553   0.077452  -0.947550   0.109290
    16  H    0.193255  -0.189563   0.077452   1.369190  -0.017439  -0.049781
    17  C   -0.993983   0.188612  -0.947550  -0.017439   6.600217  -0.353198
    18  H   -0.024782  -0.030933   0.109290  -0.049781  -0.353198   1.517945
    19  C    1.143856  -0.409387   1.087957   0.037871  -1.149459   0.341513
    20  H   -0.108753   0.023036  -0.137490  -0.006356   0.233900  -0.061443
    21  C   -2.437431   0.359488  -1.184109  -0.080421   1.301873  -0.028800
    22  H    0.227071  -0.019711   0.032558  -0.000791  -0.055606  -0.006964
    23  H   -0.003820  -0.007102  -0.004398   0.000729   0.001586  -0.000114
              19         20         21         22         23
     1  C    0.002892   0.000041  -0.015516   0.001447  -0.045028
     2  H   -0.002902   0.000008   0.007856  -0.000181   0.016345
     3  H    0.000879   0.000006  -0.005983   0.000151  -0.028552
     4  H    0.001526  -0.000000  -0.003478   0.000377  -0.001859
     5  N   -0.022657  -0.000209   0.096872  -0.008371   0.443416
     6  H   -0.001719  -0.000618   0.014847   0.001327  -0.062134
     7  C    0.028020  -0.003216  -0.192407   0.069820  -0.042134
     8  H   -0.003108   0.000000   0.007800  -0.000079  -0.053589
     9  H    0.036200   0.000945  -0.047545   0.000554   0.030735
    10  C   -0.345213   0.047904   0.032932  -0.094377  -0.050145
    11  H    0.057879   0.004703  -0.223097  -0.078356   0.004058
    12  H   -0.026685   0.000898   0.152837   0.012517   0.004749
    13  C    1.143856  -0.108753  -2.437431   0.227071  -0.003820
    14  N   -0.409387   0.023036   0.359488  -0.019711  -0.007102
    15  C    1.087957  -0.137490  -1.184109   0.032558  -0.004398
    16  H    0.037871  -0.006356  -0.080421  -0.000791   0.000729
    17  C   -1.149459   0.233900   1.301873  -0.055606   0.001586
    18  H    0.341513  -0.061443  -0.028800  -0.006964  -0.000114
    19  C    7.630909  -0.426193  -2.066289   0.329873   0.001635
    20  H   -0.426193   1.555808   0.360155  -0.094250   0.000184
    21  C   -2.066289   0.360155   9.629506  -0.731904   0.019082
    22  H    0.329873  -0.094250  -0.731904   1.986869   0.000478
    23  H    0.001635   0.000184   0.019082   0.000478   0.591778
 Mulliken charges:
               1
     1  C    0.777085
     2  H   -0.057586
     3  H   -0.072791
     4  H   -0.119010
     5  N   -0.668762
     6  H    0.228615
     7  C    1.018233
     8  H   -0.191096
     9  H   -0.194053
    10  C    0.316967
    11  H   -0.191133
    12  H    0.077761
    13  C    0.144904
    14  N   -0.709815
    15  C    0.425312
    16  H   -0.363019
    17  C    0.969533
    18  H   -0.400072
    19  C   -0.247397
    20  H   -0.389059
    21  C    1.033731
    22  H   -0.572450
    23  H    0.184101
 Sum of Mulliken charges =   1.00000
 Mulliken charges with hydrogens summed into heavy atoms:
               1
     1  C    0.527698
     5  N   -0.256046
     7  C    0.633084
    10  C    0.203595
    13  C    0.144904
    14  N   -0.709815
    15  C    0.062293
    17  C    0.569460
    19  C   -0.636456
    21  C    0.461281
 Electronic spatial extent (au):  <R**2>=           1809.4199
 Charge=              1.0000 electrons
 Dipole moment (field-independent basis, Debye):
    X=              7.5578    Y=              0.4140    Z=             -3.2238  Tot=              8.2271
 Quadrupole moment (field-independent basis, Debye-Ang):
   XX=            -17.5254   YY=            -50.8259   ZZ=            -54.8541
   XY=              0.2127   XZ=             -2.1381   YZ=              0.0427
 Traceless Quadrupole moment (field-independent basis, Debye-Ang):
   XX=             23.5431   YY=             -9.7574   ZZ=            -13.7856
   XY=              0.2127   XZ=             -2.1381   YZ=              0.0427
 Octapole moment (field-independent basis, Debye-Ang**2):
  XXX=             77.8360  YYY=             -3.6359  ZZZ=             -7.0069  XYY=              7.4470
  XXY=            -21.0569  XXZ=            -32.0140  XZZ=             17.9364  YZZ=              4.2344
  YYZ=             -1.8852  XYZ=              9.4486
 Hexadecapole moment (field-independent basis, Debye-Ang**3):
 XXXX=          -1295.0766 YYYY=           -348.8229 ZZZZ=           -258.2456 XXXY=            -11.5421
 XXXZ=            -10.0930 YYYX=              5.0236 YYYZ=            -13.1984 ZZZX=            -15.6307
 ZZZY=              6.8383 XXYY=           -297.2393 XXZZ=           -291.3581 YYZZ=            -96.4853
 XXYZ=             -3.3322 YYXZ=             -8.4075 ZZXY=             -7.1350
 N-N= 5.171130078137D+02 E-N=-1.998909356196D+03  KE= 4.186808272438D+02
 Leave Link  601 at Sun Jul 18 14:25:59 2021, MaxMem=   262144000 cpu:               0.9 elap:               0.3
 (Enter /prod/apps/gaussian/g16b1/l9999.exe)
 1\1\GINC-PIRINEUS22\SP\RMP2-FC\Aug-CC-pVDZ\C8H13N2(1+)\UBATOR02\18-Jul
 -2021\0\\#p mp2/aug-cc-pVDZ scf=tight maxdisk=180GB geom=allcheck\\SET
 _328_BBB256_conf1.geo_180_075_075 geometry\\1,1\C,0,2.9901955269,-0.25
 05536362,1.6461523705\H,0,3.4774874946,0.11741901,0.7451915274\H,0,3.3
 97387133,-1.2197805499,1.9291924058\H,0,3.1112650712,0.4613533753,2.46
 00679653\N,0,1.5315510782,-0.4090541887,1.3665127932\H,0,1.1322203554,
 0.5115828315,1.1379979836\C,0,1.2309208536,-1.3714532604,0.2541176609\
 H,0,1.6932179747,-2.319284638,0.5268806282\H,0,1.7139624123,-0.9791877
 022,-0.6392617058\C,0,-0.2656645241,-1.5405677641,0.0305737744\H,0,-0.
 7512802477,-1.8977600964,0.9432003661\H,0,-0.3744675103,-2.3380436682,
 -0.7149947832\C,0,-0.9607636831,-0.2931944567,-0.4741904399\N,0,-0.372
 6898783,0.3540821173,-1.4956484984\C,0,-0.9779985136,1.4468809971,-1.9
 803016209\H,0,-0.4736882449,1.9468621605,-2.8042339538\C,0,-2.18316676
 44,1.9459004673,-1.4865408147\H,0,-2.6272260057,2.8349548832,-1.919742
 4306\C,0,-2.7866688927,1.2735586608,-0.425444849\H,0,-3.7218407568,1.6
 266103234,-0.0043015208\C,0,-2.1642447996,0.1387403087,0.091209149\H,0
 ,-2.5994769746,-0.4100050712,0.9180589516\H,0,1.0519688962,-0.72006010
 32,2.2225050412\\Version=ES64L-G16RevB.01\State=1-A\HF=-419.2576436\MP
 2=-420.7151522\RMSD=5.694e-09\PG=C01 [X(C8H13N2)]\\@


 THE WORLD OF CHEMICAL REACTIONS IS LIKE A STAGE,
 ON WHICH SCENE AFTER SCENE IS CEASELESSLY PLAYED.
 THE ACTORS ON IT ARE THE ELEMENTS.
   -- CLEMENS WINKLER   BER. 30,13(1897)
 (DISCOVERER OF GERMANIUM, FEB 6, 1886)
 Job cpu time:       0 days  0 hours 19 minutes 21.5 seconds.
 Elapsed time:       0 days  0 hours  6 minutes 27.4 seconds.
 File lengths (MBytes):  RWF=  10591 Int=      0 D2E=      0 Chk=     11 Scr=      1
 Normal termination of Gaussian 16 at Sun Jul 18 14:26:00 2021.
