 Entering Gaussian System, Link 0=g16
 Initial command:
 /prod/apps/gaussian/g16b1/l1.exe "/tmp/ubator02/1839486/Gau-161167.inp" -scrdir="/tmp/ubator02/1839486/"
 Entering Link 1 = /prod/apps/gaussian/g16b1/l1.exe PID=    161168.
  
 Copyright (c) 1988-2017, Gaussian, Inc.  All Rights Reserved.
  
 This is part of the Gaussian(R) 16 program.  It is based on
 the Gaussian(R) 09 system (copyright 2009, Gaussian, Inc.),
 the Gaussian(R) 03 system (copyright 2003, Gaussian, Inc.),
 the Gaussian(R) 98 system (copyright 1998, Gaussian, Inc.),
 the Gaussian(R) 94 system (copyright 1995, Gaussian, Inc.),
 the Gaussian 92(TM) system (copyright 1992, Gaussian, Inc.),
 the Gaussian 90(TM) system (copyright 1990, Gaussian, Inc.),
 the Gaussian 88(TM) system (copyright 1988, Gaussian, Inc.),
 the Gaussian 86(TM) system (copyright 1986, Carnegie Mellon
 University), and the Gaussian 82(TM) system (copyright 1983,
 Carnegie Mellon University). Gaussian is a federally registered
 trademark of Gaussian, Inc.
  
 This software contains proprietary and confidential information,
 including trade secrets, belonging to Gaussian, Inc.
  
 This software is provided under written license and may be
 used, copied, transmitted, or stored only in accord with that
 written license.
  
 The following legend is applicable only to US Government
 contracts under FAR:
  
                    RESTRICTED RIGHTS LEGEND
  
 Use, reproduction and disclosure by the US Government is
 subject to restrictions as set forth in subparagraphs (a)
 and (c) of the Commercial Computer Software - Restricted
 Rights clause in FAR 52.227-19.
  
 Gaussian, Inc.
 340 Quinnipiac St., Bldg. 40, Wallingford CT 06492
  
  
 ---------------------------------------------------------------
 Warning -- This program may not be used in any manner that
 competes with the business of Gaussian, Inc. or will provide
 assistance to any competitor of Gaussian, Inc.  The licensee
 of this program is prohibited from giving any competitor of
 Gaussian, Inc. access to this program.  By using this program,
 the user acknowledges that Gaussian, Inc. is engaged in the
 business of creating and licensing software in the field of
 computational chemistry and represents and warrants to the
 licensee that it is not a competitor of Gaussian, Inc. and that
 it will not use this program in any manner prohibited above.
 ---------------------------------------------------------------
  

 Cite this work as:
 Gaussian 16, Revision B.01,
 M. J. Frisch, G. W. Trucks, H. B. Schlegel, G. E. Scuseria, 
 M. A. Robb, J. R. Cheeseman, G. Scalmani, V. Barone, 
 G. A. Petersson, H. Nakatsuji, X. Li, M. Caricato, A. V. Marenich, 
 J. Bloino, B. G. Janesko, R. Gomperts, B. Mennucci, H. P. Hratchian, 
 J. V. Ortiz, A. F. Izmaylov, J. L. Sonnenberg, D. Williams-Young, 
 F. Ding, F. Lipparini, F. Egidi, J. Goings, B. Peng, A. Petrone, 
 T. Henderson, D. Ranasinghe, V. G. Zakrzewski, J. Gao, N. Rega, 
 G. Zheng, W. Liang, M. Hada, M. Ehara, K. Toyota, R. Fukuda, 
 J. Hasegawa, M. Ishida, T. Nakajima, Y. Honda, O. Kitao, H. Nakai, 
 T. Vreven, K. Throssell, J. A. Montgomery, Jr., J. E. Peralta, 
 F. Ogliaro, M. J. Bearpark, J. J. Heyd, E. N. Brothers, K. N. Kudin, 
 V. N. Staroverov, T. A. Keith, R. Kobayashi, J. Normand, 
 K. Raghavachari, A. P. Rendell, J. C. Burant, S. S. Iyengar, 
 J. Tomasi, M. Cossi, J. M. Millam, M. Klene, C. Adamo, R. Cammi, 
 J. W. Ochterski, R. L. Martin, K. Morokuma, O. Farkas, 
 J. B. Foresman, and D. J. Fox, Gaussian, Inc., Wallingford CT, 2016.
 
 ******************************************
 Gaussian 16:  ES64L-G16RevB.01 20-Dec-2017
                18-Jul-2021 
 ******************************************
 %mem=800MB
 %nproc=4
 Will use up to    4 processors via shared memory.
 %chk=SET_328_BBB20_conf1.geo_060_180_180.chk
 -----------------------------------------------------------
 #p b3lyp/6-31G(d) opt freq scrf=(iefpcm,read,solvent=water)
 -----------------------------------------------------------
 1/18=20,19=15,26=3,38=1,40=2/1,3;
 2/9=110,12=2,17=6,18=5,40=1/2;
 3/5=1,6=6,7=1,11=2,25=1,30=1,70=2203,71=1,72=1,74=-5/1,2,3;
 4//1;
 5/5=2,38=5,53=1/2;
 6/7=2,8=2,9=2,10=2,28=1/1;
 7//1,2,3,16;
 1/18=20,19=15,26=3/3(2);
 2/9=110/2;
 99//99;
 2/9=110/2;
 3/5=1,6=6,7=1,11=2,25=1,30=1,70=2205,71=1,72=1,74=-5/1,2,3;
 4/5=5,16=3,69=1/1;
 5/5=2,38=5,53=1/2;
 7//1,2,3,16;
 1/18=20,19=15,26=3/3(-5);
 2/9=110/2;
 6/7=2,8=2,9=2,10=2,19=2,28=1/1;
 99/9=1/99;
 Leave Link    1 at Sun Jul 18 13:28:51 2021, MaxMem=   104857600 cpu:               0.1 elap:               0.0
 (Enter /prod/apps/gaussian/g16b1/l101.exe)
 --------------------------------------------
 SET_328_BBB20_conf1.geo_060_180_180 geometry
 --------------------------------------------
 Symbolic Z-matrix:
 Charge =  1 Multiplicity = 1
 N                    -2.493     1.179     3.995 
 H                    -2.883     1.991     3.561 
 H                    -2.51      1.291     4.989 
 C                    -1.088     1.001     3.54 
 H                    -0.635     0.21      4.144 
 H                    -0.479     1.902     3.649 
 C                    -1.018     0.652     2.024 
 H                    -1.41      1.509     1.473 
 H                    -1.617    -0.232     1.794 
 C                     0.447     0.423     1.536 
 H                     0.961    -0.297     2.178 
 H                     1.001     1.328     1.796 
 N                     0.56      0.058     0.093 
 C                     0.065     1.01     -0.856 
 C                     0.626     2.268    -0.835 
 H                     1.462     2.493    -0.178 
 C                     0.173     3.203    -1.759 
 H                     0.632     4.188    -1.796 
 C                    -0.822     2.904    -2.711 
 H                    -1.089     3.644    -3.46 
 C                    -1.364     1.571    -2.676 
 H                    -2.289     1.331    -3.195 
 C                    -0.951     0.601    -1.76 
 C                    -1.672    -0.679    -1.582 
 H                    -2.501    -0.862    -2.27 
 H                    -2.032    -0.664    -0.551 
 C                    -0.7      -1.918    -1.881 
 H                    -0.318    -1.717    -2.884 
 H                    -1.285    -2.837    -1.961 
 C                     0.616    -2.112    -1.042 
 C                     1.413    -3.276    -1.25 
 H                     1.041    -3.978    -1.991 
 C                     2.601    -3.594    -0.625 
 H                     3.134    -4.523    -0.809 
 C                     3.151    -2.574     0.094 
 H                     4.172    -2.72      0.438 
 C                     2.512    -1.345     0.263 
 H                     3.048    -0.515     0.717 
 C                     1.197    -1.135    -0.23 
 H                    -3.03      0.375     3.741 
 
 ITRead=  0  0  0  0  0  0  0  0  0  0  0  0  0  0  0  0  0  0  0  0
 ITRead=  0  0  0  0  0  0  0  0  0  0  0  0  0  0  0  0  0  0  0  0
 MicOpt= -1 -1 -1 -1 -1 -1 -1 -1 -1 -1 -1 -1 -1 -1 -1 -1 -1 -1 -1 -1
 MicOpt= -1 -1 -1 -1 -1 -1 -1 -1 -1 -1 -1 -1 -1 -1 -1 -1 -1 -1 -1 -1
 NAtoms=     40 NQM=       40 NQMF=       0 NMMI=      0 NMMIF=      0
                NMic=       0 NMicF=      0.
                    Isotopes and Nuclear Properties:
 (Nuclear quadrupole moments (NQMom) in fm**2, nuclear magnetic moments (NMagM)
  in nuclear magnetons)

  Atom         1           2           3           4           5           6           7           8           9          10
 IAtWgt=          14           1           1          12           1           1          12           1           1          12
 AtmWgt=  14.0030740   1.0078250   1.0078250  12.0000000   1.0078250   1.0078250  12.0000000   1.0078250   1.0078250  12.0000000
 NucSpn=           2           1           1           0           1           1           0           1           1           0
 AtZEff=  -0.0000000  -0.0000000  -0.0000000  -0.0000000  -0.0000000  -0.0000000  -0.0000000  -0.0000000  -0.0000000  -0.0000000
 NQMom=    2.0440000   0.0000000   0.0000000   0.0000000   0.0000000   0.0000000   0.0000000   0.0000000   0.0000000   0.0000000
 NMagM=    0.4037610   2.7928460   2.7928460   0.0000000   2.7928460   2.7928460   0.0000000   2.7928460   2.7928460   0.0000000
 AtZNuc=   7.0000000   1.0000000   1.0000000   6.0000000   1.0000000   1.0000000   6.0000000   1.0000000   1.0000000   6.0000000

  Atom        11          12          13          14          15          16          17          18          19          20
 IAtWgt=           1           1          14          12          12           1          12           1          12           1
 AtmWgt=   1.0078250   1.0078250  14.0030740  12.0000000  12.0000000   1.0078250  12.0000000   1.0078250  12.0000000   1.0078250
 NucSpn=           1           1           2           0           0           1           0           1           0           1
 AtZEff=  -0.0000000  -0.0000000  -0.0000000  -0.0000000  -0.0000000  -0.0000000  -0.0000000  -0.0000000  -0.0000000  -0.0000000
 NQMom=    0.0000000   0.0000000   2.0440000   0.0000000   0.0000000   0.0000000   0.0000000   0.0000000   0.0000000   0.0000000
 NMagM=    2.7928460   2.7928460   0.4037610   0.0000000   0.0000000   2.7928460   0.0000000   2.7928460   0.0000000   2.7928460
 AtZNuc=   1.0000000   1.0000000   7.0000000   6.0000000   6.0000000   1.0000000   6.0000000   1.0000000   6.0000000   1.0000000

  Atom        21          22          23          24          25          26          27          28          29          30
 IAtWgt=          12           1          12          12           1           1          12           1           1          12
 AtmWgt=  12.0000000   1.0078250  12.0000000  12.0000000   1.0078250   1.0078250  12.0000000   1.0078250   1.0078250  12.0000000
 NucSpn=           0           1           0           0           1           1           0           1           1           0
 AtZEff=  -0.0000000  -0.0000000  -0.0000000  -0.0000000  -0.0000000  -0.0000000  -0.0000000  -0.0000000  -0.0000000  -0.0000000
 NQMom=    0.0000000   0.0000000   0.0000000   0.0000000   0.0000000   0.0000000   0.0000000   0.0000000   0.0000000   0.0000000
 NMagM=    0.0000000   2.7928460   0.0000000   0.0000000   2.7928460   2.7928460   0.0000000   2.7928460   2.7928460   0.0000000
 AtZNuc=   6.0000000   1.0000000   6.0000000   6.0000000   1.0000000   1.0000000   6.0000000   1.0000000   1.0000000   6.0000000

  Atom        31          32          33          34          35          36          37          38          39          40
 IAtWgt=          12           1          12           1          12           1          12           1          12           1
 AtmWgt=  12.0000000   1.0078250  12.0000000   1.0078250  12.0000000   1.0078250  12.0000000   1.0078250  12.0000000   1.0078250
 NucSpn=           0           1           0           1           0           1           0           1           0           1
 AtZEff=  -0.0000000  -0.0000000  -0.0000000  -0.0000000  -0.0000000  -0.0000000  -0.0000000  -0.0000000  -0.0000000  -0.0000000
 NQMom=    0.0000000   0.0000000   0.0000000   0.0000000   0.0000000   0.0000000   0.0000000   0.0000000   0.0000000   0.0000000
 NMagM=    0.0000000   2.7928460   0.0000000   2.7928460   0.0000000   2.7928460   0.0000000   2.7928460   0.0000000   2.7928460
 AtZNuc=   6.0000000   1.0000000   6.0000000   1.0000000   6.0000000   1.0000000   6.0000000   1.0000000   6.0000000   1.0000000
 Leave Link  101 at Sun Jul 18 13:28:51 2021, MaxMem=   104857600 cpu:               0.5 elap:               0.1
 (Enter /prod/apps/gaussian/g16b1/l103.exe)

 GradGradGradGradGradGradGradGradGradGradGradGradGradGradGradGradGradGrad
 Berny optimization.
 Initialization pass.
                           ----------------------------
                           !    Initial Parameters    !
                           ! (Angstroms and Degrees)  !
 --------------------------                            --------------------------
 ! Name  Definition              Value          Derivative Info.                !
 --------------------------------------------------------------------------------
 ! R1    R(1,2)                  0.9999         estimate D2E/DX2                !
 ! R2    R(1,3)                  1.0004         estimate D2E/DX2                !
 ! R3    R(1,4)                  1.4875         estimate D2E/DX2                !
 ! R4    R(1,40)                 0.9997         estimate D2E/DX2                !
 ! R5    R(4,5)                  1.0935         estimate D2E/DX2                !
 ! R6    R(4,6)                  1.093          estimate D2E/DX2                !
 ! R7    R(4,7)                  1.5572         estimate D2E/DX2                !
 ! R8    R(7,8)                  1.0917         estimate D2E/DX2                !
 ! R9    R(7,9)                  1.0923         estimate D2E/DX2                !
 ! R10   R(7,10)                 1.561          estimate D2E/DX2                !
 ! R11   R(10,11)                1.0931         estimate D2E/DX2                !
 ! R12   R(10,12)                1.0925         estimate D2E/DX2                !
 ! R13   R(10,13)                1.4927         estimate D2E/DX2                !
 ! R14   R(13,14)                1.4325         estimate D2E/DX2                !
 ! R15   R(13,39)                1.3904         estimate D2E/DX2                !
 ! R16   R(14,15)                1.3776         estimate D2E/DX2                !
 ! R17   R(14,23)                1.4201         estimate D2E/DX2                !
 ! R18   R(15,16)                1.0868         estimate D2E/DX2                !
 ! R19   R(15,17)                1.3904         estimate D2E/DX2                !
 ! R20   R(17,18)                1.0873         estimate D2E/DX2                !
 ! R21   R(17,19)                1.4092         estimate D2E/DX2                !
 ! R22   R(19,20)                1.0862         estimate D2E/DX2                !
 ! R23   R(19,21)                1.4394         estimate D2E/DX2                !
 ! R24   R(21,22)                1.0875         estimate D2E/DX2                !
 ! R25   R(21,23)                1.3966         estimate D2E/DX2                !
 ! R26   R(23,24)                1.4798         estimate D2E/DX2                !
 ! R27   R(24,25)                1.0927         estimate D2E/DX2                !
 ! R28   R(24,26)                1.0921         estimate D2E/DX2                !
 ! R29   R(24,27)                1.6029         estimate D2E/DX2                !
 ! R30   R(27,28)                1.0919         estimate D2E/DX2                !
 ! R31   R(27,29)                1.0923         estimate D2E/DX2                !
 ! R32   R(27,30)                1.5727         estimate D2E/DX2                !
 ! R33   R(30,31)                1.426          estimate D2E/DX2                !
 ! R34   R(30,39)                1.3969         estimate D2E/DX2                !
 ! R35   R(31,32)                1.0864         estimate D2E/DX2                !
 ! R36   R(31,33)                1.3795         estimate D2E/DX2                !
 ! R37   R(33,34)                1.0867         estimate D2E/DX2                !
 ! R38   R(33,35)                1.3638         estimate D2E/DX2                !
 ! R39   R(35,36)                1.0872         estimate D2E/DX2                !
 ! R40   R(35,37)                1.3955         estimate D2E/DX2                !
 ! R41   R(37,38)                1.0873         estimate D2E/DX2                !
 ! R42   R(37,39)                1.42           estimate D2E/DX2                !
 ! A1    A(2,1,3)              109.4941         estimate D2E/DX2                !
 ! A2    A(2,1,4)              109.4395         estimate D2E/DX2                !
 ! A3    A(2,1,40)             109.4711         estimate D2E/DX2                !
 ! A4    A(3,1,4)              109.4726         estimate D2E/DX2                !
 ! A5    A(3,1,40)             109.4733         estimate D2E/DX2                !
 ! A6    A(4,1,40)             109.4767         estimate D2E/DX2                !
 ! A7    A(1,4,5)              107.9926         estimate D2E/DX2                !
 ! A8    A(1,4,6)              113.3995         estimate D2E/DX2                !
 ! A9    A(1,4,7)              111.5341         estimate D2E/DX2                !
 ! A10   A(5,4,6)              108.0838         estimate D2E/DX2                !
 ! A11   A(5,4,7)              110.9159         estimate D2E/DX2                !
 ! A12   A(6,4,7)              104.88           estimate D2E/DX2                !
 ! A13   A(4,7,8)              107.4151         estimate D2E/DX2                !
 ! A14   A(4,7,9)              111.2053         estimate D2E/DX2                !
 ! A15   A(4,7,10)             112.2966         estimate D2E/DX2                !
 ! A16   A(8,7,9)              109.3984         estimate D2E/DX2                !
 ! A17   A(8,7,10)             107.12           estimate D2E/DX2                !
 ! A18   A(9,7,10)             109.2746         estimate D2E/DX2                !
 ! A19   A(7,10,11)            110.7526         estimate D2E/DX2                !
 ! A20   A(7,10,12)            106.2591         estimate D2E/DX2                !
 ! A21   A(7,10,13)            114.1492         estimate D2E/DX2                !
 ! A22   A(11,10,12)            99.6378         estimate D2E/DX2                !
 ! A23   A(11,10,13)           111.7845         estimate D2E/DX2                !
 ! A24   A(12,10,13)           113.2177         estimate D2E/DX2                !
 ! A25   A(10,13,14)           116.8569         estimate D2E/DX2                !
 ! A26   A(10,13,39)           117.9718         estimate D2E/DX2                !
 ! A27   A(14,13,39)           125.0738         estimate D2E/DX2                !
 ! A28   A(13,14,15)           117.1344         estimate D2E/DX2                !
 ! A29   A(13,14,23)           118.525          estimate D2E/DX2                !
 ! A30   A(15,14,23)           124.3368         estimate D2E/DX2                !
 ! A31   A(14,15,16)           120.7655         estimate D2E/DX2                !
 ! A32   A(14,15,17)           118.1178         estimate D2E/DX2                !
 ! A33   A(16,15,17)           120.8728         estimate D2E/DX2                !
 ! A34   A(15,17,18)           119.6212         estimate D2E/DX2                !
 ! A35   A(15,17,19)           122.4338         estimate D2E/DX2                !
 ! A36   A(18,17,19)           117.8589         estimate D2E/DX2                !
 ! A37   A(17,19,20)           119.66           estimate D2E/DX2                !
 ! A38   A(17,19,21)           116.484          estimate D2E/DX2                !
 ! A39   A(20,19,21)           123.7181         estimate D2E/DX2                !
 ! A40   A(19,21,22)           120.8683         estimate D2E/DX2                !
 ! A41   A(19,21,23)           123.2159         estimate D2E/DX2                !
 ! A42   A(22,21,23)           114.2848         estimate D2E/DX2                !
 ! A43   A(14,23,21)           115.4067         estimate D2E/DX2                !
 ! A44   A(14,23,24)           121.4068         estimate D2E/DX2                !
 ! A45   A(21,23,24)           122.3819         estimate D2E/DX2                !
 ! A46   A(23,24,25)           116.0239         estimate D2E/DX2                !
 ! A47   A(23,24,26)           105.2047         estimate D2E/DX2                !
 ! A48   A(23,24,27)           110.5304         estimate D2E/DX2                !
 ! A49   A(25,24,26)           110.279          estimate D2E/DX2                !
 ! A50   A(25,24,27)           102.3069         estimate D2E/DX2                !
 ! A51   A(26,24,27)           112.7427         estimate D2E/DX2                !
 ! A52   A(24,27,28)           103.9572         estimate D2E/DX2                !
 ! A53   A(24,27,29)           109.8294         estimate D2E/DX2                !
 ! A54   A(24,27,30)           120.2156         estimate D2E/DX2                !
 ! A55   A(28,27,29)           105.959          estimate D2E/DX2                !
 ! A56   A(28,27,30)           102.7088         estimate D2E/DX2                !
 ! A57   A(29,27,30)           112.546          estimate D2E/DX2                !
 ! A58   A(27,30,31)           119.3778         estimate D2E/DX2                !
 ! A59   A(27,30,39)           124.8789         estimate D2E/DX2                !
 ! A60   A(31,30,39)           115.0387         estimate D2E/DX2                !
 ! A61   A(30,31,32)           115.8216         estimate D2E/DX2                !
 ! A62   A(30,31,33)           127.1141         estimate D2E/DX2                !
 ! A63   A(32,31,33)           117.061          estimate D2E/DX2                !
 ! A64   A(31,33,34)           122.8687         estimate D2E/DX2                !
 ! A65   A(31,33,35)           114.4408         estimate D2E/DX2                !
 ! A66   A(34,33,35)           122.062          estimate D2E/DX2                !
 ! A67   A(33,35,36)           116.4296         estimate D2E/DX2                !
 ! A68   A(33,35,37)           122.5397         estimate D2E/DX2                !
 ! A69   A(36,35,37)           120.6613         estimate D2E/DX2                !
 ! A70   A(35,37,38)           119.8091         estimate D2E/DX2                !
 ! A71   A(35,37,39)           120.8142         estimate D2E/DX2                !
 ! A72   A(38,37,39)           119.2467         estimate D2E/DX2                !
 ! A73   A(13,39,30)           122.9947         estimate D2E/DX2                !
 ! A74   A(13,39,37)           118.0661         estimate D2E/DX2                !
 ! A75   A(30,39,37)           118.9166         estimate D2E/DX2                !
 ! D1    D(2,1,4,5)            171.0546         estimate D2E/DX2                !
 ! D2    D(2,1,4,6)             51.3087         estimate D2E/DX2                !
 ! D3    D(2,1,4,7)            -66.8267         estimate D2E/DX2                !
 ! D4    D(3,1,4,5)             51.0451         estimate D2E/DX2                !
 ! D5    D(3,1,4,6)            -68.7008         estimate D2E/DX2                !
 ! D6    D(3,1,4,7)            173.1638         estimate D2E/DX2                !
 ! D7    D(40,1,4,5)           -68.9616         estimate D2E/DX2                !
 ! D8    D(40,1,4,6)           171.2925         estimate D2E/DX2                !
 ! D9    D(40,1,4,7)            53.1571         estimate D2E/DX2                !
 ! D10   D(1,4,7,8)             64.0364         estimate D2E/DX2                !
 ! D11   D(1,4,7,9)            -55.638          estimate D2E/DX2                !
 ! D12   D(1,4,7,10)          -178.4428         estimate D2E/DX2                !
 ! D13   D(5,4,7,8)           -175.5455         estimate D2E/DX2                !
 ! D14   D(5,4,7,9)             64.7801         estimate D2E/DX2                !
 ! D15   D(5,4,7,10)           -58.0247         estimate D2E/DX2                !
 ! D16   D(6,4,7,8)            -59.0978         estimate D2E/DX2                !
 ! D17   D(6,4,7,9)           -178.7721         estimate D2E/DX2                !
 ! D18   D(6,4,7,10)            58.4231         estimate D2E/DX2                !
 ! D19   D(4,7,10,11)           51.5959         estimate D2E/DX2                !
 ! D20   D(4,7,10,12)          -55.6819         estimate D2E/DX2                !
 ! D21   D(4,7,10,13)          178.8116         estimate D2E/DX2                !
 ! D22   D(8,7,10,11)          169.2921         estimate D2E/DX2                !
 ! D23   D(8,7,10,12)           62.0143         estimate D2E/DX2                !
 ! D24   D(8,7,10,13)          -63.4922         estimate D2E/DX2                !
 ! D25   D(9,7,10,11)          -72.2908         estimate D2E/DX2                !
 ! D26   D(9,7,10,12)         -179.5686         estimate D2E/DX2                !
 ! D27   D(9,7,10,13)           54.9249         estimate D2E/DX2                !
 ! D28   D(7,10,13,14)          60.6091         estimate D2E/DX2                !
 ! D29   D(7,10,13,39)        -122.7988         estimate D2E/DX2                !
 ! D30   D(11,10,13,14)       -172.7092         estimate D2E/DX2                !
 ! D31   D(11,10,13,39)          3.8829         estimate D2E/DX2                !
 ! D32   D(12,10,13,14)        -61.1402         estimate D2E/DX2                !
 ! D33   D(12,10,13,39)        115.452          estimate D2E/DX2                !
 ! D34   D(10,13,14,15)         58.6349         estimate D2E/DX2                !
 ! D35   D(10,13,14,23)       -122.0442         estimate D2E/DX2                !
 ! D36   D(39,13,14,15)       -117.6872         estimate D2E/DX2                !
 ! D37   D(39,13,14,23)         61.6337         estimate D2E/DX2                !
 ! D38   D(10,13,39,30)        127.022          estimate D2E/DX2                !
 ! D39   D(10,13,39,37)        -54.7276         estimate D2E/DX2                !
 ! D40   D(14,13,39,30)        -56.6933         estimate D2E/DX2                !
 ! D41   D(14,13,39,37)        121.5572         estimate D2E/DX2                !
 ! D42   D(13,14,15,16)          4.8028         estimate D2E/DX2                !
 ! D43   D(13,14,15,17)        179.1769         estimate D2E/DX2                !
 ! D44   D(23,14,15,16)       -174.4746         estimate D2E/DX2                !
 ! D45   D(23,14,15,17)         -0.1005         estimate D2E/DX2                !
 ! D46   D(13,14,23,21)       -178.615          estimate D2E/DX2                !
 ! D47   D(13,14,23,24)         11.4252         estimate D2E/DX2                !
 ! D48   D(15,14,23,21)          0.653          estimate D2E/DX2                !
 ! D49   D(15,14,23,24)       -169.3067         estimate D2E/DX2                !
 ! D50   D(14,15,17,18)       -177.0627         estimate D2E/DX2                !
 ! D51   D(14,15,17,19)         -0.5107         estimate D2E/DX2                !
 ! D52   D(16,15,17,18)         -2.6948         estimate D2E/DX2                !
 ! D53   D(16,15,17,19)        173.8572         estimate D2E/DX2                !
 ! D54   D(15,17,19,20)       -175.3838         estimate D2E/DX2                !
 ! D55   D(15,17,19,21)          0.5061         estimate D2E/DX2                !
 ! D56   D(18,17,19,20)          1.226          estimate D2E/DX2                !
 ! D57   D(18,17,19,21)        177.1159         estimate D2E/DX2                !
 ! D58   D(17,19,21,22)        164.7035         estimate D2E/DX2                !
 ! D59   D(17,19,21,23)          0.1018         estimate D2E/DX2                !
 ! D60   D(20,19,21,22)        -19.5907         estimate D2E/DX2                !
 ! D61   D(20,19,21,23)        175.8075         estimate D2E/DX2                !
 ! D62   D(19,21,23,14)         -0.6415         estimate D2E/DX2                !
 ! D63   D(19,21,23,24)        169.2102         estimate D2E/DX2                !
 ! D64   D(22,21,23,14)       -166.1616         estimate D2E/DX2                !
 ! D65   D(22,21,23,24)          3.6901         estimate D2E/DX2                !
 ! D66   D(14,23,24,25)        174.285          estimate D2E/DX2                !
 ! D67   D(14,23,24,26)         52.1183         estimate D2E/DX2                !
 ! D68   D(14,23,24,27)        -69.8579         estimate D2E/DX2                !
 ! D69   D(21,23,24,25)          5.0322         estimate D2E/DX2                !
 ! D70   D(21,23,24,26)       -117.1345         estimate D2E/DX2                !
 ! D71   D(21,23,24,27)        120.8893         estimate D2E/DX2                !
 ! D72   D(23,24,27,28)        -54.734          estimate D2E/DX2                !
 ! D73   D(23,24,27,29)       -167.7379         estimate D2E/DX2                !
 ! D74   D(23,24,27,30)         59.2869         estimate D2E/DX2                !
 ! D75   D(25,24,27,28)         69.4062         estimate D2E/DX2                !
 ! D76   D(25,24,27,29)        -43.5976         estimate D2E/DX2                !
 ! D77   D(25,24,27,30)       -176.5729         estimate D2E/DX2                !
 ! D78   D(26,24,27,28)       -172.1628         estimate D2E/DX2                !
 ! D79   D(26,24,27,29)         74.8333         estimate D2E/DX2                !
 ! D80   D(26,24,27,30)        -58.1419         estimate D2E/DX2                !
 ! D81   D(24,27,30,31)        175.0703         estimate D2E/DX2                !
 ! D82   D(24,27,30,39)        -15.044          estimate D2E/DX2                !
 ! D83   D(28,27,30,31)        -70.255          estimate D2E/DX2                !
 ! D84   D(28,27,30,39)         99.6307         estimate D2E/DX2                !
 ! D85   D(29,27,30,31)         43.2486         estimate D2E/DX2                !
 ! D86   D(29,27,30,39)       -146.8657         estimate D2E/DX2                !
 ! D87   D(27,30,31,32)         -0.5807         estimate D2E/DX2                !
 ! D88   D(27,30,31,33)        178.7288         estimate D2E/DX2                !
 ! D89   D(39,30,31,32)       -171.4313         estimate D2E/DX2                !
 ! D90   D(39,30,31,33)          7.8782         estimate D2E/DX2                !
 ! D91   D(27,30,39,13)         10.4409         estimate D2E/DX2                !
 ! D92   D(27,30,39,37)       -167.7953         estimate D2E/DX2                !
 ! D93   D(31,30,39,13)       -179.2831         estimate D2E/DX2                !
 ! D94   D(31,30,39,37)          2.4807         estimate D2E/DX2                !
 ! D95   D(30,31,33,34)        177.5383         estimate D2E/DX2                !
 ! D96   D(30,31,33,35)        -11.3895         estimate D2E/DX2                !
 ! D97   D(32,31,33,34)         -3.1597         estimate D2E/DX2                !
 ! D98   D(32,31,33,35)        167.9125         estimate D2E/DX2                !
 ! D99   D(31,33,35,36)       -168.488          estimate D2E/DX2                !
 ! D100  D(31,33,35,37)          4.5689         estimate D2E/DX2                !
 ! D101  D(34,33,35,36)          2.6644         estimate D2E/DX2                !
 ! D102  D(34,33,35,37)        175.7213         estimate D2E/DX2                !
 ! D103  D(33,35,37,38)       -170.9943         estimate D2E/DX2                !
 ! D104  D(33,35,37,39)          4.8302         estimate D2E/DX2                !
 ! D105  D(36,35,37,38)          1.7763         estimate D2E/DX2                !
 ! D106  D(36,35,37,39)        177.6008         estimate D2E/DX2                !
 ! D107  D(35,37,39,13)        173.2263         estimate D2E/DX2                !
 ! D108  D(35,37,39,30)         -8.4501         estimate D2E/DX2                !
 ! D109  D(38,37,39,13)        -10.926          estimate D2E/DX2                !
 ! D110  D(38,37,39,30)        167.3976         estimate D2E/DX2                !
 --------------------------------------------------------------------------------
 Trust Radius=3.00D-01 FncErr=1.00D-07 GrdErr=1.00D-06 EigMax=2.50D+02 EigMin=1.00D-04
 Number of steps in this run=    237 maximum allowed number of steps=    240.
 GradGradGradGradGradGradGradGradGradGradGradGradGradGradGradGradGradGrad

 Leave Link  103 at Sun Jul 18 13:28:51 2021, MaxMem=   104857600 cpu:               0.1 elap:               0.0
 (Enter /prod/apps/gaussian/g16b1/l202.exe)
                          Input orientation:                          
 ---------------------------------------------------------------------
 Center     Atomic      Atomic             Coordinates (Angstroms)
 Number     Number       Type             X           Y           Z
 ---------------------------------------------------------------------
      1          7           0       -2.493000    1.179000    3.995000
      2          1           0       -2.883000    1.991000    3.561000
      3          1           0       -2.510000    1.291000    4.989000
      4          6           0       -1.088000    1.001000    3.540000
      5          1           0       -0.635000    0.210000    4.144000
      6          1           0       -0.479000    1.902000    3.649000
      7          6           0       -1.018000    0.652000    2.024000
      8          1           0       -1.410000    1.509000    1.473000
      9          1           0       -1.617000   -0.232000    1.794000
     10          6           0        0.447000    0.423000    1.536000
     11          1           0        0.961000   -0.297000    2.178000
     12          1           0        1.001000    1.328000    1.796000
     13          7           0        0.560000    0.058000    0.093000
     14          6           0        0.065000    1.010000   -0.856000
     15          6           0        0.626000    2.268000   -0.835000
     16          1           0        1.462000    2.493000   -0.178000
     17          6           0        0.173000    3.203000   -1.759000
     18          1           0        0.632000    4.188000   -1.796000
     19          6           0       -0.822000    2.904000   -2.711000
     20          1           0       -1.089000    3.644000   -3.460000
     21          6           0       -1.364000    1.571000   -2.676000
     22          1           0       -2.289000    1.331000   -3.195000
     23          6           0       -0.951000    0.601000   -1.760000
     24          6           0       -1.672000   -0.679000   -1.582000
     25          1           0       -2.501000   -0.862000   -2.270000
     26          1           0       -2.032000   -0.664000   -0.551000
     27          6           0       -0.700000   -1.918000   -1.881000
     28          1           0       -0.318000   -1.717000   -2.884000
     29          1           0       -1.285000   -2.837000   -1.961000
     30          6           0        0.616000   -2.112000   -1.042000
     31          6           0        1.413000   -3.276000   -1.250000
     32          1           0        1.041000   -3.978000   -1.991000
     33          6           0        2.601000   -3.594000   -0.625000
     34          1           0        3.134000   -4.523000   -0.809000
     35          6           0        3.151000   -2.574000    0.094000
     36          1           0        4.172000   -2.720000    0.438000
     37          6           0        2.512000   -1.345000    0.263000
     38          1           0        3.048000   -0.515000    0.717000
     39          6           0        1.197000   -1.135000   -0.230000
     40          1           0       -3.030000    0.375000    3.741000
 ---------------------------------------------------------------------
                    Distance matrix (angstroms):
                    1          2          3          4          5
     1  N    0.000000
     2  H    0.999900   0.000000
     3  H    1.000434   1.633497   0.000000
     4  C    1.487526   2.050016   2.050801   0.000000
     5  H    2.100792   2.926663   2.323405   1.093483   0.000000
     6  H    2.167635   2.407256   2.508761   1.092961   1.769809
     7  C    2.517577   2.762882   3.380179   1.557227   2.199194
     8  H    2.764466   2.600346   3.690499   2.152728   3.069571
     9  H    2.757299   3.109144   3.650343   2.201964   2.584993
    10  C    3.906638   4.200970   4.628227   2.589657   2.831564
    11  H    4.172551   4.682304   4.740391   2.781771   2.582522
    12  H    4.131082   4.317436   4.745918   2.740873   3.072381
    13  N    5.079671   5.255260   5.908977   3.935348   4.226314
    14  C    5.486723   5.400274   6.393247   4.544701   5.111751
    15  C    5.851750   5.631574   6.686404   4.866591   5.533166
    16  H    5.897673   5.754229   6.627177   4.748904   5.318758
    17  C    6.656775   6.253837   7.509310   5.875230   6.667557
    18  H    7.235702   6.773440   8.018790   6.448896   7.260398
    19  C    7.123082   6.664779   8.046186   6.539661   7.367743
    20  H    7.976495   7.432717   8.884900   7.482343   8.355794
    21  C    6.777208   6.433034   7.755252   6.248178   6.992579
    22  H    7.194499   6.814101   8.187081   6.849199   7.606134
    23  C    5.985973   5.829045   6.961004   5.316838   5.925365
    24  C    5.935414   5.919955   6.910947   5.422024   5.886660
    25  H    6.589080   6.502776   7.571563   6.262862   6.765393
    26  H    4.926996   4.968075   5.894244   4.516596   4.975792
    27  C    6.879944   7.047066   7.795555   6.169145   6.390089
    28  H    7.774193   7.865527   8.708447   7.017706   7.294286
    29  H    7.284329   7.507041   8.175788   6.710444   6.854030
    30  C    6.772587   7.089797   7.597713   5.795611   5.818185
    31  C    7.912894   8.327222   8.670210   6.891432   6.741049
    32  H    8.655403   9.047179   9.438875   7.740481   7.614890
    33  C    8.371067   8.876321   9.027876   7.215953   6.905467
    34  H    9.341004   9.886020   9.963641   8.200833   7.819134
    35  C    7.820329   8.322768   8.422955   6.528757   6.203785
    36  H    8.501569   9.039894   9.024901   7.150933   6.739925
    37  C    6.734124   7.149246   7.382686   5.403929   5.232953
    38  H    6.657147   7.038830   7.238991   5.232025   5.082759
    39  C    6.068057   6.386702   6.845823   4.898635   4.929211
    40  H    0.999650   1.632625   1.633083   2.050278   2.434268
                    6          7          8          9         10
     6  H    0.000000
     7  C    2.119822   0.000000
     8  H    2.399205   1.091657   0.000000
     9  H    3.047954   1.092317   1.782406   0.000000
    10  C    2.740381   1.561029   2.152165   2.180753   0.000000
    11  H    3.012149   2.200172   3.062728   2.607252   1.093051
    12  H    2.439976   2.141336   2.439264   3.047545   1.092493
    13  N    4.138235   2.563529   2.809039   2.777918   1.492730
    14  C    4.624568   3.097653   2.801583   3.375528   2.492420
    15  C    4.632627   3.672611   3.169896   4.265289   3.009602
    16  H    4.331592   3.793216   3.455784   4.560115   2.872790
    17  C    5.600372   4.715630   3.977606   5.256152   4.319780
    18  H    6.009005   5.460604   4.693950   6.122295   5.031071
    19  C    6.447577   5.246918   4.449452   5.546309   5.079639
    20  H    7.344695   6.247508   5.384771   6.550319   6.139556
    21  C    6.395187   4.801487   4.149718   4.826564   4.726370
    22  H    7.102287   5.414281   4.753372   5.271117   5.540083
    23  C    5.583249   3.784937   3.389312   3.710574   3.584648
    24  C    5.953837   3.899040   3.766831   3.405908   3.927657
    25  H    6.838329   4.788520   4.563110   4.206477   4.982727
    26  H    5.161024   3.064421   3.034038   2.420305   3.417979
    27  C    6.724741   4.685622   4.847447   4.145975   4.297881
    28  H    7.470152   5.494600   5.530189   5.077038   4.970033
    29  H    7.387818   5.303266   5.540370   4.582169   5.084922
    30  C    6.270303   4.439595   4.851963   4.069838   3.619512
    31  C    7.375063   5.661980   6.187106   5.264292   4.730492
    32  H    8.288208   6.465029   6.936416   5.951782   5.671099
    33  C    7.613113   6.175992   6.821315   5.911525   5.044396
    34  H    8.614416   7.214265   7.889264   6.910882   6.097697
    35  C    6.771226   5.613603   6.274970   5.577525   4.286372
    36  H    7.301041   6.389200   7.079152   6.445262   4.995966
    37  C    5.563640   4.421542   4.999150   4.542177   3.001762
    38  H    5.184423   4.427470   4.953976   4.796065   2.883714
    39  C    5.203747   3.630442   4.085021   3.581980   2.471562
    40  H    2.974524   2.659504   3.009016   2.481094   4.117506
                   11         12         13         14         15
    11  H    0.000000
    12  H    1.669775   0.000000
    13  N    2.152685   2.169698   0.000000
    14  C    3.422897   2.830252   1.432456   0.000000
    15  C    3.971098   2.818933   2.397841   1.377580   0.000000
    16  H    3.685897   2.338038   2.610799   2.147227   1.086816
    17  C    5.326435   4.103564   3.670245   2.374094   1.390399
    18  H    6.001345   4.606324   4.542071   3.362257   2.147081
    19  C    6.109649   5.110788   4.227535   2.795538   2.453686
    20  H    7.177815   6.112078   5.310594   3.879496   3.424212
    21  C    5.697049   5.064687   3.695715   2.381000   2.799141
    22  H    6.487065   5.977808   4.533020   3.333958   3.865850
    23  C    4.468780   4.121161   2.451852   1.420124   2.474155
    24  C    4.606106   4.752248   2.886281   2.529222   3.810987
    25  H    5.664748   5.795900   3.974908   3.476800   4.651264
    26  H    4.066962   4.321523   2.766674   2.700502   3.967650
    27  C    4.675686   5.191363   3.064123   3.195158   4.513866
    28  H    5.410738   5.737089   3.575477   3.419942   4.579275
    29  H    5.350461   6.057068   4.000496   4.224090   5.566042
    30  C    3.712364   4.476167   2.449543   3.175702   4.384900
    31  C    4.563982   5.535763   3.694159   4.510226   5.614938
    32  H    5.562079   6.518942   4.567681   5.207777   6.365617
    33  C    4.627809   5.713784   4.244798   5.261319   6.189327
    34  H    5.612769   6.750549   5.331476   6.327326   7.239366
    35  C    3.784691   4.769162   3.693333   4.823998   5.539281
    36  H    4.382813   5.318431   4.569776   5.696910   6.250983
    37  C    2.677897   3.431929   2.409899   3.575751   4.220944
    38  H    2.556876   2.958226   2.628279   3.701114   4.002484
    39  C    2.560548   3.195225   1.390448   2.504860   3.503209
    40  H    4.338506   4.576046   5.128011   5.578052   6.155450
                   16         17         18         19         20
    16  H    0.000000
    17  C    2.159903   0.000000
    18  H    2.485930   1.087325   0.000000
    19  C    3.435355   1.409159   2.144760   0.000000
    20  H    4.313227   2.163452   2.454928   1.086227   0.000000
    21  C    3.882829   2.422123   3.406920   1.439402   2.233296
    22  H    4.952023   3.409974   4.318784   2.204694   2.619197
    23  C    3.450356   2.834393   3.920938   2.494965   3.488394
    24  C    4.674907   4.301776   5.389054   3.851627   4.749221
    25  H    5.598023   4.892405   5.961784   4.146840   4.869690
    26  H    4.723750   4.612481   5.673520   4.342847   5.283029
    27  C    5.199171   5.196312   6.250175   4.894432   5.794860
    28  H    5.311773   5.070809   6.079085   4.651622   5.446700
    29  H    6.255717   6.216765   7.283731   5.808266   6.654981
    30  C    4.761117   5.381409   6.344980   5.478473   6.471884
    31  C    5.867959   6.616201   7.524585   6.732172   7.683131
    32  H    6.733354   7.236989   8.178561   7.165968   8.049208
    33  C    6.208760   7.306186   8.112196   7.634941   8.604764
    34  H    7.240028   8.328331   9.116781   8.627159   9.568773
    35  C    5.348008   6.758389   7.459364   7.325383   8.322983
    36  H    5.907531   7.476680   8.077303   8.153871   9.130883
    37  C    4.003402   5.499428   6.195803   6.165568   7.191526
    38  H    3.516317   5.312224   5.854095   6.198197   7.201346
    39  C    3.638037   4.712182   5.577267   5.152208   6.204638
    40  H    6.326338   6.964682   7.655559   7.273198   8.142987
                   21         22         23         24         25
    21  C    0.000000
    22  H    1.087468   0.000000
    23  C    1.396612   2.093411   0.000000
    24  C    2.520754   2.650011   1.479840   0.000000
    25  H    2.716081   2.389523   2.191568   1.092737   0.000000
    26  H    3.155483   3.322169   2.056810   1.092147   1.792798
    27  C    3.639511   3.848054   2.534364   1.602905   2.123690
    28  H    3.456635   3.643057   2.652770   2.146151   2.423533
    29  H    4.466311   4.461277   3.460029   2.224944   2.339821
    30  C    4.489415   4.992863   3.214247   2.753186   3.575776
    31  C    5.765294   6.221919   4.569434   4.046215   4.710328
    32  H    6.086432   6.381536   4.998866   4.290810   4.725787
    33  C    6.826789   7.400853   5.612749   5.260380   6.016665
    34  H    7.800931   8.328940   6.621707   6.202540   6.876821
    35  C    6.726006   7.460573   5.508570   5.446222   6.361175
    36  H    7.665310   8.447119   6.488865   6.511407   7.437362
    37  C    5.671345   6.493716   4.457781   4.620978   5.637335
    38  H    5.943870   6.869864   4.834562   5.252685   6.311417
    39  C    4.456913   5.198517   3.157293   3.204216   4.232178
    40  H    6.736754   7.040676   5.885093   5.593694   6.159718
                   26         27         28         29         30
    26  H    0.000000
    27  C    2.261778   0.000000
    28  H    3.080502   1.091940   0.000000
    29  H    2.695930   1.092331   1.743966   0.000000
    30  C    3.057726   1.572709   2.102699   2.232484   0.000000
    31  C    4.379403   2.589806   2.845487   2.824437   1.425962
    32  H    4.743366   2.699404   2.785041   2.590957   2.136161
    33  C    5.482250   3.909362   4.140866   4.178390   2.512059
    34  H    6.453371   4.757601   4.908723   4.867983   3.493928
    35  C    5.561260   4.377346   4.651547   4.895946   2.816055
    36  H    6.610210   5.455030   5.674662   5.962192   3.899385
    37  C    4.666293   3.904102   4.248634   4.646445   2.426135
    38  H    5.237979   4.771322   5.073654   5.598058   3.399870
    39  C    3.278921   2.633913   3.110895   3.471814   1.396937
    40  H    4.527338   6.503356   7.458018   6.773092   6.508116
                   31         32         33         34         35
    31  C    0.000000
    32  H    1.086402   0.000000
    33  C    1.379526   2.108794   0.000000
    34  H    2.170560   2.464711   1.086732   0.000000
    35  C    2.306466   3.281850   1.363767   2.148092   0.000000
    36  H    3.281853   4.157615   2.088513   2.425544   1.087241
    37  C    2.688072   3.765242   2.419600   3.411122   1.395465
    38  H    3.763700   4.832565   3.388365   4.289538   2.153652
    39  C    2.381373   3.347851   2.859007   3.945346   2.448227
    40  H    7.614469   8.269067   8.156168   9.093283   7.758993
                   36         37         38         39         40
    36  H    0.000000
    37  C    2.162603   0.000000
    38  H    2.490631   1.087342   0.000000
    39  C    3.436433   1.419991   2.169657   0.000000
    40  H    8.506329   6.765253   6.846807   5.993035   0.000000
 Stoichiometry    C17H21N2(1+)
 Framework group  C1[X(C17H21N2)]
 Deg. of freedom   114
 Full point group                 C1      NOp   1
 Largest Abelian subgroup         C1      NOp   1
 Largest concise Abelian subgroup C1      NOp   1
                         Standard orientation:                         
 ---------------------------------------------------------------------
 Center     Atomic      Atomic             Coordinates (Angstroms)
 Number     Number       Type             X           Y           Z
 ---------------------------------------------------------------------
      1          7           0        3.894474   -3.027676    0.992570
      2          1           0        4.549136   -2.274592    0.928673
      3          1           0        4.366239   -3.894831    0.830243
      4          6           0        2.828124   -2.844624   -0.028274
      5          1           0        2.219901   -3.753129   -0.048030
      6          1           0        3.216287   -2.674245   -1.035678
      7          6           0        1.951124   -1.595058    0.278995
      8          1           0        2.596064   -0.717308    0.206058
      9          1           0        1.524224   -1.649171    1.282980
     10          6           0        0.801512   -1.408243   -0.760381
     11          1           0        0.228045   -2.331842   -0.873787
     12          1           0        1.279917   -1.368327   -1.741746
     13          7           0       -0.082934   -0.236821   -0.488781
     14          6           0        0.537376    1.054335   -0.480927
     15          6           0        1.185774    1.446866   -1.631242
     16          1           0        1.152829    0.830635   -2.525862
     17          6           0        1.780147    2.703646   -1.652086
     18          1           0        2.256809    3.057673   -2.562983
     19          6           0        1.731188    3.581188   -0.550609
     20          1           0        2.145380    4.581246   -0.641270
     21          6           0        1.037585    3.106521    0.617930
     22          1           0        1.159948    3.601021    1.578702
     23          6           0        0.435534    1.848515    0.691959
     24          6           0       -0.067083    1.284059    1.964236
     25          1           0       -0.018223    1.943864    2.833916
     26          1           0        0.531434    0.386760    2.135754
     27          6           0       -1.635842    0.971950    1.859879
     28          1           0       -2.073559    1.923085    1.549910
     29          1           0       -2.039438    0.765280    2.853651
     30          6           0       -2.173270   -0.027460    0.770952
     31          6           0       -3.556506   -0.373770    0.761161
     32          1           0       -4.164207    0.083118    1.537191
     33          6           0       -4.199256   -1.208855   -0.129119
     34          1           0       -5.254351   -1.456517   -0.048971
     35          6           0       -3.457615   -1.545760   -1.222886
     36          1           0       -3.988078   -2.037892   -2.034372
     37          6           0       -2.125887   -1.157701   -1.375311
     38          1           0       -1.620129   -1.322115   -2.323724
     39          6           0       -1.445226   -0.469697   -0.336213
     40          1           0        3.484929   -3.036710    1.904432
 ---------------------------------------------------------------------
 Rotational constants (GHZ):           0.4046352           0.3109564           0.2249031
 Leave Link  202 at Sun Jul 18 13:28:51 2021, MaxMem=   104857600 cpu:               0.1 elap:               0.0
 (Enter /prod/apps/gaussian/g16b1/l301.exe)
 Standard basis: 6-31G(d) (6D, 7F)
 Ernie: Thresh=  0.10000D-02 Tol=  0.10000D-05 Strict=F.
 There are   327 symmetry adapted cartesian basis functions of A   symmetry.
 There are   327 symmetry adapted basis functions of A   symmetry.
   327 basis functions,   616 primitive gaussians,   327 cartesian basis functions
    68 alpha electrons       68 beta electrons
       nuclear repulsion energy      1409.6194197838 Hartrees.
 IExCor=  402 DFT=T Ex+Corr=B3LYP ExCW=0 ScaHFX=  0.200000
 ScaDFX=  0.800000  0.720000  1.000000  0.810000 ScalE2=  1.000000  1.000000
 IRadAn=      5 IRanWt=     -1 IRanGd=            0 ICorTp=0 IEmpDi=  4
 NAtoms=   40 NActive=   40 NUniq=   40 SFac= 1.00D+00 NAtFMM=   60 NAOKFM=F Big=F
 Integral buffers will be    131072 words long.
 Raffenetti 2 integral format.
 Two-electron integral symmetry is turned on.
 Using the following non-standard input for PCM:
 MSTModel=DFT cav MSTCharged
 --- end of non-standard input.
 MST model for solvation energy: B3LYP parametrization.
 MST cavity parameters:
 ISph   IAn     Re0     Alpha   Atom Type   QCorr
 ------------------------------------------------
   1      7     1.70     1.15      NH         T
   2      1     0.90     1.15      NH         T
   3      1     0.90     1.15      NH         T
   4      6     1.50     1.25      CH2        F
   5      1     1.20     1.25      CH2        F
   6      1     1.20     1.25      CH2        F
   7      6     1.50     1.25      CH2        F
   8      1     1.20     1.25      CH2        F
   9      1     1.20     1.25      CH2        F
  10      6     1.50     1.25      CH2        F
  11      1     1.20     1.25      CH2        F
  12      1     1.20     1.25      CH2        F
  13      7     1.40     1.25      N          F
  14      6     1.50     1.25      C          F
  15      6     1.50     1.25      CH         F
  16      1     1.20     1.25      CH         F
  17      6     1.50     1.25      CH         F
  18      1     1.20     1.25      CH         F
  19      6     1.50     1.25      CH         F
  20      1     1.20     1.25      CH         F
  21      6     1.50     1.25      CH         F
  22      1     1.20     1.25      CH         F
  23      6     1.50     1.25      C          F
  24      6     1.50     1.25      CH2        F
  25      1     1.20     1.25      CH2        F
  26      1     1.20     1.25      CH2        F
  27      6     1.50     1.25      CH2        F
  28      1     1.20     1.25      CH2        F
  29      1     1.20     1.25      CH2        F
  30      6     1.50     1.25      C          F
  31      6     1.50     1.25      CH         F
  32      1     1.20     1.25      CH         F
  33      6     1.50     1.25      CH         F
  34      1     1.20     1.25      CH         F
  35      6     1.50     1.25      CH         F
  36      1     1.20     1.25      CH         F
  37      6     1.50     1.25      CH         F
  38      1     1.20     1.25      CH         F
  39      6     1.50     1.25      C          F
  40      1     0.90     1.15      NH         T
 ------------------------------------------------------------------------------
 Polarizable Continuum Model (PCM)
 =================================
 Model                : PCM.
 Atomic radii         : MST.
 Polarization charges : Total charges.
 Charge compensation  : None.
 Solution method      : On-the-fly selection.
 Cavity type          : Scaled VdW (van der Waals Surface) (Alpha=1.250).
 Cavity algorithm     : GePol (No added spheres)
                        Default sphere list used, NSphG=   40.
                        Lebedev-Laikov grids with approx.  5.0 points / Ang**2.
                        Smoothing algorithm: York/Karplus (Gamma=1.0000).
                        Polarization charges: spherical gaussians, with
                                              point-specific exponents (IZeta= 3).
                        Self-potential: point-specific (ISelfS= 7).
                        Self-field    : sphere-specific E.n sum rule (ISelfD= 2).
 1st derivatives      : Analytical E(r).r(x)/FMM algorithm (CHGder, D1EAlg=3).
                        Cavity 1st derivative terms included.
 Solvent              : Water, Eps=  78.355300 Eps(inf)=   1.777849
 ------------------------------------------------------------------------------
 GePol: Number of generator spheres                  =      40
 GePol: Total number of spheres                      =      40
 GePol: Number of exposed spheres                    =      40 (100.00%)
 GePol: Number of points                             =    2701
 GePol: Average weight of points                     =       0.13
 GePol: Minimum weight of points                     =   0.18D-10
 GePol: Maximum weight of points                     =    0.21416
 GePol: Number of points with low weight             =     199
 GePol: Fraction of low-weight points (<1% of avg)   =       7.37%
 GePol: Cavity surface area                          =    340.323 Ang**2
 GePol: Cavity volume                                =    332.833 Ang**3
 PCM non-electrostatic energy =         0.0016320437 Hartrees.
 Nuclear repulsion after PCM non-electrostatic terms =     1409.6210518275 Hartrees.
 Leave Link  301 at Sun Jul 18 13:28:51 2021, MaxMem=   104857600 cpu:               0.3 elap:               0.1
 (Enter /prod/apps/gaussian/g16b1/l302.exe)
 NPDir=0 NMtPBC=     1 NCelOv=     1 NCel=       1 NClECP=     1 NCelD=      1
         NCelK=      1 NCelE2=     1 NClLst=     1 CellRange=     0.0.
 One-electron integrals computed using PRISM.
 One-electron integral symmetry used in STVInt
 NBasis=   327 RedAO= T EigKep=  4.48D-04  NBF=   327
 NBsUse=   327 1.00D-06 EigRej= -1.00D+00 NBFU=   327
 Precomputing XC quadrature grid using
 IXCGrd= 4 IRadAn=           5 IRanWt=          -1 IRanGd=           0 AccXCQ= 0.00D+00.
 Generated NRdTot=       0 NPtTot=           0 NUsed=           0 NTot=          32
 NSgBfM=   326   326   326   326   326 MxSgAt=    40 MxSgA2=    40.
 Leave Link  302 at Sun Jul 18 13:28:52 2021, MaxMem=   104857600 cpu:               2.1 elap:               0.6
 (Enter /prod/apps/gaussian/g16b1/l303.exe)
 DipDrv:  MaxL=1.
 Leave Link  303 at Sun Jul 18 13:28:52 2021, MaxMem=   104857600 cpu:               0.2 elap:               0.1
 (Enter /prod/apps/gaussian/g16b1/l401.exe)
 ExpMin= 1.61D-01 ExpMax= 4.17D+03 ExpMxC= 6.27D+02 IAcc=3 IRadAn=         5 AccDes= 0.00D+00
 Harris functional with IExCor=  402 and IRadAn=       5 diagonalized for initial guess.
 HarFok:  IExCor=  402 AccDes= 0.00D+00 IRadAn=         5 IDoV= 1 UseB2=F ITyADJ=14
 ICtDFT=  3500011 ScaDFX=  1.000000  1.000000  1.000000  1.000000
 FoFCou: FMM=F IPFlag=           0 FMFlag=      100000 FMFlg1=           0
         NFxFlg=           0 DoJE=T BraDBF=F KetDBF=T FulRan=T
         wScrn=  0.000000 ICntrl=       500 IOpCl=  0 I1Cent=   200000004 NGrid=           0
         NMat0=    1 NMatS0=      1 NMatT0=    0 NMatD0=    1 NMtDS0=    0 NMtDT0=    0
 Petite list used in FoFCou.
 Harris En= -769.728236540054    
 JPrj=0 DoOrth=F DoCkMO=F.
 Leave Link  401 at Sun Jul 18 13:28:55 2021, MaxMem=   104857600 cpu:              12.7 elap:               3.2
 (Enter /prod/apps/gaussian/g16b1/l502.exe)
 Integral symmetry usage will be decided dynamically.
 Closed shell SCF:
 Using DIIS extrapolation, IDIIS=  1040.
 NGot=   104857600 LenX=   104637967 LenY=   104530597
 Requested convergence on RMS density matrix=1.00D-08 within 128 cycles.
 Requested convergence on MAX density matrix=1.00D-06.
 Requested convergence on             energy=1.00D-06.
 No special actions if energy rises.
 Fock matrices will be formed incrementally for  20 cycles.

 Cycle   1  Pass 1  IDiag  1:
 FoFJK:  IHMeth= 1 ICntrl=       0 DoSepK=F KAlg= 0 I1Cent=           0 FoldK=F
 IRaf= 830000000 NMat=       1 IRICut=       1 DoRegI=T DoRafI=F ISym2E= 0 IDoP0=0 IntGTp=1.
 FoFCou: FMM=F IPFlag=           0 FMFlag=      100000 FMFlg1=           0
         NFxFlg=           0 DoJE=F BraDBF=F KetDBF=F FulRan=T
         wScrn=  0.000000 ICntrl=         0 IOpCl=  0 I1Cent=           0 NGrid=           0
         NMat0=    1 NMatS0=      1 NMatT0=    0 NMatD0=    1 NMtDS0=    0 NMtDT0=    0
 Symmetry not used in FoFCou.
 Inv3:  Mode=1 IEnd=    21886203.
 Iteration    1 A*A^-1 deviation from unit magnitude is 4.22D-15 for   1816.
 Iteration    1 A*A^-1 deviation from orthogonality  is 2.42D-15 for   1646    641.
 Iteration    1 A^-1*A deviation from unit magnitude is 4.22D-15 for   1816.
 Iteration    1 A^-1*A deviation from orthogonality  is 6.40D-14 for   1604   1595.
 E= -769.404629723127    
 DIIS: error= 2.00D-02 at cycle   1 NSaved=   1.
 NSaved= 1 IEnMin= 1 EnMin= -769.404629723127     IErMin= 1 ErrMin= 2.00D-02
 ErrMax= 2.00D-02  0.00D+00 EMaxC= 1.00D-01 BMatC= 3.56D-01 BMatP= 3.56D-01
 IDIUse=3 WtCom= 8.00D-01 WtEn= 2.00D-01
 Coeff-Com:  0.100D+01
 Coeff-En:   0.100D+01
 Coeff:      0.100D+01
 Gap=     0.226 Goal=   None    Shift=    0.000
 GapD=    0.226 DampG=1.000 DampE=0.500 DampFc=0.5000 IDamp=-1.
 Damping current iteration by 5.00D-01
 RMSDP=3.95D-03 MaxDP=1.05D-01              OVMax= 1.54D-01

 Cycle   2  Pass 1  IDiag  1:
 RMSU=  1.92D-03    CP:  9.75D-01
 E= -769.594561037313     Delta-E=       -0.189931314186 Rises=F Damp=T
 DIIS: error= 5.03D-03 at cycle   2 NSaved=   2.
 NSaved= 2 IEnMin= 2 EnMin= -769.594561037313     IErMin= 2 ErrMin= 5.03D-03
 ErrMax= 5.03D-03  0.00D+00 EMaxC= 1.00D-01 BMatC= 2.25D-02 BMatP= 3.56D-01
 IDIUse=3 WtCom= 9.50D-01 WtEn= 5.03D-02
 Coeff-Com: -0.303D-01 0.103D+01
 Coeff-En:   0.000D+00 0.100D+01
 Coeff:     -0.288D-01 0.103D+01
 Gap=     0.190 Goal=   None    Shift=    0.000
 RMSDP=1.02D-03 MaxDP=3.61D-02 DE=-1.90D-01 OVMax= 1.10D-01

 Cycle   3  Pass 1  IDiag  1:
 RMSU=  1.01D-03    CP:  9.66D-01  1.04D+00
 E= -769.775091351535     Delta-E=       -0.180530314222 Rises=F Damp=F
 DIIS: error= 5.37D-03 at cycle   3 NSaved=   3.
 NSaved= 3 IEnMin= 3 EnMin= -769.775091351535     IErMin= 2 ErrMin= 5.03D-03
 ErrMax= 5.37D-03  0.00D+00 EMaxC= 1.00D-01 BMatC= 1.59D-02 BMatP= 2.25D-02
 IDIUse=3 WtCom= 9.46D-01 WtEn= 5.37D-02
 Coeff-Com: -0.608D-01 0.486D+00 0.575D+00
 Coeff-En:   0.000D+00 0.000D+00 0.100D+01
 Coeff:     -0.576D-01 0.460D+00 0.598D+00
 Gap=     0.200 Goal=   None    Shift=    0.000
 RMSDP=6.93D-04 MaxDP=3.27D-02 DE=-1.81D-01 OVMax= 7.15D-02

 Cycle   4  Pass 1  IDiag  1:
 RMSU=  5.52D-04    CP:  9.65D-01  1.09D+00  5.96D-01
 E= -769.785543731459     Delta-E=       -0.010452379924 Rises=F Damp=F
 DIIS: error= 3.30D-03 at cycle   4 NSaved=   4.
 NSaved= 4 IEnMin= 4 EnMin= -769.785543731459     IErMin= 4 ErrMin= 3.30D-03
 ErrMax= 3.30D-03  0.00D+00 EMaxC= 1.00D-01 BMatC= 5.73D-03 BMatP= 1.59D-02
 IDIUse=3 WtCom= 9.67D-01 WtEn= 3.30D-02
 Coeff-Com: -0.266D-01 0.102D+00 0.390D+00 0.534D+00
 Coeff-En:   0.000D+00 0.000D+00 0.306D+00 0.694D+00
 Coeff:     -0.257D-01 0.988D-01 0.387D+00 0.540D+00
 Gap=     0.188 Goal=   None    Shift=    0.000
 RMSDP=3.12D-04 MaxDP=1.41D-02 DE=-1.05D-02 OVMax= 2.89D-02

 Cycle   5  Pass 1  IDiag  1:
 RMSU=  9.48D-05    CP:  9.65D-01  1.08D+00  7.30D-01  5.20D-01
 E= -769.791679713664     Delta-E=       -0.006135982204 Rises=F Damp=F
 DIIS: error= 2.59D-04 at cycle   5 NSaved=   5.
 NSaved= 5 IEnMin= 5 EnMin= -769.791679713664     IErMin= 5 ErrMin= 2.59D-04
 ErrMax= 2.59D-04  0.00D+00 EMaxC= 1.00D-01 BMatC= 9.77D-05 BMatP= 5.73D-03
 IDIUse=3 WtCom= 9.97D-01 WtEn= 2.59D-03
 Coeff-Com: -0.792D-02 0.205D-01 0.136D+00 0.228D+00 0.623D+00
 Coeff-En:   0.000D+00 0.000D+00 0.000D+00 0.000D+00 0.100D+01
 Coeff:     -0.790D-02 0.204D-01 0.136D+00 0.228D+00 0.624D+00
 Gap=     0.188 Goal=   None    Shift=    0.000
 RMSDP=4.52D-05 MaxDP=1.68D-03 DE=-6.14D-03 OVMax= 3.65D-03

 Cycle   6  Pass 1  IDiag  1:
 RMSU=  3.09D-05    CP:  9.65D-01  1.09D+00  7.32D-01  5.56D-01  7.25D-01
 E= -769.791763139326     Delta-E=       -0.000083425662 Rises=F Damp=F
 DIIS: error= 1.23D-04 at cycle   6 NSaved=   6.
 NSaved= 6 IEnMin= 6 EnMin= -769.791763139326     IErMin= 6 ErrMin= 1.23D-04
 ErrMax= 1.23D-04  0.00D+00 EMaxC= 1.00D-01 BMatC= 1.71D-05 BMatP= 9.77D-05
 IDIUse=3 WtCom= 9.99D-01 WtEn= 1.23D-03
 Coeff-Com: -0.234D-02 0.351D-02 0.444D-01 0.828D-01 0.352D+00 0.520D+00
 Coeff-En:   0.000D+00 0.000D+00 0.000D+00 0.000D+00 0.105D+00 0.895D+00
 Coeff:     -0.234D-02 0.351D-02 0.444D-01 0.827D-01 0.351D+00 0.521D+00
 Gap=     0.188 Goal=   None    Shift=    0.000
 RMSDP=1.48D-05 MaxDP=5.67D-04 DE=-8.34D-05 OVMax= 1.22D-03

 Cycle   7  Pass 1  IDiag  1:
 RMSU=  6.70D-06    CP:  9.65D-01  1.08D+00  7.34D-01  5.58D-01  7.70D-01
                    CP:  6.02D-01
 E= -769.791780130972     Delta-E=       -0.000016991647 Rises=F Damp=F
 DIIS: error= 2.52D-05 at cycle   7 NSaved=   7.
 NSaved= 7 IEnMin= 7 EnMin= -769.791780130972     IErMin= 7 ErrMin= 2.52D-05
 ErrMax= 2.52D-05  0.00D+00 EMaxC= 1.00D-01 BMatC= 6.32D-07 BMatP= 1.71D-05
 IDIUse=1 WtCom= 1.00D+00 WtEn= 0.00D+00
 Coeff-Com: -0.748D-03 0.737D-03 0.148D-01 0.281D-01 0.140D+00 0.249D+00
 Coeff-Com:  0.567D+00
 Coeff:     -0.748D-03 0.737D-03 0.148D-01 0.281D-01 0.140D+00 0.249D+00
 Coeff:      0.567D+00
 Gap=     0.188 Goal=   None    Shift=    0.000
 RMSDP=3.42D-06 MaxDP=1.19D-04 DE=-1.70D-05 OVMax= 2.92D-04

 Cycle   8  Pass 1  IDiag  1:
 RMSU=  2.44D-06    CP:  9.65D-01  1.08D+00  7.34D-01  5.58D-01  7.71D-01
                    CP:  6.30D-01  6.75D-01
 E= -769.791780729277     Delta-E=       -0.000000598304 Rises=F Damp=F
 DIIS: error= 7.04D-06 at cycle   8 NSaved=   8.
 NSaved= 8 IEnMin= 8 EnMin= -769.791780729277     IErMin= 8 ErrMin= 7.04D-06
 ErrMax= 7.04D-06  0.00D+00 EMaxC= 1.00D-01 BMatC= 8.63D-08 BMatP= 6.32D-07
 IDIUse=1 WtCom= 1.00D+00 WtEn= 0.00D+00
 Coeff-Com:  0.332D-04-0.287D-03-0.970D-04-0.449D-03 0.117D-01 0.359D-01
 Coeff-Com:  0.286D+00 0.667D+00
 Coeff:      0.332D-04-0.287D-03-0.970D-04-0.449D-03 0.117D-01 0.359D-01
 Coeff:      0.286D+00 0.667D+00
 Gap=     0.188 Goal=   None    Shift=    0.000
 RMSDP=1.13D-06 MaxDP=4.84D-05 DE=-5.98D-07 OVMax= 8.27D-05

 Cycle   9  Pass 1  IDiag  1:
 RMSU=  6.25D-07    CP:  9.65D-01  1.08D+00  7.34D-01  5.58D-01  7.75D-01
                    CP:  6.32D-01  7.64D-01  7.65D-01
 E= -769.791780818904     Delta-E=       -0.000000089627 Rises=F Damp=F
 DIIS: error= 1.72D-06 at cycle   9 NSaved=   9.
 NSaved= 9 IEnMin= 9 EnMin= -769.791780818904     IErMin= 9 ErrMin= 1.72D-06
 ErrMax= 1.72D-06  0.00D+00 EMaxC= 1.00D-01 BMatC= 3.38D-09 BMatP= 8.63D-08
 IDIUse=1 WtCom= 1.00D+00 WtEn= 0.00D+00
 Coeff-Com:  0.458D-04-0.141D-03-0.645D-03-0.152D-02-0.117D-02 0.330D-02
 Coeff-Com:  0.897D-01 0.264D+00 0.646D+00
 Coeff:      0.458D-04-0.141D-03-0.645D-03-0.152D-02-0.117D-02 0.330D-02
 Coeff:      0.897D-01 0.264D+00 0.646D+00
 Gap=     0.188 Goal=   None    Shift=    0.000
 RMSDP=2.50D-07 MaxDP=9.33D-06 DE=-8.96D-08 OVMax= 1.89D-05

 Cycle  10  Pass 1  IDiag  1:
 RMSU=  1.90D-07    CP:  9.65D-01  1.08D+00  7.34D-01  5.58D-01  7.75D-01
                    CP:  6.33D-01  7.70D-01  8.06D-01  8.59D-01
 E= -769.791780821947     Delta-E=       -0.000000003043 Rises=F Damp=F
 DIIS: error= 7.21D-07 at cycle  10 NSaved=  10.
 NSaved=10 IEnMin=10 EnMin= -769.791780821947     IErMin=10 ErrMin= 7.21D-07
 ErrMax= 7.21D-07  0.00D+00 EMaxC= 1.00D-01 BMatC= 6.76D-10 BMatP= 3.38D-09
 IDIUse=1 WtCom= 1.00D+00 WtEn= 0.00D+00
 Coeff-Com:  0.217D-04-0.428D-04-0.336D-03-0.828D-03-0.203D-02-0.270D-02
 Coeff-Com:  0.139D-01 0.608D-01 0.347D+00 0.585D+00
 Coeff:      0.217D-04-0.428D-04-0.336D-03-0.828D-03-0.203D-02-0.270D-02
 Coeff:      0.139D-01 0.608D-01 0.347D+00 0.585D+00
 Gap=     0.188 Goal=   None    Shift=    0.000
 RMSDP=9.10D-08 MaxDP=3.69D-06 DE=-3.04D-09 OVMax= 5.73D-06

 Cycle  11  Pass 1  IDiag  1:
 RMSU=  5.35D-08    CP:  9.65D-01  1.08D+00  7.34D-01  5.58D-01  7.75D-01
                    CP:  6.33D-01  7.74D-01  8.15D-01  9.17D-01  7.48D-01
 E= -769.791780822613     Delta-E=       -0.000000000666 Rises=F Damp=F
 DIIS: error= 1.93D-07 at cycle  11 NSaved=  11.
 NSaved=11 IEnMin=11 EnMin= -769.791780822613     IErMin=11 ErrMin= 1.93D-07
 ErrMax= 1.93D-07  0.00D+00 EMaxC= 1.00D-01 BMatC= 2.31D-11 BMatP= 6.76D-10
 IDIUse=1 WtCom= 1.00D+00 WtEn= 0.00D+00
 Coeff-Com:  0.413D-05-0.410D-05-0.552D-04-0.169D-03-0.511D-03-0.112D-02
 Coeff-Com: -0.197D-02 0.322D-03 0.704D-01 0.181D+00 0.752D+00
 Coeff:      0.413D-05-0.410D-05-0.552D-04-0.169D-03-0.511D-03-0.112D-02
 Coeff:     -0.197D-02 0.322D-03 0.704D-01 0.181D+00 0.752D+00
 Gap=     0.188 Goal=   None    Shift=    0.000
 RMSDP=2.67D-08 MaxDP=8.80D-07 DE=-6.66D-10 OVMax= 2.71D-06

 Cycle  12  Pass 1  IDiag  1:
 RMSU=  1.62D-08    CP:  9.65D-01  1.08D+00  7.34D-01  5.58D-01  7.76D-01
                    CP:  6.34D-01  7.75D-01  8.17D-01  9.36D-01  8.01D-01
                    CP:  8.95D-01
 E= -769.791780822637     Delta-E=       -0.000000000024 Rises=F Damp=F
 DIIS: error= 9.58D-08 at cycle  12 NSaved=  12.
 NSaved=12 IEnMin=12 EnMin= -769.791780822637     IErMin=12 ErrMin= 9.58D-08
 ErrMax= 9.58D-08  0.00D+00 EMaxC= 1.00D-01 BMatC= 6.92D-12 BMatP= 2.31D-11
 IDIUse=1 WtCom= 1.00D+00 WtEn= 0.00D+00
 Coeff-Com: -0.157D-06 0.289D-05 0.827D-05 0.112D-05-0.703D-04-0.400D-03
 Coeff-Com: -0.342D-02-0.864D-02-0.538D-02 0.234D-01 0.421D+00 0.573D+00
 Coeff:     -0.157D-06 0.289D-05 0.827D-05 0.112D-05-0.703D-04-0.400D-03
 Coeff:     -0.342D-02-0.864D-02-0.538D-02 0.234D-01 0.421D+00 0.573D+00
 Gap=     0.188 Goal=   None    Shift=    0.000
 RMSDP=1.02D-08 MaxDP=4.16D-07 DE=-2.36D-11 OVMax= 1.00D-06

 Cycle  13  Pass 1  IDiag  1:
 RMSU=  6.06D-09    CP:  9.65D-01  1.08D+00  7.34D-01  5.58D-01  7.76D-01
                    CP:  6.34D-01  7.75D-01  8.18D-01  9.42D-01  8.08D-01
                    CP:  9.78D-01  7.48D-01
 E= -769.791780822638     Delta-E=       -0.000000000001 Rises=F Damp=F
 DIIS: error= 1.47D-08 at cycle  13 NSaved=  13.
 NSaved=13 IEnMin=13 EnMin= -769.791780822638     IErMin=13 ErrMin= 1.47D-08
 ErrMax= 1.47D-08  0.00D+00 EMaxC= 1.00D-01 BMatC= 2.30D-13 BMatP= 6.92D-12
 IDIUse=1 WtCom= 1.00D+00 WtEn= 0.00D+00
 Coeff-Com: -0.355D-06 0.112D-05 0.821D-05 0.149D-04 0.296D-04-0.277D-04
 Coeff-Com: -0.879D-03-0.260D-02-0.685D-02-0.788D-02 0.806D-01 0.204D+00
 Coeff-Com:  0.734D+00
 Coeff:     -0.355D-06 0.112D-05 0.821D-05 0.149D-04 0.296D-04-0.277D-04
 Coeff:     -0.879D-03-0.260D-02-0.685D-02-0.788D-02 0.806D-01 0.204D+00
 Coeff:      0.734D+00
 Gap=     0.188 Goal=   None    Shift=    0.000
 RMSDP=2.33D-09 MaxDP=9.86D-08 DE=-1.36D-12 OVMax= 2.38D-07

 Error on total polarization charges =  0.01951
 SCF Done:  E(RB3LYP) =  -769.791780823     A.U. after   13 cycles
            NFock= 13  Conv=0.23D-08     -V/T= 2.0100
 KE= 7.621566571332D+02 PE=-4.586266532944D+03 EE= 1.644697043160D+03
 Leave Link  502 at Sun Jul 18 13:30:30 2021, MaxMem=   104857600 cpu:             379.3 elap:              94.9
 (Enter /prod/apps/gaussian/g16b1/l601.exe)
 Copying SCF densities to generalized density rwf, IOpCl= 0 IROHF=0.

 **********************************************************************

            Population analysis using the SCF Density.

 **********************************************************************

 Orbital symmetries:
       Occupied  (A) (A) (A) (A) (A) (A) (A) (A) (A) (A) (A) (A)
                 (A) (A) (A) (A) (A) (A) (A) (A) (A) (A) (A) (A)
                 (A) (A) (A) (A) (A) (A) (A) (A) (A) (A) (A) (A)
                 (A) (A) (A) (A) (A) (A) (A) (A) (A) (A) (A) (A)
                 (A) (A) (A) (A) (A) (A) (A) (A) (A) (A) (A) (A)
                 (A) (A) (A) (A) (A) (A) (A) (A)
       Virtual   (A) (A) (A) (A) (A) (A) (A) (A) (A) (A) (A) (A)
                 (A) (A) (A) (A) (A) (A) (A) (A) (A) (A) (A) (A)
                 (A) (A) (A) (A) (A) (A) (A) (A) (A) (A) (A) (A)
                 (A) (A) (A) (A) (A) (A) (A) (A) (A) (A) (A) (A)
                 (A) (A) (A) (A) (A) (A) (A) (A) (A) (A) (A) (A)
                 (A) (A) (A) (A) (A) (A) (A) (A) (A) (A) (A) (A)
                 (A) (A) (A) (A) (A) (A) (A) (A) (A) (A) (A) (A)
                 (A) (A) (A) (A) (A) (A) (A) (A) (A) (A) (A) (A)
                 (A) (A) (A) (A) (A) (A) (A) (A) (A) (A) (A) (A)
                 (A) (A) (A) (A) (A) (A) (A) (A) (A) (A) (A) (A)
                 (A) (A) (A) (A) (A) (A) (A) (A) (A) (A) (A) (A)
                 (A) (A) (A) (A) (A) (A) (A) (A) (A) (A) (A) (A)
                 (A) (A) (A) (A) (A) (A) (A) (A) (A) (A) (A) (A)
                 (A) (A) (A) (A) (A) (A) (A) (A) (A) (A) (A) (A)
                 (A) (A) (A) (A) (A) (A) (A) (A) (A) (A) (A) (A)
                 (A) (A) (A) (A) (A) (A) (A) (A) (A) (A) (A) (A)
                 (A) (A) (A) (A) (A) (A) (A) (A) (A) (A) (A) (A)
                 (A) (A) (A) (A) (A) (A) (A) (A) (A) (A) (A) (A)
                 (A) (A) (A) (A) (A) (A) (A) (A) (A) (A) (A) (A)
                 (A) (A) (A) (A) (A) (A) (A) (A) (A) (A) (A) (A)
                 (A) (A) (A) (A) (A) (A) (A) (A) (A) (A) (A) (A)
                 (A) (A) (A) (A) (A) (A) (A)
 The electronic state is 1-A.
 Alpha  occ. eigenvalues --  -14.44980 -14.34262 -10.25263 -10.22446 -10.22412
 Alpha  occ. eigenvalues --  -10.22380 -10.20106 -10.19836 -10.19646 -10.19585
 Alpha  occ. eigenvalues --  -10.19431 -10.19318 -10.19220 -10.19080 -10.18767
 Alpha  occ. eigenvalues --  -10.18492 -10.18452 -10.18307 -10.18118  -1.01139
 Alpha  occ. eigenvalues --   -0.94646  -0.85620  -0.84212  -0.79569  -0.78944
 Alpha  occ. eigenvalues --   -0.75687  -0.74944  -0.72397  -0.71017  -0.68011
 Alpha  occ. eigenvalues --   -0.64660  -0.63215  -0.60696  -0.59961  -0.59342
 Alpha  occ. eigenvalues --   -0.57991  -0.57354  -0.56277  -0.51638  -0.51466
 Alpha  occ. eigenvalues --   -0.49768  -0.47841  -0.47351  -0.46770  -0.46452
 Alpha  occ. eigenvalues --   -0.45108  -0.43847  -0.42963  -0.42730  -0.41456
 Alpha  occ. eigenvalues --   -0.39871  -0.39334  -0.38921  -0.38365  -0.38002
 Alpha  occ. eigenvalues --   -0.36909  -0.36773  -0.35551  -0.34728  -0.34391
 Alpha  occ. eigenvalues --   -0.33800  -0.33301  -0.32835  -0.27779  -0.24908
 Alpha  occ. eigenvalues --   -0.24167  -0.23715  -0.19779
 Alpha virt. eigenvalues --   -0.00994  -0.00786   0.00003   0.00585   0.05496
 Alpha virt. eigenvalues --    0.08283   0.09569   0.10099   0.10948   0.11256
 Alpha virt. eigenvalues --    0.11796   0.12202   0.13558   0.13950   0.14289
 Alpha virt. eigenvalues --    0.14678   0.15398   0.16359   0.16643   0.17166
 Alpha virt. eigenvalues --    0.17507   0.17764   0.18131   0.18536   0.18600
 Alpha virt. eigenvalues --    0.19669   0.20802   0.21161   0.22075   0.22454
 Alpha virt. eigenvalues --    0.22751   0.23516   0.25685   0.26434   0.28316
 Alpha virt. eigenvalues --    0.29642   0.30590   0.31982   0.32451   0.34050
 Alpha virt. eigenvalues --    0.35705   0.35791   0.39009   0.40716   0.46735
 Alpha virt. eigenvalues --    0.47575   0.48555   0.49231   0.49703   0.50151
 Alpha virt. eigenvalues --    0.51360   0.52588   0.52893   0.53439   0.54196
 Alpha virt. eigenvalues --    0.54907   0.55192   0.55898   0.56855   0.57903
 Alpha virt. eigenvalues --    0.58354   0.59076   0.59576   0.59659   0.60304
 Alpha virt. eigenvalues --    0.60544   0.60966   0.61998   0.62055   0.62623
 Alpha virt. eigenvalues --    0.63069   0.63709   0.64419   0.66328   0.66667
 Alpha virt. eigenvalues --    0.67063   0.67593   0.70262   0.70341   0.72635
 Alpha virt. eigenvalues --    0.73708   0.74415   0.76094   0.77099   0.77173
 Alpha virt. eigenvalues --    0.78643   0.81056   0.81851   0.82766   0.83856
 Alpha virt. eigenvalues --    0.84147   0.84587   0.84871   0.84992   0.85361
 Alpha virt. eigenvalues --    0.85689   0.86026   0.86978   0.88325   0.89595
 Alpha virt. eigenvalues --    0.89830   0.90753   0.91516   0.91815   0.92064
 Alpha virt. eigenvalues --    0.92752   0.93590   0.93932   0.95523   0.95791
 Alpha virt. eigenvalues --    0.96884   0.97807   0.99132   1.00284   1.01677
 Alpha virt. eigenvalues --    1.02257   1.03131   1.04486   1.05709   1.06697
 Alpha virt. eigenvalues --    1.08513   1.11637   1.12628   1.13129   1.16642
 Alpha virt. eigenvalues --    1.17396   1.18598   1.19350   1.21300   1.21677
 Alpha virt. eigenvalues --    1.24311   1.25187   1.27613   1.29956   1.33239
 Alpha virt. eigenvalues --    1.34190   1.35919   1.37140   1.38439   1.40887
 Alpha virt. eigenvalues --    1.42256   1.43209   1.45072   1.47311   1.48477
 Alpha virt. eigenvalues --    1.50896   1.52213   1.53315   1.55503   1.56985
 Alpha virt. eigenvalues --    1.58570   1.58826   1.62042   1.62996   1.64722
 Alpha virt. eigenvalues --    1.70331   1.72887   1.74220   1.75261   1.78377
 Alpha virt. eigenvalues --    1.78970   1.79605   1.80590   1.81030   1.83298
 Alpha virt. eigenvalues --    1.84649   1.86399   1.86971   1.88323   1.89569
 Alpha virt. eigenvalues --    1.89916   1.92142   1.93078   1.93513   1.93936
 Alpha virt. eigenvalues --    1.95912   1.96294   1.96956   1.98683   1.99922
 Alpha virt. eigenvalues --    2.01552   2.01858   2.03163   2.05512   2.08330
 Alpha virt. eigenvalues --    2.09347   2.10694   2.12345   2.14808   2.16274
 Alpha virt. eigenvalues --    2.17281   2.18627   2.20363   2.21431   2.24533
 Alpha virt. eigenvalues --    2.25349   2.25858   2.26602   2.28368   2.29460
 Alpha virt. eigenvalues --    2.30817   2.31622   2.32097   2.33350   2.34652
 Alpha virt. eigenvalues --    2.35301   2.37183   2.38553   2.39432   2.39755
 Alpha virt. eigenvalues --    2.43614   2.48838   2.51057   2.55280   2.56208
 Alpha virt. eigenvalues --    2.58357   2.59029   2.59887   2.63057   2.63371
 Alpha virt. eigenvalues --    2.63450   2.64506   2.67194   2.67817   2.70321
 Alpha virt. eigenvalues --    2.71920   2.74072   2.75859   2.77630   2.79111
 Alpha virt. eigenvalues --    2.81328   2.82988   2.85987   2.91566   2.99243
 Alpha virt. eigenvalues --    3.00253   3.16181   3.16388   3.38494   3.40194
 Alpha virt. eigenvalues --    3.76174   4.07255   4.08808   4.09880   4.12104
 Alpha virt. eigenvalues --    4.13740   4.15236   4.19530   4.22482   4.28730
 Alpha virt. eigenvalues --    4.33256   4.37413   4.40597   4.41164   4.42579
 Alpha virt. eigenvalues --    4.50435   4.53746   4.73122   4.74265
          Condensed to atoms (all electrons):
               1          2          3          4          5          6
     1  N    6.663042   0.303033   0.304949   0.240444  -0.035695  -0.027208
     2  H    0.303033   0.272718  -0.009899  -0.017828   0.003552  -0.003338
     3  H    0.304949  -0.009899   0.267435  -0.016897  -0.002555  -0.001180
     4  C    0.240444  -0.017828  -0.016897   4.996151   0.385193   0.381829
     5  H   -0.035695   0.003552  -0.002555   0.385193   0.499519  -0.029620
     6  H   -0.027208  -0.003338  -0.001180   0.381829  -0.029620   0.496343
     7  C   -0.043510  -0.000874   0.003083   0.344948  -0.033720  -0.039781
     8  H   -0.001047   0.002993  -0.000066  -0.038983   0.004418  -0.005827
     9  H   -0.001947  -0.000317  -0.000011  -0.032959  -0.003747   0.004573
    10  C    0.001842  -0.000054  -0.000057  -0.025630  -0.001713  -0.001546
    11  H    0.000002   0.000008   0.000001  -0.003135   0.003815  -0.000587
    12  H   -0.000098   0.000001   0.000010  -0.000823  -0.000477   0.005806
    13  N   -0.000031   0.000001   0.000001   0.002789   0.000000  -0.000020
    14  C    0.000001  -0.000002  -0.000000   0.000035   0.000005   0.000005
    15  C    0.000001  -0.000001  -0.000000  -0.000003  -0.000002   0.000007
    16  H   -0.000000   0.000000  -0.000000  -0.000007   0.000000  -0.000006
    17  C    0.000000  -0.000000  -0.000000  -0.000002  -0.000000  -0.000000
    18  H   -0.000000   0.000000   0.000000   0.000000   0.000000   0.000000
    19  C   -0.000000   0.000000   0.000000  -0.000000   0.000000  -0.000000
    20  H    0.000000  -0.000000  -0.000000   0.000000   0.000000   0.000000
    21  C   -0.000000   0.000000   0.000000   0.000001   0.000000   0.000000
    22  H    0.000000  -0.000000  -0.000000  -0.000000  -0.000000  -0.000000
    23  C    0.000000  -0.000000  -0.000000  -0.000019  -0.000000   0.000000
    24  C    0.000000  -0.000000   0.000000   0.000029  -0.000000  -0.000001
    25  H   -0.000000   0.000000   0.000000  -0.000000  -0.000000   0.000000
    26  H   -0.000003   0.000001   0.000000  -0.000019   0.000002   0.000001
    27  C    0.000000   0.000000  -0.000000  -0.000001   0.000000   0.000000
    28  H    0.000000  -0.000000  -0.000000  -0.000000  -0.000000  -0.000000
    29  H   -0.000000   0.000000   0.000000   0.000000   0.000000  -0.000000
    30  C    0.000000  -0.000000  -0.000000  -0.000006  -0.000000  -0.000000
    31  C   -0.000000   0.000000   0.000000   0.000000   0.000000   0.000000
    32  H   -0.000000  -0.000000   0.000000  -0.000000   0.000000  -0.000000
    33  C   -0.000000   0.000000   0.000000   0.000000   0.000000   0.000000
    34  H    0.000000   0.000000  -0.000000  -0.000000   0.000000   0.000000
    35  C    0.000000  -0.000000  -0.000000  -0.000000  -0.000000  -0.000000
    36  H   -0.000000   0.000000   0.000000   0.000000   0.000000   0.000000
    37  C    0.000000  -0.000000  -0.000000  -0.000007  -0.000005   0.000001
    38  H   -0.000000   0.000000   0.000000  -0.000001  -0.000000  -0.000000
    39  C    0.000001   0.000000  -0.000000  -0.000068  -0.000005   0.000002
    40  H    0.304426  -0.010983  -0.010432  -0.019594  -0.002140   0.003148
               7          8          9         10         11         12
     1  N   -0.043510  -0.001047  -0.001947   0.001842   0.000002  -0.000098
     2  H   -0.000874   0.002993  -0.000317  -0.000054   0.000008   0.000001
     3  H    0.003083  -0.000066  -0.000011  -0.000057   0.000001   0.000010
     4  C    0.344948  -0.038983  -0.032959  -0.025630  -0.003135  -0.000823
     5  H   -0.033720   0.004418  -0.003747  -0.001713   0.003815  -0.000477
     6  H   -0.039781  -0.005827   0.004573  -0.001546  -0.000587   0.005806
     7  C    5.095442   0.375141   0.368448   0.364214  -0.031514  -0.058697
     8  H    0.375141   0.556008  -0.034699  -0.033710   0.004907  -0.007425
     9  H    0.368448  -0.034699   0.546028  -0.031748  -0.003945   0.005672
    10  C    0.364214  -0.033710  -0.031748   4.904183   0.371072   0.368056
[...]
    10  C   -1.183244  -0.079429  -0.729597   0.006910  -0.124839   0.010297
    11  H   -0.451479  -0.768938   0.093677   0.039943  -0.035789   0.000138
    12  H    0.001534   0.751852  -0.237214  -0.094545   0.080160   0.006099
    13  N   13.539157  -3.128060   2.315712  -0.247849  -0.455123  -0.013001
    14  C   -3.128060  36.636875 -11.454276   0.875282  -0.620492   0.529077
    15  C    2.315712 -11.454276  20.846143  -1.917711  -3.257943   0.067318
    16  H   -0.247849   0.875282  -1.917711   2.680634   0.349764  -0.092393
    17  C   -0.455123  -0.620492  -3.257943   0.349764  12.009088  -0.862890
    18  H   -0.013001   0.529077   0.067318  -0.092393  -0.862890   1.774881
    19  C    0.505435  -0.807123   2.337345  -0.242447  -3.456770   0.433450
    20  H   -0.015300  -0.280961   0.000317  -0.015839   0.555583  -0.049724
    21  C   -0.515993  -3.312900  -3.257406   0.061658   2.300087  -0.011411
    22  H    0.008164   0.332196   0.107247   0.008197  -0.208565  -0.013635
    23  C   -0.986787  -0.236498  -2.447147   0.184699  -1.092848  -0.230609
    24  C   -0.673418   1.983754  -1.735080   0.036508   1.320203  -0.010284
    25  H   -0.005318  -0.044298  -0.080049  -0.001212   0.008205   0.000986
    26  H   -0.154688   0.102879   0.004412   0.000381   0.045833  -0.001471
    27  C   -0.472716  -2.207639   0.336900   0.013654  -0.100318  -0.005562
    28  H    0.017963  -0.112055   0.089048   0.000471  -0.021063  -0.000796
    29  H    0.057568  -0.056068  -0.009681  -0.001148  -0.002706  -0.000225
    30  C   -0.452302   0.306914  -0.148673  -0.086084  -0.051798  -0.002057
    31  C   -0.075778  -0.301844  -0.136155  -0.003271   0.138870   0.004193
    32  H    0.012362   0.007320  -0.016406   0.000795   0.006172   0.000161
    33  C    0.220861   0.345563  -0.124205   0.001018  -0.056183  -0.001393
    34  H   -0.003585  -0.014960   0.002185   0.000220  -0.001640  -0.000069
    35  C    0.026514  -0.065989   0.174638   0.006050   0.136225   0.002390
    36  H   -0.007028   0.019679  -0.009076  -0.000267   0.003714   0.000177
    37  C    0.480809   1.840698  -0.054811  -0.056485  -0.221981  -0.010840
    38  H   -0.342821  -0.157242   0.087958  -0.004602   0.013080  -0.000956
    39  C   -1.149245 -11.153115   2.789336   0.180987  -0.430591   0.007213
    40  H   -0.006015  -0.003995   0.003310  -0.000006  -0.000635  -0.000041
              19         20         21         22         23         24
     1  N    0.003164   0.000145  -0.000383  -0.000024  -0.007810  -0.002052
     2  H   -0.002984  -0.000056   0.000330   0.000103  -0.000627   0.001605
     3  H   -0.000071   0.000001   0.000405   0.000026  -0.000026  -0.000401
     4  C   -0.016333  -0.000116  -0.007127  -0.000201   0.020386   0.033288
     5  H   -0.002625  -0.000052  -0.000290  -0.000004  -0.002544   0.007580
     6  H    0.002955   0.000058  -0.001554  -0.000068   0.002152  -0.000664
     7  C    0.253564   0.002980  -0.449834  -0.006385   0.154244  -0.092625
     8  H    0.071028  -0.004195  -0.009283  -0.000968   0.056996   0.001743
     9  H    0.017311  -0.000404  -0.020573   0.001836  -0.020940   0.020367
    10  C   -0.165215  -0.001663   0.498646   0.005103  -0.101422  -0.346283
    11  H    0.008332   0.000143   0.015721   0.000555   0.060630  -0.059530
    12  H   -0.045181   0.000888   0.021546  -0.001983   0.005646   0.059603
    13  N    0.505435  -0.015300  -0.515993   0.008164  -0.986787  -0.673418
    14  C   -0.807123  -0.280961  -3.312900   0.332196  -0.236498   1.983754
    15  C    2.337345   0.000317  -3.257406   0.107247  -2.447147  -1.735080
    16  H   -0.242447  -0.015839   0.061658   0.008197   0.184699   0.036508
    17  C   -3.456770   0.555583   2.300087  -0.208565  -1.092848   1.320203
    18  H    0.433450  -0.049724  -0.011411  -0.013635  -0.230609  -0.010284
    19  C   10.680344  -0.799589  -2.477596   0.106241  -0.252630  -1.359857
    20  H   -0.799589   1.693981   0.133775  -0.068982   0.238088   0.086094
    21  C   -2.477596   0.133775  18.632832  -1.338639  -6.444113   0.312169
    22  H    0.106241  -0.068982  -1.338639   1.962228   0.839907  -0.126384
    23  C   -0.252630   0.238088  -6.444113   0.839907  18.449543  -1.314195
    24  C   -1.359857   0.086094   0.312169  -0.126384  -1.314195   9.544940
    25  H    0.096822   0.003347   0.280694  -0.038349  -0.103105  -0.463481
    26  H   -0.099577   0.002714   0.015625   0.004936  -0.140789   0.629673
    27  C    0.323684   0.001440   0.558137   0.013251  -0.183871  -0.753336
    28  H    0.018407  -0.001564  -0.065755  -0.005219   0.014304  -0.134860
    29  H    0.009891  -0.000048   0.004443   0.005846   0.147100  -0.157194
    30  C   -0.097909   0.010491   0.181240  -0.043128   0.083863   0.355765
    31  C   -0.095241  -0.001711   0.313561  -0.006523  -0.447184   0.124831
    32  H   -0.006707  -0.000030   0.013076  -0.001053  -0.031820  -0.010169
    33  C    0.035483   0.000640   0.051522  -0.002359   0.171974  -0.499083
    34  H    0.001092   0.000021  -0.000716   0.000011   0.005234   0.000611
    35  C   -0.030837  -0.000806  -0.018890   0.001414  -0.393572   0.368431
    36  H   -0.001461  -0.000031   0.001577  -0.000007  -0.003255   0.003365
    37  C    0.156584   0.002877  -0.337802   0.002489   0.610482  -0.339681
    38  H    0.011292  -0.000015  -0.019347   0.001115  -0.076750   0.013294
    39  C    0.269669  -0.027103   0.221730   0.076343  -1.193626  -1.596834
    40  H    0.000568   0.000017   0.000108  -0.000069   0.000848  -0.001016
              25         26         27         28         29         30
     1  N    0.000080  -0.001441   0.000981   0.000081   0.000133   0.000661
     2  H   -0.000141   0.000867  -0.000547  -0.000033  -0.000001  -0.000402
     3  H   -0.000022  -0.000195   0.000248  -0.000005   0.000021  -0.000044
     4  C   -0.000903   0.015868  -0.032675  -0.001172  -0.000411  -0.005599
     5  H   -0.000289   0.003870  -0.003715  -0.000024   0.000017   0.004025
     6  H    0.000131  -0.001106  -0.000293   0.000035  -0.000051  -0.006497
     7  C    0.004972  -0.051752  -0.097095   0.008673  -0.000270   0.140844
     8  H    0.004916   0.005134  -0.003816   0.002066   0.000512   0.042305
     9  H    0.009843  -0.030493   0.017697  -0.001279   0.000579  -0.019397
    10  C   -0.007609   0.048623   0.091051  -0.019152   0.022561  -0.166449
    11  H    0.001106  -0.002010   0.034299   0.002081  -0.000043  -0.090431
    12  H    0.000497  -0.002090  -0.029618  -0.003981   0.001311  -0.099514
    13  N   -0.005318  -0.154688  -0.472716   0.017963   0.057568  -0.452302
    14  C   -0.044298   0.102879  -2.207639  -0.112055  -0.056068   0.306914
    15  C   -0.080049   0.004412   0.336900   0.089048  -0.009681  -0.148673
    16  H   -0.001212   0.000381   0.013654   0.000471  -0.001148  -0.086084
    17  C    0.008205   0.045833  -0.100318  -0.021063  -0.002706  -0.051798
    18  H    0.000986  -0.001471  -0.005562  -0.000796  -0.000225  -0.002057
    19  C    0.096822  -0.099577   0.323684   0.018407   0.009891  -0.097909
    20  H    0.003347   0.002714   0.001440  -0.001564  -0.000048   0.010491
    21  C    0.280694   0.015625   0.558137  -0.065755   0.004443   0.181240
    22  H   -0.038349   0.004936   0.013251  -0.005219   0.005846  -0.043128
    23  C   -0.103105  -0.140789  -0.183871   0.014304   0.147100   0.083863
    24  C   -0.463481   0.629673  -0.753336  -0.134860  -0.157194   0.355765
    25  H    1.540283  -0.313425   0.298983  -0.049186  -0.011583  -0.044109
    26  H   -0.313425   1.307296  -0.361763   0.053792  -0.033722   0.202180
    27  C    0.298983  -0.361763  11.368932   0.257384  -0.286996  -0.376884
    28  H   -0.049186   0.053792   0.257384   1.083085  -0.215482   0.096360
    29  H   -0.011583  -0.033722  -0.286996  -0.215482   1.209764   0.247234
    30  C   -0.044109   0.202180  -0.376884   0.096360   0.247234  21.294601
    31  C    0.053248  -0.010874  -1.647250  -0.055874  -0.027171 -10.021142
    32  H   -0.000657   0.001223  -0.211252  -0.037527  -0.008867   1.148563
    33  C   -0.012978  -0.025179  -0.404581  -0.002818   0.038382   2.687586
    34  H    0.000268  -0.000270   0.075896  -0.000366  -0.001844   0.045276
    35  C    0.012702   0.025396   0.296487   0.014202  -0.025206  -4.082914
    36  H    0.000041  -0.000118  -0.019631   0.000754   0.000336  -0.048450
    37  C   -0.033101   0.027969   0.042525   0.007299   0.013390   4.802448
    38  H    0.001108   0.002235  -0.010023  -0.002883  -0.002016  -0.721011
    39  C    0.038440  -0.191201  -0.846778  -0.011712   0.101527  -8.985400
    40  H   -0.000037   0.000538  -0.000259   0.000051  -0.000066   0.000112
              31         32         33         34         35         36
     1  N   -0.000251  -0.000036   0.000050   0.000010   0.000521   0.000029
     2  H    0.000028   0.000010  -0.000115  -0.000004   0.000559   0.000016
     3  H   -0.000042  -0.000003   0.000046   0.000002  -0.000263  -0.000007
     4  C    0.005670   0.000369  -0.006631  -0.000157   0.005526   0.000320
     5  H    0.000356   0.000002   0.000066   0.000029   0.000718   0.000284
     6  H    0.001529   0.000045  -0.001489  -0.000030   0.006602   0.000064
     7  C   -0.006327  -0.003389   0.003187   0.000942  -0.138605   0.000417
     8  H   -0.006819  -0.000665   0.007677   0.000205  -0.010768   0.000091
     9  H   -0.010567  -0.000508   0.002694  -0.000006  -0.003969   0.000837
    10  C   -0.007620   0.019435   0.193219  -0.001188  -0.848883   0.050635
    11  H   -0.013015   0.001814   0.008003  -0.000328   0.100692  -0.002603
    12  H   -0.023725   0.000847   0.009568  -0.000933   0.063886   0.004286
    13  N   -0.075778   0.012362   0.220861  -0.003585   0.026514  -0.007028
    14  C   -0.301844   0.007320   0.345563  -0.014960  -0.065989   0.019679
    15  C   -0.136155  -0.016406  -0.124205   0.002185   0.174638  -0.009076
    16  H   -0.003271   0.000795   0.001018   0.000220   0.006050  -0.000267
    17  C    0.138870   0.006172  -0.056183  -0.001640   0.136225   0.003714
    18  H    0.004193   0.000161  -0.001393  -0.000069   0.002390   0.000177
    19  C   -0.095241  -0.006707   0.035483   0.001092  -0.030837  -0.001461
    20  H   -0.001711  -0.000030   0.000640   0.000021  -0.000806  -0.000031
    21  C    0.313561   0.013076   0.051522  -0.000716  -0.018890   0.001577
    22  H   -0.006523  -0.001053  -0.002359   0.000011   0.001414  -0.000007
    23  C   -0.447184  -0.031820   0.171974   0.005234  -0.393572  -0.003255
    24  C    0.124831  -0.010169  -0.499083   0.000611   0.368431   0.003365
    25  H    0.053248  -0.000657  -0.012978   0.000268   0.012702   0.000041
    26  H   -0.010874   0.001223  -0.025179  -0.000270   0.025396  -0.000118
    27  C   -1.647250  -0.211252  -0.404581   0.075896   0.296487  -0.019631
    28  H   -0.055874  -0.037527  -0.002818  -0.000366   0.014202   0.000754
    29  H   -0.027171  -0.008867   0.038382  -0.001844  -0.025206   0.000336
    30  C  -10.021142   1.148563   2.687586   0.045276  -4.082914  -0.048450
    31  C   23.520601  -1.675875  -6.869977   0.707930   5.966701  -0.353895
    32  H   -1.675875   2.058883   0.655201  -0.069121  -0.263454  -0.020869
    33  C   -6.869977   0.655201  14.280040  -1.011106  -5.755762   0.316250
    34  H    0.707930  -0.069121  -1.011106   1.682388   0.475360  -0.041242
    35  C    5.966701  -0.263454  -5.755762   0.475360  16.003997  -1.303510
    36  H   -0.353895  -0.020869   0.316250  -0.041242  -1.303510   1.758263
    37  C   -7.941036   0.207279   6.155060  -0.246982  -8.876428   1.112973
    38  H    0.310488   0.014937  -0.181871  -0.021903   0.765304  -0.080691
    39  C    3.992514  -0.049982  -4.292132  -0.117106   3.005264   0.128527
    40  H    0.000294   0.000003  -0.000108  -0.000000   0.000084  -0.000008
              37         38         39         40
     1  N    0.004082   0.000958  -0.001966   0.392129
     2  H    0.000234  -0.000391  -0.000231  -0.055785
     3  H   -0.000856   0.000198   0.001272  -0.065586
     4  C   -0.046578  -0.006280  -0.106047  -0.014690
     5  H    0.006997  -0.002879  -0.026894  -0.031724
     6  H    0.002850  -0.000494   0.018184   0.027186
     7  C   -0.449988   0.108704   0.973854   0.004342
     8  H    0.053701   0.001650  -0.282629  -0.008747
     9  H    0.026436  -0.005819  -0.227797   0.006812
    10  C    0.304466  -0.004886   0.448355  -0.010292
    11  H   -0.159264   0.049809   0.912448   0.000851
    12  H    0.187096  -0.093985  -0.622018  -0.005537
    13  N    0.480809  -0.342821  -1.149245  -0.006015
    14  C    1.840698  -0.157242 -11.153115  -0.003995
    15  C   -0.054811   0.087958   2.789336   0.003310
    16  H   -0.056485  -0.004602   0.180987  -0.000006
    17  C   -0.221981   0.013080  -0.430591  -0.000635
    18  H   -0.010840  -0.000956   0.007213  -0.000041
    19  C    0.156584   0.011292   0.269669   0.000568
    20  H    0.002877  -0.000015  -0.027103   0.000017
    21  C   -0.337802  -0.019347   0.221730   0.000108
    22  H    0.002489   0.001115   0.076343  -0.000069
    23  C    0.610482  -0.076750  -1.193626   0.000848
    24  C   -0.339681   0.013294  -1.596834  -0.001016
    25  H   -0.033101   0.001108   0.038440  -0.000037
    26  H    0.027969   0.002235  -0.191201   0.000538
    27  C    0.042525  -0.010023  -0.846778  -0.000259
    28  H    0.007299  -0.002883  -0.011712   0.000051
    29  H    0.013390  -0.002016   0.101527  -0.000066
    30  C    4.802448  -0.721011  -8.985400   0.000112
    31  C   -7.941036   0.310488   3.992514   0.000294
    32  H    0.207279   0.014937  -0.049982   0.000003
    33  C    6.155060  -0.181871  -4.292132  -0.000108
    34  H   -0.246982  -0.021903  -0.117106  -0.000000
    35  C   -8.876428   0.765304   3.005264   0.000084
    36  H    1.112973  -0.080691   0.128527  -0.000008
    37  C   23.107546  -2.369747 -12.648274   0.001039
    38  H   -2.369747   2.909235   1.699587   0.000144
    39  C  -12.648274   1.699587  34.544922  -0.001224
    40  H    0.001039   0.000144  -0.001224   0.516395
 Mulliken charges:
               1
     1  N   -0.567925
     2  H    0.252214
     3  H    0.178423
     4  C    1.304536
     5  H   -0.134985
     6  H   -0.127542
     7  C    0.375556
     8  H   -0.187808
     9  H   -0.253533
    10  C    0.815432
    11  H   -0.532162
    12  H   -0.298630
    13  N   -0.241963
    14  C   -1.484675
    15  C    1.474332
    16  H   -0.750543
    17  C    0.148352
    18  H   -0.534023
    19  C    0.617493
    20  H   -0.465411
    21  C    0.670727
    22  H   -0.614666
    23  C    0.666071
    24  C    0.772601
    25  H   -0.146817
    26  H   -0.079281
    27  C    0.325068
    28  H    0.076750
    29  H   -0.019819
    30  C   -0.100270
    31  C    0.598356
    32  H   -0.740106
    33  C    0.063881
    34  H   -0.464121
    35  C    0.360194
    36  H   -0.510486
    37  C    0.636524
    38  H   -0.884484
    39  C    0.551733
    40  H    0.251007
 Sum of Mulliken charges =   1.00000
 Mulliken charges with hydrogens summed into heavy atoms:
               1
     1  N    0.113719
     4  C    1.042010
     7  C   -0.065785
    10  C   -0.015360
    13  N   -0.241963
    14  C   -1.484675
    15  C    0.723789
    17  C   -0.385672
    19  C    0.152082
    21  C    0.056060
    23  C    0.666071
    24  C    0.546503
    27  C    0.381999
    30  C   -0.100270
    31  C   -0.141749
    33  C   -0.400240
    35  C   -0.150291
    37  C   -0.247960
    39  C    0.551733
 Electronic spatial extent (au):  <R**2>=           5373.0957
 Charge=              1.0000 electrons
 Dipole moment (field-independent basis, Debye):
    X=             18.4742    Y=             -8.1324    Z=              3.6512  Tot=             20.5125
 Quadrupole moment (field-independent basis, Debye-Ang):
   XX=            -13.0531   YY=            -81.8449   ZZ=           -104.4359
   XY=            -39.9318   XZ=             12.0212   YZ=             -2.7228
 Traceless Quadrupole moment (field-independent basis, Debye-Ang):
   XX=             53.3915   YY=            -15.4003   ZZ=            -37.9913
   XY=            -39.9318   XZ=             12.0212   YZ=             -2.7228
 Octapole moment (field-independent basis, Debye-Ang**2):
  XXX=            439.1344  YYY=            -37.1272  ZZZ=             20.5260  XYY=            107.5121
  XXY=           -210.3065  XXZ=             88.0746  XZZ=             49.7014  YZZ=            -14.1313
  YYZ=              8.5738  XYZ=            -57.1171
 Hexadecapole moment (field-independent basis, Debye-Ang**3):
 XXXX=          -1340.6721 YYYY=          -2303.1118 ZZZZ=           -760.5123 XXXY=           -952.9453
 XXXZ=            403.8670 YYYX=           -273.8141 YYYZ=            -21.5806 ZZZX=             39.1759
 ZZZY=            -27.6484 XXYY=           -606.0563 XXZZ=           -639.1346 YYZZ=           -517.4304
 XXYZ=           -147.0162 YYXZ=             86.6055 ZZXY=            -74.7222
 N-N= 1.414423351201D+03 E-N=-4.594443307198D+03  KE= 7.639250870712D+02
 Leave Link  601 at Sun Jul 18 15:15:43 2021, MaxMem=   262144000 cpu:               3.0 elap:               1.0
 (Enter /prod/apps/gaussian/g16b1/l9999.exe)
 1\1\GINC-PIRINEUS10\SP\RMP2-FC\Aug-CC-pVDZ\C17H21N2(1+)\UBATOR02\18-Ju
 l-2021\0\\#p mp2/aug-cc-pVDZ scf=tight maxdisk=180GB geom=allcheck\\SE
 T_328_BBB20_conf1.geo_060_180_180 geometry\\1,1\N,0,-2.1889106949,1.72
 91606277,4.1198772706\H,0,-2.4619313325,2.590676854,3.6179531241\H,0,-
 2.1283762882,1.9627868521,5.1229915661\C,0,-0.8909401423,1.1785013633,
 3.6078497091\H,0,-0.6648894676,0.305302474,4.2196186311\H,0,-0.1336412
 973,1.9409997013,3.7924978122\C,0,-1.0041768084,0.8277278797,2.1319063
 416\H,0,-1.2596104537,1.7254602252,1.5610155321\H,0,-1.8091879752,0.10
 06405139,1.9833982119\C,0,0.3059496536,0.2245617429,1.6181351734\H,0,0
 .5316941652,-0.665868421,2.2074795289\H,0,1.1337897074,0.9305386123,1.
 7802904999\N,0,0.1923870079,-0.2033971527,0.2215589687\C,0,-0.16644895
 26,0.8027014188,-0.7316028053\C,0,0.3168584157,2.1136168296,-0.6295084
 77\H,0,0.9960568082,2.3741511341,0.174732363\C,0,-0.0676174902,3.08181
 08981,-1.5579660362\H,0,0.3155301336,4.0941814276,-1.4684598462\C,0,-0
 .931594048,2.7444449394,-2.6008204656\H,0,-1.2329203279,3.4922030239,-
 3.327131049\C,0,-1.4144292387,1.438386067,-2.6985231703\H,0,-2.0978384
 507,1.1691914204,-3.4977993047\C,0,-1.0534924966,0.461390877,-1.766818
 2181\C,0,-1.5643756121,-0.9487065663,-1.8471692244\H,0,-2.3704655019,-
 1.007133848,-2.5849486942\H,0,-1.9813600957,-1.2462889088,-0.878829040
 8\C,0,-0.4625513516,-1.9327955352,-2.2538729675\H,0,-0.1054092855,-1.6
 470595423,-3.2516373173\H,0,-0.9064045559,-2.9280010749,-2.3752826513\
 C,0,0.7424644233,-2.0716889228,-1.3364468625\C,0,1.62596363,-3.1124103
 14,-1.6564981573\H,0,1.3847386596,-3.7323786362,-2.5168738849\C,0,2.77
 10090646,-3.3900434035,-0.916139838\H,0,3.4188830298,-4.2130257597,-1.
 1968020504\C,0,3.0635467023,-2.5922503289,0.1885014104\H,0,3.954350410
 3,-2.7714918016,0.783175235\C,0,2.2132109731,-1.5423433881,0.524179203
 \H,0,2.4718150947,-0.9100657274,1.3645516312\C,0,1.042697504,-1.266345
 4503,-0.2105986368\H,0,-2.9583735159,1.0468598996,4.0070164855\\Versio
 n=ES64L-G16RevB.01\State=1-A\HF=-764.7470091\MP2=-767.4599123\RMSD=5.8
 25e-09\PG=C01 [X(C17H21N2)]\\@


 CHILDREN YOU ARE VERY LITTLE,
 AND YOUR BONES ARE VERY BRITTLE;
 IF YOU WOULD GROW GREAT AND STATELY
 YOU MUST TRY TO WALK SEDATELY.
 YOU MUST STILL BE BRIGHT AND QUIET,
 AND CONTENT WITH SIMPLE DIET;
 AND REMAIN, THROUGH ALL BEWILD'RING
 INNOCENT AND HONEST CHILDREN.
     -- A CHILD'S GARDEN OF VERSE,
        ROBERT LOUIS STEVENSON
 Job cpu time:       0 days  3 hours 52 minutes 32.5 seconds.
 Elapsed time:       0 days  1 hours  3 minutes 11.0 seconds.
 File lengths (MBytes):  RWF= 128382 Int=      0 D2E=      0 Chk=     33 Scr=      1
 Normal termination of Gaussian 16 at Sun Jul 18 15:15:48 2021.
