 Entering Gaussian System, Link 0=g16
 Initial command:
 /prod/apps/gaussian/g16b1/l1.exe "/tmp/ubator02/1839634/Gau-3970.inp" -scrdir="/tmp/ubator02/1839634/"
 Entering Link 1 = /prod/apps/gaussian/g16b1/l1.exe PID=      3971.
  
 Copyright (c) 1988-2017, Gaussian, Inc.  All Rights Reserved.
  
 This is part of the Gaussian(R) 16 program.  It is based on
 the Gaussian(R) 09 system (copyright 2009, Gaussian, Inc.),
 the Gaussian(R) 03 system (copyright 2003, Gaussian, Inc.),
 the Gaussian(R) 98 system (copyright 1998, Gaussian, Inc.),
 the Gaussian(R) 94 system (copyright 1995, Gaussian, Inc.),
 the Gaussian 92(TM) system (copyright 1992, Gaussian, Inc.),
 the Gaussian 90(TM) system (copyright 1990, Gaussian, Inc.),
 the Gaussian 88(TM) system (copyright 1988, Gaussian, Inc.),
 the Gaussian 86(TM) system (copyright 1986, Carnegie Mellon
 University), and the Gaussian 82(TM) system (copyright 1983,
 Carnegie Mellon University). Gaussian is a federally registered
 trademark of Gaussian, Inc.
  
 This software contains proprietary and confidential information,
 including trade secrets, belonging to Gaussian, Inc.
  
 This software is provided under written license and may be
 used, copied, transmitted, or stored only in accord with that
 written license.
  
 The following legend is applicable only to US Government
 contracts under FAR:
  
                    RESTRICTED RIGHTS LEGEND
  
 Use, reproduction and disclosure by the US Government is
 subject to restrictions as set forth in subparagraphs (a)
 and (c) of the Commercial Computer Software - Restricted
 Rights clause in FAR 52.227-19.
  
 Gaussian, Inc.
 340 Quinnipiac St., Bldg. 40, Wallingford CT 06492
  
  
 ---------------------------------------------------------------
 Warning -- This program may not be used in any manner that
 competes with the business of Gaussian, Inc. or will provide
 assistance to any competitor of Gaussian, Inc.  The licensee
 of this program is prohibited from giving any competitor of
 Gaussian, Inc. access to this program.  By using this program,
 the user acknowledges that Gaussian, Inc. is engaged in the
 business of creating and licensing software in the field of
 computational chemistry and represents and warrants to the
 licensee that it is not a competitor of Gaussian, Inc. and that
 it will not use this program in any manner prohibited above.
 ---------------------------------------------------------------
  

 Cite this work as:
 Gaussian 16, Revision B.01,
 M. J. Frisch, G. W. Trucks, H. B. Schlegel, G. E. Scuseria, 
 M. A. Robb, J. R. Cheeseman, G. Scalmani, V. Barone, 
 G. A. Petersson, H. Nakatsuji, X. Li, M. Caricato, A. V. Marenich, 
 J. Bloino, B. G. Janesko, R. Gomperts, B. Mennucci, H. P. Hratchian, 
 J. V. Ortiz, A. F. Izmaylov, J. L. Sonnenberg, D. Williams-Young, 
 F. Ding, F. Lipparini, F. Egidi, J. Goings, B. Peng, A. Petrone, 
 T. Henderson, D. Ranasinghe, V. G. Zakrzewski, J. Gao, N. Rega, 
 G. Zheng, W. Liang, M. Hada, M. Ehara, K. Toyota, R. Fukuda, 
 J. Hasegawa, M. Ishida, T. Nakajima, Y. Honda, O. Kitao, H. Nakai, 
 T. Vreven, K. Throssell, J. A. Montgomery, Jr., J. E. Peralta, 
 F. Ogliaro, M. J. Bearpark, J. J. Heyd, E. N. Brothers, K. N. Kudin, 
 V. N. Staroverov, T. A. Keith, R. Kobayashi, J. Normand, 
 K. Raghavachari, A. P. Rendell, J. C. Burant, S. S. Iyengar, 
 J. Tomasi, M. Cossi, J. M. Millam, M. Klene, C. Adamo, R. Cammi, 
 J. W. Ochterski, R. L. Martin, K. Morokuma, O. Farkas, 
 J. B. Foresman, and D. J. Fox, Gaussian, Inc., Wallingford CT, 2016.
 
 ******************************************
 Gaussian 16:  ES64L-G16RevB.01 20-Dec-2017
                18-Jul-2021 
 ******************************************
 %mem=800MB
 %nproc=4
 Will use up to    4 processors via shared memory.
 %chk=SET_328_BBB301_conf1.geo_090_285_255.chk
 -----------------------------------------------------------
 #p b3lyp/6-31G(d) opt freq scrf=(iefpcm,read,solvent=water)
 -----------------------------------------------------------
 1/18=20,19=15,26=3,38=1,40=2/1,3;
 2/9=110,12=2,17=6,18=5,40=1/2;
 3/5=1,6=6,7=1,11=2,25=1,30=1,70=2203,71=1,72=1,74=-5/1,2,3;
 4//1;
 5/5=2,38=5,53=1/2;
 6/7=2,8=2,9=2,10=2,28=1/1;
 7//1,2,3,16;
 1/18=20,19=15,26=3/3(2);
 2/9=110/2;
 99//99;
 2/9=110/2;
 3/5=1,6=6,7=1,11=2,25=1,30=1,70=2205,71=1,72=1,74=-5/1,2,3;
 4/5=5,16=3,69=1/1;
 5/5=2,38=5,53=1/2;
 7//1,2,3,16;
 1/18=20,19=15,26=3/3(-5);
 2/9=110/2;
 6/7=2,8=2,9=2,10=2,19=2,28=1/1;
 99/9=1/99;
 Leave Link    1 at Sun Jul 18 14:31:03 2021, MaxMem=   104857600 cpu:               0.1 elap:               0.0
 (Enter /prod/apps/gaussian/g16b1/l101.exe)
 ---------------------------------------------
 SET_328_BBB301_conf1.geo_090_285_255 geometry
 ---------------------------------------------
 Symbolic Z-matrix:
 Charge =  1 Multiplicity = 1
 C                    -0.333    -3.459    -1.495 
 H                    -0.6      -4.317    -0.874 
 H                     0.744    -3.405    -1.328 
 H                    -0.587    -3.791    -2.504 
 C                    -1.118    -2.282    -1.066 
 C                    -1.003    -1.19     -2.157 
 H                     0.048    -1.199    -2.451 
 H                    -1.419    -0.225    -1.859 
 H                    -1.599    -1.442    -3.036 
 C                    -2.57     -2.628    -0.891 
 H                    -3.203    -1.758    -0.706 
 H                    -2.777    -3.325    -0.076 
 H                    -2.919    -2.916    -1.885 
 N                    -0.55     -1.731     0.126 
 H                     0.34     -1.338    -0.105 
 C                    -1.378    -0.656     0.816 
 H                    -2.298    -1.134     1.163 
 H                    -1.72      0.106     0.11 
 C                    -0.748    -0.058     2.135 
 O                     0.041    -1.162     2.56 
 H                    -0.079    -1.633     1.715 
 H                    -1.526     0.276     2.827 
 C                     0.082     1.186     1.769 
 C                     1.357     1.035     1.109 
 H                     1.749     0.041     0.911 
 C                     2.088     2.123     0.576 
 C                     3.338     1.808    -0.201 
 O                     2.893     1.151    -1.37 
 H                     2.054     1.588    -1.601 
 H                     3.907     1.003     0.272 
 H                     3.983     2.682    -0.324 
 C                     1.505     3.435     0.643 
 O                     2.217     4.447     0.034 
 H                     1.729     5.256     0.271 
 C                     0.311     3.633     1.343 
 H                    -0.132     4.618     1.462 
 C                    -0.428     2.505     1.828 
 H                    -1.354     2.696     2.363 
 H                    -0.404    -2.477     0.776 
 
 ITRead=  0  0  0  0  0  0  0  0  0  0  0  0  0  0  0  0  0  0  0  0
 ITRead=  0  0  0  0  0  0  0  0  0  0  0  0  0  0  0  0  0  0  0
 MicOpt= -1 -1 -1 -1 -1 -1 -1 -1 -1 -1 -1 -1 -1 -1 -1 -1 -1 -1 -1 -1
 MicOpt= -1 -1 -1 -1 -1 -1 -1 -1 -1 -1 -1 -1 -1 -1 -1 -1 -1 -1 -1
 NAtoms=     39 NQM=       39 NQMF=       0 NMMI=      0 NMMIF=      0
                NMic=       0 NMicF=      0.
                    Isotopes and Nuclear Properties:
 (Nuclear quadrupole moments (NQMom) in fm**2, nuclear magnetic moments (NMagM)
  in nuclear magnetons)

  Atom         1           2           3           4           5           6           7           8           9          10
 IAtWgt=          12           1           1           1          12          12           1           1           1          12
 AtmWgt=  12.0000000   1.0078250   1.0078250   1.0078250  12.0000000  12.0000000   1.0078250   1.0078250   1.0078250  12.0000000
 NucSpn=           0           1           1           1           0           0           1           1           1           0
 AtZEff=  -0.0000000  -0.0000000  -0.0000000  -0.0000000  -0.0000000  -0.0000000  -0.0000000  -0.0000000  -0.0000000  -0.0000000
 NQMom=    0.0000000   0.0000000   0.0000000   0.0000000   0.0000000   0.0000000   0.0000000   0.0000000   0.0000000   0.0000000
 NMagM=    0.0000000   2.7928460   2.7928460   2.7928460   0.0000000   0.0000000   2.7928460   2.7928460   2.7928460   0.0000000
 AtZNuc=   6.0000000   1.0000000   1.0000000   1.0000000   6.0000000   6.0000000   1.0000000   1.0000000   1.0000000   6.0000000

  Atom        11          12          13          14          15          16          17          18          19          20
 IAtWgt=           1           1           1          14           1          12           1           1          12          16
 AtmWgt=   1.0078250   1.0078250   1.0078250  14.0030740   1.0078250  12.0000000   1.0078250   1.0078250  12.0000000  15.9949146
 NucSpn=           1           1           1           2           1           0           1           1           0           0
 AtZEff=  -0.0000000  -0.0000000  -0.0000000  -0.0000000  -0.0000000  -0.0000000  -0.0000000  -0.0000000  -0.0000000  -0.0000000
 NQMom=    0.0000000   0.0000000   0.0000000   2.0440000   0.0000000   0.0000000   0.0000000   0.0000000   0.0000000   0.0000000
 NMagM=    2.7928460   2.7928460   2.7928460   0.4037610   2.7928460   0.0000000   2.7928460   2.7928460   0.0000000   0.0000000
 AtZNuc=   1.0000000   1.0000000   1.0000000   7.0000000   1.0000000   6.0000000   1.0000000   1.0000000   6.0000000   8.0000000

  Atom        21          22          23          24          25          26          27          28          29          30
 IAtWgt=           1           1          12          12           1          12          12          16           1           1
 AtmWgt=   1.0078250   1.0078250  12.0000000  12.0000000   1.0078250  12.0000000  12.0000000  15.9949146   1.0078250   1.0078250
 NucSpn=           1           1           0           0           1           0           0           0           1           1
 AtZEff=  -0.0000000  -0.0000000  -0.0000000  -0.0000000  -0.0000000  -0.0000000  -0.0000000  -0.0000000  -0.0000000  -0.0000000
 NQMom=    0.0000000   0.0000000   0.0000000   0.0000000   0.0000000   0.0000000   0.0000000   0.0000000   0.0000000   0.0000000
 NMagM=    2.7928460   2.7928460   0.0000000   0.0000000   2.7928460   0.0000000   0.0000000   0.0000000   2.7928460   2.7928460
 AtZNuc=   1.0000000   1.0000000   6.0000000   6.0000000   1.0000000   6.0000000   6.0000000   8.0000000   1.0000000   1.0000000

  Atom        31          32          33          34          35          36          37          38          39
 IAtWgt=           1          12          16           1          12           1          12           1           1
 AtmWgt=   1.0078250  12.0000000  15.9949146   1.0078250  12.0000000   1.0078250  12.0000000   1.0078250   1.0078250
 NucSpn=           1           0           0           1           0           1           0           1           1
 AtZEff=  -0.0000000  -0.0000000  -0.0000000  -0.0000000  -0.0000000  -0.0000000  -0.0000000  -0.0000000  -0.0000000
 NQMom=    0.0000000   0.0000000   0.0000000   0.0000000   0.0000000   0.0000000   0.0000000   0.0000000   0.0000000
 NMagM=    2.7928460   0.0000000   0.0000000   2.7928460   0.0000000   2.7928460   0.0000000   2.7928460   2.7928460
 AtZNuc=   1.0000000   6.0000000   8.0000000   1.0000000   6.0000000   1.0000000   6.0000000   1.0000000   1.0000000
 Leave Link  101 at Sun Jul 18 14:31:03 2021, MaxMem=   104857600 cpu:               0.6 elap:               0.2
 (Enter /prod/apps/gaussian/g16b1/l103.exe)

 GradGradGradGradGradGradGradGradGradGradGradGradGradGradGradGradGradGrad
 Berny optimization.
 Initialization pass.
                           ----------------------------
                           !    Initial Parameters    !
                           ! (Angstroms and Degrees)  !
 --------------------------                            --------------------------
 ! Name  Definition              Value          Derivative Info.                !
 --------------------------------------------------------------------------------
 ! R1    R(1,2)                  1.0923         estimate D2E/DX2                !
 ! R2    R(1,3)                  1.0912         estimate D2E/DX2                !
 ! R3    R(1,4)                  1.0922         estimate D2E/DX2                !
 ! R4    R(1,5)                  1.4784         estimate D2E/DX2                !
 ! R5    R(5,6)                  1.5479         estimate D2E/DX2                !
 ! R6    R(5,10)                 1.5029         estimate D2E/DX2                !
 ! R7    R(5,14)                 1.4308         estimate D2E/DX2                !
 ! R8    R(6,7)                  1.0914         estimate D2E/DX2                !
 ! R9    R(6,8)                  1.0923         estimate D2E/DX2                !
 ! R10   R(6,9)                  1.0915         estimate D2E/DX2                !
 ! R11   R(10,11)                1.0917         estimate D2E/DX2                !
 ! R12   R(10,12)                1.0922         estimate D2E/DX2                !
 ! R13   R(10,13)                1.0921         estimate D2E/DX2                !
 ! R14   R(14,15)                1.0            estimate D2E/DX2                !
 ! R15   R(14,16)                1.5223         estimate D2E/DX2                !
 ! R16   R(14,39)                1.0002         estimate D2E/DX2                !
 ! R17   R(16,17)                1.0933         estimate D2E/DX2                !
 ! R18   R(16,18)                1.0936         estimate D2E/DX2                !
 ! R19   R(16,19)                1.5793         estimate D2E/DX2                !
 ! R20   R(19,20)                1.422          estimate D2E/DX2                !
 ! R21   R(19,22)                1.0935         estimate D2E/DX2                !
 ! R22   R(19,23)                1.5396         estimate D2E/DX2                !
 ! R23   R(20,21)                0.9748         estimate D2E/DX2                !
 ! R24   R(23,24)                1.4436         estimate D2E/DX2                !
 ! R25   R(23,37)                1.4154         estimate D2E/DX2                !
 ! R26   R(24,25)                1.0867         estimate D2E/DX2                !
 ! R27   R(24,26)                1.415          estimate D2E/DX2                !
 ! R28   R(26,27)                1.5051         estimate D2E/DX2                !
 ! R29   R(26,32)                1.4373         estimate D2E/DX2                !
 ! R30   R(27,28)                1.4129         estimate D2E/DX2                !
 ! R31   R(27,30)                1.0934         estimate D2E/DX2                !
 ! R32   R(27,31)                1.0932         estimate D2E/DX2                !
 ! R33   R(28,29)                0.9738         estimate D2E/DX2                !
 ! R34   R(32,33)                1.3791         estimate D2E/DX2                !
 ! R35   R(32,35)                1.3982         estimate D2E/DX2                !
 ! R36   R(33,34)                0.9741         estimate D2E/DX2                !
 ! R37   R(35,36)                1.0866         estimate D2E/DX2                !
 ! R38   R(35,37)                1.4331         estimate D2E/DX2                !
 ! R39   R(37,38)                1.0864         estimate D2E/DX2                !
 ! A1    A(2,1,3)              101.135          estimate D2E/DX2                !
 ! A2    A(2,1,4)              103.2741         estimate D2E/DX2                !
 ! A3    A(2,1,5)              109.3054         estimate D2E/DX2                !
 ! A4    A(3,1,4)              112.7039         estimate D2E/DX2                !
 ! A5    A(3,1,5)              116.1209         estimate D2E/DX2                !
 ! A6    A(4,1,5)              112.7439         estimate D2E/DX2                !
 ! A7    A(1,5,6)              108.5227         estimate D2E/DX2                !
 ! A8    A(1,5,10)             111.3159         estimate D2E/DX2                !
 ! A9    A(1,5,14)             109.7284         estimate D2E/DX2                !
 ! A10   A(6,5,10)             108.4375         estimate D2E/DX2                !
 ! A11   A(6,5,14)             106.6204         estimate D2E/DX2                !
 ! A12   A(10,5,14)            112.0367         estimate D2E/DX2                !
 ! A13   A(5,6,7)              104.809          estimate D2E/DX2                !
 ! A14   A(5,6,8)              113.7457         estimate D2E/DX2                !
 ! A15   A(5,6,9)              111.3563         estimate D2E/DX2                !
 ! A16   A(7,6,8)              116.586          estimate D2E/DX2                !
 ! A17   A(7,6,9)              107.8781         estimate D2E/DX2                !
 ! A18   A(8,6,9)              102.4578         estimate D2E/DX2                !
 ! A19   A(5,10,11)            113.3571         estimate D2E/DX2                !
 ! A20   A(5,10,12)            114.6405         estimate D2E/DX2                !
 ! A21   A(5,10,13)            105.2759         estimate D2E/DX2                !
 ! A22   A(11,10,12)           105.7966         estimate D2E/DX2                !
 ! A23   A(11,10,13)           100.317          estimate D2E/DX2                !
 ! A24   A(12,10,13)           116.7629         estimate D2E/DX2                !
 ! A25   A(5,14,15)            108.1938         estimate D2E/DX2                !
 ! A26   A(5,14,16)            115.6996         estimate D2E/DX2                !
 ! A27   A(5,14,39)            108.1886         estimate D2E/DX2                !
 ! A28   A(15,14,16)           108.1365         estimate D2E/DX2                !
 ! A29   A(15,14,39)           108.2612         estimate D2E/DX2                !
 ! A30   A(16,14,39)           108.1525         estimate D2E/DX2                !
 ! A31   A(14,16,17)           107.0269         estimate D2E/DX2                !
 ! A32   A(14,16,18)           111.6862         estimate D2E/DX2                !
 ! A33   A(14,16,19)           115.4024         estimate D2E/DX2                !
 ! A34   A(17,16,18)           104.2629         estimate D2E/DX2                !
 ! A35   A(17,16,19)           103.6594         estimate D2E/DX2                !
 ! A36   A(18,16,19)           113.5823         estimate D2E/DX2                !
 ! A37   A(16,19,20)           100.194          estimate D2E/DX2                !
 ! A38   A(16,19,22)           111.1227         estimate D2E/DX2                !
 ! A39   A(16,19,23)           108.8114         estimate D2E/DX2                !
 ! A40   A(20,19,22)           116.2816         estimate D2E/DX2                !
 ! A41   A(20,19,23)           113.5312         estimate D2E/DX2                !
 ! A42   A(22,19,23)           106.6906         estimate D2E/DX2                !
 ! A43   A(19,20,21)            92.7365         estimate D2E/DX2                !
 ! A44   A(19,23,24)           120.0198         estimate D2E/DX2                !
 ! A45   A(19,23,37)           123.2855         estimate D2E/DX2                !
 ! A46   A(24,23,37)           115.7706         estimate D2E/DX2                !
 ! A47   A(23,24,25)           119.8394         estimate D2E/DX2                !
 ! A48   A(23,24,26)           123.2338         estimate D2E/DX2                !
 ! A49   A(25,24,26)           116.6369         estimate D2E/DX2                !
 ! A50   A(24,26,27)           117.5533         estimate D2E/DX2                !
 ! A51   A(24,26,32)           118.3453         estimate D2E/DX2                !
 ! A52   A(27,26,32)           123.5029         estimate D2E/DX2                !
 ! A53   A(26,27,28)           105.2405         estimate D2E/DX2                !
 ! A54   A(26,27,30)           111.2811         estimate D2E/DX2                !
 ! A55   A(26,27,31)           112.3813         estimate D2E/DX2                !
 ! A56   A(28,27,30)           100.3391         estimate D2E/DX2                !
 ! A57   A(28,27,31)           117.6789         estimate D2E/DX2                !
 ! A58   A(30,27,31)           109.2842         estimate D2E/DX2                !
 ! A59   A(27,28,29)           105.0083         estimate D2E/DX2                !
 ! A60   A(26,32,33)           116.0941         estimate D2E/DX2                !
 ! A61   A(26,32,35)           119.9348         estimate D2E/DX2                !
 ! A62   A(33,32,35)           123.9213         estimate D2E/DX2                !
 ! A63   A(32,33,34)           104.085          estimate D2E/DX2                !
 ! A64   A(32,35,36)           122.0988         estimate D2E/DX2                !
 ! A65   A(32,35,37)           119.8906         estimate D2E/DX2                !
 ! A66   A(36,35,37)           117.7898         estimate D2E/DX2                !
 ! A67   A(23,37,35)           122.2485         estimate D2E/DX2                !
 ! A68   A(23,37,38)           119.4396         estimate D2E/DX2                !
 ! A69   A(35,37,38)           117.8936         estimate D2E/DX2                !
 ! D1    D(2,1,5,6)           -165.9232         estimate D2E/DX2                !
 ! D2    D(2,1,5,10)           -46.6632         estimate D2E/DX2                !
 ! D3    D(2,1,5,14)            77.9337         estimate D2E/DX2                !
 ! D4    D(3,1,5,6)             80.5191         estimate D2E/DX2                !
 ! D5    D(3,1,5,10)          -160.2209         estimate D2E/DX2                !
 ! D6    D(3,1,5,14)           -35.624          estimate D2E/DX2                !
 ! D7    D(4,1,5,6)            -51.6774         estimate D2E/DX2                !
 ! D8    D(4,1,5,10)            67.5827         estimate D2E/DX2                !
 ! D9    D(4,1,5,14)          -167.8205         estimate D2E/DX2                !
 ! D10   D(1,5,6,7)            -42.3693         estimate D2E/DX2                !
 ! D11   D(1,5,6,8)           -170.8343         estimate D2E/DX2                !
 ! D12   D(1,5,6,9)             74.0111         estimate D2E/DX2                !
 ! D13   D(10,5,6,7)          -163.4208         estimate D2E/DX2                !
 ! D14   D(10,5,6,8)            68.1142         estimate D2E/DX2                !
 ! D15   D(10,5,6,9)           -47.0404         estimate D2E/DX2                !
 ! D16   D(14,5,6,7)            75.7647         estimate D2E/DX2                !
 ! D17   D(14,5,6,8)           -52.7003         estimate D2E/DX2                !
 ! D18   D(14,5,6,9)          -167.855          estimate D2E/DX2                !
 ! D19   D(1,5,10,11)         -172.2333         estimate D2E/DX2                !
 ! D20   D(1,5,10,12)           66.1447         estimate D2E/DX2                !
 ! D21   D(1,5,10,13)          -63.5601         estimate D2E/DX2                !
 ! D22   D(6,5,10,11)          -52.9225         estimate D2E/DX2                !
 ! D23   D(6,5,10,12)         -174.5445         estimate D2E/DX2                !
 ! D24   D(6,5,10,13)           55.7508         estimate D2E/DX2                !
 ! D25   D(14,5,10,11)          64.4783         estimate D2E/DX2                !
 ! D26   D(14,5,10,12)         -57.1437         estimate D2E/DX2                !
 ! D27   D(14,5,10,13)         173.1516         estimate D2E/DX2                !
 ! D28   D(1,5,14,15)           68.1971         estimate D2E/DX2                !
 ! D29   D(1,5,14,16)         -170.3494         estimate D2E/DX2                !
 ! D30   D(1,5,14,39)          -48.8791         estimate D2E/DX2                !
 ! D31   D(6,5,14,15)          -49.1417         estimate D2E/DX2                !
 ! D32   D(6,5,14,16)           72.3118         estimate D2E/DX2                !
 ! D33   D(6,5,14,39)         -166.2178         estimate D2E/DX2                !
 ! D34   D(10,5,14,15)        -167.6246         estimate D2E/DX2                !
 ! D35   D(10,5,14,16)         -46.1711         estimate D2E/DX2                !
 ! D36   D(10,5,14,39)          75.2992         estimate D2E/DX2                !
 ! D37   D(5,14,16,17)          64.9357         estimate D2E/DX2                !
 ! D38   D(5,14,16,18)         -48.5847         estimate D2E/DX2                !
 ! D39   D(5,14,16,19)         179.6971         estimate D2E/DX2                !
 ! D40   D(15,14,16,17)       -173.5801         estimate D2E/DX2                !
 ! D41   D(15,14,16,18)         72.8995         estimate D2E/DX2                !
 ! D42   D(15,14,16,19)        -58.8187         estimate D2E/DX2                !
 ! D43   D(39,14,16,17)        -56.554          estimate D2E/DX2                !
 ! D44   D(39,14,16,18)       -170.0744         estimate D2E/DX2                !
 ! D45   D(39,14,16,19)         58.2074         estimate D2E/DX2                !
 ! D46   D(14,16,19,20)        -27.2303         estimate D2E/DX2                !
 ! D47   D(14,16,19,22)       -150.718          estimate D2E/DX2                !
 ! D48   D(14,16,19,23)         92.097          estimate D2E/DX2                !
 ! D49   D(17,16,19,20)         89.4497         estimate D2E/DX2                !
 ! D50   D(17,16,19,22)        -34.0381         estimate D2E/DX2                !
 ! D51   D(17,16,19,23)       -151.2231         estimate D2E/DX2                !
 ! D52   D(18,16,19,20)       -158.0474         estimate D2E/DX2                !
 ! D53   D(18,16,19,22)         78.4648         estimate D2E/DX2                !
 ! D54   D(18,16,19,23)        -38.7202         estimate D2E/DX2                !
 ! D55   D(16,19,20,21)         11.1752         estimate D2E/DX2                !
 ! D56   D(22,19,20,21)        130.9875         estimate D2E/DX2                !
 ! D57   D(23,19,20,21)       -104.6511         estimate D2E/DX2                !
 ! D58   D(16,19,23,24)        -73.6703         estimate D2E/DX2                !
 ! D59   D(16,19,23,37)         94.8548         estimate D2E/DX2                !
 ! D60   D(20,19,23,24)         36.9556         estimate D2E/DX2                !
 ! D61   D(20,19,23,37)       -154.5192         estimate D2E/DX2                !
 ! D62   D(22,19,23,24)        166.3571         estimate D2E/DX2                !
 ! D63   D(22,19,23,37)        -25.1177         estimate D2E/DX2                !
 ! D64   D(19,23,24,25)         -2.6956         estimate D2E/DX2                !
 ! D65   D(19,23,24,26)        170.9084         estimate D2E/DX2                !
 ! D66   D(37,23,24,25)       -172.0538         estimate D2E/DX2                !
 ! D67   D(37,23,24,26)          1.5502         estimate D2E/DX2                !
 ! D68   D(19,23,37,35)       -172.9141         estimate D2E/DX2                !
 ! D69   D(19,23,37,38)         14.6689         estimate D2E/DX2                !
 ! D70   D(24,23,37,35)         -3.9413         estimate D2E/DX2                !
 ! D71   D(24,23,37,38)       -176.3583         estimate D2E/DX2                !
 ! D72   D(23,24,26,27)       -174.2733         estimate D2E/DX2                !
 ! D73   D(23,24,26,32)         -2.8274         estimate D2E/DX2                !
 ! D74   D(25,24,26,27)         -0.4793         estimate D2E/DX2                !
 ! D75   D(25,24,26,32)        170.9666         estimate D2E/DX2                !
 ! D76   D(24,26,27,28)         67.2933         estimate D2E/DX2                !
 ! D77   D(24,26,27,30)        -40.5099         estimate D2E/DX2                !
 ! D78   D(24,26,27,31)       -163.4451         estimate D2E/DX2                !
 ! D79   D(32,26,27,28)       -103.6743         estimate D2E/DX2                !
 ! D80   D(32,26,27,30)        148.5225         estimate D2E/DX2                !
 ! D81   D(32,26,27,31)         25.5873         estimate D2E/DX2                !
 ! D82   D(24,26,32,33)       -175.9735         estimate D2E/DX2                !
 ! D83   D(24,26,32,35)          6.4919         estimate D2E/DX2                !
 ! D84   D(27,26,32,33)         -5.0729         estimate D2E/DX2                !
 ! D85   D(27,26,32,35)        177.3924         estimate D2E/DX2                !
 ! D86   D(26,27,28,29)         35.8815         estimate D2E/DX2                !
 ! D87   D(30,27,28,29)        151.4817         estimate D2E/DX2                !
 ! D88   D(31,27,28,29)        -90.1733         estimate D2E/DX2                !
 ! D89   D(26,32,33,34)       -173.621          estimate D2E/DX2                !
 ! D90   D(35,32,33,34)          3.8043         estimate D2E/DX2                !
 ! D91   D(26,32,35,36)        176.6064         estimate D2E/DX2                !
 ! D92   D(26,32,35,37)         -8.9127         estimate D2E/DX2                !
 ! D93   D(33,32,35,36)         -0.7253         estimate D2E/DX2                !
 ! D94   D(33,32,35,37)        173.7557         estimate D2E/DX2                !
 ! D95   D(32,35,37,23)          7.7961         estimate D2E/DX2                !
 ! D96   D(32,35,37,38)       -179.6752         estimate D2E/DX2                !
 ! D97   D(36,35,37,23)       -177.4882         estimate D2E/DX2                !
 ! D98   D(36,35,37,38)         -4.9595         estimate D2E/DX2                !
 --------------------------------------------------------------------------------
 Trust Radius=3.00D-01 FncErr=1.00D-07 GrdErr=1.00D-06 EigMax=2.50D+02 EigMin=1.00D-04
 Number of steps in this run=    216 maximum allowed number of steps=    234.
 GradGradGradGradGradGradGradGradGradGradGradGradGradGradGradGradGradGrad

 Leave Link  103 at Sun Jul 18 14:31:03 2021, MaxMem=   104857600 cpu:               0.1 elap:               0.0
 (Enter /prod/apps/gaussian/g16b1/l202.exe)
                          Input orientation:                          
 ---------------------------------------------------------------------
 Center     Atomic      Atomic             Coordinates (Angstroms)
 Number     Number       Type             X           Y           Z
 ---------------------------------------------------------------------
      1          6           0       -0.333000   -3.459000   -1.495000
      2          1           0       -0.600000   -4.317000   -0.874000
      3          1           0        0.744000   -3.405000   -1.328000
      4          1           0       -0.587000   -3.791000   -2.504000
      5          6           0       -1.118000   -2.282000   -1.066000
      6          6           0       -1.003000   -1.190000   -2.157000
      7          1           0        0.048000   -1.199000   -2.451000
      8          1           0       -1.419000   -0.225000   -1.859000
      9          1           0       -1.599000   -1.442000   -3.036000
     10          6           0       -2.570000   -2.628000   -0.891000
     11          1           0       -3.203000   -1.758000   -0.706000
     12          1           0       -2.777000   -3.325000   -0.076000
     13          1           0       -2.919000   -2.916000   -1.885000
     14          7           0       -0.550000   -1.731000    0.126000
     15          1           0        0.340000   -1.338000   -0.105000
     16          6           0       -1.378000   -0.656000    0.816000
     17          1           0       -2.298000   -1.134000    1.163000
     18          1           0       -1.720000    0.106000    0.110000
     19          6           0       -0.748000   -0.058000    2.135000
     20          8           0        0.041000   -1.162000    2.560000
     21          1           0       -0.079000   -1.633000    1.715000
     22          1           0       -1.526000    0.276000    2.827000
     23          6           0        0.082000    1.186000    1.769000
     24          6           0        1.357000    1.035000    1.109000
     25          1           0        1.749000    0.041000    0.911000
     26          6           0        2.088000    2.123000    0.576000
     27          6           0        3.338000    1.808000   -0.201000
     28          8           0        2.893000    1.151000   -1.370000
     29          1           0        2.054000    1.588000   -1.601000
     30          1           0        3.907000    1.003000    0.272000
     31          1           0        3.983000    2.682000   -0.324000
     32          6           0        1.505000    3.435000    0.643000
     33          8           0        2.217000    4.447000    0.034000
     34          1           0        1.729000    5.256000    0.271000
     35          6           0        0.311000    3.633000    1.343000
     36          1           0       -0.132000    4.618000    1.462000
     37          6           0       -0.428000    2.505000    1.828000
     38          1           0       -1.354000    2.696000    2.363000
     39          1           0       -0.404000   -2.477000    0.776000
 ---------------------------------------------------------------------
                    Distance matrix (angstroms):
                    1          2          3          4          5
     1  C    0.000000
     2  H    1.092288   0.000000
     3  H    1.091208   1.686474   0.000000
     4  H    1.092163   1.712818   1.817562   0.000000
     5  C    1.478376   2.108652   2.190164   2.151020   0.000000
     6  C    2.456726   3.403913   2.940319   2.656815   1.547892
     7  H    2.483284   3.553696   2.571377   2.669176   2.109661
     8  H    3.430838   4.287826   3.882387   3.718145   2.225017
     9  H    2.836499   3.733346   3.501469   2.612464   2.194963
    10  C    2.461615   2.594978   3.431806   2.808314   1.502879
    11  H    3.428239   3.654082   4.321840   3.769529   2.179771
    12  H    2.829250   2.521943   3.737826   3.302793   2.195502
    13  H    2.671019   2.891830   3.737237   2.566517   2.077575
    14  N    2.379226   2.773066   2.567261   3.340938   1.430765
    15  H    2.623675   3.217049   2.435454   3.554116   1.985049
    16  C    3.780153   4.106617   4.081252   4.634254   2.500680
    17  H    4.041264   4.142953   4.540516   4.840874   2.771055
    18  H    4.148375   4.667503   4.523965   4.827349   2.729088
    19  C    4.991586   5.216806   5.041909   5.956638   3.915288
    20  O    4.675373   4.707150   4.543325   5.740220   3.968067
    21  H    3.701742   3.765397   3.616236   4.766024   3.038862
    22  H    5.835508   5.970806   5.997223   6.770655   4.676032
    23  C    5.692271   6.142767   5.577359   6.593680   4.637267
    24  C    5.461955   6.033742   5.101798   6.334286   4.675333
    25  H    4.730070   5.262717   4.230610   5.639445   4.186233
    26  C    6.427208   7.127513   5.999195   7.184526   5.690222
    27  C    6.549196   7.312756   5.930795   7.215139   6.110013
    28  O    5.628037   6.507387   5.037569   6.149774   5.288291
    29  H    5.584014   6.514696   5.169205   6.060027   5.032366
    30  H    6.403853   7.066029   5.656415   7.133348   6.150780
    31  H    7.596774   8.384056   6.967834   8.218092   7.156260
    32  C    7.448256   8.174706   7.158880   8.154456   6.518044
    33  O    8.446607   9.250278   8.104238   9.064684   7.590235
    34  H    9.128079   9.918548   8.862277   9.742314   8.167890
    35  C    7.665862   8.303464   7.540237   8.409613   6.544658
    36  H    8.603614   9.247170   8.539321   9.308462   7.414377
    37  C    6.827932   7.339623   6.801619   7.644025   5.636196
    38  H    7.335573   7.760725   7.432852   8.145990   6.049316
    39  H    2.475239   2.479217   2.570195   3.538147   1.985141
                    6          7          8          9         10
     6  C    0.000000
     7  H    1.091384   0.000000
     8  H    1.092284   1.857748   0.000000
     9  H    1.091495   1.764620   1.702592   0.000000
    10  C    2.475094   3.365942   2.834825   2.636373   0.000000
    11  H    2.695927   3.731824   2.619571   2.846326   1.091702
    12  H    3.469274   4.259240   3.825344   3.700672   1.092192
    13  H    2.593090   3.474411   3.080934   2.289078   1.092145
    14  N    2.389556   2.698436   2.638830   3.343975   2.432961
    15  H    2.456880   2.368185   2.722015   3.515864   3.278719
    16  C    3.043766   3.605775   2.709809   3.937581   2.867664
    17  H    3.564065   4.309169   3.275882   4.267911   2.554395
    18  H    2.707950   3.374547   2.019189   3.508313   3.033028
    19  C    4.446090   4.792379   4.053414   5.420230   4.368210
    20  O    4.831233   5.011141   4.747329   5.838083   4.569013
    21  H    4.005298   4.190470   4.068358   4.991882   3.739832
    22  H    5.221393   5.701788   4.713920   6.109961   4.831840
    23  C    4.715515   4.847451   4.172087   5.728889   5.353065
    24  C    4.602932   4.402026   4.254739   5.661668   5.730523
    25  H    4.301336   3.966616   4.216619   5.383976   5.387442
    26  C    5.291459   4.935586   4.872512   6.272937   6.813300
    27  C    5.626564   4.992860   5.432412   6.555432   7.420152
    28  O    4.612859   3.845138   4.552564   5.447685   6.659929
    29  H    4.167933   3.537500   3.926227   4.958279   6.297629
    30  H    5.900626   5.211086   5.866466   6.872912   7.515867
    31  H    6.573619   5.922036   6.323644   7.451244   8.453366
    32  C    5.959924   5.759309   5.310874   6.852371   7.464499
    33  O    6.851617   6.538891   6.215427   7.659444   8.592242
    34  H    7.410123   7.204309   6.669945   8.177716   9.054783
    35  C    6.102289   6.149132   5.303760   6.969890   7.245070
    36  H    6.898454   7.012949   6.011660   7.688153   7.999061
    37  C    5.464785   5.679439   4.693501   6.372484   6.191027
    38  H    5.971147   6.349112   5.134369   6.806781   6.357055
    39  H    3.258475   3.500160   3.611780   4.126814   2.737379
                   11         12         13         14         15
    11  H    0.000000
    12  H    1.741799   0.000000
    13  H    1.676801   1.860088   0.000000
    14  N    2.780533   2.746119   3.325734   0.000000
    15  H    3.618073   3.696579   4.034794   0.999955   0.000000
    16  C    2.619449   3.142678   3.844175   1.522271   2.065161
    17  H    2.168309   2.562234   3.584895   2.118321   2.934022
    18  H    2.517864   3.594942   3.814461   2.178009   2.524869
    19  C    4.121687   4.436063   5.389045   2.621872   2.799954
    20  O    4.641714   4.423595   5.621044   2.568540   2.687490
    21  H    3.954269   3.653731   4.761480   1.660231   1.890763
    22  H    4.408126   4.791619   5.859373   3.503716   3.831915
    23  C    5.058061   5.650401   6.259722   3.407017   3.154206
    24  C    5.647006   6.124033   6.546649   3.500528   2.852931
    25  H    5.511206   5.726151   6.192874   3.006927   2.217922
    26  C    6.685833   7.333078   7.517851   4.692000   3.936723
    27  C    7.466998   7.984769   8.018858   5.267636   4.346785
    28  O    6.787075   7.338795   7.112317   4.732673   3.783273
    29  H    6.295458   7.057036   6.715460   4.558410   3.706385
    30  H    7.689714   7.970480   8.161218   5.230767   4.283211
    31  H    8.455656   9.046721   9.022856   6.342331   5.429531
    32  C    7.138089   8.034307   8.142344   5.583715   4.969734
    33  O    8.272002   9.238838   9.180132   6.769966   6.083476
    34  H    8.629910   9.698351   9.645404   7.350717   6.749188
    35  C    6.753479   7.743582   7.983877   5.567307   5.177682
    36  H    7.401665   8.511916   8.702352   6.501494   6.176747
    37  C    5.682865   6.567489   7.026997   4.566770   4.369778
    38  H    5.716264   6.650270   7.210359   5.024830   5.023327
    39  H    3.247720   2.660101   3.687664   1.000166   1.620808
                   16         17         18         19         20
    16  C    0.000000
    17  H    1.093295   0.000000
    18  H    1.093638   1.726410   0.000000
    19  C    1.579324   2.122513   2.252178   0.000000
    20  O    2.304590   2.724576   3.272834   1.421957   0.000000
    21  H    1.857453   2.340441   2.879762   1.761984   0.974816
    22  H    2.221407   2.313651   2.729217   1.093483   2.143507
    23  C    2.536291   3.378467   2.676917   1.539608   2.477996
    24  C    3.228863   4.250471   3.365854   2.584250   2.943479
    25  H    3.205146   4.221651   3.560869   2.782622   2.661517
    26  C    4.449000   5.494508   4.334318   3.902581   4.349447
    27  C    5.417217   6.502335   5.345736   5.063028   5.226302
    28  O    5.126918   6.211586   4.956026   5.196498   5.378547
    29  H    4.759837   5.829999   4.400786   4.951587   5.378530
    30  H    5.565918   6.622890   5.700349   5.124989   4.986795
    31  H    6.417333   7.498266   6.272826   5.994718   6.215558
    32  C    5.007784   5.967325   4.665507   4.416234   5.191396
    33  O    6.290958   7.266872   5.860890   5.787957   6.525070
    34  H    6.700912   7.605557   6.200324   6.152123   7.019942
    35  C    4.639609   5.437239   4.252644   3.920743   4.954393
    36  H    5.457555   6.153573   4.970693   4.764175   5.885910
    37  C    3.452327   4.145051   3.221178   2.601080   3.768644
    38  H    3.691841   4.123110   3.452255   2.829087   4.107189
    39  H    2.065506   2.353859   2.974441   2.795850   2.260510
                   21         22         23         24         25
    21  H    0.000000
    22  H    2.640953   0.000000
    23  C    2.824110   2.129114   0.000000
    24  C    3.089912   3.440828   1.443616   0.000000
    25  H    2.605816   3.801566   2.196834   1.086694   0.000000
    26  C    4.483386   4.641057   2.515006   1.414989   2.135853
    27  C    5.214156   5.930793   3.856076   2.497597   2.623691
    28  O    5.108881   6.156947   4.213819   2.918594   2.782768
    29  H    5.091207   5.843366   3.925212   2.852318   2.965869
    30  H    4.991888   6.047648   4.111584   2.684044   2.447597
    31  H    6.267104   6.787247   4.672950   3.414963   3.672991
    32  C    5.416905   4.892453   2.889776   2.449298   3.413297
    33  O    6.712956   6.261640   4.266447   3.679262   4.516745
    34  H    7.267209   6.475227   4.639128   4.319429   5.254163
    35  C    5.293509   4.104421   2.494339   2.810423   3.893190
    36  H    6.256342   4.760192   3.452343   3.896103   4.979025
    37  C    4.154228   2.678068   1.415395   2.421587   3.413431
    38  H    4.559141   2.470077   2.166802   3.417742   4.334275
    39  H    1.303719   3.611716   3.826201   3.942861   3.315714
                   26         27         28         29         30
    26  C    0.000000
    27  C    1.505143   0.000000
    28  O    2.319423   1.412882   0.000000
    29  H    2.242033   1.912343   0.973782   0.000000
    30  H    2.157679   1.093396   1.935527   2.698882   0.000000
    31  H    2.171061   1.093174   2.150855   2.559024   1.783265
    32  C    1.437262   2.592172   3.345948   2.957760   3.438294
    33  O    2.389850   2.876836   3.645793   3.297526   3.843681
    34  H    3.168216   3.834106   4.571521   4.130888   4.778252
    35  C    2.454815   3.857109   4.493041   3.985876   4.582047
    36  H    3.455202   4.764721   5.402864   4.831301   5.549581
    37  C    2.836139   4.334213   4.805160   4.331195   4.844519
    38  H    3.920340   5.420102   5.861683   5.343728   5.909031
    39  H    5.235462   5.772202   5.351440   5.311885   5.563195
                   31         32         33         34         35
    31  H    0.000000
    32  C    2.764522   0.000000
    33  O    2.522329   1.379119   0.000000
    34  H    3.472754   1.872058   0.974061   0.000000
    35  C    4.143293   1.398156   2.451308   2.407081   0.000000
    36  H    4.885808   2.179454   2.754310   2.299749   1.086570
    37  C    4.911146   2.450635   3.739763   3.826865   1.433084
    38  H    5.975260   3.417368   4.608935   4.520504   2.165778
    39  H    6.860834   6.213993   7.440563   8.037662   6.177768
                   36         37         38         39
    36  H    0.000000
    37  C    2.164796   0.000000
    38  H    2.449320   1.086362   0.000000
    39  H    7.133274   5.091916   5.493724   0.000000
 Stoichiometry    C13H22NO3(1+)
 Framework group  C1[X(C13H22NO3)]
 Deg. of freedom   111
 Full point group                 C1      NOp   1
 Largest Abelian subgroup         C1      NOp   1
 Largest concise Abelian subgroup C1      NOp   1
                         Standard orientation:                         
 ---------------------------------------------------------------------
 Center     Atomic      Atomic             Coordinates (Angstroms)
 Number     Number       Type             X           Y           Z
 ---------------------------------------------------------------------
      1          6           0        3.889142    1.586548    0.508150
      2          1           0        4.632012    1.054941    1.107009
      3          1           0        3.292667    2.063815    1.287361
      4          1           0        4.489361    2.300510   -0.060019
      5          6           0        3.177633    0.621820   -0.357095
      6          6           0        2.398147    1.411268   -1.436513
      7          1           0        1.956727    2.253900   -0.901500
      8          1           0        1.715620    0.794503   -2.025448
      9          1           0        3.069485    1.812402   -2.197932
     10          6           0        4.138499   -0.305044   -1.047241
     11          1           0        3.663363   -0.942071   -1.795744
     12          1           0        4.677488   -0.981342   -0.380162
     13          1           0        4.743908    0.335925   -1.691772
     14          7           0        2.203835   -0.090134    0.412274
     15          1           0        1.483931    0.551889    0.675816
     16          6           0        1.550058   -1.275310   -0.284319
     17          1           0        2.334786   -2.015924   -0.460346
     18          1           0        1.198648   -1.011852   -1.285890
     19          6           0        0.481806   -2.060598    0.573834
     20          8           0        0.964708   -1.791885    1.884010
     21          1           0        1.587802   -1.113157    1.565658
     22          1           0        0.437362   -3.113089    0.280593
     23          6           0       -0.911124   -1.465543    0.298065
     24          6           0       -1.268472   -0.179023    0.846876
     25          1           0       -0.568828    0.347516    1.490428
     26          6           0       -2.448226    0.515829    0.489727
     27          6           0       -2.630775    1.905574    1.038123
     28          8           0       -1.629918    2.684846    0.415825
     29          1           0       -1.555593    2.326099   -0.486409
     30          1           0       -2.306991    1.966495    2.080700
     31          1           0       -3.664973    2.251173    0.960487
     32          6           0       -3.302765   -0.060338   -0.512030
     33          8           0       -4.393759    0.695630   -0.886484
     34          1           0       -4.896486    0.108806   -1.479524
     35          6           0       -3.032280   -1.339183   -1.008248
     36          1           0       -3.684496   -1.830138   -1.725335
     37          6           0       -1.805233   -1.994274   -0.663368
     38          1           0       -1.625969   -2.985060   -1.071277
     39          1           0        2.646630   -0.423499    1.244819
 ---------------------------------------------------------------------
 Rotational constants (GHZ):           0.7021407           0.2630357           0.2269793
 Leave Link  202 at Sun Jul 18 14:31:03 2021, MaxMem=   104857600 cpu:               0.1 elap:               0.0
 (Enter /prod/apps/gaussian/g16b1/l301.exe)
 Standard basis: 6-31G(d) (6D, 7F)
 Ernie: Thresh=  0.10000D-02 Tol=  0.10000D-05 Strict=F.
 There are   299 symmetry adapted cartesian basis functions of A   symmetry.
 There are   299 symmetry adapted basis functions of A   symmetry.
   299 basis functions,   564 primitive gaussians,   299 cartesian basis functions
    65 alpha electrons       65 beta electrons
       nuclear repulsion energy      1296.3981181419 Hartrees.
 IExCor=  402 DFT=T Ex+Corr=B3LYP ExCW=0 ScaHFX=  0.200000
 ScaDFX=  0.800000  0.720000  1.000000  0.810000 ScalE2=  1.000000  1.000000
 IRadAn=      5 IRanWt=     -1 IRanGd=            0 ICorTp=0 IEmpDi=  4
 NAtoms=   39 NActive=   39 NUniq=   39 SFac= 1.00D+00 NAtFMM=   60 NAOKFM=F Big=F
 Integral buffers will be    131072 words long.
 Raffenetti 2 integral format.
 Two-electron integral symmetry is turned on.
 Using the following non-standard input for PCM:
 MSTModel=DFT cav MSTCharged
 --- end of non-standard input.
 MST model for solvation energy: B3LYP parametrization.
 MST cavity parameters:
 ISph   IAn     Re0     Alpha   Atom Type   QCorr
 ------------------------------------------------
   1      6     1.50     1.25      CH3        F
   2      1     1.20     1.25      CH3        F
   3      1     1.20     1.25      CH3        F
   4      1     1.20     1.25      CH3        F
   5      6     1.50     1.25      C          F
   6      6     1.50     1.25      CH3        F
   7      1     1.20     1.25      CH3        F
   8      1     1.20     1.25      CH3        F
   9      1     1.20     1.25      CH3        F
  10      6     1.50     1.25      CH3        F
  11      1     1.20     1.25      CH3        F
  12      1     1.20     1.25      CH3        F
  13      1     1.20     1.25      CH3        F
  14      7     1.55     1.15      NH         T
  15      1     0.90     1.15      NH         T
  16      6     1.50     1.25      CH2        F
  17      1     1.20     1.25      CH2        F
  18      1     1.20     1.25      CH2        F
  19      6     1.50     1.25      CH         F
  20      8     1.45     1.25      OH         F
  21      1     0.90     1.25      OH         F
  22      1     1.20     1.25      CH         F
  23      6     1.50     1.25      C          F
  24      6     1.50     1.25      CH         F
  25      1     1.20     1.25      CH         F
  26      6     1.50     1.25      C          F
  27      6     1.50     1.25      CH2        F
  28      8     1.45     1.25      OH         F
  29      1     0.90     1.25      OH         F
  30      1     1.20     1.25      CH2        F
  31      1     1.20     1.25      CH2        F
  32      6     1.50     1.25      C          F
  33      8     1.45     1.25      OH         F
  34      1     0.90     1.25      OH         F
  35      6     1.50     1.25      CH         F
  36      1     1.20     1.25      CH         F
  37      6     1.50     1.25      CH         F
  38      1     1.20     1.25      CH         F
  39      1     0.90     1.15      NH         T
 ------------------------------------------------------------------------------
 Polarizable Continuum Model (PCM)
 =================================
 Model                : PCM.
 Atomic radii         : MST.
 Polarization charges : Total charges.
 Charge compensation  : None.
 Solution method      : On-the-fly selection.
 Cavity type          : Scaled VdW (van der Waals Surface) (Alpha=1.250).
 Cavity algorithm     : GePol (No added spheres)
                        Default sphere list used, NSphG=   39.
                        Lebedev-Laikov grids with approx.  5.0 points / Ang**2.
                        Smoothing algorithm: York/Karplus (Gamma=1.0000).
                        Polarization charges: spherical gaussians, with
                                              point-specific exponents (IZeta= 3).
                        Self-potential: point-specific (ISelfS= 7).
                        Self-field    : sphere-specific E.n sum rule (ISelfD= 2).
 1st derivatives      : Analytical E(r).r(x)/FMM algorithm (CHGder, D1EAlg=3).
                        Cavity 1st derivative terms included.
 Solvent              : Water, Eps=  78.355300 Eps(inf)=   1.777849
 ------------------------------------------------------------------------------
 GePol: Number of generator spheres                  =      39
 GePol: Total number of spheres                      =      39
 GePol: Number of exposed spheres                    =      39 (100.00%)
 GePol: Number of points                             =    2633
 GePol: Average weight of points                     =       0.12
 GePol: Minimum weight of points                     =   0.15D-09
 GePol: Maximum weight of points                     =    0.21416
 GePol: Number of points with low weight             =     210
 GePol: Fraction of low-weight points (<1% of avg)   =       7.98%
 GePol: Cavity surface area                          =    325.805 Ang**2
 GePol: Cavity volume                                =    311.952 Ang**3
 PCM non-electrostatic energy =         0.0007931089 Hartrees.
 Nuclear repulsion after PCM non-electrostatic terms =     1296.3989112508 Hartrees.
 Leave Link  301 at Sun Jul 18 14:31:04 2021, MaxMem=   104857600 cpu:               0.3 elap:               0.1
 (Enter /prod/apps/gaussian/g16b1/l302.exe)
 NPDir=0 NMtPBC=     1 NCelOv=     1 NCel=       1 NClECP=     1 NCelD=      1
         NCelK=      1 NCelE2=     1 NClLst=     1 CellRange=     0.0.
 One-electron integrals computed using PRISM.
 One-electron integral symmetry used in STVInt
 NBasis=   299 RedAO= T EigKep=  5.40D-04  NBF=   299
 NBsUse=   299 1.00D-06 EigRej= -1.00D+00 NBFU=   299
 Precomputing XC quadrature grid using
 IXCGrd= 4 IRadAn=           5 IRanWt=          -1 IRanGd=           0 AccXCQ= 0.00D+00.
 Generated NRdTot=       0 NPtTot=           0 NUsed=           0 NTot=          32
 NSgBfM=   298   298   298   298   298 MxSgAt=    39 MxSgA2=    39.
 Leave Link  302 at Sun Jul 18 14:31:04 2021, MaxMem=   104857600 cpu:               2.5 elap:               0.6
 (Enter /prod/apps/gaussian/g16b1/l303.exe)
 DipDrv:  MaxL=1.
 Leave Link  303 at Sun Jul 18 14:31:04 2021, MaxMem=   104857600 cpu:               0.2 elap:               0.1
 (Enter /prod/apps/gaussian/g16b1/l401.exe)
 ExpMin= 1.61D-01 ExpMax= 5.48D+03 ExpMxC= 8.25D+02 IAcc=3 IRadAn=         5 AccDes= 0.00D+00
 Harris functional with IExCor=  402 and IRadAn=       5 diagonalized for initial guess.
 HarFok:  IExCor=  402 AccDes= 0.00D+00 IRadAn=         5 IDoV= 1 UseB2=F ITyADJ=14
 ICtDFT=  3500011 ScaDFX=  1.000000  1.000000  1.000000  1.000000
 FoFCou: FMM=F IPFlag=           0 FMFlag=      100000 FMFlg1=           0
         NFxFlg=           0 DoJE=T BraDBF=F KetDBF=T FulRan=T
         wScrn=  0.000000 ICntrl=       500 IOpCl=  0 I1Cent=   200000004 NGrid=           0
         NMat0=    1 NMatS0=      1 NMatT0=    0 NMatD0=    1 NMtDS0=    0 NMtDT0=    0
 Petite list used in FoFCou.
 Harris En= -788.768272851909    
 JPrj=0 DoOrth=F DoCkMO=F.
 Leave Link  401 at Sun Jul 18 14:31:07 2021, MaxMem=   104857600 cpu:              10.2 elap:               2.6
 (Enter /prod/apps/gaussian/g16b1/l502.exe)
 Integral symmetry usage will be decided dynamically.
 Closed shell SCF:
 Using DIIS extrapolation, IDIIS=  1040.
 NGot=   104857600 LenX=   104673424 LenY=   104583582
 Requested convergence on RMS density matrix=1.00D-08 within 128 cycles.
 Requested convergence on MAX density matrix=1.00D-06.
 Requested convergence on             energy=1.00D-06.
 No special actions if energy rises.
 Fock matrices will be formed incrementally for  20 cycles.

 Cycle   1  Pass 1  IDiag  1:
 FoFJK:  IHMeth= 1 ICntrl=       0 DoSepK=F KAlg= 0 I1Cent=           0 FoldK=F
 IRaf= 840000000 NMat=       1 IRICut=       1 DoRegI=T DoRafI=F ISym2E= 0 IDoP0=0 IntGTp=1.
 FoFCou: FMM=F IPFlag=           0 FMFlag=      100000 FMFlg1=           0
         NFxFlg=           0 DoJE=F BraDBF=F KetDBF=F FulRan=T
         wScrn=  0.000000 ICntrl=         0 IOpCl=  0 I1Cent=           0 NGrid=           0
         NMat0=    1 NMatS0=      1 NMatT0=    0 NMatD0=    1 NMtDS0=    0 NMtDT0=    0
 Symmetry not used in FoFCou.
 Inv3:  Mode=1 IEnd=    20798067.
 Iteration    1 A*A^-1 deviation from unit magnitude is 3.44D-15 for   1265.
 Iteration    1 A*A^-1 deviation from orthogonality  is 3.35D-15 for   1367     73.
 Iteration    1 A^-1*A deviation from unit magnitude is 3.33D-15 for   1108.
 Iteration    1 A^-1*A deviation from orthogonality  is 2.33D-15 for   2592   2568.
 E= -788.409038423103    
 DIIS: error= 3.25D-02 at cycle   1 NSaved=   1.
 NSaved= 1 IEnMin= 1 EnMin= -788.409038423103     IErMin= 1 ErrMin= 3.25D-02
 ErrMax= 3.25D-02  0.00D+00 EMaxC= 1.00D-01 BMatC= 4.40D-01 BMatP= 4.40D-01
 IDIUse=3 WtCom= 6.75D-01 WtEn= 3.25D-01
 Coeff-Com:  0.100D+01
 Coeff-En:   0.100D+01
 Coeff:      0.100D+01
 Gap=     0.216 Goal=   None    Shift=    0.000
 GapD=    0.216 DampG=1.000 DampE=0.500 DampFc=0.5000 IDamp=-1.
 Damping current iteration by 5.00D-01
 RMSDP=4.45D-03 MaxDP=1.26D-01              OVMax= 1.74D-01

 Cycle   2  Pass 1  IDiag  1:
 RMSU=  2.20D-03    CP:  9.82D-01
 E= -788.597204336766     Delta-E=       -0.188165913663 Rises=F Damp=T
 DIIS: error= 7.23D-03 at cycle   2 NSaved=   2.
 NSaved= 2 IEnMin= 2 EnMin= -788.597204336766     IErMin= 2 ErrMin= 7.23D-03
 ErrMax= 7.23D-03  0.00D+00 EMaxC= 1.00D-01 BMatC= 2.46D-02 BMatP= 4.40D-01
 IDIUse=3 WtCom= 9.28D-01 WtEn= 7.23D-02
 Coeff-Com:  0.580D-01 0.942D+00
 Coeff-En:   0.781D-01 0.922D+00
 Coeff:      0.595D-01 0.941D+00
 Gap=     0.251 Goal=   None    Shift=    0.000
 RMSDP=9.60D-04 MaxDP=2.36D-02 DE=-1.88D-01 OVMax= 9.66D-02

 Cycle   3  Pass 1  IDiag  1:
 RMSU=  9.46D-04    CP:  9.77D-01  9.45D-01
 E= -788.811110142425     Delta-E=       -0.213905805658 Rises=F Damp=F
 DIIS: error= 3.52D-03 at cycle   3 NSaved=   3.
 NSaved= 3 IEnMin= 3 EnMin= -788.811110142425     IErMin= 3 ErrMin= 3.52D-03
 ErrMax= 3.52D-03  0.00D+00 EMaxC= 1.00D-01 BMatC= 1.12D-02 BMatP= 2.46D-02
 IDIUse=3 WtCom= 9.65D-01 WtEn= 3.52D-02
 Coeff-Com: -0.178D-01 0.382D+00 0.635D+00
 Coeff-En:   0.000D+00 0.000D+00 0.100D+01
 Coeff:     -0.171D-01 0.369D+00 0.648D+00
 Gap=     0.203 Goal=   None    Shift=    0.000
 RMSDP=4.61D-04 MaxDP=1.83D-02 DE=-2.14D-01 OVMax= 1.85D-02

 Cycle   4  Pass 1  IDiag  1:
 RMSU=  3.67D-04    CP:  9.79D-01  9.69D-01  7.13D-01
 E= -788.818303537924     Delta-E=       -0.007193395499 Rises=F Damp=F
 DIIS: error= 1.62D-03 at cycle   4 NSaved=   4.
 NSaved= 4 IEnMin= 4 EnMin= -788.818303537924     IErMin= 4 ErrMin= 1.62D-03
 ErrMax= 1.62D-03  0.00D+00 EMaxC= 1.00D-01 BMatC= 2.46D-03 BMatP= 1.12D-02
 IDIUse=3 WtCom= 9.84D-01 WtEn= 1.62D-02
 Coeff-Com: -0.115D-01 0.700D-01 0.342D+00 0.599D+00
 Coeff-En:   0.000D+00 0.000D+00 0.172D+00 0.828D+00
 Coeff:     -0.113D-01 0.689D-01 0.339D+00 0.603D+00
 Gap=     0.202 Goal=   None    Shift=    0.000
 RMSDP=1.71D-04 MaxDP=6.37D-03 DE=-7.19D-03 OVMax= 6.72D-03

 Cycle   5  Pass 1  IDiag  1:
 RMSU=  8.00D-05    CP:  9.78D-01  9.70D-01  7.77D-01  6.25D-01
 E= -788.820315236504     Delta-E=       -0.002011698580 Rises=F Damp=F
 DIIS: error= 4.52D-04 at cycle   5 NSaved=   5.
 NSaved= 5 IEnMin= 5 EnMin= -788.820315236504     IErMin= 5 ErrMin= 4.52D-04
 ErrMax= 4.52D-04  0.00D+00 EMaxC= 1.00D-01 BMatC= 7.97D-05 BMatP= 2.46D-03
 IDIUse=3 WtCom= 9.95D-01 WtEn= 4.52D-03
 Coeff-Com: -0.387D-02 0.119D-01 0.118D+00 0.263D+00 0.611D+00
 Coeff-En:   0.000D+00 0.000D+00 0.000D+00 0.000D+00 0.100D+01
 Coeff:     -0.386D-02 0.119D-01 0.118D+00 0.261D+00 0.613D+00
 Gap=     0.202 Goal=   None    Shift=    0.000
 RMSDP=3.48D-05 MaxDP=1.02D-03 DE=-2.01D-03 OVMax= 2.13D-03

 Cycle   6  Pass 1  IDiag  1:
 RMSU=  2.26D-05    CP:  9.78D-01  9.70D-01  7.83D-01  6.42D-01  6.87D-01
 E= -788.820380305068     Delta-E=       -0.000065068564 Rises=F Damp=F
 DIIS: error= 8.74D-05 at cycle   6 NSaved=   6.
 NSaved= 6 IEnMin= 6 EnMin= -788.820380305068     IErMin= 6 ErrMin= 8.74D-05
 ErrMax= 8.74D-05  0.00D+00 EMaxC= 1.00D-01 BMatC= 7.78D-06 BMatP= 7.97D-05
 IDIUse=1 WtCom= 1.00D+00 WtEn= 0.00D+00
 Coeff-Com: -0.117D-02 0.143D-02 0.376D-01 0.942D-01 0.311D+00 0.557D+00
 Coeff:     -0.117D-02 0.143D-02 0.376D-01 0.942D-01 0.311D+00 0.557D+00
 Gap=     0.202 Goal=   None    Shift=    0.000
 RMSDP=1.02D-05 MaxDP=3.67D-04 DE=-6.51D-05 OVMax= 8.26D-04

 Cycle   7  Pass 1  IDiag  1:
 RMSU=  4.90D-06    CP:  9.78D-01  9.70D-01  7.84D-01  6.46D-01  7.18D-01
                    CP:  6.28D-01
 E= -788.820387037463     Delta-E=       -0.000006732396 Rises=F Damp=F
 DIIS: error= 2.11D-05 at cycle   7 NSaved=   7.
 NSaved= 7 IEnMin= 7 EnMin= -788.820387037463     IErMin= 7 ErrMin= 2.11D-05
 ErrMax= 2.11D-05  0.00D+00 EMaxC= 1.00D-01 BMatC= 3.93D-07 BMatP= 7.78D-06
 IDIUse=1 WtCom= 1.00D+00 WtEn= 0.00D+00
 Coeff-Com: -0.439D-03 0.236D-03 0.138D-01 0.362D-01 0.129D+00 0.282D+00
 Coeff-Com:  0.539D+00
 Coeff:     -0.439D-03 0.236D-03 0.138D-01 0.362D-01 0.129D+00 0.282D+00
 Coeff:      0.539D+00
 Gap=     0.202 Goal=   None    Shift=    0.000
 RMSDP=2.46D-06 MaxDP=1.03D-04 DE=-6.73D-06 OVMax= 2.44D-04

 Cycle   8  Pass 1  IDiag  1:
 RMSU=  1.67D-06    CP:  9.78D-01  9.70D-01  7.84D-01  6.47D-01  7.19D-01
                    CP:  6.43D-01  6.59D-01
 E= -788.820387368419     Delta-E=       -0.000000330956 Rises=F Damp=F
 DIIS: error= 5.52D-06 at cycle   8 NSaved=   8.
 NSaved= 8 IEnMin= 8 EnMin= -788.820387368419     IErMin= 8 ErrMin= 5.52D-06
 ErrMax= 5.52D-06  0.00D+00 EMaxC= 1.00D-01 BMatC= 3.26D-08 BMatP= 3.93D-07
 IDIUse=1 WtCom= 1.00D+00 WtEn= 0.00D+00
 Coeff-Com: -0.602D-04-0.840D-04 0.175D-02 0.523D-02 0.214D-01 0.633D-01
 Coeff-Com:  0.256D+00 0.653D+00
 Coeff:     -0.602D-04-0.840D-04 0.175D-02 0.523D-02 0.214D-01 0.633D-01
 Coeff:      0.256D+00 0.653D+00
 Gap=     0.202 Goal=   None    Shift=    0.000
 RMSDP=7.30D-07 MaxDP=2.32D-05 DE=-3.31D-07 OVMax= 5.74D-05

 Cycle   9  Pass 1  IDiag  1:
 RMSU=  4.37D-07    CP:  9.78D-01  9.70D-01  7.84D-01  6.47D-01  7.20D-01
                    CP:  6.48D-01  7.05D-01  6.89D-01
 E= -788.820387395439     Delta-E=       -0.000000027020 Rises=F Damp=F
 DIIS: error= 1.89D-06 at cycle   9 NSaved=   9.
 NSaved= 9 IEnMin= 9 EnMin= -788.820387395439     IErMin= 9 ErrMin= 1.89D-06
 ErrMax= 1.89D-06  0.00D+00 EMaxC= 1.00D-01 BMatC= 3.53D-09 BMatP= 3.26D-08
 IDIUse=1 WtCom= 1.00D+00 WtEn= 0.00D+00
 Coeff-Com: -0.801D-06-0.604D-04-0.691D-04 0.165D-03 0.191D-02 0.128D-01
 Coeff-Com:  0.910D-01 0.332D+00 0.562D+00
 Coeff:     -0.801D-06-0.604D-04-0.691D-04 0.165D-03 0.191D-02 0.128D-01
 Coeff:      0.910D-01 0.332D+00 0.562D+00
 Gap=     0.202 Goal=   None    Shift=    0.000
 RMSDP=2.42D-07 MaxDP=9.12D-06 DE=-2.70D-08 OVMax= 2.59D-05

 Cycle  10  Pass 1  IDiag  1:
 RMSU=  1.51D-07    CP:  9.78D-01  9.70D-01  7.84D-01  6.47D-01  7.20D-01
                    CP:  6.49D-01  7.09D-01  7.46D-01  6.49D-01
 E= -788.820387398457     Delta-E=       -0.000000003018 Rises=F Damp=F
 DIIS: error= 5.42D-07 at cycle  10 NSaved=  10.
 NSaved=10 IEnMin=10 EnMin= -788.820387398457     IErMin=10 ErrMin= 5.42D-07
 ErrMax= 5.42D-07  0.00D+00 EMaxC= 1.00D-01 BMatC= 3.41D-10 BMatP= 3.53D-09
 IDIUse=1 WtCom= 1.00D+00 WtEn= 0.00D+00
 Coeff-Com:  0.581D-05-0.193D-04-0.249D-03-0.548D-03-0.160D-02-0.766D-03
 Coeff-Com:  0.169D-01 0.955D-01 0.285D+00 0.606D+00
 Coeff:      0.581D-05-0.193D-04-0.249D-03-0.548D-03-0.160D-02-0.766D-03
 Coeff:      0.169D-01 0.955D-01 0.285D+00 0.606D+00
 Gap=     0.202 Goal=   None    Shift=    0.000
 RMSDP=7.55D-08 MaxDP=3.07D-06 DE=-3.02D-09 OVMax= 9.06D-06

 Cycle  11  Pass 1  IDiag  1:
 RMSU=  3.58D-08    CP:  9.78D-01  9.70D-01  7.84D-01  6.47D-01  7.20D-01
                    CP:  6.49D-01  7.12D-01  7.50D-01  7.25D-01  6.41D-01
 E= -788.820387398761     Delta-E=       -0.000000000304 Rises=F Damp=F
 DIIS: error= 1.83D-07 at cycle  11 NSaved=  11.
 NSaved=11 IEnMin=11 EnMin= -788.820387398761     IErMin=11 ErrMin= 1.83D-07
 ErrMax= 1.83D-07  0.00D+00 EMaxC= 1.00D-01 BMatC= 2.87D-11 BMatP= 3.41D-10
 IDIUse=1 WtCom= 1.00D+00 WtEn= 0.00D+00
 Coeff-Com:  0.294D-05-0.681D-05-0.130D-03-0.301D-03-0.950D-03-0.105D-02
 Coeff-Com:  0.418D-02 0.336D-01 0.124D+00 0.328D+00 0.513D+00
 Coeff:      0.294D-05-0.681D-05-0.130D-03-0.301D-03-0.950D-03-0.105D-02
 Coeff:      0.418D-02 0.336D-01 0.124D+00 0.328D+00 0.513D+00
 Gap=     0.202 Goal=   None    Shift=    0.000
 RMSDP=2.03D-08 MaxDP=7.89D-07 DE=-3.04D-10 OVMax= 2.28D-06

 Cycle  12  Pass 1  IDiag  1:
 RMSU=  1.06D-08    CP:  9.78D-01  9.70D-01  7.84D-01  6.47D-01  7.20D-01
                    CP:  6.49D-01  7.12D-01  7.52D-01  7.18D-01  6.93D-01
                    CP:  5.98D-01
 E= -788.820387398778     Delta-E=       -0.000000000017 Rises=F Damp=F
 DIIS: error= 4.97D-08 at cycle  12 NSaved=  12.
 NSaved=12 IEnMin=12 EnMin= -788.820387398778     IErMin=12 ErrMin= 4.97D-08
 ErrMax= 4.97D-08  0.00D+00 EMaxC= 1.00D-01 BMatC= 1.21D-12 BMatP= 2.87D-11
 IDIUse=1 WtCom= 1.00D+00 WtEn= 0.00D+00
 Coeff-Com:  0.357D-06-0.123D-06-0.226D-04-0.555D-04-0.185D-03-0.312D-03
 Coeff-Com: -0.333D-03 0.192D-02 0.153D-01 0.570D-01 0.202D+00 0.724D+00
 Coeff:      0.357D-06-0.123D-06-0.226D-04-0.555D-04-0.185D-03-0.312D-03
 Coeff:     -0.333D-03 0.192D-02 0.153D-01 0.570D-01 0.202D+00 0.724D+00
 Gap=     0.202 Goal=   None    Shift=    0.000
 RMSDP=4.48D-09 MaxDP=2.03D-07 DE=-1.68D-11 OVMax= 3.77D-07

 Error on total polarization charges =  0.01766
 SCF Done:  E(RB3LYP) =  -788.820387399     A.U. after   12 cycles
            NFock= 12  Conv=0.45D-08     -V/T= 2.0091
 KE= 7.816789252539D+02 PE=-4.408057953573D+03 EE= 1.541159729669D+03
 Leave Link  502 at Sun Jul 18 14:32:15 2021, MaxMem=   104857600 cpu:             271.9 elap:              68.0
 (Enter /prod/apps/gaussian/g16b1/l601.exe)
 Copying SCF densities to generalized density rwf, IOpCl= 0 IROHF=0.

 **********************************************************************

            Population analysis using the SCF Density.

 **********************************************************************

 Orbital symmetries:
       Occupied  (A) (A) (A) (A) (A) (A) (A) (A) (A) (A) (A) (A)
                 (A) (A) (A) (A) (A) (A) (A) (A) (A) (A) (A) (A)
                 (A) (A) (A) (A) (A) (A) (A) (A) (A) (A) (A) (A)
                 (A) (A) (A) (A) (A) (A) (A) (A) (A) (A) (A) (A)
                 (A) (A) (A) (A) (A) (A) (A) (A) (A) (A) (A) (A)
                 (A) (A) (A) (A) (A)
       Virtual   (A) (A) (A) (A) (A) (A) (A) (A) (A) (A) (A) (A)
                 (A) (A) (A) (A) (A) (A) (A) (A) (A) (A) (A) (A)
                 (A) (A) (A) (A) (A) (A) (A) (A) (A) (A) (A) (A)
                 (A) (A) (A) (A) (A) (A) (A) (A) (A) (A) (A) (A)
                 (A) (A) (A) (A) (A) (A) (A) (A) (A) (A) (A) (A)
                 (A) (A) (A) (A) (A) (A) (A) (A) (A) (A) (A) (A)
                 (A) (A) (A) (A) (A) (A) (A) (A) (A) (A) (A) (A)
                 (A) (A) (A) (A) (A) (A) (A) (A) (A) (A) (A) (A)
                 (A) (A) (A) (A) (A) (A) (A) (A) (A) (A) (A) (A)
                 (A) (A) (A) (A) (A) (A) (A) (A) (A) (A) (A) (A)
                 (A) (A) (A) (A) (A) (A) (A) (A) (A) (A) (A) (A)
                 (A) (A) (A) (A) (A) (A) (A) (A) (A) (A) (A) (A)
                 (A) (A) (A) (A) (A) (A) (A) (A) (A) (A) (A) (A)
                 (A) (A) (A) (A) (A) (A) (A) (A) (A) (A) (A) (A)
                 (A) (A) (A) (A) (A) (A) (A) (A) (A) (A) (A) (A)
                 (A) (A) (A) (A) (A) (A) (A) (A) (A) (A) (A) (A)
                 (A) (A) (A) (A) (A) (A) (A) (A) (A) (A) (A) (A)
                 (A) (A) (A) (A) (A) (A) (A) (A) (A) (A) (A) (A)
                 (A) (A) (A) (A) (A) (A) (A) (A) (A) (A) (A) (A)
                 (A) (A) (A) (A) (A) (A)
 The electronic state is 1-A.
 Alpha  occ. eigenvalues --  -19.18137 -19.16748 -19.14165 -14.46975 -10.27179
 Alpha  occ. eigenvalues --  -10.26277 -10.26090 -10.25899 -10.23102 -10.20437
 Alpha  occ. eigenvalues --  -10.20367 -10.20167 -10.20119 -10.19889 -10.19063
 Alpha  occ. eigenvalues --  -10.18917 -10.18832  -1.08140  -1.05806  -1.03242
 Alpha  occ. eigenvalues --   -1.02108  -0.84935  -0.83824  -0.78483  -0.76030
 Alpha  occ. eigenvalues --   -0.74160  -0.71606  -0.71127  -0.67486  -0.66320
 Alpha  occ. eigenvalues --   -0.63835  -0.62058  -0.61113  -0.58220  -0.53783
 Alpha  occ. eigenvalues --   -0.53724  -0.52430  -0.50822  -0.49677  -0.47998
 Alpha  occ. eigenvalues --   -0.47371  -0.46008  -0.45421  -0.44653  -0.44564
 Alpha  occ. eigenvalues --   -0.43251  -0.42872  -0.41547  -0.40782  -0.40236
 Alpha  occ. eigenvalues --   -0.39920  -0.39016  -0.38692  -0.37738  -0.36884
 Alpha  occ. eigenvalues --   -0.36519  -0.36215  -0.35923  -0.34168  -0.33170
 Alpha  occ. eigenvalues --   -0.32285  -0.29370  -0.27704  -0.24447  -0.22472
 Alpha virt. eigenvalues --   -0.02293  -0.00668   0.04400   0.07493   0.09001
 Alpha virt. eigenvalues --    0.09065   0.09724   0.09924   0.10465   0.10807
 Alpha virt. eigenvalues --    0.11547   0.12454   0.12852   0.13983   0.14734
 Alpha virt. eigenvalues --    0.15283   0.15696   0.16207   0.16858   0.17206
 Alpha virt. eigenvalues --    0.17542   0.18509   0.18909   0.19411   0.19872
 Alpha virt. eigenvalues --    0.20572   0.22489   0.22669   0.23028   0.23881
 Alpha virt. eigenvalues --    0.24428   0.25551   0.25821   0.26503   0.27933
 Alpha virt. eigenvalues --    0.31272   0.33264   0.34576   0.35088   0.35829
 Alpha virt. eigenvalues --    0.46251   0.46765   0.48825   0.49320   0.49600
 Alpha virt. eigenvalues --    0.51190   0.52006   0.52351   0.54162   0.54652
 Alpha virt. eigenvalues --    0.55164   0.55497   0.57136   0.57891   0.58711
 Alpha virt. eigenvalues --    0.59706   0.59840   0.60843   0.61384   0.61990
 Alpha virt. eigenvalues --    0.62359   0.63822   0.65140   0.66732   0.68093
 Alpha virt. eigenvalues --    0.69335   0.70379   0.70963   0.72110   0.72915
 Alpha virt. eigenvalues --    0.73991   0.74899   0.77369   0.78667   0.79956
 Alpha virt. eigenvalues --    0.80559   0.81961   0.83334   0.83930   0.84721
 Alpha virt. eigenvalues --    0.85229   0.85897   0.86304   0.86771   0.87793
 Alpha virt. eigenvalues --    0.88079   0.88900   0.89073   0.89855   0.90532
 Alpha virt. eigenvalues --    0.90668   0.91813   0.92192   0.93979   0.95177
 Alpha virt. eigenvalues --    0.95928   0.96313   0.96785   0.97665   0.98349
 Alpha virt. eigenvalues --    0.99493   0.99753   1.01506   1.02085   1.03451
 Alpha virt. eigenvalues --    1.03573   1.04590   1.06171   1.07717   1.09312
 Alpha virt. eigenvalues --    1.12453   1.13675   1.15700   1.17105   1.19287
 Alpha virt. eigenvalues --    1.20272   1.22009   1.24875   1.27559   1.28408
 Alpha virt. eigenvalues --    1.30524   1.32816   1.34807   1.36085   1.37700
 Alpha virt. eigenvalues --    1.38063   1.39880   1.42003   1.44998   1.47508
 Alpha virt. eigenvalues --    1.49196   1.51215   1.53597   1.55731   1.57262
 Alpha virt. eigenvalues --    1.60842   1.63790   1.66527   1.68161   1.68506
 Alpha virt. eigenvalues --    1.69404   1.70243   1.71581   1.72149   1.74760
 Alpha virt. eigenvalues --    1.75536   1.76440   1.77666   1.79400   1.81392
 Alpha virt. eigenvalues --    1.81968   1.83477   1.86027   1.87236   1.89781
 Alpha virt. eigenvalues --    1.90869   1.92440   1.92949   1.94428   1.95206
 Alpha virt. eigenvalues --    1.97591   1.98145   2.00127   2.02525   2.03994
 Alpha virt. eigenvalues --    2.04282   2.05385   2.06035   2.08281   2.10009
 Alpha virt. eigenvalues --    2.11085   2.11165   2.13725   2.14814   2.16947
 Alpha virt. eigenvalues --    2.21367   2.23250   2.23700   2.24147   2.25875
 Alpha virt. eigenvalues --    2.27277   2.28553   2.29035   2.29490   2.30478
 Alpha virt. eigenvalues --    2.32201   2.33317   2.36153   2.38108   2.39637
 Alpha virt. eigenvalues --    2.40746   2.42300   2.44832   2.45593   2.48176
 Alpha virt. eigenvalues --    2.49908   2.55143   2.57395   2.59261   2.61296
 Alpha virt. eigenvalues --    2.61882   2.65801   2.67879   2.70211   2.70673
 Alpha virt. eigenvalues --    2.73984   2.75705   2.77778   2.79037   2.82518
 Alpha virt. eigenvalues --    2.84073   2.87182   2.91989   2.94426   2.96820
 Alpha virt. eigenvalues --    3.11539   3.32702   3.75192   3.90592   3.96439
 Alpha virt. eigenvalues --    4.04034   4.08840   4.14492   4.19835   4.22603
 Alpha virt. eigenvalues --    4.27922   4.28254   4.29139   4.30032   4.42862
 Alpha virt. eigenvalues --    4.47864   4.52836   4.65973   4.74884
          Condensed to atoms (all electrons):
               1          2          3          4          5          6
     1  C    5.181334   0.363193   0.367389   0.377597   0.408034  -0.069525
     2  H    0.363193   0.553496  -0.035135  -0.029176  -0.031166   0.006761
     3  H    0.367389  -0.035135   0.522631  -0.017129  -0.024963  -0.004324
     4  H    0.377597  -0.029176  -0.017129   0.500997  -0.025060  -0.005892
     5  C    0.408034  -0.031166  -0.024963  -0.025060   4.729428   0.397723
     6  C   -0.069525   0.006761  -0.004324  -0.005892   0.397723   5.197613
     7  H   -0.006402  -0.000039   0.002869   0.000053  -0.034197   0.365452
     8  H    0.005289  -0.000213  -0.000049   0.000183  -0.026102   0.364647
     9  H   -0.003060  -0.000037  -0.000059   0.001863  -0.023278   0.374901
    10  C   -0.069775  -0.007880   0.005326  -0.001851   0.406869  -0.069379
    11  H    0.005747   0.000087  -0.000190  -0.000084  -0.025565  -0.005298
    12  H   -0.005065   0.004313  -0.000021  -0.000136  -0.028269   0.005606
    13  H   -0.005496  -0.000130   0.000086   0.002094  -0.029019  -0.006519
    14  N   -0.065155  -0.003177  -0.003498   0.004511   0.200861  -0.071380
    15  H   -0.002680  -0.000523   0.003482  -0.000009  -0.017833  -0.007006
    16  C    0.004833  -0.000225   0.000083  -0.000092  -0.030449  -0.010007
    17  H   -0.000049   0.000006  -0.000004  -0.000001  -0.008368   0.000174
    18  H    0.000126  -0.000002  -0.000001   0.000001   0.001657   0.001796
    19  C   -0.000130   0.000003  -0.000004   0.000001   0.003553  -0.000149
    20  O   -0.000026  -0.000004  -0.000005   0.000000   0.001132  -0.000068
    21  H   -0.000143  -0.000059   0.000078   0.000001   0.000940   0.000306
    22  H    0.000002  -0.000000  -0.000000  -0.000000   0.000079  -0.000012
    23  C   -0.000003   0.000000   0.000001  -0.000000  -0.000643   0.000126
    24  C    0.000006   0.000000  -0.000008  -0.000000  -0.000054   0.000017
    25  H   -0.000005   0.000000   0.000005   0.000000   0.000090  -0.000024
    26  C    0.000000   0.000000  -0.000000   0.000000   0.000002  -0.000011
    27  C   -0.000000   0.000000  -0.000000   0.000000   0.000000   0.000001
    28  O   -0.000000  -0.000000  -0.000001   0.000000   0.000000  -0.000061
    29  H    0.000000  -0.000000  -0.000000   0.000000  -0.000006   0.000120
    30  H    0.000000   0.000000  -0.000000   0.000000  -0.000000   0.000000
    31  H   -0.000000  -0.000000  -0.000000   0.000000  -0.000000  -0.000000
    32  C   -0.000000  -0.000000   0.000000   0.000000   0.000000   0.000000
    33  O    0.000000  -0.000000   0.000000  -0.000000  -0.000000   0.000000
    34  H   -0.000000   0.000000  -0.000000   0.000000   0.000000  -0.000000
    35  C    0.000000  -0.000000   0.000000  -0.000000   0.000000  -0.000001
    36  H   -0.000000   0.000000  -0.000000   0.000000   0.000000  -0.000000
    37  C    0.000000   0.000000   0.000000  -0.000000  -0.000002   0.000008
    38  H   -0.000000   0.000000  -0.000000   0.000000  -0.000000   0.000000
    39  H   -0.002972   0.004925  -0.000407  -0.000130  -0.020414   0.005321
               7          8          9         10         11         12
     1  C   -0.006402   0.005289  -0.003060  -0.069775   0.005747  -0.005065
     2  H   -0.000039  -0.000213  -0.000037  -0.007880   0.000087   0.004313
     3  H    0.002869  -0.000049  -0.000059   0.005326  -0.000190  -0.000021
     4  H    0.000053   0.000183   0.001863  -0.001851  -0.000084  -0.000136
     5  C   -0.034197  -0.026102  -0.023278   0.406869  -0.025565  -0.028269
     6  C    0.365452   0.364647   0.374901  -0.069379  -0.005298   0.005606
     7  H    0.529223  -0.018459  -0.024016   0.006241   0.000042  -0.000220
     8  H   -0.018459   0.525391  -0.029661  -0.003115   0.002183  -0.000162
     9  H   -0.024016  -0.029661   0.515270  -0.006625  -0.000073   0.000146
    10  C    0.006241  -0.003115  -0.006625   5.169436   0.368228   0.368360
    11  H    0.000042   0.002183  -0.000073   0.368228   0.544580  -0.032577
    12  H   -0.000220  -0.000162   0.000146   0.368360  -0.032577   0.521427
    13  H    0.000054  -0.000067   0.004243   0.373039  -0.033343  -0.013982
    14  N   -0.003250  -0.005593   0.004501  -0.067216  -0.005692  -0.001375
    15  H    0.005395  -0.000051  -0.000013   0.005493  -0.000194  -0.000208
    16  C    0.000026   0.001026   0.000221  -0.005242   0.002666  -0.001576
    17  H   -0.000010   0.000042  -0.000019   0.006155  -0.001001   0.000507
    18  H   -0.000085   0.006002  -0.000122  -0.003691   0.000143   0.000191
    19  C   -0.000005  -0.000033   0.000001   0.000478   0.000194  -0.000069
    20  O    0.000001   0.000000   0.000000  -0.000047   0.000005  -0.000011
    21  H   -0.000040  -0.000015  -0.000004  -0.000073  -0.000024   0.000025
    22  H   -0.000000   0.000007   0.000000  -0.000018   0.000011  -0.000002
    23  C   -0.000001  -0.000068  -0.000001   0.000006  -0.000015   0.000001
    24  C    0.000013   0.000100   0.000001  -0.000003   0.000000  -0.000000
    25  H    0.000007   0.000006   0.000000  -0.000002  -0.000000  -0.000000
    26  C   -0.000014   0.000007   0.000000  -0.000000   0.000000   0.000000
    27  C   -0.000007  -0.000001  -0.000000  -0.000000   0.000000   0.000000
    28  O    0.000302  -0.000006   0.000000  -0.000000   0.000000  -0.000000
    29  H    0.000100   0.000050  -0.000002   0.000000   0.000000  -0.000000
    30  H   -0.000001   0.000000   0.000000  -0.000000  -0.000000   0.000000
    31  H    0.000000  -0.000000   0.000000  -0.000000   0.000000  -0.000000
    32  C   -0.000000   0.000003  -0.000000  -0.000000  -0.000000  -0.000000
    33  O   -0.000000  -0.000000  -0.000000   0.000000  -0.000000   0.000000
    34  H    0.000000   0.000000   0.000000  -0.000000  -0.000000   0.000000
    35  C   -0.000000  -0.000004  -0.000000   0.000000   0.000000  -0.000000
    36  H   -0.000000  -0.000000   0.000000   0.000000   0.000000   0.000000
    37  C   -0.000000  -0.000001  -0.000000  -0.000000  -0.000001   0.000000
    38  H   -0.000000   0.000001  -0.000000  -0.000000  -0.000000   0.000000
    39  H   -0.000132  -0.000137  -0.000096  -0.002579  -0.000277   0.002648
              13         14         15         16         17         18
     1  C   -0.005496  -0.065155  -0.002680   0.004833  -0.000049   0.000126
     2  H   -0.000130  -0.003177  -0.000523  -0.000225   0.000006  -0.000002
     3  H    0.000086  -0.003498   0.003482   0.000083  -0.000004  -0.000001
     4  H    0.002094   0.004511  -0.000009  -0.000092  -0.000001   0.000001
     5  C   -0.029019   0.200861  -0.017833  -0.030449  -0.008368   0.001657
     6  C   -0.006519  -0.071380  -0.007006  -0.010007   0.000174   0.001796
     7  H    0.000054  -0.003250   0.005395   0.000026  -0.000010  -0.000085
     8  H   -0.000067  -0.005593  -0.000051   0.001026   0.000042   0.006002
     9  H    0.004243   0.004501  -0.000013   0.000221  -0.000019  -0.000122
    10  C    0.373039  -0.067216   0.005493  -0.005242   0.006155  -0.003691
    11  H   -0.033343  -0.005692  -0.000194   0.002666  -0.001001   0.000143
    12  H   -0.013982  -0.001375  -0.000208  -0.001576   0.000507   0.000191
    13  H    0.518065   0.005534  -0.000084   0.000392   0.000141  -0.000025
    14  N    0.005534   7.031455   0.278225   0.207788  -0.032919  -0.030742
    15  H   -0.000084   0.278225   0.277211  -0.024347   0.003723  -0.002205
    16  C    0.000392   0.207788  -0.024347   5.234246   0.363665   0.364211
    17  H    0.000141  -0.032919   0.003723   0.363665   0.488309  -0.025933
    18  H   -0.000025  -0.030742  -0.002205   0.364211  -0.025933   0.464948
    19  C   -0.000010  -0.015564  -0.000676   0.326807  -0.032112  -0.023895
    20  O    0.000000  -0.034057   0.000952  -0.042331   0.000184   0.002987
    21  H   -0.000001   0.031010  -0.002668  -0.037681   0.000610   0.001332
    22  H   -0.000000   0.002646  -0.000003  -0.040561  -0.004905   0.000993
    23  C    0.000000  -0.006350   0.002370  -0.051018   0.005210   0.001832
    24  C    0.000000   0.000009   0.005630  -0.007563   0.000139  -0.000355
    25  H   -0.000000   0.001059   0.004747   0.000028  -0.000035  -0.000045
    26  C   -0.000000   0.000091  -0.000067  -0.000038   0.000003  -0.000203
[...]
    36  H   -0.001304   0.000104   0.000188   0.000030   0.000006   0.000021
    37  C    0.044533  -0.015512  -0.000517   0.000786  -0.008956  -0.004170
    38  H   -0.016486   0.002409   0.001956   0.009742  -0.001467  -0.000822
    39  H   -0.010491   0.013665  -0.002411  -0.016274  -0.031677   0.021624
              13         14         15         16         17         18
     1  C    0.035543   0.335279  -0.077679  -0.007616   0.028607  -0.029653
     2  H   -0.002711  -0.067460   0.009623  -0.006679  -0.000115   0.006822
     3  H    0.008487  -0.057989  -0.007876  -0.023597   0.004893  -0.006840
     4  H   -0.023468   0.065570  -0.013321   0.037955  -0.001815  -0.000914
     5  C   -0.125145  -2.077874   0.038793  -0.163933  -0.050936   0.097334
     6  C    0.030800   0.096498  -0.018430  -0.041230  -0.009417   0.012703
     7  H    0.006374  -0.063752   0.029178   0.096219   0.004194  -0.009283
     8  H    0.004728  -0.181526  -0.021850   0.040900  -0.014842   0.012944
     9  H   -0.021632   0.144504   0.001454  -0.051160   0.000399   0.007751
    10  C    0.231710  -0.064983   0.020623   0.059106   0.009234   0.030225
    11  H   -0.330938  -0.003688   0.014712   0.126839  -0.020053  -0.003154
    12  H   -0.279662  -0.092002  -0.003529   0.046110  -0.021349   0.007159
    13  H    1.402528   0.052381  -0.002889  -0.044854   0.014333  -0.009270
    14  N    0.052381   9.603844   0.273107  -0.530862  -0.133156  -0.118607
    15  H   -0.002889   0.273107   0.611439   0.096458   0.005117  -0.028936
    16  C   -0.044854  -0.530862   0.096458   6.647745   0.083884  -0.157741
    17  H    0.014333  -0.133156   0.005117   0.083884   1.739822  -0.303411
    18  H   -0.009270  -0.118607  -0.028936  -0.157741  -0.303411   1.928905
    19  C    0.027893  -0.018787  -0.174629   0.013424  -0.004380  -0.069421
    20  O    0.000831  -0.020447  -0.003413   0.063781   0.041596   0.035557
    21  H   -0.000361   0.003387   0.006448  -0.076735  -0.012255   0.008655
    22  H    0.000597   0.028455   0.009829  -0.020274  -0.071433  -0.065016
    23  C   -0.003935   0.155621   0.009083  -0.477285  -0.129162   0.014805
    24  C   -0.000850  -0.190154   0.099057   0.089864  -0.073465  -0.021992
    25  H    0.000155  -0.000199   0.001707   0.036354   0.008414  -0.000115
    26  C    0.000115   0.088253  -0.027257  -0.179083  -0.029698  -0.029855
    27  C    0.000002   0.003796  -0.005270  -0.030196   0.000037  -0.008102
    28  O    0.000000   0.000052  -0.000689   0.000601  -0.000052   0.000184
    29  H    0.000000  -0.000170  -0.000017   0.000096   0.000012  -0.000092
    30  H   -0.000006   0.000882  -0.001434   0.001344  -0.000143  -0.000423
    31  H    0.000001   0.000171   0.001124  -0.000385   0.000146   0.000059
    32  C   -0.000090  -0.043968   0.037034   0.156684   0.017292   0.009695
    33  O    0.000001   0.000576  -0.002233  -0.003479  -0.000133  -0.001065
    34  H   -0.000001  -0.000149   0.000653   0.000466   0.000033   0.000301
    35  C    0.000370   0.112432  -0.047455  -0.347460   0.008623   0.008835
    36  H   -0.000057   0.001817   0.000747   0.019382  -0.000136   0.008182
    37  C    0.004572  -0.013566   0.052647  -0.399559   0.173567  -0.048342
    38  H    0.002393   0.023161  -0.008623   0.046020   0.005447  -0.032208
    39  H    0.007380   0.324142  -0.104145  -0.054855  -0.030059   0.026697
              19         20         21         22         23         24
     1  C    0.002364  -0.003841  -0.000886  -0.000588  -0.086053  -0.052192
     2  H   -0.003102   0.001171  -0.000766  -0.000500  -0.008125  -0.000178
     3  H    0.019689  -0.000616  -0.001641  -0.000162  -0.004941  -0.012873
     4  H   -0.004681  -0.000399   0.000956   0.000248   0.003050   0.000015
     5  C   -0.006804   0.009168   0.007255   0.003116  -0.063570  -0.040371
     6  C   -0.018782   0.003004   0.000371  -0.004483   0.000044  -0.009858
     7  H   -0.028722   0.000809   0.000302  -0.001063  -0.006154   0.021581
     8  H    0.031272   0.000931  -0.000680  -0.001536   0.024091   0.006608
     9  H    0.001020   0.000010   0.000202   0.000285  -0.009351  -0.007501
    10  C   -0.008172   0.002231   0.004669  -0.002595   0.056062  -0.007518
    11  H   -0.062985  -0.000970   0.000746   0.001262   0.023882   0.000427
    12  H   -0.009414  -0.000532   0.000436  -0.000956   0.006333   0.003340
    13  H    0.027893   0.000831  -0.000361   0.000597  -0.003935  -0.000850
    14  N   -0.018787  -0.020447   0.003387   0.028455   0.155621  -0.190154
    15  H   -0.174629  -0.003413   0.006448   0.009829   0.009083   0.099057
    16  C    0.013424   0.063781  -0.076735  -0.020274  -0.477285   0.089864
    17  H   -0.004380   0.041596  -0.012255  -0.071433  -0.129162  -0.073465
    18  H   -0.069421   0.035557   0.008655  -0.065016   0.014805  -0.021992
    19  C   10.561226  -0.492824  -0.025283  -0.343646  -1.427601  -2.913581
    20  O   -0.492824   8.905908   0.258426  -0.132661   0.171540   0.244710
    21  H   -0.025283   0.258426   0.582427   0.014100   0.023816  -0.023064
    22  H   -0.343646  -0.132661   0.014100   1.485578  -0.011127   0.156525
    23  C   -1.427601   0.171540   0.023816  -0.011127  23.642256  -7.177873
    24  C   -2.913581   0.244710  -0.023064   0.156525  -7.177873  27.597369
    25  H    0.221969  -0.094432   0.011116   0.001256   1.279634  -2.424329
    26  C   -0.613099  -0.002584  -0.043162   0.013295   2.250603  -5.065451
    27  C   -0.196534  -0.012455   0.000801   0.003595  -0.766880  -1.469350
    28  O    0.000777   0.000395   0.000491  -0.000150  -0.028657  -0.110556
    29  H    0.000671  -0.000139   0.000179   0.000134   0.026655   0.044285
    30  H    0.011177   0.001462  -0.002808   0.002137   0.028935   0.365633
    31  H   -0.015382  -0.000053   0.000000  -0.001091  -0.070747  -0.142029
    32  C   -0.210502   0.031719  -0.006724   0.010461  -6.052992   2.477181
    33  O    0.012680  -0.000274   0.000243   0.000924   0.201252  -0.171871
    34  H    0.000193   0.000215  -0.000139  -0.000124  -0.019246   0.070443
    35  C    1.036898  -0.048873  -0.003360  -0.033852   2.341941  -6.564092
    36  H   -0.000177  -0.000554   0.000102  -0.003281  -0.355026   0.077930
    37  C   -0.241278  -0.214066   0.122573   0.104881  -8.447197   0.577859
    38  H    0.015892   0.010728   0.000373  -0.001332   0.540949   0.134001
    39  H    0.063436   0.015234   0.013834   0.005372  -0.063525   0.017520
              25         26         27         28         29         30
     1  C   -0.005093  -0.017133   0.000962   0.000007   0.000047   0.000416
     2  H    0.000170  -0.002189   0.000162  -0.000021   0.000003  -0.000046
     3  H   -0.000112   0.003121   0.000432   0.000036   0.000022   0.000105
     4  H   -0.000285   0.000197   0.000053   0.000003   0.000003   0.000041
     5  C    0.008842   0.037858  -0.003816   0.000107  -0.000072  -0.000714
     6  C   -0.001220   0.000994   0.001700  -0.000051   0.000011   0.000181
     7  H    0.000531  -0.008740  -0.000510  -0.000026  -0.000013  -0.000017
     8  H    0.000109   0.004329   0.000486  -0.000014   0.000003   0.000020
     9  H   -0.000177   0.000352   0.000083  -0.000003   0.000001   0.000004
    10  C   -0.000260   0.005492  -0.000133   0.000019   0.000010   0.000021
    11  H   -0.000151   0.000575  -0.000060   0.000003   0.000003   0.000017
    12  H    0.000291   0.000935  -0.000057   0.000003  -0.000001  -0.000033
    13  H    0.000155   0.000115   0.000002   0.000000   0.000000  -0.000006
    14  N   -0.000199   0.088253   0.003796   0.000052  -0.000170   0.000882
    15  H    0.001707  -0.027257  -0.005270  -0.000689  -0.000017  -0.001434
    16  C    0.036354  -0.179083  -0.030196   0.000601   0.000096   0.001344
    17  H    0.008414  -0.029698   0.000037  -0.000052   0.000012  -0.000143
    18  H   -0.000115  -0.029855  -0.008102   0.000184  -0.000092  -0.000423
    19  C    0.221969  -0.613099  -0.196534   0.000777   0.000671   0.011177
    20  O   -0.094432  -0.002584  -0.012455   0.000395  -0.000139   0.001462
    21  H    0.011116  -0.043162   0.000801   0.000491   0.000179  -0.002808
    22  H    0.001256   0.013295   0.003595  -0.000150   0.000134   0.002137
    23  C    1.279634   2.250603  -0.766880  -0.028657   0.026655   0.028935
    24  C   -2.424329  -5.065451  -1.469350  -0.110556   0.044285   0.365633
    25  H    2.612128   0.353295  -0.023272  -0.022172   0.001747  -0.074485
    26  C    0.353295  16.914433  -0.637769  -0.006195   0.208782  -0.070764
    27  C   -0.023272  -0.637769   7.020340   0.163591  -0.130108  -0.055014
    28  O   -0.022172  -0.006195   0.163591   8.475745   0.311064  -0.028709
    29  H    0.001747   0.208782  -0.130108   0.311064   0.517951   0.019287
    30  H   -0.074485  -0.070764  -0.055014  -0.028709   0.019287   1.380805
    31  H    0.006313   0.039504   0.237923   0.028731  -0.024923  -0.165285
    32  C   -0.332000  -3.862243  -0.066694   0.012567  -0.104556  -0.096527
    33  O   -0.005808   0.331567   0.068818  -0.028468   0.012454  -0.003568
    34  H   -0.001671  -0.081601  -0.025847   0.002058  -0.001027   0.002980
    35  C    0.086054   1.617818   0.372205  -0.029195  -0.080165  -0.064102
    36  H    0.008230  -0.249388   0.023278   0.001539  -0.000317  -0.000921
    37  C    0.149198  -4.844583   0.358668  -0.014757  -0.000860   0.023391
    38  H   -0.020891  -0.088038  -0.017367  -0.000036   0.000207  -0.001591
    39  H    0.000234   0.001959  -0.003559   0.000042  -0.000059   0.000451
              31         32         33         34         35         36
     1  C   -0.000003   0.006157   0.000105  -0.000050   0.028379  -0.000549
     2  H    0.000017   0.001397  -0.000027   0.000005  -0.000556   0.000018
     3  H   -0.000030  -0.003987   0.000258  -0.000114   0.007090   0.000136
     4  H   -0.000003  -0.000258   0.000012  -0.000003  -0.000911  -0.000055
     5  C   -0.000064  -0.046823   0.000633  -0.000328   0.155819   0.002235
     6  C    0.000053   0.017382  -0.000351   0.000055  -0.027429  -0.000908
     7  H   -0.000023   0.004316  -0.000114   0.000234  -0.040253  -0.001304
     8  H    0.000024  -0.006351   0.000020  -0.000050  -0.019286   0.000104
     9  H    0.000004   0.001902  -0.000029  -0.000007   0.014603   0.000188
    10  C   -0.000034  -0.004922   0.000026  -0.000007  -0.004988   0.000030
    11  H   -0.000015  -0.001015   0.000007  -0.000002   0.000206   0.000006
    12  H   -0.000002  -0.000237   0.000000   0.000001  -0.001412   0.000021
    13  H    0.000001  -0.000090   0.000001  -0.000001   0.000370  -0.000057
    14  N    0.000171  -0.043968   0.000576  -0.000149   0.112432   0.001817
    15  H    0.001124   0.037034  -0.002233   0.000653  -0.047455   0.000747
    16  C   -0.000385   0.156684  -0.003479   0.000466  -0.347460   0.019382
    17  H    0.000146   0.017292  -0.000133   0.000033   0.008623  -0.000136
    18  H    0.000059   0.009695  -0.001065   0.000301   0.008835   0.008182
    19  C   -0.015382  -0.210502   0.012680   0.000193   1.036898  -0.000177
    20  O   -0.000053   0.031719  -0.000274   0.000215  -0.048873  -0.000554
    21  H    0.000000  -0.006724   0.000243  -0.000139  -0.003360   0.000102
    22  H   -0.001091   0.010461   0.000924  -0.000124  -0.033852  -0.003281
    23  C   -0.070747  -6.052992   0.201252  -0.019246   2.341941  -0.355026
    24  C   -0.142029   2.477181  -0.171871   0.070443  -6.564092   0.077930
    25  H    0.006313  -0.332000  -0.005808  -0.001671   0.086054   0.008230
    26  C    0.039504  -3.862243   0.331567  -0.081601   1.617818  -0.249388
    27  C    0.237923  -0.066694   0.068818  -0.025847   0.372205   0.023278
    28  O    0.028731   0.012567  -0.028468   0.002058  -0.029195   0.001539
    29  H   -0.024923  -0.104556   0.012454  -0.001027  -0.080165  -0.000317
    30  H   -0.165285  -0.096527  -0.003568   0.002980  -0.064102  -0.000921
    31  H    0.846189   0.141139  -0.003699  -0.002028   0.070234   0.002355
    32  C    0.141139  17.955736  -1.521707   0.035514  -7.037406   1.370821
    33  O   -0.003699  -1.521707   9.286568   0.279993   0.786693  -0.139953
    34  H   -0.002028   0.035514   0.279993   0.508908  -0.079995   0.013587
    35  C    0.070234  -7.037406   0.786693  -0.079995  20.708751  -1.756873
    36  H    0.002355   1.370821  -0.139953   0.013587  -1.756873   2.084815
    37  C    0.009220   2.198315  -0.043902   0.044818  -6.018648   0.706410
    38  H   -0.001618  -0.215806   0.003236  -0.000962   0.690882  -0.136753
    39  H   -0.000304  -0.016812   0.000342  -0.000045   0.038363  -0.000126
              37         38         39
     1  C    0.022992   0.005147  -0.005538
     2  H    0.006127  -0.002658  -0.015470
     3  H   -0.008491   0.002205   0.000024
     4  H   -0.003696   0.000899   0.002787
     5  C   -0.196390  -0.002903  -0.026533
     6  C    0.028010   0.010265   0.005892
     7  H    0.044533  -0.016486  -0.010491
     8  H   -0.015512   0.002409   0.013665
     9  H   -0.000517   0.001956  -0.002411
    10  C    0.000786   0.009742  -0.016274
    11  H   -0.008956  -0.001467  -0.031677
    12  H   -0.004170  -0.000822   0.021624
    13  H    0.004572   0.002393   0.007380
    14  N   -0.013566   0.023161   0.324142
    15  H    0.052647  -0.008623  -0.104145
    16  C   -0.399559   0.046020  -0.054855
    17  H    0.173567   0.005447  -0.030059
    18  H   -0.048342  -0.032208   0.026697
    19  C   -0.241278   0.015892   0.063436
    20  O   -0.214066   0.010728   0.015234
    21  H    0.122573   0.000373   0.013834
    22  H    0.104881  -0.001332   0.005372
    23  C   -8.447197   0.540949  -0.063525
    24  C    0.577859   0.134001   0.017520
    25  H    0.149198  -0.020891   0.000234
    26  C   -4.844583  -0.088038   0.001959
    27  C    0.358668  -0.017367  -0.003559
    28  O   -0.014757  -0.000036   0.000042
    29  H   -0.000860   0.000207  -0.000059
    30  H    0.023391  -0.001591   0.000451
    31  H    0.009220  -0.001618  -0.000304
    32  C    2.198315  -0.215806  -0.016812
    33  O   -0.043902   0.003236   0.000342
    34  H    0.044818  -0.000962  -0.000045
    35  C   -6.018648   0.690882   0.038363
    36  H    0.706410  -0.136753  -0.000126
    37  C   23.151948  -1.783597  -0.079661
    38  H   -1.783597   2.536735   0.015315
    39  H   -0.079661   0.015315   0.691254
 Mulliken charges:
               1
     1  C    1.328305
     2  H    0.007484
     3  H    0.006518
     4  H    0.033412
     5  C   -3.381364
     6  C    1.218381
     7  H    0.012411
     8  H   -0.013226
     9  H   -0.036462
    10  C    1.300476
    11  H   -0.021105
    12  H   -0.005133
    13  H    0.014673
    14  N   -0.634591
    15  H    0.230841
    16  C    0.953753
    17  H   -0.239639
    18  H   -0.272373
    19  C    0.869205
    20  O   -0.770292
    21  H    0.135953
    22  H   -0.146180
    23  C    0.408896
    24  C    0.494800
    25  H   -0.781079
    26  C   -0.014649
    27  C    1.196059
    28  O   -0.728262
    29  H    0.198892
    30  H   -0.272699
    31  H    0.044513
    32  C    1.146307
    33  O   -1.059729
    34  H    0.252938
    35  C    0.120115
    36  H   -0.675556
    37  C    0.607234
    38  H   -0.724803
    39  H    0.195978
 Sum of Mulliken charges =   1.00000
 Mulliken charges with hydrogens summed into heavy atoms:
               1
     1  C    1.375719
     5  C   -3.381364
     6  C    1.181104
    10  C    1.288911
    14  N   -0.207772
    16  C    0.441741
    19  C    0.723025
    20  O   -0.634339
    23  C    0.408896
    24  C   -0.286279
    26  C   -0.014649
    27  C    0.967872
    28  O   -0.529370
    32  C    1.146307
    33  O   -0.806791
    35  C   -0.555441
    37  C   -0.117569
 Electronic spatial extent (au):  <R**2>=           5785.4439
 Charge=              1.0000 electrons
 Dipole moment (field-independent basis, Debye):
    X=             10.3623    Y=              3.0770    Z=             -1.1104  Tot=             10.8664
 Quadrupole moment (field-independent basis, Debye-Ang):
   XX=            -56.4108   YY=            -90.1864   ZZ=            -98.6226
   XY=             -3.1266   XZ=             14.0022   YZ=             -4.9604
 Traceless Quadrupole moment (field-independent basis, Debye-Ang):
   XX=             25.3291   YY=             -8.4464   ZZ=            -16.8826
   XY=             -3.1266   XZ=             14.0022   YZ=             -4.9604
 Octapole moment (field-independent basis, Debye-Ang**2):
  XXX=            140.3923  YYY=             47.0370  ZZZ=             -4.7633  XYY=            -30.4788
  XXY=             49.0213  XXZ=            -16.2617  XZZ=             45.0593  YZZ=             -0.8884
  YYZ=              1.8371  XYZ=             14.3597
 Hexadecapole moment (field-independent basis, Debye-Ang**3):
 XXXX=          -4881.9958 YYYY=          -1049.1781 ZZZZ=           -790.2030 XXXY=            -59.1132
 XXXZ=            227.0333 YYYX=            -87.7019 YYYZ=            -49.7988 ZZZX=             53.4517
 ZZZY=              2.7093 XXYY=           -892.1179 XXZZ=          -1115.1233 YYZZ=           -257.2326
 XXYZ=             -2.8617 YYXZ=             20.2086 ZZXY=            -33.6059
 N-N= 1.268596961532D+03 E-N=-4.353291545879D+03  KE= 7.829806889044D+02
 Leave Link  601 at Sun Jul 18 16:09:41 2021, MaxMem=   262144000 cpu:               1.1 elap:               0.4
 (Enter /prod/apps/gaussian/g16b1/l9999.exe)
 1\1\GINC-PIRINEUS35\SP\RMP2-FC\Aug-CC-pVDZ\C13H22N1O3(1+)\UBATOR02\18-
 Jul-2021\0\\#p mp2/aug-cc-pVDZ scf=tight maxdisk=180GB geom=allcheck\\
 SET_328_BBB301_conf1.geo_090_285_255 geometry\\1,1\C,0,-0.925653306,-2
 .7775544063,-2.3024009456\H,0,-0.2448640913,-3.5201371175,-1.876835142
 6\H,0,-0.3352728392,-2.0133358183,-2.8158208092\H,0,-1.5479330882,-3.2
 791940697,-3.0470711916\C,0,-1.8254500536,-2.1638155606,-1.2246321066\
 C,0,-2.7276993599,-1.0778569512,-1.813552264\H,0,-2.1440127707,-0.2715
 591268,-2.2691382528\H,0,-3.3961454629,-0.6480050964,-1.0654214792\H,0
 ,-3.3499942624,-1.5231285918,-2.5926978058\C,0,-2.6316948278,-3.242808
 1926,-0.5011816984\H,0,-3.2748860935,-2.8237012358,0.274708875\H,0,-1.
 9780410395,-3.9918856796,-0.0468852841\H,0,-3.2732494995,-3.7506343758
 ,-1.2248524971\N,0,-0.8719956938,-1.5088516466,-0.2077637505\H,0,-0.28
 03735234,-0.834195481,-0.7162247781\C,0,-1.4912599797,-0.8240241029,0.
 97275427\H,0,-2.0547450305,-1.5749925143,1.5217190786\H,0,-2.180397774
 ,-0.0732170664,0.5919159662\C,0,-0.4517657535,-0.1869671889,1.91042393
 1\O,0,0.3505213959,-1.1772011461,2.5427159329\H,0,0.9852678672,-1.5272
 698689,1.8917803494\H,0,-1.0468796308,0.2381365398,2.7257795212\C,0,0.
 3707471849,0.9268590585,1.2677178089\C,0,1.7307017713,1.0636337961,1.5
 734505144\H,0,2.1917564701,0.3540562585,2.2509279002\C,0,2.5087867808,
 2.0929035274,1.0460953722\C,0,3.9740013058,2.2382568387,1.3868532547\O
 ,0,4.8242587812,2.2132349607,0.2401487818\H,0,4.5799069778,2.991682484
 7,-0.2906651195\H,0,4.2825774214,1.4027895789,2.0195465295\H,0,4.13311
 04793,3.1622583538,1.9596042745\C,0,1.9015405976,3.0182361353,0.180385
 1237\O,0,2.7057345968,4.0099732307,-0.3110849045\H,0,2.2063334215,4.57
 89894456,-0.9239000281\C,0,0.5463603351,2.9057458102,-0.1377613454\H,0
 ,0.0806734036,3.6228664051,-0.8056760313\C,0,-0.2079983434,1.867510755
 3,0.4080728916\H,0,-1.2602433966,1.8047232887,0.1536203902\H,0,-0.2307
 2297,-2.2385212304,0.1353446683\\Version=ES64L-G16RevB.01\State=1-A\HF
 =-784.0200935\MP2=-786.6573607\RMSD=6.678e-09\PG=C01 [X(C13H22N1O3)]\\
 @


 IT CANNOT BE MY BEAUTY, FOR I HAVE NONE; AND IT CANNOT BE MY WIT,
 FOR HE HAS NOT ENOUGH TO KNOW THAT I HAVE ANY.
 -- CATHARINE SEDLEY, PUZZLED ABOUT WHY SHE WAS MISTRESS TO JAMES II
 Job cpu time:       0 days  2 hours 58 minutes 10.2 seconds.
 Elapsed time:       0 days  0 hours 50 minutes  6.5 seconds.
 File lengths (MBytes):  RWF= 101465 Int=      0 D2E=      0 Chk=     28 Scr=      1
 Normal termination of Gaussian 16 at Sun Jul 18 16:09:43 2021.
