 Entering Gaussian System, Link 0=g16
 Initial command:
 /prod/apps/gaussian/g16b1/l1.exe "/tmp/ubator02/1839703/Gau-60327.inp" -scrdir="/tmp/ubator02/1839703/"
 Entering Link 1 = /prod/apps/gaussian/g16b1/l1.exe PID=     60328.
  
 Copyright (c) 1988-2017, Gaussian, Inc.  All Rights Reserved.
  
 This is part of the Gaussian(R) 16 program.  It is based on
 the Gaussian(R) 09 system (copyright 2009, Gaussian, Inc.),
 the Gaussian(R) 03 system (copyright 2003, Gaussian, Inc.),
 the Gaussian(R) 98 system (copyright 1998, Gaussian, Inc.),
 the Gaussian(R) 94 system (copyright 1995, Gaussian, Inc.),
 the Gaussian 92(TM) system (copyright 1992, Gaussian, Inc.),
 the Gaussian 90(TM) system (copyright 1990, Gaussian, Inc.),
 the Gaussian 88(TM) system (copyright 1988, Gaussian, Inc.),
 the Gaussian 86(TM) system (copyright 1986, Carnegie Mellon
 University), and the Gaussian 82(TM) system (copyright 1983,
 Carnegie Mellon University). Gaussian is a federally registered
 trademark of Gaussian, Inc.
  
 This software contains proprietary and confidential information,
 including trade secrets, belonging to Gaussian, Inc.
  
 This software is provided under written license and may be
 used, copied, transmitted, or stored only in accord with that
 written license.
  
 The following legend is applicable only to US Government
 contracts under FAR:
  
                    RESTRICTED RIGHTS LEGEND
  
 Use, reproduction and disclosure by the US Government is
 subject to restrictions as set forth in subparagraphs (a)
 and (c) of the Commercial Computer Software - Restricted
 Rights clause in FAR 52.227-19.
  
 Gaussian, Inc.
 340 Quinnipiac St., Bldg. 40, Wallingford CT 06492
  
  
 ---------------------------------------------------------------
 Warning -- This program may not be used in any manner that
 competes with the business of Gaussian, Inc. or will provide
 assistance to any competitor of Gaussian, Inc.  The licensee
 of this program is prohibited from giving any competitor of
 Gaussian, Inc. access to this program.  By using this program,
 the user acknowledges that Gaussian, Inc. is engaged in the
 business of creating and licensing software in the field of
 computational chemistry and represents and warrants to the
 licensee that it is not a competitor of Gaussian, Inc. and that
 it will not use this program in any manner prohibited above.
 ---------------------------------------------------------------
  

 Cite this work as:
 Gaussian 16, Revision B.01,
 M. J. Frisch, G. W. Trucks, H. B. Schlegel, G. E. Scuseria, 
 M. A. Robb, J. R. Cheeseman, G. Scalmani, V. Barone, 
 G. A. Petersson, H. Nakatsuji, X. Li, M. Caricato, A. V. Marenich, 
 J. Bloino, B. G. Janesko, R. Gomperts, B. Mennucci, H. P. Hratchian, 
 J. V. Ortiz, A. F. Izmaylov, J. L. Sonnenberg, D. Williams-Young, 
 F. Ding, F. Lipparini, F. Egidi, J. Goings, B. Peng, A. Petrone, 
 T. Henderson, D. Ranasinghe, V. G. Zakrzewski, J. Gao, N. Rega, 
 G. Zheng, W. Liang, M. Hada, M. Ehara, K. Toyota, R. Fukuda, 
 J. Hasegawa, M. Ishida, T. Nakajima, Y. Honda, O. Kitao, H. Nakai, 
 T. Vreven, K. Throssell, J. A. Montgomery, Jr., J. E. Peralta, 
 F. Ogliaro, M. J. Bearpark, J. J. Heyd, E. N. Brothers, K. N. Kudin, 
 V. N. Staroverov, T. A. Keith, R. Kobayashi, J. Normand, 
 K. Raghavachari, A. P. Rendell, J. C. Burant, S. S. Iyengar, 
 J. Tomasi, M. Cossi, J. M. Millam, M. Klene, C. Adamo, R. Cammi, 
 J. W. Ochterski, R. L. Martin, K. Morokuma, O. Farkas, 
 J. B. Foresman, and D. J. Fox, Gaussian, Inc., Wallingford CT, 2016.
 
 ******************************************
 Gaussian 16:  ES64L-G16RevB.01 20-Dec-2017
                18-Jul-2021 
 ******************************************
 %mem=800MB
 %nproc=4
 Will use up to    4 processors via shared memory.
 %chk=SET_328_BBB324_conf1.geo_180_315_180.chk
 -----------------------------------------------------------
 #p b3lyp/6-31G(d) opt freq scrf=(iefpcm,read,solvent=water)
 -----------------------------------------------------------
 1/18=20,19=15,26=3,38=1,40=2/1,3;
 2/9=110,12=2,17=6,18=5,40=1/2;
 3/5=1,6=6,7=1,11=2,25=1,30=1,70=2203,71=1,72=1,74=-5/1,2,3;
 4//1;
 5/5=2,38=5,53=1/2;
 6/7=2,8=2,9=2,10=2,28=1/1;
 7//1,2,3,16;
 1/18=20,19=15,26=3/3(2);
 2/9=110/2;
 99//99;
 2/9=110/2;
 3/5=1,6=6,7=1,11=2,25=1,30=1,70=2205,71=1,72=1,74=-5/1,2,3;
 4/5=5,16=3,69=1/1;
 5/5=2,38=5,53=1/2;
 7//1,2,3,16;
 1/18=20,19=15,26=3/3(-5);
 2/9=110/2;
 6/7=2,8=2,9=2,10=2,19=2,28=1/1;
 99/9=1/99;
 Leave Link    1 at Sun Jul 18 16:26:03 2021, MaxMem=   104857600 cpu:               0.1 elap:               0.0
 (Enter /prod/apps/gaussian/g16b1/l101.exe)
 ---------------------------------------------
 SET_328_BBB324_conf1.geo_180_315_180 geometry
 ---------------------------------------------
 Symbolic Z-matrix:
 Charge =  1 Multiplicity = 1
 C                     0.185     1.905     1.666 
 H                     0.827     2.492     2.328 
 H                     0.311     0.892     2.057 
 H                    -0.866     2.205     1.667 
 N                     0.735     1.917     0.255 
 C                    -0.047     1.002    -0.631 
 H                    -0.437     1.589    -1.467 
 H                    -0.915     0.613    -0.092 
 C                     0.819    -0.071    -1.148 
 C                     1.032    -1.389    -0.845 
 C                     0.084    -2.094     0.03 
 N                     0.31     -3.346     0.307 
 O                    -0.685    -3.769     1.178 
 C                    -1.459    -2.649     1.353 
 N                    -1.092    -1.62      0.622 
 C                    -2.672    -2.775     2.278 
 C                    -3.947    -3.184     1.542 
 H                    -4.238    -2.433     0.805 
 H                    -4.726    -3.163     2.307 
 H                    -3.763    -4.076     0.939 
 O                    -2.589    -3.852     3.264 
 H                    -3.36     -3.742     3.848 
 C                    -2.704    -1.49      3.082 
 O                    -3.782    -1.471     4.003 
 H                    -3.689    -0.726     4.624 
 H                    -2.94     -0.758     2.305 
 H                    -1.777    -1.33      3.639 
 N                     2.22     -1.876    -1.425 
 C                     2.822    -0.814    -1.995 
 H                     3.784    -0.896    -2.476 
 N                     2.031     0.246    -1.717 
 C                     2.298     1.42     -2.337 
 C                     2.456     1.453    -3.725 
 H                     2.311     0.537    -4.291 
 C                     2.684     2.637    -4.345 
 H                     2.672     2.743    -5.427 
 C                     2.783     3.826    -3.58 
 H                     3.055     4.715    -4.144 
 C                     2.677     3.753    -2.169 
 Cl                    2.795     5.23     -1.308 
 C                     2.317     2.565    -1.581 
 C                     1.908     2.592    -0.111 
 O                     2.569     3.191     0.715 
 H                     2.55     -2.82     -1.416 
 
 ITRead=  0  0  0  0  0  0  0  0  0  0  0  0  0  0  0  0  0  0  0  0
 ITRead=  0  0  0  0  0  0  0  0  0  0  0  0  0  0  0  0  0  0  0  0
 ITRead=  0  0  0  0
 MicOpt= -1 -1 -1 -1 -1 -1 -1 -1 -1 -1 -1 -1 -1 -1 -1 -1 -1 -1 -1 -1
 MicOpt= -1 -1 -1 -1 -1 -1 -1 -1 -1 -1 -1 -1 -1 -1 -1 -1 -1 -1 -1 -1
 MicOpt= -1 -1 -1 -1
 NAtoms=     44 NQM=       44 NQMF=       0 NMMI=      0 NMMIF=      0
                NMic=       0 NMicF=      0.
                    Isotopes and Nuclear Properties:
 (Nuclear quadrupole moments (NQMom) in fm**2, nuclear magnetic moments (NMagM)
  in nuclear magnetons)

  Atom         1           2           3           4           5           6           7           8           9          10
 IAtWgt=          12           1           1           1          14          12           1           1          12          12
 AtmWgt=  12.0000000   1.0078250   1.0078250   1.0078250  14.0030740  12.0000000   1.0078250   1.0078250  12.0000000  12.0000000
 NucSpn=           0           1           1           1           2           0           1           1           0           0
 AtZEff=  -0.0000000  -0.0000000  -0.0000000  -0.0000000  -0.0000000  -0.0000000  -0.0000000  -0.0000000  -0.0000000  -0.0000000
 NQMom=    0.0000000   0.0000000   0.0000000   0.0000000   2.0440000   0.0000000   0.0000000   0.0000000   0.0000000   0.0000000
 NMagM=    0.0000000   2.7928460   2.7928460   2.7928460   0.4037610   0.0000000   2.7928460   2.7928460   0.0000000   0.0000000
 AtZNuc=   6.0000000   1.0000000   1.0000000   1.0000000   7.0000000   6.0000000   1.0000000   1.0000000   6.0000000   6.0000000

  Atom        11          12          13          14          15          16          17          18          19          20
 IAtWgt=          12          14          16          12          14          12          12           1           1           1
 AtmWgt=  12.0000000  14.0030740  15.9949146  12.0000000  14.0030740  12.0000000  12.0000000   1.0078250   1.0078250   1.0078250
 NucSpn=           0           2           0           0           2           0           0           1           1           1
 AtZEff=  -0.0000000  -0.0000000  -0.0000000  -0.0000000  -0.0000000  -0.0000000  -0.0000000  -0.0000000  -0.0000000  -0.0000000
 NQMom=    0.0000000   2.0440000   0.0000000   0.0000000   2.0440000   0.0000000   0.0000000   0.0000000   0.0000000   0.0000000
 NMagM=    0.0000000   0.4037610   0.0000000   0.0000000   0.4037610   0.0000000   0.0000000   2.7928460   2.7928460   2.7928460
 AtZNuc=   6.0000000   7.0000000   8.0000000   6.0000000   7.0000000   6.0000000   6.0000000   1.0000000   1.0000000   1.0000000

  Atom        21          22          23          24          25          26          27          28          29          30
 IAtWgt=          16           1          12          16           1           1           1          14          12           1
 AtmWgt=  15.9949146   1.0078250  12.0000000  15.9949146   1.0078250   1.0078250   1.0078250  14.0030740  12.0000000   1.0078250
 NucSpn=           0           1           0           0           1           1           1           2           0           1
 AtZEff=  -0.0000000  -0.0000000  -0.0000000  -0.0000000  -0.0000000  -0.0000000  -0.0000000  -0.0000000  -0.0000000  -0.0000000
 NQMom=    0.0000000   0.0000000   0.0000000   0.0000000   0.0000000   0.0000000   0.0000000   2.0440000   0.0000000   0.0000000
 NMagM=    0.0000000   2.7928460   0.0000000   0.0000000   2.7928460   2.7928460   2.7928460   0.4037610   0.0000000   2.7928460
 AtZNuc=   8.0000000   1.0000000   6.0000000   8.0000000   1.0000000   1.0000000   1.0000000   7.0000000   6.0000000   1.0000000

  Atom        31          32          33          34          35          36          37          38          39          40
 IAtWgt=          14          12          12           1          12           1          12           1          12          35
 AtmWgt=  14.0030740  12.0000000  12.0000000   1.0078250  12.0000000   1.0078250  12.0000000   1.0078250  12.0000000  34.9688527
 NucSpn=           2           0           0           1           0           1           0           1           0           3
 AtZEff=  -0.0000000  -0.0000000  -0.0000000  -0.0000000  -0.0000000  -0.0000000  -0.0000000  -0.0000000  -0.0000000  -0.0000000
 NQMom=    2.0440000   0.0000000   0.0000000   0.0000000   0.0000000   0.0000000   0.0000000   0.0000000   0.0000000  -8.1650000
 NMagM=    0.4037610   0.0000000   0.0000000   2.7928460   0.0000000   2.7928460   0.0000000   2.7928460   0.0000000   0.8218740
 AtZNuc=   7.0000000   6.0000000   6.0000000   1.0000000   6.0000000   1.0000000   6.0000000   1.0000000   6.0000000  17.0000000

  Atom        41          42          43          44
 IAtWgt=          12          12          16           1
 AtmWgt=  12.0000000  12.0000000  15.9949146   1.0078250
 NucSpn=           0           0           0           1
 AtZEff=  -0.0000000  -0.0000000  -0.0000000  -0.0000000
 NQMom=    0.0000000   0.0000000   0.0000000   0.0000000
 NMagM=    0.0000000   0.0000000   0.0000000   2.7928460
 AtZNuc=   6.0000000   6.0000000   8.0000000   1.0000000
 Leave Link  101 at Sun Jul 18 16:26:03 2021, MaxMem=   104857600 cpu:               0.5 elap:               0.2
 (Enter /prod/apps/gaussian/g16b1/l103.exe)

 GradGradGradGradGradGradGradGradGradGradGradGradGradGradGradGradGradGrad
 Berny optimization.
 Initialization pass.
                           ----------------------------
                           !    Initial Parameters    !
                           ! (Angstroms and Degrees)  !
 --------------------------                            --------------------------
 ! Name  Definition              Value          Derivative Info.                !
 --------------------------------------------------------------------------------
 ! R1    R(1,2)                  1.0932         estimate D2E/DX2                !
 ! R2    R(1,3)                  1.0931         estimate D2E/DX2                !
 ! R3    R(1,4)                  1.093          estimate D2E/DX2                !
 ! R4    R(1,5)                  1.5145         estimate D2E/DX2                !
 ! R5    R(5,6)                  1.4946         estimate D2E/DX2                !
 ! R6    R(5,42)                 1.402          estimate D2E/DX2                !
 ! R7    R(6,7)                  1.0934         estimate D2E/DX2                !
 ! R8    R(6,8)                  1.0933         estimate D2E/DX2                !
 ! R9    R(6,9)                  1.4726         estimate D2E/DX2                !
 ! R10   R(9,10)                 1.3691         estimate D2E/DX2                !
 ! R11   R(9,31)                 1.3759         estimate D2E/DX2                !
 ! R12   R(10,11)                1.4702         estimate D2E/DX2                !
 ! R13   R(10,28)                1.4089         estimate D2E/DX2                !
 ! R14   R(11,12)                1.302          estimate D2E/DX2                !
 ! R15   R(11,15)                1.3993         estimate D2E/DX2                !
 ! R16   R(12,13)                1.3884         estimate D2E/DX2                !
 ! R17   R(13,14)                1.3726         estimate D2E/DX2                !
 ! R18   R(14,15)                1.3145         estimate D2E/DX2                !
 ! R19   R(14,16)                1.5306         estimate D2E/DX2                !
 ! R20   R(16,17)                1.5279         estimate D2E/DX2                !
 ! R21   R(16,21)                1.4625         estimate D2E/DX2                !
 ! R22   R(16,23)                1.5161         estimate D2E/DX2                !
 ! R23   R(17,18)                1.0917         estimate D2E/DX2                !
 ! R24   R(17,19)                1.092          estimate D2E/DX2                !
 ! R25   R(17,20)                1.0923         estimate D2E/DX2                !
 ! R26   R(21,22)                0.9734         estimate D2E/DX2                !
 ! R27   R(23,24)                1.418          estimate D2E/DX2                !
 ! R28   R(23,26)                1.0933         estimate D2E/DX2                !
 ! R29   R(23,27)                1.0932         estimate D2E/DX2                !
 ! R30   R(24,25)                0.9743         estimate D2E/DX2                !
 ! R31   R(28,29)                1.3473         estimate D2E/DX2                !
 ! R32   R(28,44)                1.0001         estimate D2E/DX2                !
 ! R33   R(29,30)                1.0787         estimate D2E/DX2                !
 ! R34   R(29,31)                1.3515         estimate D2E/DX2                !
 ! R35   R(31,32)                1.3542         estimate D2E/DX2                !
 ! R36   R(32,33)                1.3974         estimate D2E/DX2                !
 ! R37   R(32,41)                1.3722         estimate D2E/DX2                !
 ! R38   R(33,34)                1.0865         estimate D2E/DX2                !
 ! R39   R(33,35)                1.3558         estimate D2E/DX2                !
 ! R40   R(35,36)                1.0872         estimate D2E/DX2                !
 ! R41   R(35,37)                1.4173         estimate D2E/DX2                !
 ! R42   R(37,38)                1.0874         estimate D2E/DX2                !
 ! R43   R(37,39)                1.4169         estimate D2E/DX2                !
 ! R44   R(39,40)                1.7137         estimate D2E/DX2                !
 ! R45   R(39,41)                1.3736         estimate D2E/DX2                !
 ! R46   R(41,42)                1.5261         estimate D2E/DX2                !
 ! R47   R(42,43)                1.2157         estimate D2E/DX2                !
 ! A1    A(2,1,3)              102.3165         estimate D2E/DX2                !
 ! A2    A(2,1,4)              114.6323         estimate D2E/DX2                !
 ! A3    A(2,1,5)              110.2844         estimate D2E/DX2                !
 ! A4    A(3,1,4)              111.3997         estimate D2E/DX2                !
 ! A5    A(3,1,5)              107.3818         estimate D2E/DX2                !
 ! A6    A(4,1,5)              110.3587         estimate D2E/DX2                !
 ! A7    A(1,5,6)              110.9435         estimate D2E/DX2                !
 ! A8    A(1,5,42)             123.4287         estimate D2E/DX2                !
 ! A9    A(6,5,42)             125.2942         estimate D2E/DX2                !
 ! A10   A(5,6,7)              108.1319         estimate D2E/DX2                !
 ! A11   A(5,6,8)              109.9366         estimate D2E/DX2                !
 ! A12   A(5,6,9)              110.2741         estimate D2E/DX2                !
 ! A13   A(7,6,8)              106.5455         estimate D2E/DX2                !
 ! A14   A(7,6,9)              109.4204         estimate D2E/DX2                !
 ! A15   A(8,6,9)              112.3784         estimate D2E/DX2                !
 ! A16   A(6,9,10)             135.6646         estimate D2E/DX2                !
 ! A17   A(6,9,31)             119.6909         estimate D2E/DX2                !
 ! A18   A(10,9,31)            100.153          estimate D2E/DX2                !
 ! A19   A(9,10,11)            119.5419         estimate D2E/DX2                !
 ! A20   A(9,10,28)            111.8919         estimate D2E/DX2                !
 ! A21   A(11,10,28)           128.5354         estimate D2E/DX2                !
 ! A22   A(10,11,12)           118.4118         estimate D2E/DX2                !
 ! A23   A(10,11,15)           129.1443         estimate D2E/DX2                !
 ! A24   A(12,11,15)           112.4319         estimate D2E/DX2                !
 ! A25   A(11,12,13)           107.5798         estimate D2E/DX2                !
 ! A26   A(12,13,14)           103.621          estimate D2E/DX2                !
 ! A27   A(13,14,15)           114.2303         estimate D2E/DX2                !
 ! A28   A(13,14,16)           117.1771         estimate D2E/DX2                !
 ! A29   A(15,14,16)           128.445          estimate D2E/DX2                !
 ! A30   A(11,15,14)           101.8142         estimate D2E/DX2                !
 ! A31   A(14,16,17)           113.093          estimate D2E/DX2                !
 ! A32   A(14,16,21)           115.028          estimate D2E/DX2                !
 ! A33   A(14,16,23)           105.5112         estimate D2E/DX2                !
 ! A34   A(17,16,21)           100.0776         estimate D2E/DX2                !
 ! A35   A(17,16,23)           117.6909         estimate D2E/DX2                !
 ! A36   A(21,16,23)           105.5344         estimate D2E/DX2                !
 ! A37   A(16,17,18)           111.3135         estimate D2E/DX2                !
 ! A38   A(16,17,19)           104.6358         estimate D2E/DX2                !
 ! A39   A(16,17,20)           110.1174         estimate D2E/DX2                !
 ! A40   A(18,17,19)           105.6371         estimate D2E/DX2                !
 ! A41   A(18,17,20)           103.5318         estimate D2E/DX2                !
 ! A42   A(19,17,20)           121.5066         estimate D2E/DX2                !
 ! A43   A(16,21,22)           106.0392         estimate D2E/DX2                !
 ! A44   A(16,23,24)           111.8289         estimate D2E/DX2                !
 ! A45   A(16,23,26)           101.2532         estimate D2E/DX2                !
 ! A46   A(16,23,27)           112.1064         estimate D2E/DX2                !
 ! A47   A(24,23,26)           106.7703         estimate D2E/DX2                !
 ! A48   A(24,23,27)           108.1645         estimate D2E/DX2                !
 ! A49   A(26,23,27)           116.561          estimate D2E/DX2                !
 ! A50   A(23,24,25)           110.5886         estimate D2E/DX2                !
 ! A51   A(10,28,29)           106.1692         estimate D2E/DX2                !
 ! A52   A(10,28,44)           126.9297         estimate D2E/DX2                !
 ! A53   A(29,28,44)           126.9011         estimate D2E/DX2                !
 ! A54   A(28,29,30)           121.8187         estimate D2E/DX2                !
 ! A55   A(28,29,31)           105.6463         estimate D2E/DX2                !
 ! A56   A(30,29,31)           132.3236         estimate D2E/DX2                !
 ! A57   A(9,31,29)            114.8288         estimate D2E/DX2                !
 ! A58   A(9,31,32)            124.2441         estimate D2E/DX2                !
 ! A59   A(29,31,32)           118.0577         estimate D2E/DX2                !
 ! A60   A(31,32,33)           119.8362         estimate D2E/DX2                !
 ! A61   A(31,32,41)           118.2858         estimate D2E/DX2                !
 ! A62   A(33,32,41)           121.7344         estimate D2E/DX2                !
 ! A63   A(32,33,34)           118.8463         estimate D2E/DX2                !
 ! A64   A(32,33,35)           119.595          estimate D2E/DX2                !
 ! A65   A(34,33,35)           121.3636         estimate D2E/DX2                !
 ! A66   A(33,35,36)           122.5724         estimate D2E/DX2                !
 ! A67   A(33,35,37)           119.8365         estimate D2E/DX2                !
 ! A68   A(36,35,37)           117.138          estimate D2E/DX2                !
 ! A69   A(35,37,38)           115.048          estimate D2E/DX2                !
 ! A70   A(35,37,39)           119.2799         estimate D2E/DX2                !
 ! A71   A(38,37,39)           125.2657         estimate D2E/DX2                !
 ! A72   A(37,39,40)           116.7942         estimate D2E/DX2                !
 ! A73   A(37,39,41)           119.3723         estimate D2E/DX2                !
 ! A74   A(40,39,41)           123.2578         estimate D2E/DX2                !
 ! A75   A(32,41,39)           119.3063         estimate D2E/DX2                !
 ! A76   A(32,41,42)           122.8028         estimate D2E/DX2                !
 ! A77   A(39,41,42)           117.8587         estimate D2E/DX2                !
 ! A78   A(5,42,41)            117.8519         estimate D2E/DX2                !
 ! A79   A(5,42,43)            120.9814         estimate D2E/DX2                !
 ! A80   A(41,42,43)           121.1621         estimate D2E/DX2                !
 ! D1    D(2,1,5,6)            173.9384         estimate D2E/DX2                !
 ! D2    D(2,1,5,42)             0.2616         estimate D2E/DX2                !
 ! D3    D(3,1,5,6)             63.2065         estimate D2E/DX2                !
 ! D4    D(3,1,5,42)          -110.4702         estimate D2E/DX2                !
 ! D5    D(4,1,5,6)            -58.392          estimate D2E/DX2                !
 ! D6    D(4,1,5,42)           127.9313         estimate D2E/DX2                !
 ! D7    D(1,5,6,7)            122.4191         estimate D2E/DX2                !
 ! D8    D(1,5,6,8)              6.4721         estimate D2E/DX2                !
 ! D9    D(1,5,6,9)           -117.9808         estimate D2E/DX2                !
 ! D10   D(42,5,6,7)           -64.0472         estimate D2E/DX2                !
 ! D11   D(42,5,6,8)          -179.9941         estimate D2E/DX2                !
 ! D12   D(42,5,6,9)            55.553          estimate D2E/DX2                !
 ! D13   D(1,5,42,41)         -177.6497         estimate D2E/DX2                !
 ! D14   D(1,5,42,43)            1.5776         estimate D2E/DX2                !
 ! D15   D(6,5,42,41)            9.5902         estimate D2E/DX2                !
 ! D16   D(6,5,42,43)         -171.1824         estimate D2E/DX2                !
 ! D17   D(5,6,9,10)           101.3426         estimate D2E/DX2                !
 ! D18   D(5,6,9,31)           -49.5747         estimate D2E/DX2                !
 ! D19   D(7,6,9,10)          -139.8407         estimate D2E/DX2                !
 ! D20   D(7,6,9,31)            69.2419         estimate D2E/DX2                !
 ! D21   D(8,6,9,10)           -21.6955         estimate D2E/DX2                !
 ! D22   D(8,6,9,31)          -172.6129         estimate D2E/DX2                !
 ! D23   D(6,9,10,11)           13.4146         estimate D2E/DX2                !
 ! D24   D(6,9,10,28)         -164.7366         estimate D2E/DX2                !
 ! D25   D(31,9,10,11)         168.0123         estimate D2E/DX2                !
 ! D26   D(31,9,10,28)         -10.1389         estimate D2E/DX2                !
 ! D27   D(6,9,31,29)          171.5676         estimate D2E/DX2                !
 ! D28   D(6,9,31,32)          -28.0585         estimate D2E/DX2                !
 ! D29   D(10,9,31,29)          11.7554         estimate D2E/DX2                !
 ! D30   D(10,9,31,32)         172.1293         estimate D2E/DX2                !
 ! D31   D(9,10,11,12)        -179.7976         estimate D2E/DX2                !
 ! D32   D(9,10,11,15)           1.566          estimate D2E/DX2                !
 ! D33   D(28,10,11,12)         -1.9908         estimate D2E/DX2                !
 ! D34   D(28,10,11,15)        179.3729         estimate D2E/DX2                !
 ! D35   D(9,10,28,29)           5.6782         estimate D2E/DX2                !
 ! D36   D(9,10,28,44)        -174.2916         estimate D2E/DX2                !
 ! D37   D(11,10,28,29)       -172.2655         estimate D2E/DX2                !
 ! D38   D(11,10,28,44)          7.7646         estimate D2E/DX2                !
 ! D39   D(10,11,12,13)        177.888          estimate D2E/DX2                !
 ! D40   D(15,11,12,13)         -3.2562         estimate D2E/DX2                !
 ! D41   D(10,11,15,14)       -175.8713         estimate D2E/DX2                !
 ! D42   D(12,11,15,14)          5.4263         estimate D2E/DX2                !
 ! D43   D(11,12,13,14)         -0.2627         estimate D2E/DX2                !
 ! D44   D(12,13,14,15)          3.9839         estimate D2E/DX2                !
 ! D45   D(12,13,14,16)        179.9447         estimate D2E/DX2                !
 ! D46   D(13,14,15,11)         -5.6535         estimate D2E/DX2                !
 ! D47   D(16,14,15,11)        178.9355         estimate D2E/DX2                !
 ! D48   D(13,14,16,17)        -90.8096         estimate D2E/DX2                !
 ! D49   D(13,14,16,21)         23.3338         estimate D2E/DX2                !
 ! D50   D(13,14,16,23)        139.2034         estimate D2E/DX2                !
 ! D51   D(15,14,16,17)         84.4861         estimate D2E/DX2                !
 ! D52   D(15,14,16,21)       -161.3705         estimate D2E/DX2                !
 ! D53   D(15,14,16,23)        -45.5009         estimate D2E/DX2                !
 ! D54   D(14,16,17,18)        -62.4833         estimate D2E/DX2                !
 ! D55   D(14,16,17,19)       -176.1193         estimate D2E/DX2                !
 ! D56   D(14,16,17,20)         51.7462         estimate D2E/DX2                !
 ! D57   D(21,16,17,18)        174.6353         estimate D2E/DX2                !
 ! D58   D(21,16,17,19)         60.9994         estimate D2E/DX2                !
 ! D59   D(21,16,17,20)        -71.1352         estimate D2E/DX2                !
 ! D60   D(23,16,17,18)         61.0278         estimate D2E/DX2                !
 ! D61   D(23,16,17,19)        -52.6081         estimate D2E/DX2                !
 ! D62   D(23,16,17,20)        175.2574         estimate D2E/DX2                !
 ! D63   D(14,16,21,22)        172.8333         estimate D2E/DX2                !
 ! D64   D(17,16,21,22)        -65.6576         estimate D2E/DX2                !
 ! D65   D(23,16,21,22)         56.9771         estimate D2E/DX2                !
 ! D66   D(14,16,23,24)       -179.401          estimate D2E/DX2                !
 ! D67   D(14,16,23,26)         67.2323         estimate D2E/DX2                !
 ! D68   D(14,16,23,27)        -57.7212         estimate D2E/DX2                !
 ! D69   D(17,16,23,24)         53.3447         estimate D2E/DX2                !
 ! D70   D(17,16,23,26)        -60.0219         estimate D2E/DX2                !
 ! D71   D(17,16,23,27)        175.0246         estimate D2E/DX2                !
 ! D72   D(21,16,23,24)        -57.2032         estimate D2E/DX2                !
 ! D73   D(21,16,23,26)       -170.5698         estimate D2E/DX2                !
 ! D74   D(21,16,23,27)         64.4767         estimate D2E/DX2                !
 ! D75   D(16,23,24,25)        169.0826         estimate D2E/DX2                !
 ! D76   D(26,23,24,25)        -81.0244         estimate D2E/DX2                !
 ! D77   D(27,23,24,25)         45.1596         estimate D2E/DX2                !
 ! D78   D(10,28,29,30)        177.0901         estimate D2E/DX2                !
 ! D79   D(10,28,29,31)          1.7662         estimate D2E/DX2                !
 ! D80   D(44,28,29,30)         -2.94           estimate D2E/DX2                !
 ! D81   D(44,28,29,31)       -178.264          estimate D2E/DX2                !
 ! D82   D(28,29,31,9)          -8.9046         estimate D2E/DX2                !
 ! D83   D(28,29,31,32)       -170.566          estimate D2E/DX2                !
 ! D84   D(30,29,31,9)         176.4714         estimate D2E/DX2                !
 ! D85   D(30,29,31,32)         14.81           estimate D2E/DX2                !
 ! D86   D(9,31,32,33)        -109.2017         estimate D2E/DX2                !
 ! D87   D(9,31,32,41)          66.5185         estimate D2E/DX2                !
 ! D88   D(29,31,32,33)         50.5901         estimate D2E/DX2                !
 ! D89   D(29,31,32,41)       -133.6897         estimate D2E/DX2                !
 ! D90   D(31,32,33,34)          3.0669         estimate D2E/DX2                !
 ! D91   D(31,32,33,35)        178.061          estimate D2E/DX2                !
 ! D92   D(41,32,33,34)       -172.5015         estimate D2E/DX2                !
 ! D93   D(41,32,33,35)          2.4926         estimate D2E/DX2                !
 ! D94   D(31,32,41,39)        175.4748         estimate D2E/DX2                !
 ! D95   D(31,32,41,42)         -6.6344         estimate D2E/DX2                !
 ! D96   D(33,32,41,39)         -8.8905         estimate D2E/DX2                !
 ! D97   D(33,32,41,42)        169.0003         estimate D2E/DX2                !
 ! D98   D(32,33,35,36)       -170.9698         estimate D2E/DX2                !
 ! D99   D(32,33,35,37)          1.0814         estimate D2E/DX2                !
 ! D100  D(34,33,35,36)          3.8948         estimate D2E/DX2                !
 ! D101  D(34,33,35,37)        175.946          estimate D2E/DX2                !
 ! D102  D(33,35,37,38)        174.7425         estimate D2E/DX2                !
 ! D103  D(33,35,37,39)          1.6741         estimate D2E/DX2                !
 ! D104  D(36,35,37,38)        -12.7822         estimate D2E/DX2                !
 ! D105  D(36,35,37,39)        174.1493         estimate D2E/DX2                !
 ! D106  D(35,37,39,40)       -179.5885         estimate D2E/DX2                !
 ! D107  D(35,37,39,41)         -8.0037         estimate D2E/DX2                !
 ! D108  D(38,37,39,40)          8.107          estimate D2E/DX2                !
 ! D109  D(38,37,39,41)        179.6918         estimate D2E/DX2                !
 ! D110  D(37,39,41,32)         11.4796         estimate D2E/DX2                !
 ! D111  D(37,39,41,42)       -166.5151         estimate D2E/DX2                !
 ! D112  D(40,39,41,32)       -177.5079         estimate D2E/DX2                !
 ! D113  D(40,39,41,42)          4.4974         estimate D2E/DX2                !
 ! D114  D(32,41,42,5)         -45.3151         estimate D2E/DX2                !
 ! D115  D(32,41,42,43)        135.4591         estimate D2E/DX2                !
 ! D116  D(39,41,42,5)         132.6045         estimate D2E/DX2                !
 ! D117  D(39,41,42,43)        -46.6213         estimate D2E/DX2                !
 --------------------------------------------------------------------------------
 Trust Radius=3.00D-01 FncErr=1.00D-07 GrdErr=1.00D-06 EigMax=2.50D+02 EigMin=1.00D-04
 Number of steps in this run=    254 maximum allowed number of steps=    264.
 GradGradGradGradGradGradGradGradGradGradGradGradGradGradGradGradGradGrad

 Leave Link  103 at Sun Jul 18 16:26:03 2021, MaxMem=   104857600 cpu:               0.1 elap:               0.0
 (Enter /prod/apps/gaussian/g16b1/l202.exe)
                          Input orientation:                          
 ---------------------------------------------------------------------
 Center     Atomic      Atomic             Coordinates (Angstroms)
 Number     Number       Type             X           Y           Z
 ---------------------------------------------------------------------
      1          6           0        0.185000    1.905000    1.666000
      2          1           0        0.827000    2.492000    2.328000
      3          1           0        0.311000    0.892000    2.057000
      4          1           0       -0.866000    2.205000    1.667000
      5          7           0        0.735000    1.917000    0.255000
      6          6           0       -0.047000    1.002000   -0.631000
      7          1           0       -0.437000    1.589000   -1.467000
      8          1           0       -0.915000    0.613000   -0.092000
      9          6           0        0.819000   -0.071000   -1.148000
     10          6           0        1.032000   -1.389000   -0.845000
     11          6           0        0.084000   -2.094000    0.030000
     12          7           0        0.310000   -3.346000    0.307000
     13          8           0       -0.685000   -3.769000    1.178000
     14          6           0       -1.459000   -2.649000    1.353000
     15          7           0       -1.092000   -1.620000    0.622000
     16          6           0       -2.672000   -2.775000    2.278000
     17          6           0       -3.947000   -3.184000    1.542000
     18          1           0       -4.238000   -2.433000    0.805000
     19          1           0       -4.726000   -3.163000    2.307000
     20          1           0       -3.763000   -4.076000    0.939000
     21          8           0       -2.589000   -3.852000    3.264000
     22          1           0       -3.360000   -3.742000    3.848000
     23          6           0       -2.704000   -1.490000    3.082000
     24          8           0       -3.782000   -1.471000    4.003000
     25          1           0       -3.689000   -0.726000    4.624000
     26          1           0       -2.940000   -0.758000    2.305000
     27          1           0       -1.777000   -1.330000    3.639000
     28          7           0        2.220000   -1.876000   -1.425000
     29          6           0        2.822000   -0.814000   -1.995000
     30          1           0        3.784000   -0.896000   -2.476000
     31          7           0        2.031000    0.246000   -1.717000
     32          6           0        2.298000    1.420000   -2.337000
     33          6           0        2.456000    1.453000   -3.725000
     34          1           0        2.311000    0.537000   -4.291000
     35          6           0        2.684000    2.637000   -4.345000
     36          1           0        2.672000    2.743000   -5.427000
     37          6           0        2.783000    3.826000   -3.580000
     38          1           0        3.055000    4.715000   -4.144000
     39          6           0        2.677000    3.753000   -2.169000
     40         17           0        2.795000    5.230000   -1.308000
     41          6           0        2.317000    2.565000   -1.581000
     42          6           0        1.908000    2.592000   -0.111000
     43          8           0        2.569000    3.191000    0.715000
     44          1           0        2.550000   -2.820000   -1.416000
 ---------------------------------------------------------------------
                    Distance matrix (angstroms):
                    1          2          3          4          5
     1  C    0.000000
     2  H    1.093150   0.000000
     3  H    1.093127   1.702850   0.000000
     4  H    1.092978   1.839983   1.805934   0.000000
     5  N    1.514452   2.153234   2.116035   2.154040   0.000000
     6  C    2.479000   3.426318   2.713965   2.720069   1.494572
     7  H    3.209740   4.100626   3.669317   3.222647   2.108661
     8  H    2.443323   3.524430   2.489803   2.372961   2.131508
     9  C    3.496445   4.318751   3.384887   3.992947   2.434668
    10  C    4.227643   5.017182   3.760905   4.778010   3.496834
    11  C    4.321886   5.183073   3.616138   4.697198   4.069711
    12  N    5.425450   6.199514   4.585100   5.834910   5.280388
    13  O    5.761017   6.542841   4.846605   5.996712   5.932868
    14  C    4.851765   5.710193   4.020845   4.900159   5.183396
    15  N    3.891823   4.847839   3.215242   3.971615   3.997873
    16  C    5.517191   6.323511   4.732232   5.332481   6.141257
    17  C    6.556426   7.458274   5.916888   6.208825   7.042563
    18  H    6.254798   7.226990   5.772047   5.798661   6.629912
    19  H    7.086143   7.925609   6.471236   6.642637   7.735608
    20  H    7.203304   8.132407   6.521382   6.955110   7.524354
    21  O    6.587240   7.265775   5.689674   6.496644   7.306464
    22  H    7.015466   7.661862   6.177206   6.807614   7.855123
    23  C    4.677329   5.375202   3.976779   4.362739   5.605916
    24  O    5.709294   6.305067   5.111099   5.241462   6.777119
    25  H    5.538935   6.001783   5.020698   5.030302   6.756137
    26  H    4.155179   4.975271   3.654176   3.672586   4.986356
    27  H    4.267013   4.806997   3.435077   4.149088   5.320208
    28  N    5.290696   5.924937   4.840499   5.978162   4.406186
    29  C    5.267794   5.796377   5.063029   6.010487   4.108093
    30  H    6.160728   6.580335   5.983875   6.957237   4.966662
    31  N    4.195794   4.780811   4.197474   4.866389   2.891477
    32  C    4.552362   5.007519   4.851205   5.163249   3.067318
    33  C    5.867250   6.353894   6.192517   6.377684   4.360910
    34  H    6.471256   7.059422   6.665068   6.955093   5.005426
    35  C    6.550797   6.928088   7.047110   6.995232   5.047475
    36  H    7.562940   7.975403   8.062926   7.945547   6.059651
    37  C    6.161198   6.364743   6.818718   6.593470   4.748243
    38  H    7.063222   7.196700   7.784425   7.445943   5.706348
    39  C    4.932788   5.023508   5.625154   5.446471   3.608052
    40  Cl   5.168404   4.958847   6.025921   5.603942   4.202682
    41  C    3.940055   4.183983   4.478617   4.561863   2.508690
    42  C    2.568740   2.669697   3.184436   3.317549   1.401966
    43  O    2.870828   2.474860   3.490692   3.698341   2.279963
    44  H    6.116991   6.723363   5.554619   6.813558   5.340940
                    6          7          8          9         10
     6  C    0.000000
     7  H    1.093419   0.000000
     8  H    1.093282   1.752622   0.000000
     9  C    1.472608   2.105920   2.142370   0.000000
    10  C    2.631904   3.378362   2.892373   1.369051   0.000000
    11  C    3.168485   4.009606   2.888033   2.453658   1.470154
    12  N    4.462331   5.297104   4.163353   3.619631   2.382905
    13  O    5.142175   5.980443   4.568120   4.620335   3.564410
    14  C    4.388599   5.192064   3.608962   4.253277   3.553011
    15  N    3.088190   3.884666   2.351045   3.030548   2.591684
    16  C    5.442301   6.169663   4.492493   5.588933   5.039220
    17  C    6.120010   6.644976   5.126421   6.296160   5.806052
    18  H    5.605872   5.982146   4.596200   5.913248   5.620083
    19  H    6.918967   7.431023   5.876827   7.228037   6.799761
    20  H    6.485340   6.995951   5.582185   6.433531   5.778810
    21  O    6.722656   7.524490   5.831058   6.736184   6.005155
    22  H    7.317305   8.075439   6.361419   7.476650   6.844744
    23  C    5.201546   5.942468   4.206828   5.684891   5.421183
    24  O    6.445146   7.104472   5.415881   7.047127   6.832600
    25  H    6.623079   7.282514   5.632819   7.353032   7.255162
    26  H    4.481868   5.099157   3.424306   5.150268   5.108566
    27  H    5.163722   6.032197   4.294025   5.589246   5.291523
    28  N    3.748681   4.366651   4.219032   2.301642   1.408869
    29  C    3.659168   4.083415   4.429775   2.298144   2.203911
    30  H    4.656500   5.001015   5.480980   3.351930   3.236775
    31  N    2.463537   2.820846   3.384410   1.375934   2.105139
    32  C    2.929878   2.875011   4.001830   2.413347   3.423346
    33  C    4.005152   3.672398   5.026722   3.412224   4.289422
    34  H    4.378583   4.078380   5.295701   3.531880   4.149727
    35  C    4.891358   4.372851   5.927680   4.586098   5.584602
    36  H    5.781493   5.165191   6.772422   5.446287   6.384180
    37  C    4.967945   4.453913   6.013711   4.995851   6.143489
    38  H    5.979126   5.397432   7.000429   6.073015   7.227361
    39  C    4.165768   3.856513   5.203460   4.372366   5.558702
    40  Cl   5.139190   4.871138   6.046441   5.659574   6.865399
    41  C    2.988974   2.924053   4.058725   3.062677   4.222208
    42  C    2.573038   2.888558   3.447627   3.058244   4.141798
    43  O    3.667001   4.045190   4.408581   4.144142   5.076649
    44  H    4.687037   5.325791   5.054176   3.259630   2.162898
                   11         12         13         14         15
    11  C    0.000000
    12  N    1.302040   0.000000
    13  O    2.171380   1.388379   0.000000
    14  C    2.106942   2.170089   1.372626   0.000000
    15  N    1.399327   2.245864   2.256764   1.314493   0.000000
    16  C    3.621160   3.619835   2.479154   1.530644   2.563740
    17  C    4.441082   4.435484   3.333971   2.551880   3.382827
    18  H    4.404002   4.665391   3.814162   2.840740   3.254501
    19  H    5.428037   5.421696   4.239287   3.442034   4.292555
    20  H    4.421992   4.185887   3.102492   2.741558   3.642343
    21  O    4.549093   4.171820   2.825509   2.525080   3.768686
    22  H    5.399460   5.115115   3.779584   3.321668   4.478145
    23  C    4.177615   4.497728   3.591019   2.425437   2.943984
    24  O    5.578424   5.824131   4.780464   3.715712   4.323131
    25  H    6.100147   6.441497   5.491701   4.401167   4.853828
    26  H    4.013116   4.610016   3.926993   2.583708   2.643981
    27  H    4.131815   4.418376   3.632865   2.658323   3.107348
    28  N    2.593655   2.967966   4.335676   4.674383   3.901934
    29  C    3.638086   4.245041   5.576648   5.736139   4.776790
    30  H    4.626580   5.080971   6.448085   6.724827   5.822126
    31  N    3.509760   4.467760   5.646052   5.475950   4.325044
    32  C    4.780448   5.801520   6.941126   6.654916   5.430413
    33  C    5.683979   6.625160   7.821418   7.611814   6.397503
    34  H    5.527452   6.342184   7.578101   7.497882   6.353788
    35  C    6.948596   7.941868   9.104423   8.807579   7.553232
    36  H    7.737775   8.691014   9.864158   9.597251   8.354272
    37  C    7.440638   8.524206   9.609871   9.179035   7.895020
    38  H    8.521244   9.608650  10.690629  10.238247   8.946764
    39  C    6.763628   7.882199   8.893027   8.396224   7.131912
    40  Cl   7.923430   9.073656   9.963563   9.341096   8.109018
    41  C    5.411829   6.521696   7.532838   7.074767   5.829984
    42  C    5.030453   6.163455   6.989098   6.399068   5.222857
    43  O    5.880108   6.928341   7.697044   7.123021   6.046263
    44  H    2.949432   2.874544   4.253782   4.875314   4.342535
                   16         17         18         19         20
    16  C    0.000000
    17  C    1.527940   0.000000
    18  H    2.176936   1.091719   0.000000
    19  H    2.090526   1.092020   1.739841   0.000000
    20  H    2.162361   1.092304   1.715526   1.905876   0.000000
    21  O    1.462537   2.292525   3.283206   2.440766   2.614207
    22  H    1.968079   2.444089   3.426983   2.139130   2.955714
    23  C    1.516135   2.605050   2.902953   2.736428   3.521552
    24  O    2.430667   3.003018   3.370547   2.574959   4.021751
    25  H    3.276646   3.950576   4.219006   3.518924   4.980683
    26  H    2.034906   2.735269   2.596234   2.995634   3.681360
    27  H    2.177469   3.541698   3.912120   3.718967   4.332980
    28  N    6.200974   6.967485   6.854846   7.989437   6.798881
    29  C    7.231050   7.996664   7.765614   8.999850   7.912726
    30  H    8.234749   9.008198   8.802262  10.021800   8.873096
    31  N    6.870566   7.623809   7.268967   8.571517   7.700939
    32  C    7.974782   8.674300   8.212008   9.586824   8.813280
    33  C    8.955913   9.499551   8.968363  10.453402   9.539324
    34  H    8.885460   9.329110   8.813598  10.331649   9.248035
    35  C   10.091611  10.607119  10.007072  11.523767  10.702749
    36  H   10.879967  11.291920  10.647859  12.223993  11.332870
    37  C   10.375278  10.984893  10.377753  11.827425  11.212184
    38  H   11.407923  11.989696  11.347879  12.814923  12.231259
    39  C    9.539517  10.284496   9.743126  11.075651  10.603137
    40  Cl  10.335739  11.152240  10.613643  11.835376  11.604224
    41  C    8.264236   9.057694   8.581435   9.875747   9.349849
    42  C    7.449054   8.389017   7.991433   9.109155   8.816176
    43  O    8.093467   9.153295   8.830217   9.804326   9.641249
    44  H    6.396635   7.147956   7.152591   8.180376   6.854016
                   21         22         23         24         25
    21  O    0.000000
    22  H    0.973446   0.000000
    23  C    2.371791   2.467508   0.000000
    24  O    2.763789   2.315070   1.417987   0.000000
    25  H    3.582105   3.131561   1.982848   0.974328   0.000000
    26  H    3.258177   3.385484   1.093274   2.024978   2.437168
    27  H    2.675902   2.892631   1.093242   2.042646   2.234006
    28  N    7.001270   7.900815   6.686391   8.102544   8.534002
    29  C    8.134215   8.996163   7.534559   8.945416   9.285043
    30  H    9.071971   9.956376   8.563781   9.977596  10.309444
    31  N    7.934001   8.714141   6.961632   8.334114   8.594851
    32  C    9.113065   9.844462   7.928030   9.247696   9.428945
    33  C   10.121323  10.870336   9.034495  10.352990  10.593152
    34  H   10.017552  10.803398   9.144402  10.485569  10.820000
    35  C   11.305244  12.014442  10.060964  11.330222  11.505123
    36  H   12.112210  12.824425  10.918917  12.179360  12.390274
    37  C   11.603896  12.255050  10.136531  11.342809  11.397943
    38  H   12.654117  13.287029  11.130282  12.303852  12.327361
    39  C   10.727734  11.350096   9.166090  10.349031  10.331130
    40  Cl  11.505362  12.040147   9.729825  10.787356  10.616252
    41  C    9.419169  10.073759   7.962226   9.201530   9.241469
    42  C    8.552121   9.140299   6.937472   8.112279   8.047096
    43  O    9.094296   9.645477   7.437673   8.537001   8.353786
    44  H    7.026859   7.967928   7.043112   8.442724   8.932612
                   26         27         28         29         30
    26  H    0.000000
    27  H    1.859922   0.000000
    28  N    6.464397   6.474428   0.000000
    29  C    7.189839   7.291023   1.347274   0.000000
    30  H    8.251617   8.276853   2.123934   1.078670   0.000000
    31  N    6.472661   6.758060   2.150318   1.351505   2.225591
    32  C    7.329972   7.738262   3.420737   2.319978   2.755245
    33  C    8.388459   8.938225   4.053139   2.875090   2.973447
    34  H    8.529786   9.114951   3.747640   2.712552   2.741796
    35  C    9.347615   9.969045   5.395263   4.177433   4.145510
    36  H   10.175233  10.889228   6.128252   4.945035   4.815316
    37  C    9.402075   9.974562   6.121585   4.903401   4.951576
    38  H   10.367418  10.975670   7.178542   5.936525   5.898897
    39  C    8.480359   8.911109   5.696317   4.572613   4.788831
    40  Cl   9.044343   9.402638   7.130186   6.082979   6.314287
    41  C    7.333442   7.692871   4.444798   3.441520   3.864147
    42  C    6.368882   6.559254   4.667651   3.998211   4.612889
    43  O    6.962168   6.919316   5.511433   4.842327   5.325624
    44  H    6.945343   6.818802   1.000058   2.105531   2.519550
                   31         32         33         34         35
    31  N    0.000000
    32  C    1.354240   0.000000
    33  C    2.381079   1.397354   0.000000
    34  H    2.605486   2.144289   1.086479   0.000000
    35  C    3.612433   2.379527   1.355817   2.133552   0.000000
    36  H    4.517742   3.382056   2.146523   2.507440   1.087246
    37  C    4.105201   2.751202   2.399809   3.397915   1.417303
    38  H    5.187568   3.833448   3.342904   4.246272   2.120407
    39  C    3.594533   2.369547   2.785674   3.870335   2.445502
    40  Cl   5.058778   3.977681   4.496948   5.581827   3.994914
    41  C    2.340524   1.372196   2.419215   3.384807   2.789188
    42  C    2.845713   2.545734   3.828658   4.675236   4.304760
    43  O    3.857083   3.539009   4.769383   5.671888   5.091536
    44  H    3.124151   4.346187   4.857864   4.426307   6.194824
                   36         37         38         39         40
    36  H    0.000000
    37  C    2.143973   0.000000
    38  H    2.383603   1.087383   0.000000
    39  C    3.410966   1.416858   2.229115   0.000000
    40  Cl   4.813155   2.670832   2.894084   1.713702   0.000000
    41  C    3.866449   2.408999   3.425801   1.373568   2.721257
    42  C    5.372742   3.784487   4.699769   2.484883   3.029624
    43  O    6.159178   4.346958   5.115531   2.940232   2.881167
    44  H    6.859298   6.993318   8.029523   6.617210   8.054452
                   41         42         43         44
    41  C    0.000000
    42  C    1.526077   0.000000
    43  O    2.393114   1.215729   0.000000
    44  H    5.392563   5.604010   6.377589   0.000000
 Stoichiometry    C17H17ClN5O4(1+)
 Framework group  C1[X(C17H17ClN5O4)]
 Deg. of freedom   126
 Full point group                 C1      NOp   1
 Largest Abelian subgroup         C1      NOp   1
 Largest concise Abelian subgroup C1      NOp   1
                         Standard orientation:                         
 ---------------------------------------------------------------------
 Center     Atomic      Atomic             Coordinates (Angstroms)
 Number     Number       Type             X           Y           Z
 ---------------------------------------------------------------------
      1          6           0       -0.067689    2.432971   -0.577216
      2          1           0       -0.495353    3.059994   -1.363932
      3          1           0        0.730885    1.906797   -1.106694
      4          1           0        0.319979    2.983446    0.283767
      5          7           0       -1.074125    1.394016   -0.128635
      6          6           0       -0.458407    0.437295    0.840550
      7          1           0       -1.042207    0.466113    1.764623
      8          1           0        0.551185    0.767198    1.099693
      9          6           0       -0.478127   -0.928919    0.291329
     10          6           0        0.432729   -1.756353   -0.308668
     11          6           0        1.862944   -1.420272   -0.254927
     12          7           0        2.709650   -2.220496   -0.836339
     13          8           0        3.975557   -1.669303   -0.690521
     14          6           0        3.744947   -0.510090    0.007437
     15          7           0        2.493467   -0.339500    0.371561
     16          6           0        4.960551    0.357254    0.343432
     17          6           0        5.586975    0.013705    1.694050
     18          1           0        4.886561    0.190107    2.512680
     19          1           0        6.383164    0.749686    1.824131
     20          1           0        5.785539   -1.058715    1.754187
     21          8           0        6.117280    0.166750   -0.531040
     22          1           0        6.760848    0.852199   -0.278896
     23          6           0        4.512479    1.788037    0.118141
     24          8           0        5.553619    2.714161    0.380833
     25          1           0        5.307265    3.603980    0.069629
     26          1           0        3.774430    1.908555    0.915642
     27          1           0        4.159636    1.952644   -0.903419
     28          7           0       -0.189935   -2.842862   -0.954191
     29          6           0       -1.516113   -2.623733   -0.862645
     30          1           0       -2.234819   -3.286111   -1.318985
     31          7           0       -1.646653   -1.438526   -0.226399
     32          6           0       -2.884854   -1.063288    0.173626
     33          6           0       -3.674819   -1.948247    0.912137
     34          1           0       -3.258066   -2.910386    1.196814
     35          6           0       -4.897896   -1.553418    1.343918
     36          1           0       -5.491800   -2.142603    2.038356
     37          6           0       -5.374115   -0.257404    1.024060
     38          1           0       -6.397051   -0.053916    1.331624
     39          6           0       -4.575218    0.596497    0.223996
     40         17           0       -5.207720    2.152789   -0.114636
     41          6           0       -3.291300    0.220988   -0.087830
     42          6           0       -2.360934    1.279609   -0.673194
     43          8           0       -2.726964    2.010639   -1.572980
     44          1           0        0.261366   -3.620590   -1.391895
 ---------------------------------------------------------------------
 Rotational constants (GHZ):           0.3830648           0.0889911           0.0771550
 Leave Link  202 at Sun Jul 18 16:26:03 2021, MaxMem=   104857600 cpu:               0.1 elap:               0.0
 (Enter /prod/apps/gaussian/g16b1/l301.exe)
 Standard basis: 6-31G(d) (6D, 7F)
 Ernie: Thresh=  0.10000D-02 Tol=  0.10000D-05 Strict=F.
 There are   443 symmetry adapted cartesian basis functions of A   symmetry.
 There are   443 symmetry adapted basis functions of A   symmetry.
   443 basis functions,   848 primitive gaussians,   443 cartesian basis functions
   101 alpha electrons      101 beta electrons
       nuclear repulsion energy      2647.3040463389 Hartrees.
 IExCor=  402 DFT=T Ex+Corr=B3LYP ExCW=0 ScaHFX=  0.200000
 ScaDFX=  0.800000  0.720000  1.000000  0.810000 ScalE2=  1.000000  1.000000
 IRadAn=      5 IRanWt=     -1 IRanGd=            0 ICorTp=0 IEmpDi=  4
 NAtoms=   44 NActive=   44 NUniq=   44 SFac= 1.00D+00 NAtFMM=   60 NAOKFM=F Big=F
 Integral buffers will be    131072 words long.
 Raffenetti 2 integral format.
 Two-electron integral symmetry is turned on.
 Using the following non-standard input for PCM:
 MSTModel=DFT cav MSTCharged
 --- end of non-standard input.
 MST model for solvation energy: B3LYP parametrization.
 MST cavity parameters:
 ISph   IAn     Re0     Alpha   Atom Type   QCorr
 ------------------------------------------------
   1      6     1.50     1.25      CH3        F
   2      1     1.20     1.25      CH3        F
   3      1     1.20     1.25      CH3        F
   4      1     1.20     1.25      CH3        F
   5      7     1.40     1.25      N          F
   6      6     1.50     1.25      CH2        F
   7      1     1.20     1.25      CH2        F
   8      1     1.20     1.25      CH2        F
   9      6     1.50     1.25      C          F
  10      6     1.50     1.25      C          F
  11      6     1.50     1.25      C          F
  12      7     1.40     1.25      N          F
  13      8     1.40     1.25      O          F
  14      6     1.50     1.25      C          F
  15      7     1.40     1.25      N          F
  16      6     1.50     1.25      C          F
  17      6     1.50     1.25      CH3        F
  18      1     1.20     1.25      CH3        F
  19      1     1.20     1.25      CH3        F
  20      1     1.20     1.25      CH3        F
  21      8     1.45     1.25      OH         F
  22      1     0.90     1.25      OH         F
  23      6     1.50     1.25      CH2        F
  24      8     1.45     1.25      OH         F
  25      1     0.90     1.25      OH         F
  26      1     1.20     1.25      CH2        F
  27      1     1.20     1.25      CH2        F
  28      7     1.50     1.15      NH         T
  29      6     1.50     1.25      CH         F
  30      1     1.20     1.25      CH         F
  31      7     1.40     1.25      N          F
  32      6     1.50     1.25      C          F
  33      6     1.50     1.25      CH         F
  34      1     1.20     1.25      CH         F
  35      6     1.50     1.25      CH         F
  36      1     1.20     1.25      CH         F
  37      6     1.50     1.25      CH         F
  38      1     1.20     1.25      CH         F
  39      6     1.50     1.25      C          F
  40     17     1.80     1.25      Cl         F
  41      6     1.50     1.25      C          F
  42      6     1.50     1.25      C          F
  43      8     1.40     1.25      O          F
  44      1     0.90     1.15      NH         T
 ------------------------------------------------------------------------------
 Polarizable Continuum Model (PCM)
 =================================
 Model                : PCM.
 Atomic radii         : MST.
 Polarization charges : Total charges.
 Charge compensation  : None.
 Solution method      : On-the-fly selection.
 Cavity type          : Scaled VdW (van der Waals Surface) (Alpha=1.250).
 Cavity algorithm     : GePol (No added spheres)
                        Default sphere list used, NSphG=   44.
                        Lebedev-Laikov grids with approx.  5.0 points / Ang**2.
                        Smoothing algorithm: York/Karplus (Gamma=1.0000).
                        Polarization charges: spherical gaussians, with
                                              point-specific exponents (IZeta= 3).
                        Self-potential: point-specific (ISelfS= 7).
                        Self-field    : sphere-specific E.n sum rule (ISelfD= 2).
 1st derivatives      : Analytical E(r).r(x)/FMM algorithm (CHGder, D1EAlg=3).
                        Cavity 1st derivative terms included.
 Solvent              : Water, Eps=  78.355300 Eps(inf)=   1.777849
 ------------------------------------------------------------------------------
 GePol: Number of generator spheres                  =      44
 GePol: Total number of spheres                      =      44
 GePol: Number of exposed spheres                    =      44 (100.00%)
 GePol: Number of points                             =    3258
 GePol: Average weight of points                     =       0.13
 GePol: Minimum weight of points                     =   0.63D-11
 GePol: Maximum weight of points                     =    0.22001
 GePol: Number of points with low weight             =     207
 GePol: Fraction of low-weight points (<1% of avg)   =       6.35%
 GePol: Cavity surface area                          =    417.487 Ang**2
 GePol: Cavity volume                                =    414.454 Ang**3
 PCM non-electrostatic energy =         0.0052190566 Hartrees.
 Nuclear repulsion after PCM non-electrostatic terms =     2647.3092653956 Hartrees.
 Leave Link  301 at Sun Jul 18 16:26:03 2021, MaxMem=   104857600 cpu:               0.4 elap:               0.1
 (Enter /prod/apps/gaussian/g16b1/l302.exe)
 NPDir=0 NMtPBC=     1 NCelOv=     1 NCel=       1 NClECP=     1 NCelD=      1
         NCelK=      1 NCelE2=     1 NClLst=     1 CellRange=     0.0.
 One-electron integrals computed using PRISM.
 One-electron integral symmetry used in STVInt
 NBasis=   443 RedAO= T EigKep=  3.98D-04  NBF=   443
 NBsUse=   443 1.00D-06 EigRej= -1.00D+00 NBFU=   443
 Precomputing XC quadrature grid using
 IXCGrd= 4 IRadAn=           5 IRanWt=          -1 IRanGd=           0 AccXCQ= 0.00D+00.
 Generated NRdTot=       0 NPtTot=           0 NUsed=           0 NTot=          32
 NSgBfM=   437   437   437   437   437 MxSgAt=    44 MxSgA2=    44.
 Leave Link  302 at Sun Jul 18 16:26:04 2021, MaxMem=   104857600 cpu:               3.0 elap:               0.8
 (Enter /prod/apps/gaussian/g16b1/l303.exe)
 DipDrv:  MaxL=1.
 Leave Link  303 at Sun Jul 18 16:26:04 2021, MaxMem=   104857600 cpu:               0.2 elap:               0.1
 (Enter /prod/apps/gaussian/g16b1/l401.exe)
 ExpMin= 1.43D-01 ExpMax= 2.52D+04 ExpMxC= 3.78D+03 IAcc=3 IRadAn=         5 AccDes= 0.00D+00
 Harris functional with IExCor=  402 and IRadAn=       5 diagonalized for initial guess.
 HarFok:  IExCor=  402 AccDes= 0.00D+00 IRadAn=         5 IDoV= 1 UseB2=F ITyADJ=14
 ICtDFT=  3500011 ScaDFX=  1.000000  1.000000  1.000000  1.000000
 FoFCou: FMM=F IPFlag=           0 FMFlag=      100000 FMFlg1=           0
         NFxFlg=           0 DoJE=T BraDBF=F KetDBF=T FulRan=T
         wScrn=  0.000000 ICntrl=       500 IOpCl=  0 I1Cent=   200000004 NGrid=           0
         NMat0=    1 NMatS0=      1 NMatT0=    0 NMatD0=    1 NMtDS0=    0 NMtDT0=    0
 Petite list used in FoFCou.
 Harris En= -1692.41173216197    
 JPrj=0 DoOrth=F DoCkMO=F.
 Leave Link  401 at Sun Jul 18 16:26:08 2021, MaxMem=   104857600 cpu:              17.0 elap:               4.3
 (Enter /prod/apps/gaussian/g16b1/l502.exe)
 Integral symmetry usage will be decided dynamically.
 Closed shell SCF:
 Using DIIS extrapolation, IDIIS=  1040.
 NGot=   104857600 LenX=   104457670 LenY=   104260978
 Requested convergence on RMS density matrix=1.00D-08 within 128 cycles.
 Requested convergence on MAX density matrix=1.00D-06.
 Requested convergence on             energy=1.00D-06.
 No special actions if energy rises.
 Fock matrices will be formed incrementally for  20 cycles.

 Cycle   1  Pass 1  IDiag  1:
 FoFJK:  IHMeth= 1 ICntrl=       0 DoSepK=F KAlg= 0 I1Cent=           0 FoldK=F
 IRaf= 700000000 NMat=       1 IRICut=       1 DoRegI=T DoRafI=F ISym2E= 0 IDoP0=0 IntGTp=1.
 FoFCou: FMM=F IPFlag=           0 FMFlag=      100000 FMFlg1=           0
         NFxFlg=           0 DoJE=F BraDBF=F KetDBF=F FulRan=T
         wScrn=  0.000000 ICntrl=         0 IOpCl=  0 I1Cent=           0 NGrid=           0
         NMat0=    1 NMatS0=      1 NMatT0=    0 NMatD0=    1 NMtDS0=    0 NMtDT0=    0
 Symmetry not used in FoFCou.
 Inv3:  Mode=1 IEnd=    31843692.
 Iteration    1 A*A^-1 deviation from unit magnitude is 3.55D-15 for   2537.
 Iteration    1 A*A^-1 deviation from orthogonality  is 4.66D-15 for   2575    273.
 Iteration    1 A^-1*A deviation from unit magnitude is 3.33D-15 for   2537.
 Iteration    1 A^-1*A deviation from orthogonality  is 4.47D-14 for   1850   1848.
 E= -1692.15446924927    
 DIIS: error= 2.73D-02 at cycle   1 NSaved=   1.
 NSaved= 1 IEnMin= 1 EnMin= -1692.15446924927     IErMin= 1 ErrMin= 2.73D-02
 ErrMax= 2.73D-02  0.00D+00 EMaxC= 1.00D-01 BMatC= 5.64D-01 BMatP= 5.64D-01
 IDIUse=3 WtCom= 7.27D-01 WtEn= 2.73D-01
 Coeff-Com:  0.100D+01
 Coeff-En:   0.100D+01
 Coeff:      0.100D+01
 Gap=     0.310 Goal=   None    Shift=    0.000
 GapD=    0.310 DampG=1.000 DampE=0.500 DampFc=0.5000 IDamp=-1.
 Damping current iteration by 5.00D-01
 RMSDP=3.95D-03 MaxDP=1.82D-01              OVMax= 3.14D-01

 Cycle   2  Pass 1  IDiag  1:
 RMSU=  1.95D-03    CP:  9.85D-01
 E= -1692.32167731967     Delta-E=       -0.167208070398 Rises=F Damp=T
 DIIS: error= 8.59D-03 at cycle   2 NSaved=   2.
 NSaved= 2 IEnMin= 2 EnMin= -1692.32167731967     IErMin= 2 ErrMin= 8.59D-03
 ErrMax= 8.59D-03  0.00D+00 EMaxC= 1.00D-01 BMatC= 7.33D-02 BMatP= 5.64D-01
 IDIUse=3 WtCom= 9.14D-01 WtEn= 8.59D-02
 Coeff-Com:  0.169D+00 0.831D+00
 Coeff-En:   0.275D+00 0.725D+00
 Coeff:      0.178D+00 0.822D+00
 Gap=     0.225 Goal=   None    Shift=    0.000
 RMSDP=1.20D-03 MaxDP=7.68D-02 DE=-1.67D-01 OVMax= 1.82D-01

 Cycle   3  Pass 1  IDiag  1:
 RMSU=  1.15D-03    CP:  9.74D-01  8.45D-01
 E= -1692.59510952159     Delta-E=       -0.273432201922 Rises=F Damp=F
 DIIS: error= 7.57D-03 at cycle   3 NSaved=   3.
 NSaved= 3 IEnMin= 3 EnMin= -1692.59510952159     IErMin= 3 ErrMin= 7.57D-03
 ErrMax= 7.57D-03  0.00D+00 EMaxC= 1.00D-01 BMatC= 6.09D-02 BMatP= 7.33D-02
 IDIUse=3 WtCom= 9.24D-01 WtEn= 7.57D-02
 Coeff-Com:  0.255D-01 0.471D+00 0.504D+00
 Coeff-En:   0.000D+00 0.000D+00 0.100D+01
 Coeff:      0.236D-01 0.435D+00 0.541D+00
 Gap=     0.199 Goal=   None    Shift=    0.000
 RMSDP=7.64D-04 MaxDP=5.13D-02 DE=-2.73D-01 OVMax= 9.15D-02

 Cycle   4  Pass 1  IDiag  1:
 RMSU=  5.67D-04    CP:  9.77D-01  9.23D-01  5.76D-01
 E= -1692.63441381997     Delta-E=       -0.039304298383 Rises=F Damp=F
 DIIS: error= 3.59D-03 at cycle   4 NSaved=   4.
 NSaved= 4 IEnMin= 4 EnMin= -1692.63441381997     IErMin= 4 ErrMin= 3.59D-03
 ErrMax= 3.59D-03  0.00D+00 EMaxC= 1.00D-01 BMatC= 1.51D-02 BMatP= 6.09D-02
 IDIUse=3 WtCom= 9.64D-01 WtEn= 3.59D-02
 Coeff-Com: -0.837D-02 0.114D+00 0.347D+00 0.548D+00
 Coeff-En:   0.000D+00 0.000D+00 0.231D+00 0.769D+00
 Coeff:     -0.807D-02 0.110D+00 0.342D+00 0.556D+00
 Gap=     0.193 Goal=   None    Shift=    0.000
 RMSDP=3.07D-04 MaxDP=2.24D-02 DE=-3.93D-02 OVMax= 4.55D-02

 Cycle   5  Pass 1  IDiag  1:
 RMSU=  1.42D-04    CP:  9.77D-01  9.05D-01  7.03D-01  6.00D-01
 E= -1692.64635869714     Delta-E=       -0.011944877173 Rises=F Damp=F
 DIIS: error= 6.71D-04 at cycle   5 NSaved=   5.
 NSaved= 5 IEnMin= 5 EnMin= -1692.64635869714     IErMin= 5 ErrMin= 6.71D-04
 ErrMax= 6.71D-04  0.00D+00 EMaxC= 1.00D-01 BMatC= 1.01D-03 BMatP= 1.51D-02
 IDIUse=3 WtCom= 9.93D-01 WtEn= 6.71D-03
 Coeff-Com: -0.574D-02 0.257D-01 0.149D+00 0.315D+00 0.517D+00
 Coeff-En:   0.000D+00 0.000D+00 0.000D+00 0.000D+00 0.100D+01
 Coeff:     -0.571D-02 0.255D-01 0.148D+00 0.313D+00 0.520D+00
 Gap=     0.185 Goal=   None    Shift=    0.000
 RMSDP=8.23D-05 MaxDP=4.81D-03 DE=-1.19D-02 OVMax= 1.06D-02

 Cycle   6  Pass 1  IDiag  1:
 RMSU=  4.93D-05    CP:  9.76D-01  9.10D-01  7.02D-01  6.33D-01  5.62D-01
 E= -1692.64716441014     Delta-E=       -0.000805712995 Rises=F Damp=F
 DIIS: error= 2.27D-04 at cycle   6 NSaved=   6.
 NSaved= 6 IEnMin= 6 EnMin= -1692.64716441014     IErMin= 6 ErrMin= 2.27D-04
 ErrMax= 2.27D-04  0.00D+00 EMaxC= 1.00D-01 BMatC= 9.36D-05 BMatP= 1.01D-03
 IDIUse=3 WtCom= 9.98D-01 WtEn= 2.27D-03
 Coeff-Com: -0.237D-02 0.295D-02 0.473D-01 0.119D+00 0.296D+00 0.537D+00
 Coeff-En:   0.000D+00 0.000D+00 0.000D+00 0.000D+00 0.317D-01 0.968D+00
 Coeff:     -0.236D-02 0.295D-02 0.472D-01 0.119D+00 0.296D+00 0.538D+00
 Gap=     0.185 Goal=   None    Shift=    0.000
 RMSDP=2.61D-05 MaxDP=1.40D-03 DE=-8.06D-04 OVMax= 2.04D-03

 Cycle   7  Pass 1  IDiag  1:
 RMSU=  1.40D-05    CP:  9.76D-01  9.09D-01  7.04D-01  6.42D-01  6.19D-01
                    CP:  6.01D-01
 E= -1692.64724543234     Delta-E=       -0.000081022197 Rises=F Damp=F
 DIIS: error= 7.23D-05 at cycle   7 NSaved=   7.
 NSaved= 7 IEnMin= 7 EnMin= -1692.64724543234     IErMin= 7 ErrMin= 7.23D-05
 ErrMax= 7.23D-05  0.00D+00 EMaxC= 1.00D-01 BMatC= 6.20D-06 BMatP= 9.36D-05
 IDIUse=1 WtCom= 1.00D+00 WtEn= 0.00D+00
 Coeff-Com: -0.870D-03-0.833D-04 0.154D-01 0.419D-01 0.125D+00 0.287D+00
 Coeff-Com:  0.532D+00
 Coeff:     -0.870D-03-0.833D-04 0.154D-01 0.419D-01 0.125D+00 0.287D+00
 Coeff:      0.532D+00
 Gap=     0.185 Goal=   None    Shift=    0.000
 RMSDP=6.55D-06 MaxDP=4.29D-04 DE=-8.10D-05 OVMax= 5.91D-04

 Cycle   8  Pass 1  IDiag  1:
 RMSU=  4.39D-06    CP:  9.76D-01  9.09D-01  7.04D-01  6.43D-01  6.21D-01
                    CP:  6.42D-01  6.90D-01
 E= -1692.64725017696     Delta-E=       -0.000004744626 Rises=F Damp=F
 DIIS: error= 3.65D-05 at cycle   8 NSaved=   8.
 NSaved= 8 IEnMin= 8 EnMin= -1692.64725017696     IErMin= 8 ErrMin= 3.65D-05
 ErrMax= 3.65D-05  0.00D+00 EMaxC= 1.00D-01 BMatC= 1.06D-06 BMatP= 6.20D-06
 IDIUse=1 WtCom= 1.00D+00 WtEn= 0.00D+00
 Coeff-Com: -0.180D-03-0.440D-03 0.296D-02 0.903D-02 0.368D-01 0.995D-01
 Coeff-Com:  0.320D+00 0.532D+00
 Coeff:     -0.180D-03-0.440D-03 0.296D-02 0.903D-02 0.368D-01 0.995D-01
 Coeff:      0.320D+00 0.532D+00
 Gap=     0.185 Goal=   None    Shift=    0.000
 RMSDP=2.30D-06 MaxDP=2.22D-04 DE=-4.74D-06 OVMax= 2.36D-04

 Cycle   9  Pass 1  IDiag  1:
 RMSU=  1.51D-06    CP:  9.76D-01  9.09D-01  7.04D-01  6.43D-01  6.25D-01
                    CP:  6.46D-01  7.21D-01  6.41D-01
 E= -1692.64725096070     Delta-E=       -0.000000783743 Rises=F Damp=F
 DIIS: error= 1.09D-05 at cycle   9 NSaved=   9.
 NSaved= 9 IEnMin= 9 EnMin= -1692.64725096070     IErMin= 9 ErrMin= 1.09D-05
 ErrMax= 1.09D-05  0.00D+00 EMaxC= 1.00D-01 BMatC= 9.58D-08 BMatP= 1.06D-06
 IDIUse=1 WtCom= 1.00D+00 WtEn= 0.00D+00
 Coeff-Com:  0.224D-04-0.233D-03-0.319D-03-0.670D-03 0.399D-02 0.149D-01
 Coeff-Com:  0.105D+00 0.286D+00 0.592D+00
 Coeff:      0.224D-04-0.233D-03-0.319D-03-0.670D-03 0.399D-02 0.149D-01
 Coeff:      0.105D+00 0.286D+00 0.592D+00
 Gap=     0.185 Goal=   None    Shift=    0.000
 RMSDP=7.62D-07 MaxDP=6.32D-05 DE=-7.84D-07 OVMax= 5.98D-05

 Cycle  10  Pass 1  IDiag  1:
 RMSU=  5.46D-07    CP:  9.76D-01  9.09D-01  7.04D-01  6.43D-01  6.26D-01
                    CP:  6.45D-01  7.33D-01  6.96D-01  7.32D-01
 E= -1692.64725103126     Delta-E=       -0.000000070550 Rises=F Damp=F
 DIIS: error= 3.28D-06 at cycle  10 NSaved=  10.
 NSaved=10 IEnMin=10 EnMin= -1692.64725103126     IErMin=10 ErrMin= 3.28D-06
 ErrMax= 3.28D-06  0.00D+00 EMaxC= 1.00D-01 BMatC= 1.20D-08 BMatP= 9.58D-08
 IDIUse=1 WtCom= 1.00D+00 WtEn= 0.00D+00
 Coeff-Com:  0.305D-04-0.945D-04-0.385D-03-0.110D-02-0.771D-03-0.675D-03
 Coeff-Com:  0.293D-01 0.109D+00 0.337D+00 0.528D+00
 Coeff:      0.305D-04-0.945D-04-0.385D-03-0.110D-02-0.771D-03-0.675D-03
 Coeff:      0.293D-01 0.109D+00 0.337D+00 0.528D+00
 Gap=     0.185 Goal=   None    Shift=    0.000
 RMSDP=2.78D-07 MaxDP=1.38D-05 DE=-7.06D-08 OVMax= 2.63D-05

 Cycle  11  Pass 1  IDiag  1:
 RMSU=  1.70D-07    CP:  9.76D-01  9.09D-01  7.04D-01  6.43D-01  6.26D-01
                    CP:  6.46D-01  7.38D-01  7.06D-01  7.71D-01  6.72D-01
 E= -1692.64725104180     Delta-E=       -0.000000010544 Rises=F Damp=F
 DIIS: error= 6.44D-07 at cycle  11 NSaved=  11.
 NSaved=11 IEnMin=11 EnMin= -1692.64725104180     IErMin=11 ErrMin= 6.44D-07
 ErrMax= 6.44D-07  0.00D+00 EMaxC= 1.00D-01 BMatC= 7.28D-10 BMatP= 1.20D-08
 IDIUse=1 WtCom= 1.00D+00 WtEn= 0.00D+00
 Coeff-Com:  0.143D-04-0.238D-04-0.162D-03-0.499D-03-0.879D-03-0.222D-02
 Coeff-Com:  0.274D-02 0.213D-01 0.959D-01 0.250D+00 0.634D+00
 Coeff:      0.143D-04-0.238D-04-0.162D-03-0.499D-03-0.879D-03-0.222D-02
 Coeff:      0.274D-02 0.213D-01 0.959D-01 0.250D+00 0.634D+00
 Gap=     0.185 Goal=   None    Shift=    0.000
 RMSDP=8.61D-08 MaxDP=4.98D-06 DE=-1.05D-08 OVMax= 9.14D-06

 Cycle  12  Pass 1  IDiag  1:
 RMSU=  5.73D-08    CP:  9.76D-01  9.09D-01  7.04D-01  6.43D-01  6.26D-01
                    CP:  6.46D-01  7.39D-01  7.09D-01  7.86D-01  7.24D-01
                    CP:  7.23D-01
 E= -1692.64725104240     Delta-E=       -0.000000000606 Rises=F Damp=F
 DIIS: error= 1.71D-07 at cycle  12 NSaved=  12.
 NSaved=12 IEnMin=12 EnMin= -1692.64725104240     IErMin=12 ErrMin= 1.71D-07
 ErrMax= 1.71D-07  0.00D+00 EMaxC= 1.00D-01 BMatC= 1.07D-10 BMatP= 7.28D-10
 IDIUse=1 WtCom= 1.00D+00 WtEn= 0.00D+00
 Coeff-Com:  0.421D-05-0.250D-05-0.386D-04-0.133D-03-0.363D-03-0.112D-02
 Coeff-Com: -0.202D-02-0.191D-02 0.978D-02 0.718D-01 0.333D+00 0.590D+00
 Coeff:      0.421D-05-0.250D-05-0.386D-04-0.133D-03-0.363D-03-0.112D-02
 Coeff:     -0.202D-02-0.191D-02 0.978D-02 0.718D-01 0.333D+00 0.590D+00
 Gap=     0.185 Goal=   None    Shift=    0.000
 RMSDP=2.80D-08 MaxDP=2.39D-06 DE=-6.06D-10 OVMax= 2.78D-06

 Cycle  13  Pass 1  IDiag  1:
 RMSU=  1.79D-08    CP:  9.76D-01  9.09D-01  7.04D-01  6.43D-01  6.26D-01
                    CP:  6.46D-01  7.39D-01  7.09D-01  7.90D-01  7.27D-01
                    CP:  8.00D-01  7.38D-01
 E= -1692.64725104249     Delta-E=       -0.000000000089 Rises=F Damp=F
 DIIS: error= 1.18D-07 at cycle  13 NSaved=  13.
 NSaved=13 IEnMin=13 EnMin= -1692.64725104249     IErMin=13 ErrMin= 1.18D-07
 ErrMax= 1.18D-07  0.00D+00 EMaxC= 1.00D-01 BMatC= 1.34D-11 BMatP= 1.07D-10
 IDIUse=1 WtCom= 1.00D+00 WtEn= 0.00D+00
 Coeff-Com:  0.847D-06 0.750D-06-0.265D-05-0.173D-04-0.912D-04-0.340D-03
 Coeff-Com: -0.124D-02-0.304D-02-0.478D-02 0.137D-01 0.110D+00 0.318D+00
 Coeff-Com:  0.567D+00
 Coeff:      0.847D-06 0.750D-06-0.265D-05-0.173D-04-0.912D-04-0.340D-03
 Coeff:     -0.124D-02-0.304D-02-0.478D-02 0.137D-01 0.110D+00 0.318D+00
 Coeff:      0.567D+00
 Gap=     0.185 Goal=   None    Shift=    0.000
 RMSDP=9.67D-09 MaxDP=7.94D-07 DE=-8.91D-11 OVMax= 8.46D-07

 Error on total polarization charges =  0.01929
 SCF Done:  E(RB3LYP) =  -1692.64725104     A.U. after   13 cycles
            NFock= 13  Conv=0.97D-08     -V/T= 2.0075
 KE= 1.680061368133D+03 PE=-9.232130803640D+03 EE= 3.212112919068D+03
 Leave Link  502 at Sun Jul 18 16:28:48 2021, MaxMem=   104857600 cpu:             640.6 elap:             160.3
 (Enter /prod/apps/gaussian/g16b1/l601.exe)
 Copying SCF densities to generalized density rwf, IOpCl= 0 IROHF=0.

 **********************************************************************

            Population analysis using the SCF Density.

 **********************************************************************

 Orbital symmetries:
       Occupied  (A) (A) (A) (A) (A) (A) (A) (A) (A) (A) (A) (A)
                 (A) (A) (A) (A) (A) (A) (A) (A) (A) (A) (A) (A)
                 (A) (A) (A) (A) (A) (A) (A) (A) (A) (A) (A) (A)
                 (A) (A) (A) (A) (A) (A) (A) (A) (A) (A) (A) (A)
                 (A) (A) (A) (A) (A) (A) (A) (A) (A) (A) (A) (A)
                 (A) (A) (A) (A) (A) (A) (A) (A) (A) (A) (A) (A)
                 (A) (A) (A) (A) (A) (A) (A) (A) (A) (A) (A) (A)
                 (A) (A) (A) (A) (A) (A) (A) (A) (A) (A) (A) (A)
                 (A) (A) (A) (A) (A)
       Virtual   (A) (A) (A) (A) (A) (A) (A) (A) (A) (A) (A) (A)
                 (A) (A) (A) (A) (A) (A) (A) (A) (A) (A) (A) (A)
                 (A) (A) (A) (A) (A) (A) (A) (A) (A) (A) (A) (A)
                 (A) (A) (A) (A) (A) (A) (A) (A) (A) (A) (A) (A)
                 (A) (A) (A) (A) (A) (A) (A) (A) (A) (A) (A) (A)
                 (A) (A) (A) (A) (A) (A) (A) (A) (A) (A) (A) (A)
                 (A) (A) (A) (A) (A) (A) (A) (A) (A) (A) (A) (A)
                 (A) (A) (A) (A) (A) (A) (A) (A) (A) (A) (A) (A)
                 (A) (A) (A) (A) (A) (A) (A) (A) (A) (A) (A) (A)
                 (A) (A) (A) (A) (A) (A) (A) (A) (A) (A) (A) (A)
                 (A) (A) (A) (A) (A) (A) (A) (A) (A) (A) (A) (A)
                 (A) (A) (A) (A) (A) (A) (A) (A) (A) (A) (A) (A)
                 (A) (A) (A) (A) (A) (A) (A) (A) (A) (A) (A) (A)
                 (A) (A) (A) (A) (A) (A) (A) (A) (A) (A) (A) (A)
                 (A) (A) (A) (A) (A) (A) (A) (A) (A) (A) (A) (A)
                 (A) (A) (A) (A) (A) (A) (A) (A) (A) (A) (A) (A)
                 (A) (A) (A) (A) (A) (A) (A) (A) (A) (A) (A) (A)
                 (A) (A) (A) (A) (A) (A) (A) (A) (A) (A) (A) (A)
                 (A) (A) (A) (A) (A) (A) (A) (A) (A) (A) (A) (A)
                 (A) (A) (A) (A) (A) (A) (A) (A) (A) (A) (A) (A)
                 (A) (A) (A) (A) (A) (A) (A) (A) (A) (A) (A) (A)
                 (A) (A) (A) (A) (A) (A) (A) (A) (A) (A) (A) (A)
                 (A) (A) (A) (A) (A) (A) (A) (A) (A) (A) (A) (A)
                 (A) (A) (A) (A) (A) (A) (A) (A) (A) (A) (A) (A)
                 (A) (A) (A) (A) (A) (A) (A) (A) (A) (A) (A) (A)
                 (A) (A) (A) (A) (A) (A) (A) (A) (A) (A) (A) (A)
                 (A) (A) (A) (A) (A) (A) (A) (A) (A) (A) (A) (A)
                 (A) (A) (A) (A) (A) (A) (A) (A) (A) (A) (A) (A)
                 (A) (A) (A) (A) (A) (A)
 The electronic state is 1-A.
 Alpha  occ. eigenvalues -- -101.56126 -19.27520 -19.14854 -19.14655 -19.13515
 Alpha  occ. eigenvalues --  -14.45759 -14.44988 -14.40965 -14.38569 -14.37720
 Alpha  occ. eigenvalues --  -10.32498 -10.32485 -10.31637 -10.29757 -10.28832
 Alpha  occ. eigenvalues --  -10.28061 -10.27743 -10.27462 -10.26353 -10.25761
 Alpha  occ. eigenvalues --  -10.23827 -10.23585 -10.22431 -10.22257 -10.21820
 Alpha  occ. eigenvalues --  -10.21580 -10.18791  -9.47823  -7.24233  -7.23266
 Alpha  occ. eigenvalues --   -7.23166  -1.18583  -1.11062  -1.05806  -1.03464
 Alpha  occ. eigenvalues --   -1.00762  -0.99496  -0.96697  -0.93837  -0.91664
 Alpha  occ. eigenvalues --   -0.89800  -0.86810  -0.83836  -0.80025  -0.78991
 Alpha  occ. eigenvalues --   -0.76621  -0.75083  -0.71618  -0.71267  -0.70395
 Alpha  occ. eigenvalues --   -0.70012  -0.66813  -0.64709  -0.62977  -0.61946
 Alpha  occ. eigenvalues --   -0.60845  -0.58353  -0.57199  -0.54816  -0.53721
 Alpha  occ. eigenvalues --   -0.53281  -0.52936  -0.52081  -0.51556  -0.50974
 Alpha  occ. eigenvalues --   -0.49535  -0.49008  -0.48547  -0.47814  -0.47628
 Alpha  occ. eigenvalues --   -0.46815  -0.46165  -0.45951  -0.44842  -0.43933
 Alpha  occ. eigenvalues --   -0.43438  -0.43309  -0.43100  -0.42097  -0.40546
 Alpha  occ. eigenvalues --   -0.40073  -0.39202  -0.39143  -0.39088  -0.38613
 Alpha  occ. eigenvalues --   -0.37448  -0.36558  -0.35961  -0.34823  -0.34366
 Alpha  occ. eigenvalues --   -0.32737  -0.32534  -0.32412  -0.32007  -0.28927
 Alpha  occ. eigenvalues --   -0.27868  -0.27380  -0.26981  -0.26875  -0.26298
 Alpha  occ. eigenvalues --   -0.25421
 Alpha virt. eigenvalues --   -0.06960  -0.06082  -0.04576  -0.03369  -0.02883
 Alpha virt. eigenvalues --    0.02087   0.03450   0.05558   0.06904   0.07409
 Alpha virt. eigenvalues --    0.08512   0.09171   0.10112   0.10559   0.10929
 Alpha virt. eigenvalues --    0.11735   0.12051   0.12797   0.13660   0.13919
 Alpha virt. eigenvalues --    0.14719   0.14802   0.15315   0.15618   0.16008
 Alpha virt. eigenvalues --    0.16438   0.16748   0.17798   0.18199   0.18339
 Alpha virt. eigenvalues --    0.19637   0.20361   0.21040   0.21373   0.21875
 Alpha virt. eigenvalues --    0.23726   0.24352   0.25245   0.25591   0.25964
 Alpha virt. eigenvalues --    0.26784   0.28137   0.29904   0.30338   0.31143
 Alpha virt. eigenvalues --    0.32701   0.33609   0.34462   0.35516   0.37472
 Alpha virt. eigenvalues --    0.38754   0.39011   0.40577   0.41361   0.42697
 Alpha virt. eigenvalues --    0.43744   0.45213   0.46204   0.47163   0.47991
 Alpha virt. eigenvalues --    0.48667   0.49592   0.50871   0.51121   0.51633
 Alpha virt. eigenvalues --    0.52004   0.52218   0.52952   0.53197   0.53843
 Alpha virt. eigenvalues --    0.54143   0.54392   0.54952   0.56096   0.56797
 Alpha virt. eigenvalues --    0.57291   0.57612   0.57805   0.58085   0.58849
 Alpha virt. eigenvalues --    0.60168   0.60720   0.61250   0.61598   0.62968
 Alpha virt. eigenvalues --    0.63820   0.64602   0.65071   0.65882   0.66342
 Alpha virt. eigenvalues --    0.67593   0.68081   0.68599   0.68815   0.69544
 Alpha virt. eigenvalues --    0.70859   0.72088   0.73569   0.73969   0.74582
 Alpha virt. eigenvalues --    0.75544   0.76337   0.77162   0.77389   0.78643
 Alpha virt. eigenvalues --    0.79005   0.79437   0.80460   0.80809   0.81097
[...]
    42  C    5.201441   6.350410   7.150342   6.581984   5.355467
    43  O    6.086831   7.150993   7.933491   7.403777   6.249992
    44  H    2.794110   2.730699   4.129298   4.721568   4.155728
                   16         17         18         19         20
    16  C    0.000000
    17  C    1.535235   0.000000
    18  H    2.184794   1.092289   0.000000
    19  H    2.145223   1.092104   1.777539   0.000000
    20  H    2.166449   1.091821   1.779060   1.779604   0.000000
    21  O    1.416056   2.431482   3.377825   2.715394   2.647582
    22  H    1.906309   2.722557   3.688457   2.615280   3.114166
    23  C    1.545876   2.536055   2.835457   2.706692   3.482414
    24  O    2.366761   2.919178   3.417967   2.524774   3.847053
    25  H    3.139523   3.872806   4.336203   3.485661   4.787330
    26  H    2.181797   2.733417   2.591132   2.965999   3.766121
    27  H    2.168879   3.476235   3.789814   3.735851   4.308394
    28  N    6.054366   6.649048   6.361947   7.713697   6.619062
    29  C    7.129605   7.603860   7.170713   8.662702   7.604368
    30  H    8.139055   8.636760   8.226515   9.703108   8.592756
    31  N    6.918625   7.234449   6.633747   8.252035   7.342496
    32  C    8.063089   8.236822   7.509924   9.211479   8.377209
    33  C    9.119091   9.205918   8.493872  10.207128   9.218630
    34  H    9.150049   9.252736   8.628698  10.292821   9.150201
    35  C   10.274038  10.268216   9.477312  11.228687  10.310563
    36  H   11.132674  11.083090  10.309965  12.056891  11.049393
    37  C   10.465373  10.432901   9.560135  11.324078  10.601885
    38  H   11.438194  11.345783  10.436948  12.206270  11.522763
    39  C    9.550379   9.580998   8.691580  10.428845   9.870058
    40  Cl  10.252921  10.235938   9.278170  10.964217  10.662312
    41  C    8.287602   8.432602   7.608302   9.317915   8.729823
    42  C    7.579799   7.856366   7.047949   8.664022   8.323754
    43  O    8.353699   8.742414   7.961252   9.495341   9.292331
    44  H    6.219965   6.930697   6.795872   7.990065   6.820451
                   21         22         23         24         25
    21  O    0.000000
    22  H    0.977931   0.000000
    23  C    2.404656   2.348469   0.000000
    24  O    2.689704   2.100300   1.421412   0.000000
    25  H    3.291679   2.621739   1.956637   0.970986   0.000000
    26  H    3.353813   3.370227   1.096041   2.090019   2.580067
    27  H    2.689676   2.694803   1.094010   2.083096   2.162350
    28  N    6.748089   7.623487   6.666115   8.052748   8.526659
    29  C    7.940338   8.791663   7.644771   9.047699   9.519995
    30  H    8.883798   9.752622   8.669058  10.074349  10.525604
    31  N    7.923614   8.708857   7.304501   8.691207   9.188104
    32  C    9.160648   9.906270   8.356619   9.711372  10.209510
    33  C   10.160329  10.955208   9.552036  10.898978  11.443950
    34  H   10.085530  10.934435   9.732940  11.084644  11.659800
    35  C   11.378926  12.141540  10.636187  11.953779  12.496713
    36  H   12.198432  12.989704  11.577086  12.891151  13.461459
    37  C   11.665939  12.353267  10.648526  11.926779  12.426328
    38  H   12.665113  13.332964  11.588881  12.837647  13.335921
    39  C   10.796046  11.423806   9.583947  10.846039  11.293814
    40  Cl  11.573953  12.091320  10.062056  11.224072  11.604305
    41  C    9.495840  10.143890   8.346785   9.653635  10.094172
    42  C    8.818883   9.372819   7.393228   8.672641   9.015294
    43  O    9.568115  10.064321   7.985811   9.232214   9.462413
    44  H    6.710087   7.615593   6.920712   8.271820   8.717145
                   26         27         28         29         30
    26  H    0.000000
    27  H    1.781329   0.000000
    28  N    6.512993   6.457114   0.000000
    29  C    7.344990   7.469821   1.324942   0.000000
    30  H    8.395252   8.445738   2.140082   1.076181   0.000000
    31  N    6.828016   7.245732   2.160972   1.344507   2.161639
    32  C    7.749490   8.358370   3.551359   2.481485   2.848819
    33  C    8.984022   9.585526   4.206131   2.994168   2.948093
    34  H    9.268040   9.755220   3.912557   2.746851   2.504910
    35  C    9.982984  10.710430   5.585773   4.358960   4.225142
    36  H   10.952272  11.666211   6.278369   5.042849   4.748898
    37  C    9.887143  10.741289   6.291763   5.121386   5.145549
    38  H   10.787399  11.708691   7.370642   6.188447   6.158979
    39  C    8.775556   9.654510   5.860303   4.826307   5.075691
    40  Cl   9.140774  10.161465   7.310738   6.386700   6.706909
    41  C    7.600780   8.366392   4.570347   3.652884   4.088925
    42  C    6.596985   7.344862   4.720541   4.121270   4.743742
    43  O    7.179937   7.829634   5.560979   4.940695   5.431468
    44  H    6.922592   6.629505   1.020913   2.082460   2.534755
                   31         32         33         34         35
    31  N    0.000000
    32  C    1.433078   0.000000
    33  C    2.422290   1.393747   0.000000
    34  H    2.627253   2.150263   1.082402   0.000000
    35  C    3.698816   2.402981   1.390267   2.153452   0.000000
    36  H    4.567757   3.387256   2.147458   2.482767   1.083637
    37  C    4.203415   2.771492   2.411037   3.395372   1.392595
    38  H    5.285807   3.854149   3.396813   4.297483   2.157618
    39  C    3.711924   2.390005   2.779051   3.860903   2.407534
    40  Cl   5.205593   4.028450   4.531171   5.612394   3.996961
    41  C    2.456416   1.408319   2.455400   3.428619   2.829554
    42  C    2.960444   2.575968   3.856979   4.722733   4.338724
    43  O    3.942512   3.505366   4.674868   5.576560   4.983013
    44  H    3.143588   4.490477   5.011277   4.571342   6.394214
                   36         37         38         39         40
    36  H    0.000000
    37  C    2.149381   0.000000
    38  H    2.487535   1.082908   0.000000
    39  C    3.390137   1.391757   2.143714   0.000000
    40  Cl   4.839233   2.690249   2.793982   1.754197   0.000000
    41  C    3.913187   2.448288   3.419526   1.405385   2.751735
    42  C    5.421513   3.823083   4.672242   2.531575   3.076419
    43  O    6.034785   4.290597   4.991296   2.983599   3.045506
    44  H    7.001803   7.187772   8.258539   6.819803   8.290031
                   41         42         43         44
    41  C    0.000000
    42  C    1.517439   0.000000
    43  O    2.375676   1.230535   0.000000
    44  H    5.549240   5.680006   6.450010   0.000000
 Stoichiometry    C17H17ClN5O4(1+)
 Framework group  C1[X(C17H17ClN5O4)]
 Deg. of freedom   126
 Full point group                 C1      NOp   1
 RotChk:  IX=3 Diff= 2.94D-03
 Largest Abelian subgroup         C1      NOp   1
 Largest concise Abelian subgroup C1      NOp   1
                         Standard orientation:                         
 ---------------------------------------------------------------------
 Center     Atomic      Atomic             Coordinates (Angstroms)
 Number     Number       Type             X           Y           Z
 ---------------------------------------------------------------------
      1          6           0       -0.304649    2.300036   -1.145877
      2          1           0       -0.923966    2.981527   -1.723718
      3          1           0        0.329384    1.724147   -1.828438
      4          1           0        0.327823    2.863190   -0.457811
      5          7           0       -1.186329    1.425061   -0.378212
      6          6           0       -0.578428    0.547958    0.624273
      7          1           0       -1.174532    0.554483    1.539740
      8          1           0        0.416787    0.919292    0.858294
      9          6           0       -0.477422   -0.838743    0.080319
     10          6           0        0.564836   -1.629863   -0.329419
     11          6           0        1.994314   -1.393454   -0.281551
     12          7           0        2.863264   -2.221612   -0.813376
     13          8           0        4.091440   -1.607478   -0.533814
     14          6           0        3.820747   -0.479348    0.137817
     15          7           0        2.544361   -0.290403    0.325025
     16          6           0        4.947563    0.419760    0.559186
     17          6           0        4.837863    0.745599    2.055428
     18          1           0        3.865079    1.178816    2.298549
     19          1           0        5.619300    1.465647    2.307577
     20          1           0        4.982441   -0.161279    2.645972
     21          8           0        6.160772   -0.253765    0.276864
     22          1           0        6.821441    0.464319    0.211894
     23          6           0        4.895339    1.711164   -0.288918
     24          8           0        6.086973    2.422476    0.018419
     25          1           0        6.404660    2.849364   -0.793773
     26          1           0        4.001669    2.293404   -0.036616
     27          1           0        4.856548    1.445710   -1.349525
     28          7           0        0.007217   -2.787511   -0.841439
     29          6           0       -1.313827   -2.723274   -0.762783
     30          1           0       -2.001501   -3.477442   -1.104104
     31          7           0       -1.642043   -1.546257   -0.201886
     32          6           0       -2.959186   -1.107331    0.153348
     33          6           0       -3.831617   -2.042309    0.707613
     34          1           0       -3.507897   -3.064712    0.854211
     35          6           0       -5.103569   -1.639362    1.098273
     36          1           0       -5.789093   -2.357507    1.532546
     37          6           0       -5.484625   -0.306377    0.966856
     38          1           0       -6.459861    0.026538    1.299679
     39          6           0       -4.599708    0.611773    0.409263
     40         17           0       -5.132184    2.280753    0.318797
     41          6           0       -3.317117    0.242258   -0.030652
     42          6           0       -2.464705    1.233862   -0.800545
     43          8           0       -2.952875    1.829654   -1.760200
     44          1           0        0.528230   -3.574438   -1.230740
 ---------------------------------------------------------------------
 Rotational constants (GHZ):           0.3809746           0.0861791           0.0754583
 Leave Link  202 at Sun Jul 18 18:01:20 2021, MaxMem=   104857600 cpu:               0.0 elap:               0.0
 (Enter /prod/apps/gaussian/g16b1/l301.exe)
 Standard basis: 6-31G(d) (6D, 7F)
 Ernie: Thresh=  0.10000D-02 Tol=  0.10000D-05 Strict=F.
 There are   443 symmetry adapted cartesian basis functions of A   symmetry.
 There are   443 symmetry adapted basis functions of A   symmetry.
   443 basis functions,   848 primitive gaussians,   443 cartesian basis functions
   101 alpha electrons      101 beta electrons
       nuclear repulsion energy      2633.4762618960 Hartrees.
 IExCor=  402 DFT=T Ex+Corr=B3LYP ExCW=0 ScaHFX=  0.200000
 ScaDFX=  0.800000  0.720000  1.000000  0.810000 ScalE2=  1.000000  1.000000
 IRadAn=      5 IRanWt=     -1 IRanGd=            0 ICorTp=0 IEmpDi=  4
 NAtoms=   44 NActive=   44 NUniq=   44 SFac= 1.00D+00 NAtFMM=   60 NAOKFM=F Big=F
 Integral buffers will be    131072 words long.
 Raffenetti 2 integral format.
 Two-electron integral symmetry is turned on.
 ------------------------------------------------------------------------------
 Polarizable Continuum Model (PCM)
 =================================
 Model                : PCM.
 Atomic radii         : MST.
 Polarization charges : Total charges.
 Charge compensation  : None.
 Solution method      : On-the-fly selection.
 Cavity type          : Scaled VdW (van der Waals Surface) (Alpha=1.250).
 Cavity algorithm     : GePol (No added spheres)
                        Default sphere list used, NSphG=   44.
                        Lebedev-Laikov grids with approx.  5.0 points / Ang**2.
                        Smoothing algorithm: York/Karplus (Gamma=1.0000).
                        Polarization charges: spherical gaussians, with
                                              point-specific exponents (IZeta= 3).
                        Self-potential: point-specific (ISelfS= 7).
                        Self-field    : sphere-specific E.n sum rule (ISelfD= 2).
 1st derivatives      : Analytical E(r).r(x)/FMM algorithm (CHGder, D1EAlg=3).
                        Cavity 1st derivative terms included.
 Solvent              : Water, Eps=  78.355300 Eps(inf)=   1.777849
 ------------------------------------------------------------------------------
 GePol: Number of generator spheres                  =      44
 GePol: Total number of spheres                      =      44
 GePol: Number of exposed spheres                    =      44 (100.00%)
 GePol: Number of points                             =    3273
 GePol: Average weight of points                     =       0.13
 GePol: Minimum weight of points                     =   0.43D-10
 GePol: Maximum weight of points                     =    0.22001
 GePol: Number of points with low weight             =     181
 GePol: Fraction of low-weight points (<1% of avg)   =       5.53%
 GePol: Cavity surface area                          =    417.760 Ang**2
 GePol: Cavity volume                                =    414.117 Ang**3
 PCM non-electrostatic energy =         0.0052885226 Hartrees.
 Nuclear repulsion after PCM non-electrostatic terms =     2633.4815504186 Hartrees.
 Leave Link  301 at Sun Jul 18 18:01:20 2021, MaxMem=   104857600 cpu:               0.4 elap:               0.1
 (Enter /prod/apps/gaussian/g16b1/l302.exe)
 NPDir=0 NMtPBC=     1 NCelOv=     1 NCel=       1 NClECP=     1 NCelD=      1
         NCelK=      1 NCelE2=     1 NClLst=     1 CellRange=     0.0.
 One-electron integrals computed using PRISM.
 One-electron integral symmetry used in STVInt
 NBasis=   443 RedAO= T EigKep=  3.60D-04  NBF=   443
 NBsUse=   443 1.00D-06 EigRej= -1.00D+00 NBFU=   443
 Precomputing XC quadrature grid using
 IXCGrd= 4 IRadAn=           5 IRanWt=          -1 IRanGd=           0 AccXCQ= 0.00D+00.
 Generated NRdTot=       0 NPtTot=           0 NUsed=           0 NTot=          32
 NSgBfM=   437   437   437   437   437 MxSgAt=    44 MxSgA2=    44.
 Leave Link  302 at Sun Jul 18 18:01:21 2021, MaxMem=   104857600 cpu:               2.9 elap:               0.7
 (Enter /prod/apps/gaussian/g16b1/l303.exe)
 DipDrv:  MaxL=1.
 Leave Link  303 at Sun Jul 18 18:01:21 2021, MaxMem=   104857600 cpu:               0.2 elap:               0.1
 (Enter /prod/apps/gaussian/g16b1/l401.exe)
 Lowest energy guess from the checkpoint file:  "SET_328_BBB324_conf1.geo_180_315_180.chk"
 B after Tr=    -0.000000   -0.000000    0.000000
         Rot=    1.000000    0.000023   -0.000002   -0.000006 Ang=   0.00 deg.
 Guess basis will be translated and rotated to current coordinates.
 B after Tr=     0.000000   -0.000000    0.000000
         Rot=    1.000000   -0.000235    0.000021    0.000072 Ang=  -0.03 deg.
 Guess basis will be translated and rotated to current coordinates.
 CkInt1:  FT= 8.22D-02
 Max alpha theta=  0.654 degrees.
 JPrj=2 DoOrth=T DoCkMO=T.
 Leave Link  401 at Sun Jul 18 18:01:22 2021, MaxMem=   104857600 cpu:               1.5 elap:               0.4
 (Enter /prod/apps/gaussian/g16b1/l502.exe)
 Integral symmetry usage will be decided dynamically.
 Closed shell SCF:
 Using DIIS extrapolation, IDIIS=  1040.
 NGot=   104857600 LenX=   104457670 LenY=   104260978
 Requested convergence on RMS density matrix=1.00D-08 within 128 cycles.
 Requested convergence on MAX density matrix=1.00D-06.
 Requested convergence on             energy=1.00D-06.
 No special actions if energy rises.
 Fock matrices will be formed incrementally for  20 cycles.

 Cycle   1  Pass 1  IDiag  1:
 FoFJK:  IHMeth= 1 ICntrl=       0 DoSepK=F KAlg= 0 I1Cent=           0 FoldK=F
 IRaf= 690000000 NMat=       1 IRICut=       1 DoRegI=T DoRafI=F ISym2E= 0 IDoP0=0 IntGTp=1.
 FoFCou: FMM=F IPFlag=           0 FMFlag=      100000 FMFlg1=           0
         NFxFlg=           0 DoJE=F BraDBF=F KetDBF=F FulRan=T
         wScrn=  0.000000 ICntrl=         0 IOpCl=  0 I1Cent=           0 NGrid=           0
         NMat0=    1 NMatS0=      1 NMatT0=    0 NMatD0=    1 NMtDS0=    0 NMtDT0=    0
 Symmetry not used in FoFCou.
 Inv3:  Mode=1 IEnd=    32137587.
 Iteration    1 A*A^-1 deviation from unit magnitude is 2.22D-12 for   1182.
 Iteration    1 A*A^-1 deviation from orthogonality  is 3.57D-12 for   1009    671.
 Iteration    1 A^-1*A deviation from unit magnitude is 2.42D-12 for   1009.
 Iteration    1 A^-1*A deviation from orthogonality  is 1.38D-10 for   2953   2883.
 Iteration    2 A*A^-1 deviation from unit magnitude is 2.01D-09 for   1182.
 Iteration    2 A*A^-1 deviation from orthogonality  is 2.01D-09 for   1182   1009.
 Iteration    2 A^-1*A deviation from unit magnitude is 1.81D-09 for   1182.
 Iteration    2 A^-1*A deviation from orthogonality  is 1.85D-09 for   1009    671.
 Iteration    3 A*A^-1 deviation from unit magnitude is 1.66D-09 for   1182.
 Iteration    3 A*A^-1 deviation from orthogonality  is 3.38D-09 for   2718   1009.
 Iteration    3 A^-1*A deviation from unit magnitude is 1.73D-09 for   1182.
 Iteration    3 A^-1*A deviation from orthogonality  is 9.53D-10 for   1182   1009.
 Iteration    4 A*A^-1 deviation from unit magnitude is 1.87D-09 for   1182.
 Iteration    4 A*A^-1 deviation from orthogonality  is 1.87D-09 for   1182   1009.
 Iteration    4 A^-1*A deviation from unit magnitude is 9.60D-10 for   1182.
 Iteration    4 A^-1*A deviation from orthogonality  is 6.31D-10 for   1182    664.
 Iteration    5 A*A^-1 deviation from unit magnitude is 2.13D-09 for   1182.
 Iteration    5 A*A^-1 deviation from orthogonality  is 2.13D-09 for   1182   1009.
 Iteration    5 A^-1*A deviation from unit magnitude is 1.31D-10 for   1009.
 Iteration    5 A^-1*A deviation from orthogonality  is 1.64D-10 for   1182    966.
 Iteration    6 A*A^-1 deviation from unit magnitude is 1.71D-09 for   1009.
 Iteration    6 A*A^-1 deviation from orthogonality  is 2.65D-09 for   1979   1009.
 Iteration    6 A^-1*A deviation from unit magnitude is 1.15D-09 for   1009.
 Iteration    6 A^-1*A deviation from orthogonality  is 1.15D-09 for   1182   1009.
 Iteration    7 A*A^-1 deviation from unit magnitude is 1.35D-09 for    671.
 Iteration    7 A*A^-1 deviation from orthogonality  is 1.49D-09 for   2882   1009.
 Iteration    7 A^-1*A deviation from unit magnitude is 9.10D-10 for   1009.
 Iteration    7 A^-1*A deviation from orthogonality  is 9.09D-10 for   1182   1009.
 Iteration    8 A*A^-1 deviation from unit magnitude is 2.12D-09 for   1182.
 Iteration    8 A*A^-1 deviation from orthogonality  is 2.12D-09 for   1182   1009.
 Iteration    8 A^-1*A deviation from unit magnitude is 1.49D-09 for   1009.
 Iteration    8 A^-1*A deviation from orthogonality  is 1.49D-09 for   1182   1009.
 Iteration    9 A*A^-1 deviation from unit magnitude is 1.33D-09 for    671.
 Iteration    9 A*A^-1 deviation from orthogonality  is 2.04D-09 for   1979   1009.
 Iteration    9 A^-1*A deviation from unit magnitude is 1.52D-09 for    671.
 Iteration    9 A^-1*A deviation from orthogonality  is 1.60D-09 for   1009    671.
 Iteration   10 A*A^-1 deviation from unit magnitude is 1.43D-09 for    671.
 Iteration   10 A*A^-1 deviation from orthogonality  is 2.12D-09 for   2718   1182.
 Iteration   10 A^-1*A deviation from unit magnitude is 1.86D-09 for   1182.
 Iteration   10 A^-1*A deviation from orthogonality  is 1.24D-09 for   1009    683.
 Inv3 failed in PCMMkU.
 Error termination via Lnk1e in /prod/apps/gaussian/g16b1/l502.exe at Sun Jul 18 18:01:57 2021.
 Job cpu time:       0 days  6 hours 22 minutes 45.3 seconds.
 Elapsed time:       0 days  1 hours 35 minutes 51.9 seconds.
 File lengths (MBytes):  RWF=    467 Int=      0 D2E=      0 Chk=     21 Scr=      1
