 Entering Gaussian System, Link 0=g16
 Initial command:
 /prod/apps/gaussian/g16b1/l1.exe "/tmp/ubator02/1839631/Gau-3553.inp" -scrdir="/tmp/ubator02/1839631/"
 Entering Link 1 = /prod/apps/gaussian/g16b1/l1.exe PID=      3554.
  
 Copyright (c) 1988-2017, Gaussian, Inc.  All Rights Reserved.
  
 This is part of the Gaussian(R) 16 program.  It is based on
 the Gaussian(R) 09 system (copyright 2009, Gaussian, Inc.),
 the Gaussian(R) 03 system (copyright 2003, Gaussian, Inc.),
 the Gaussian(R) 98 system (copyright 1998, Gaussian, Inc.),
 the Gaussian(R) 94 system (copyright 1995, Gaussian, Inc.),
 the Gaussian 92(TM) system (copyright 1992, Gaussian, Inc.),
 the Gaussian 90(TM) system (copyright 1990, Gaussian, Inc.),
 the Gaussian 88(TM) system (copyright 1988, Gaussian, Inc.),
 the Gaussian 86(TM) system (copyright 1986, Carnegie Mellon
 University), and the Gaussian 82(TM) system (copyright 1983,
 Carnegie Mellon University). Gaussian is a federally registered
 trademark of Gaussian, Inc.
  
 This software contains proprietary and confidential information,
 including trade secrets, belonging to Gaussian, Inc.
  
 This software is provided under written license and may be
 used, copied, transmitted, or stored only in accord with that
 written license.
  
 The following legend is applicable only to US Government
 contracts under FAR:
  
                    RESTRICTED RIGHTS LEGEND
  
 Use, reproduction and disclosure by the US Government is
 subject to restrictions as set forth in subparagraphs (a)
 and (c) of the Commercial Computer Software - Restricted
 Rights clause in FAR 52.227-19.
  
 Gaussian, Inc.
 340 Quinnipiac St., Bldg. 40, Wallingford CT 06492
  
  
 ---------------------------------------------------------------
 Warning -- This program may not be used in any manner that
 competes with the business of Gaussian, Inc. or will provide
 assistance to any competitor of Gaussian, Inc.  The licensee
 of this program is prohibited from giving any competitor of
 Gaussian, Inc. access to this program.  By using this program,
 the user acknowledges that Gaussian, Inc. is engaged in the
 business of creating and licensing software in the field of
 computational chemistry and represents and warrants to the
 licensee that it is not a competitor of Gaussian, Inc. and that
 it will not use this program in any manner prohibited above.
 ---------------------------------------------------------------
  

 Cite this work as:
 Gaussian 16, Revision B.01,
 M. J. Frisch, G. W. Trucks, H. B. Schlegel, G. E. Scuseria, 
 M. A. Robb, J. R. Cheeseman, G. Scalmani, V. Barone, 
 G. A. Petersson, H. Nakatsuji, X. Li, M. Caricato, A. V. Marenich, 
 J. Bloino, B. G. Janesko, R. Gomperts, B. Mennucci, H. P. Hratchian, 
 J. V. Ortiz, A. F. Izmaylov, J. L. Sonnenberg, D. Williams-Young, 
 F. Ding, F. Lipparini, F. Egidi, J. Goings, B. Peng, A. Petrone, 
 T. Henderson, D. Ranasinghe, V. G. Zakrzewski, J. Gao, N. Rega, 
 G. Zheng, W. Liang, M. Hada, M. Ehara, K. Toyota, R. Fukuda, 
 J. Hasegawa, M. Ishida, T. Nakajima, Y. Honda, O. Kitao, H. Nakai, 
 T. Vreven, K. Throssell, J. A. Montgomery, Jr., J. E. Peralta, 
 F. Ogliaro, M. J. Bearpark, J. J. Heyd, E. N. Brothers, K. N. Kudin, 
 V. N. Staroverov, T. A. Keith, R. Kobayashi, J. Normand, 
 K. Raghavachari, A. P. Rendell, J. C. Burant, S. S. Iyengar, 
 J. Tomasi, M. Cossi, J. M. Millam, M. Klene, C. Adamo, R. Cammi, 
 J. W. Ochterski, R. L. Martin, K. Morokuma, O. Farkas, 
 J. B. Foresman, and D. J. Fox, Gaussian, Inc., Wallingford CT, 2016.
 
 ******************************************
 Gaussian 16:  ES64L-G16RevB.01 20-Dec-2017
                18-Jul-2021 
 ******************************************
 %mem=800MB
 %nproc=4
 Will use up to    4 processors via shared memory.
 %chk=SET_328_BBB301_conf1.geo_090_105_105.chk
 -----------------------------------------------------------
 #p b3lyp/6-31G(d) opt freq scrf=(iefpcm,read,solvent=water)
 -----------------------------------------------------------
 1/18=20,19=15,26=3,38=1,40=2/1,3;
 2/9=110,12=2,17=6,18=5,40=1/2;
 3/5=1,6=6,7=1,11=2,25=1,30=1,70=2203,71=1,72=1,74=-5/1,2,3;
 4//1;
 5/5=2,38=5,53=1/2;
 6/7=2,8=2,9=2,10=2,28=1/1;
 7//1,2,3,16;
 1/18=20,19=15,26=3/3(2);
 2/9=110/2;
 99//99;
 2/9=110/2;
 3/5=1,6=6,7=1,11=2,25=1,30=1,70=2205,71=1,72=1,74=-5/1,2,3;
 4/5=5,16=3,69=1/1;
 5/5=2,38=5,53=1/2;
 7//1,2,3,16;
 1/18=20,19=15,26=3/3(-5);
 2/9=110/2;
 6/7=2,8=2,9=2,10=2,19=2,28=1/1;
 99/9=1/99;
 Leave Link    1 at Sun Jul 18 14:26:35 2021, MaxMem=   104857600 cpu:               0.1 elap:               0.0
 (Enter /prod/apps/gaussian/g16b1/l101.exe)
 ---------------------------------------------
 SET_328_BBB301_conf1.geo_090_105_105 geometry
 ---------------------------------------------
 Symbolic Z-matrix:
 Charge =  1 Multiplicity = 1
 C                    -2.536     3.24      1.11 
 H                    -3.561     3.615     1.141 
 H                    -1.854     3.921     0.596 
 H                    -2.076     3.11      2.091 
 C                    -2.667     1.879     0.437 
 C                    -3.225     0.764     1.399 
 H                    -2.539     0.549     2.221 
 H                    -3.208    -0.121     0.759 
 H                    -4.243     0.929     1.756 
 C                    -3.582     2.002    -0.761 
 H                    -4.408     2.646    -0.45 
 H                    -3.989     0.996    -0.882 
 H                    -3.21      2.386    -1.713 
 N                    -1.293     1.672    -0.053 
 H                    -0.658     1.799     0.709 
 C                    -1.075     0.309    -0.638 
 H                    -1.91      0.234    -1.34 
 H                    -1.237    -0.502     0.077 
 C                     0.141     0.029    -1.507 
 O                     0.557     1.212    -2.133 
 H                     0.114     1.837    -1.53 
 H                    -0.112    -0.699    -2.283 
 C                     1.288    -0.463    -0.653 
 C                     1.594    -1.829    -0.737 
 H                     0.86     -2.455    -1.239 
 C                     2.787    -2.436    -0.239 
 C                     3.002    -3.946    -0.411 
 O                     2.169    -4.626     0.629 
 H                     2.314    -4.133     1.456 
 H                     4.03     -4.273    -0.234 
 H                     2.735    -4.299    -1.41 
 C                     3.684    -1.582     0.323 
 O                     4.944    -2.099     0.707 
 H                     5.294    -1.445     1.339 
 C                     3.4      -0.243     0.463 
 H                     4.121     0.296     1.074 
 C                     2.243     0.364     0. 
 H                     2.071     1.434    -0.078 
 H                    -1.096     2.357    -0.754 
 
 ITRead=  0  0  0  0  0  0  0  0  0  0  0  0  0  0  0  0  0  0  0  0
 ITRead=  0  0  0  0  0  0  0  0  0  0  0  0  0  0  0  0  0  0  0
 MicOpt= -1 -1 -1 -1 -1 -1 -1 -1 -1 -1 -1 -1 -1 -1 -1 -1 -1 -1 -1 -1
 MicOpt= -1 -1 -1 -1 -1 -1 -1 -1 -1 -1 -1 -1 -1 -1 -1 -1 -1 -1 -1
 NAtoms=     39 NQM=       39 NQMF=       0 NMMI=      0 NMMIF=      0
                NMic=       0 NMicF=      0.
                    Isotopes and Nuclear Properties:
 (Nuclear quadrupole moments (NQMom) in fm**2, nuclear magnetic moments (NMagM)
  in nuclear magnetons)

  Atom         1           2           3           4           5           6           7           8           9          10
 IAtWgt=          12           1           1           1          12          12           1           1           1          12
 AtmWgt=  12.0000000   1.0078250   1.0078250   1.0078250  12.0000000  12.0000000   1.0078250   1.0078250   1.0078250  12.0000000
 NucSpn=           0           1           1           1           0           0           1           1           1           0
 AtZEff=  -0.0000000  -0.0000000  -0.0000000  -0.0000000  -0.0000000  -0.0000000  -0.0000000  -0.0000000  -0.0000000  -0.0000000
 NQMom=    0.0000000   0.0000000   0.0000000   0.0000000   0.0000000   0.0000000   0.0000000   0.0000000   0.0000000   0.0000000
 NMagM=    0.0000000   2.7928460   2.7928460   2.7928460   0.0000000   0.0000000   2.7928460   2.7928460   2.7928460   0.0000000
 AtZNuc=   6.0000000   1.0000000   1.0000000   1.0000000   6.0000000   6.0000000   1.0000000   1.0000000   1.0000000   6.0000000

  Atom        11          12          13          14          15          16          17          18          19          20
 IAtWgt=           1           1           1          14           1          12           1           1          12          16
 AtmWgt=   1.0078250   1.0078250   1.0078250  14.0030740   1.0078250  12.0000000   1.0078250   1.0078250  12.0000000  15.9949146
 NucSpn=           1           1           1           2           1           0           1           1           0           0
 AtZEff=  -0.0000000  -0.0000000  -0.0000000  -0.0000000  -0.0000000  -0.0000000  -0.0000000  -0.0000000  -0.0000000  -0.0000000
 NQMom=    0.0000000   0.0000000   0.0000000   2.0440000   0.0000000   0.0000000   0.0000000   0.0000000   0.0000000   0.0000000
 NMagM=    2.7928460   2.7928460   2.7928460   0.4037610   2.7928460   0.0000000   2.7928460   2.7928460   0.0000000   0.0000000
 AtZNuc=   1.0000000   1.0000000   1.0000000   7.0000000   1.0000000   6.0000000   1.0000000   1.0000000   6.0000000   8.0000000

  Atom        21          22          23          24          25          26          27          28          29          30
 IAtWgt=           1           1          12          12           1          12          12          16           1           1
 AtmWgt=   1.0078250   1.0078250  12.0000000  12.0000000   1.0078250  12.0000000  12.0000000  15.9949146   1.0078250   1.0078250
 NucSpn=           1           1           0           0           1           0           0           0           1           1
 AtZEff=  -0.0000000  -0.0000000  -0.0000000  -0.0000000  -0.0000000  -0.0000000  -0.0000000  -0.0000000  -0.0000000  -0.0000000
 NQMom=    0.0000000   0.0000000   0.0000000   0.0000000   0.0000000   0.0000000   0.0000000   0.0000000   0.0000000   0.0000000
 NMagM=    2.7928460   2.7928460   0.0000000   0.0000000   2.7928460   0.0000000   0.0000000   0.0000000   2.7928460   2.7928460
 AtZNuc=   1.0000000   1.0000000   6.0000000   6.0000000   1.0000000   6.0000000   6.0000000   8.0000000   1.0000000   1.0000000

  Atom        31          32          33          34          35          36          37          38          39
 IAtWgt=           1          12          16           1          12           1          12           1           1
 AtmWgt=   1.0078250  12.0000000  15.9949146   1.0078250  12.0000000   1.0078250  12.0000000   1.0078250   1.0078250
 NucSpn=           1           0           0           1           0           1           0           1           1
 AtZEff=  -0.0000000  -0.0000000  -0.0000000  -0.0000000  -0.0000000  -0.0000000  -0.0000000  -0.0000000  -0.0000000
 NQMom=    0.0000000   0.0000000   0.0000000   0.0000000   0.0000000   0.0000000   0.0000000   0.0000000   0.0000000
 NMagM=    2.7928460   0.0000000   0.0000000   2.7928460   0.0000000   2.7928460   0.0000000   2.7928460   2.7928460
 AtZNuc=   1.0000000   6.0000000   8.0000000   1.0000000   6.0000000   1.0000000   6.0000000   1.0000000   1.0000000
 Leave Link  101 at Sun Jul 18 14:26:36 2021, MaxMem=   104857600 cpu:               0.5 elap:               0.1
 (Enter /prod/apps/gaussian/g16b1/l103.exe)

 GradGradGradGradGradGradGradGradGradGradGradGradGradGradGradGradGradGrad
 Berny optimization.
 Initialization pass.
                           ----------------------------
                           !    Initial Parameters    !
                           ! (Angstroms and Degrees)  !
 --------------------------                            --------------------------
 ! Name  Definition              Value          Derivative Info.                !
 --------------------------------------------------------------------------------
 ! R1    R(1,2)                  1.0919         estimate D2E/DX2                !
 ! R2    R(1,3)                  1.0923         estimate D2E/DX2                !
 ! R3    R(1,4)                  1.0913         estimate D2E/DX2                !
 ! R4    R(1,5)                  1.5239         estimate D2E/DX2                !
 ! R5    R(5,6)                  1.5748         estimate D2E/DX2                !
 ! R6    R(5,10)                 1.5125         estimate D2E/DX2                !
 ! R7    R(5,14)                 1.4734         estimate D2E/DX2                !
 ! R8    R(6,7)                  1.092          estimate D2E/DX2                !
 ! R9    R(6,8)                  1.0923         estimate D2E/DX2                !
 ! R10   R(6,9)                  1.0913         estimate D2E/DX2                !
 ! R11   R(10,11)                1.0926         estimate D2E/DX2                !
 ! R12   R(10,12)                1.0919         estimate D2E/DX2                !
 ! R13   R(10,13)                1.0919         estimate D2E/DX2                !
 ! R14   R(14,15)                1.0            estimate D2E/DX2                !
 ! R15   R(14,16)                1.4992         estimate D2E/DX2                !
 ! R16   R(14,39)                0.9997         estimate D2E/DX2                !
 ! R17   R(16,17)                1.0935         estimate D2E/DX2                !
 ! R18   R(16,18)                1.0932         estimate D2E/DX2                !
 ! R19   R(16,19)                1.5206         estimate D2E/DX2                !
 ! R20   R(19,20)                1.4016         estimate D2E/DX2                !
 ! R21   R(19,22)                1.0937         estimate D2E/DX2                !
 ! R22   R(19,23)                1.5123         estimate D2E/DX2                !
 ! R23   R(20,21)                0.9749         estimate D2E/DX2                !
 ! R24   R(23,24)                1.4024         estimate D2E/DX2                !
 ! R25   R(23,37)                1.4221         estimate D2E/DX2                !
 ! R26   R(24,25)                1.0875         estimate D2E/DX2                !
 ! R27   R(24,26)                1.4282         estimate D2E/DX2                !
 ! R28   R(26,27)                1.5349         estimate D2E/DX2                !
 ! R29   R(26,32)                1.3601         estimate D2E/DX2                !
 ! R30   R(27,28)                1.496          estimate D2E/DX2                !
 ! R31   R(27,30)                1.0932         estimate D2E/DX2                !
 ! R32   R(27,31)                1.0927         estimate D2E/DX2                !
 ! R33   R(28,29)                0.9737         estimate D2E/DX2                !
 ! R34   R(32,33)                1.415          estimate D2E/DX2                !
 ! R35   R(32,35)                1.3759         estimate D2E/DX2                !
 ! R36   R(33,34)                0.9745         estimate D2E/DX2                !
 ! R37   R(35,36)                1.088          estimate D2E/DX2                !
 ! R38   R(35,37)                1.3862         estimate D2E/DX2                !
 ! R39   R(37,38)                1.0865         estimate D2E/DX2                !
 ! A1    A(2,1,3)              112.6667         estimate D2E/DX2                !
 ! A2    A(2,1,4)              114.2739         estimate D2E/DX2                !
 ! A3    A(2,1,5)              103.8018         estimate D2E/DX2                !
 ! A4    A(3,1,4)              103.5388         estimate D2E/DX2                !
 ! A5    A(3,1,5)              113.7446         estimate D2E/DX2                !
 ! A6    A(4,1,5)              109.077          estimate D2E/DX2                !
 ! A7    A(1,5,6)              113.1417         estimate D2E/DX2                !
 ! A8    A(1,5,10)             109.2186         estimate D2E/DX2                !
 ! A9    A(1,5,14)             101.0799         estimate D2E/DX2                !
 ! A10   A(6,5,10)             109.0915         estimate D2E/DX2                !
 ! A11   A(6,5,14)             115.7289         estimate D2E/DX2                !
 ! A12   A(10,5,14)            108.1901         estimate D2E/DX2                !
 ! A13   A(5,6,7)              112.1251         estimate D2E/DX2                !
 ! A14   A(5,6,8)              102.1351         estimate D2E/DX2                !
 ! A15   A(5,6,9)              115.0432         estimate D2E/DX2                !
 ! A16   A(7,6,8)              105.7683         estimate D2E/DX2                !
 ! A17   A(7,6,9)              111.6857         estimate D2E/DX2                !
 ! A18   A(8,6,9)              109.189          estimate D2E/DX2                !
 ! A19   A(5,10,11)            106.2503         estimate D2E/DX2                !
 ! A20   A(5,10,12)            103.7887         estimate D2E/DX2                !
 ! A21   A(5,10,13)            120.8713         estimate D2E/DX2                !
 ! A22   A(11,10,12)           107.0254         estimate D2E/DX2                !
 ! A23   A(11,10,13)           107.3653         estimate D2E/DX2                !
 ! A24   A(12,10,13)           110.7561         estimate D2E/DX2                !
 ! A25   A(5,14,15)            108.718          estimate D2E/DX2                !
 ! A26   A(5,14,16)            113.1483         estimate D2E/DX2                !
 ! A27   A(5,14,39)            108.7051         estimate D2E/DX2                !
 ! A28   A(15,14,16)           108.6914         estimate D2E/DX2                !
 ! A29   A(15,14,39)           108.7938         estimate D2E/DX2                !
 ! A30   A(16,14,39)           108.7043         estimate D2E/DX2                !
 ! A31   A(14,16,17)           101.6443         estimate D2E/DX2                !
 ! A32   A(14,16,18)           113.4339         estimate D2E/DX2                !
 ! A33   A(14,16,19)           120.4443         estimate D2E/DX2                !
 ! A34   A(17,16,18)           104.8233         estimate D2E/DX2                !
 ! A35   A(17,16,19)           103.3643         estimate D2E/DX2                !
 ! A36   A(18,16,19)           110.834          estimate D2E/DX2                !
 ! A37   A(16,19,20)           109.7052         estimate D2E/DX2                !
 ! A38   A(16,19,22)           110.0635         estimate D2E/DX2                !
 ! A39   A(16,19,23)           110.1031         estimate D2E/DX2                !
 ! A40   A(20,19,22)           108.2755         estimate D2E/DX2                !
 ! A41   A(20,19,23)           107.5601         estimate D2E/DX2                !
 ! A42   A(22,19,23)           111.0738         estimate D2E/DX2                !
 ! A43   A(19,20,21)            97.4684         estimate D2E/DX2                !
 ! A44   A(19,23,24)           116.652          estimate D2E/DX2                !
 ! A45   A(19,23,37)           125.4116         estimate D2E/DX2                !
 ! A46   A(24,23,37)           116.5786         estimate D2E/DX2                !
 ! A47   A(23,24,25)           116.173          estimate D2E/DX2                !
 ! A48   A(23,24,26)           125.126          estimate D2E/DX2                !
 ! A49   A(25,24,26)           118.6926         estimate D2E/DX2                !
 ! A50   A(24,26,27)           119.7394         estimate D2E/DX2                !
 ! A51   A(24,26,32)           115.3494         estimate D2E/DX2                !
 ! A52   A(27,26,32)           124.8653         estimate D2E/DX2                !
 ! A53   A(26,27,28)           106.9347         estimate D2E/DX2                !
 ! A54   A(26,27,30)           114.0701         estimate D2E/DX2                !
 ! A55   A(26,27,31)           112.709          estimate D2E/DX2                !
 ! A56   A(28,27,30)           105.9679         estimate D2E/DX2                !
 ! A57   A(28,27,31)           110.6524         estimate D2E/DX2                !
 ! A58   A(30,27,31)           106.331          estimate D2E/DX2                !
 ! A59   A(27,28,29)           106.1055         estimate D2E/DX2                !
 ! A60   A(26,32,33)           118.0334         estimate D2E/DX2                !
 ! A61   A(26,32,35)           121.1295         estimate D2E/DX2                !
 ! A62   A(33,32,35)           120.7794         estimate D2E/DX2                !
 ! A63   A(32,33,34)           104.5132         estimate D2E/DX2                !
 ! A64   A(32,35,36)           113.7331         estimate D2E/DX2                !
 ! A65   A(32,35,37)           124.3635         estimate D2E/DX2                !
 ! A66   A(36,35,37)           121.586          estimate D2E/DX2                !
 ! A67   A(23,37,35)           117.338          estimate D2E/DX2                !
 ! A68   A(23,37,38)           115.6844         estimate D2E/DX2                !
 ! A69   A(35,37,38)           125.9684         estimate D2E/DX2                !
 ! D1    D(2,1,5,6)            -77.021          estimate D2E/DX2                !
 ! D2    D(2,1,5,10)            44.6932         estimate D2E/DX2                !
 ! D3    D(2,1,5,14)           158.5931         estimate D2E/DX2                !
 ! D4    D(3,1,5,6)            160.1871         estimate D2E/DX2                !
 ! D5    D(3,1,5,10)           -78.0987         estimate D2E/DX2                !
 ! D6    D(3,1,5,14)            35.8012         estimate D2E/DX2                !
 ! D7    D(4,1,5,6)             45.179          estimate D2E/DX2                !
 ! D8    D(4,1,5,10)           166.8932         estimate D2E/DX2                !
 ! D9    D(4,1,5,14)           -79.2069         estimate D2E/DX2                !
 ! D10   D(1,5,6,7)            -65.1031         estimate D2E/DX2                !
 ! D11   D(1,5,6,8)           -177.9006         estimate D2E/DX2                !
 ! D12   D(1,5,6,9)             63.9646         estimate D2E/DX2                !
 ! D13   D(10,5,6,7)           173.1114         estimate D2E/DX2                !
 ! D14   D(10,5,6,8)            60.3139         estimate D2E/DX2                !
 ! D15   D(10,5,6,9)           -57.8209         estimate D2E/DX2                !
 ! D16   D(14,5,6,7)            50.8702         estimate D2E/DX2                !
 ! D17   D(14,5,6,8)           -61.9273         estimate D2E/DX2                !
 ! D18   D(14,5,6,9)           179.9379         estimate D2E/DX2                !
 ! D19   D(1,5,10,11)          -41.4737         estimate D2E/DX2                !
 ! D20   D(1,5,10,12)         -154.1524         estimate D2E/DX2                !
 ! D21   D(1,5,10,13)           80.9684         estimate D2E/DX2                !
 ! D22   D(6,5,10,11)           82.6569         estimate D2E/DX2                !
 ! D23   D(6,5,10,12)          -30.0217         estimate D2E/DX2                !
 ! D24   D(6,5,10,13)         -154.901          estimate D2E/DX2                !
 ! D25   D(14,5,10,11)        -150.668          estimate D2E/DX2                !
 ! D26   D(14,5,10,12)          96.6534         estimate D2E/DX2                !
 ! D27   D(14,5,10,13)         -28.2259         estimate D2E/DX2                !
 ! D28   D(1,5,14,15)           52.471          estimate D2E/DX2                !
 ! D29   D(1,5,14,16)          173.3253         estimate D2E/DX2                !
 ! D30   D(1,5,14,39)          -65.8132         estimate D2E/DX2                !
 ! D31   D(6,5,14,15)          -70.1386         estimate D2E/DX2                !
 ! D32   D(6,5,14,16)           50.7157         estimate D2E/DX2                !
 ! D33   D(6,5,14,39)          171.5773         estimate D2E/DX2                !
 ! D34   D(10,5,14,15)         167.1426         estimate D2E/DX2                !
 ! D35   D(10,5,14,16)         -72.0031         estimate D2E/DX2                !
 ! D36   D(10,5,14,39)          48.8584         estimate D2E/DX2                !
 ! D37   D(5,14,16,17)          50.8705         estimate D2E/DX2                !
 ! D38   D(5,14,16,18)         -61.0932         estimate D2E/DX2                !
 ! D39   D(5,14,16,19)         164.1277         estimate D2E/DX2                !
 ! D40   D(15,14,16,17)        171.7399         estimate D2E/DX2                !
 ! D41   D(15,14,16,18)         59.7762         estimate D2E/DX2                !
 ! D42   D(15,14,16,19)        -75.0029         estimate D2E/DX2                !
 ! D43   D(39,14,16,17)        -69.9915         estimate D2E/DX2                !
 ! D44   D(39,14,16,18)        178.0448         estimate D2E/DX2                !
 ! D45   D(39,14,16,19)         43.2657         estimate D2E/DX2                !
 ! D46   D(14,16,19,20)        -27.3689         estimate D2E/DX2                !
 ! D47   D(14,16,19,22)       -146.4089         estimate D2E/DX2                !
 ! D48   D(14,16,19,23)         90.8181         estimate D2E/DX2                !
 ! D49   D(17,16,19,20)         84.981          estimate D2E/DX2                !
 ! D50   D(17,16,19,22)        -34.059          estimate D2E/DX2                !
 ! D51   D(17,16,19,23)       -156.832          estimate D2E/DX2                !
 ! D52   D(18,16,19,20)       -163.1946         estimate D2E/DX2                !
 ! D53   D(18,16,19,22)         77.7654         estimate D2E/DX2                !
 ! D54   D(18,16,19,23)        -45.0076         estimate D2E/DX2                !
 ! D55   D(16,19,20,21)         19.7194         estimate D2E/DX2                !
 ! D56   D(22,19,20,21)        139.8542         estimate D2E/DX2                !
 ! D57   D(23,19,20,21)       -100.0343         estimate D2E/DX2                !
 ! D58   D(16,19,23,24)        106.1823         estimate D2E/DX2                !
 ! D59   D(16,19,23,37)        -87.631          estimate D2E/DX2                !
 ! D60   D(20,19,23,24)       -134.3173         estimate D2E/DX2                !
 ! D61   D(20,19,23,37)         31.8694         estimate D2E/DX2                !
 ! D62   D(22,19,23,24)        -15.995          estimate D2E/DX2                !
 ! D63   D(22,19,23,37)        150.1917         estimate D2E/DX2                !
 ! D64   D(19,23,24,25)        -12.4727         estimate D2E/DX2                !
 ! D65   D(19,23,24,26)        166.4533         estimate D2E/DX2                !
 ! D66   D(37,23,24,25)       -179.9055         estimate D2E/DX2                !
 ! D67   D(37,23,24,26)         -0.9795         estimate D2E/DX2                !
 ! D68   D(19,23,37,35)       -164.6167         estimate D2E/DX2                !
 ! D69   D(19,23,37,38)          4.5897         estimate D2E/DX2                !
 ! D70   D(24,23,37,35)          1.5791         estimate D2E/DX2                !
 ! D71   D(24,23,37,38)        170.7855         estimate D2E/DX2                !
 ! D72   D(23,24,26,27)       -179.3663         estimate D2E/DX2                !
 ! D73   D(23,24,26,32)         -1.713          estimate D2E/DX2                !
 ! D74   D(25,24,26,27)         -0.4651         estimate D2E/DX2                !
 ! D75   D(25,24,26,32)        177.1882         estimate D2E/DX2                !
 ! D76   D(24,26,27,28)        -77.9068         estimate D2E/DX2                !
 ! D77   D(24,26,27,30)        165.2874         estimate D2E/DX2                !
 ! D78   D(24,26,27,31)         43.9025         estimate D2E/DX2                !
 ! D79   D(32,26,27,28)        104.6781         estimate D2E/DX2                !
 ! D80   D(32,26,27,30)        -12.1277         estimate D2E/DX2                !
 ! D81   D(32,26,27,31)       -133.5126         estimate D2E/DX2                !
 ! D82   D(24,26,32,33)       -173.4604         estimate D2E/DX2                !
 ! D83   D(24,26,32,35)          3.797          estimate D2E/DX2                !
 ! D84   D(27,26,32,33)          4.0561         estimate D2E/DX2                !
 ! D85   D(27,26,32,35)       -178.6865         estimate D2E/DX2                !
 ! D86   D(26,27,28,29)        -44.7035         estimate D2E/DX2                !
 ! D87   D(30,27,28,29)         77.341          estimate D2E/DX2                !
 ! D88   D(31,27,28,29)       -167.7987         estimate D2E/DX2                !
 ! D89   D(26,32,33,34)       -161.1104         estimate D2E/DX2                !
 ! D90   D(35,32,33,34)         21.6222         estimate D2E/DX2                !
 ! D91   D(26,32,35,36)        170.1847         estimate D2E/DX2                !
 ! D92   D(26,32,35,37)         -3.4146         estimate D2E/DX2                !
 ! D93   D(33,32,35,36)        -12.633          estimate D2E/DX2                !
 ! D94   D(33,32,35,37)        173.7676         estimate D2E/DX2                !
 ! D95   D(32,35,37,23)          0.4852         estimate D2E/DX2                !
 ! D96   D(32,35,37,38)       -167.4789         estimate D2E/DX2                !
 ! D97   D(36,35,37,23)       -172.6342         estimate D2E/DX2                !
 ! D98   D(36,35,37,38)         19.4017         estimate D2E/DX2                !
 --------------------------------------------------------------------------------
 Trust Radius=3.00D-01 FncErr=1.00D-07 GrdErr=1.00D-06 EigMax=2.50D+02 EigMin=1.00D-04
 Number of steps in this run=    216 maximum allowed number of steps=    234.
 GradGradGradGradGradGradGradGradGradGradGradGradGradGradGradGradGradGrad

 Leave Link  103 at Sun Jul 18 14:26:36 2021, MaxMem=   104857600 cpu:               0.1 elap:               0.1
 (Enter /prod/apps/gaussian/g16b1/l202.exe)
                          Input orientation:                          
 ---------------------------------------------------------------------
 Center     Atomic      Atomic             Coordinates (Angstroms)
 Number     Number       Type             X           Y           Z
 ---------------------------------------------------------------------
      1          6           0       -2.536000    3.240000    1.110000
      2          1           0       -3.561000    3.615000    1.141000
      3          1           0       -1.854000    3.921000    0.596000
      4          1           0       -2.076000    3.110000    2.091000
      5          6           0       -2.667000    1.879000    0.437000
      6          6           0       -3.225000    0.764000    1.399000
      7          1           0       -2.539000    0.549000    2.221000
      8          1           0       -3.208000   -0.121000    0.759000
      9          1           0       -4.243000    0.929000    1.756000
     10          6           0       -3.582000    2.002000   -0.761000
     11          1           0       -4.408000    2.646000   -0.450000
     12          1           0       -3.989000    0.996000   -0.882000
     13          1           0       -3.210000    2.386000   -1.713000
     14          7           0       -1.293000    1.672000   -0.053000
     15          1           0       -0.658000    1.799000    0.709000
     16          6           0       -1.075000    0.309000   -0.638000
     17          1           0       -1.910000    0.234000   -1.340000
     18          1           0       -1.237000   -0.502000    0.077000
     19          6           0        0.141000    0.029000   -1.507000
     20          8           0        0.557000    1.212000   -2.133000
     21          1           0        0.114000    1.837000   -1.530000
     22          1           0       -0.112000   -0.699000   -2.283000
     23          6           0        1.288000   -0.463000   -0.653000
     24          6           0        1.594000   -1.829000   -0.737000
     25          1           0        0.860000   -2.455000   -1.239000
     26          6           0        2.787000   -2.436000   -0.239000
     27          6           0        3.002000   -3.946000   -0.411000
     28          8           0        2.169000   -4.626000    0.629000
     29          1           0        2.314000   -4.133000    1.456000
     30          1           0        4.030000   -4.273000   -0.234000
     31          1           0        2.735000   -4.299000   -1.410000
     32          6           0        3.684000   -1.582000    0.323000
     33          8           0        4.944000   -2.099000    0.707000
     34          1           0        5.294000   -1.445000    1.339000
     35          6           0        3.400000   -0.243000    0.463000
     36          1           0        4.121000    0.296000    1.074000
     37          6           0        2.243000    0.364000    0.000000
     38          1           0        2.071000    1.434000   -0.078000
     39          1           0       -1.096000    2.357000   -0.754000
 ---------------------------------------------------------------------
                    Distance matrix (angstroms):
                    1          2          3          4          5
     1  C    0.000000
     2  H    1.091884   0.000000
     3  H    1.092282   1.817831   0.000000
     4  H    1.091266   1.833780   1.715235   0.000000
     5  C    1.523946   2.075704   2.203637   2.144845   0.000000
     6  C    2.586275   2.882301   3.534275   2.702366   1.574812
     7  H    2.911325   3.407527   3.805290   2.605761   2.228888
     8  H    3.445447   3.772032   4.265870   3.673555   2.096751
     9  H    2.944807   2.838652   4.000623   3.092713   2.264075
    10  C    2.475359   2.493955   2.917189   3.410221   1.512468
    11  H    2.508151   2.046375   3.040174   3.479971   2.099081
    12  H    3.333888   3.336896   3.911308   4.119138   2.065704
    13  H    3.025379   3.127133   3.086493   4.034916   2.274730
    14  N    2.314356   3.216319   2.407057   2.697716   1.473372
    15  H    2.400868   3.451360   2.438456   2.374736   2.028907
    16  C    3.712248   4.502741   3.895657   4.036712   2.480925
    17  H    3.928156   4.506919   4.164757   4.480033   2.537086
    18  H    4.093538   4.845901   4.495885   4.219794   2.800654
    19  C    4.932093   5.794489   4.852865   5.230034   3.884134
    20  O    4.918992   5.783719   4.538617   5.327032   4.176597
    21  H    3.995061   4.878642   3.568747   4.419080   3.406584
    22  H    5.736196   6.498459   5.715558   6.123533   4.535693
    23  C    5.607437   6.584931   5.536391   5.622487   4.723885
    24  C    6.794341   7.729039   6.835795   6.772016   5.769199
    25  H    7.034461   7.877470   7.168431   7.118864   5.833718
    26  C    7.897538   8.877843   7.915021   7.735359   6.987297
    27  C    9.198993  10.131653   9.299703   9.046172   8.172349
    28  O    9.178363  10.050330   9.446525   8.944449   8.107946
    29  H    8.831950   9.728636   9.109267   8.493313   7.873555
    30  H   10.067962  11.033334  10.121857   9.858882   9.118506
    31  H    9.537838  10.429699   9.625557   9.502421   8.411938
    32  C    7.909453   8.953656   7.811977   7.636641   7.233721
    33  O    9.198790  10.255397   9.081053   8.850398   8.592130
    34  H    9.127462  10.200678   8.968830   8.696576   8.674105
    35  C    6.912741   7.987451   6.705304   6.624166   6.427445
    36  H    7.279016   8.368595   7.004979   6.881547   6.999186
    37  C    5.687031   6.749615   5.458285   5.528703   5.156966
    38  H    5.088952   6.161343   4.695218   4.971031   4.786637
    39  H    2.515509   3.354074   2.200718   3.101844   2.028548
                    6          7          8          9         10
     6  C    0.000000
     7  H    1.092019   0.000000
     8  H    1.092298   1.741811   0.000000
     9  H    1.091329   1.806721   1.779813   0.000000
    10  C    2.515093   3.477266   2.637689   2.814878   0.000000
    11  H    2.891403   3.876185   3.249303   2.800312   1.092581
    12  H    2.416709   3.454116   2.133197   2.651047   1.091937
    13  H    3.509366   4.393309   3.520772   3.901782   1.091853
    14  N    2.581742   2.825725   2.746164   3.539354   2.418612
    15  H    2.852510   2.717868   3.192397   3.834753   3.279007
    16  C    2.996480   3.220990   2.585768   4.018938   3.027611
    17  H    3.084193   3.629819   2.493317   3.938417   2.501329
    18  H    2.702329   2.719658   2.120171   3.728651   3.531471
    19  C    4.507218   4.620691   4.046363   5.538648   4.279016
    20  O    5.194156   5.383503   4.931103   6.184206   4.431456
    21  H    4.569386   4.771515   4.484303   5.532243   3.778757
    22  H    5.038677   5.266294   4.378706   6.002422   4.653255
    23  C    5.107191   4.891825   4.724905   6.191357   5.459376
    24  C    5.874428   5.611269   5.311731   6.920418   6.439574
    25  H    5.831658   5.705157   5.097861   6.816311   6.310681
    26  C    7.004797   6.582408   6.503480   8.045132   7.780263
    27  C    8.014720   7.604941   7.386720   8.997307   8.879767
    28  O    7.664218   7.174981   7.015986   8.558148   8.884621
    29  H    7.393536   6.786601   6.861081   8.289035   8.792959
    30  H    8.981820   8.510609   8.403202   9.973136   9.879064
    31  H    8.309395   8.031335   7.581523   9.276207   8.945853
    32  C    7.375349   6.846115   7.058632   8.437769   8.174036
    33  O    8.683789   8.080804   8.388700   9.729859   9.574231
    34  H    8.800946   8.130796   8.624000   9.836876   9.750650
    35  C    6.766149   6.244161   6.615751   7.839699   7.435491
    36  H    7.368064   6.762782   7.347609   8.415599   8.100239
    37  C    5.658288   5.275850   5.524917   6.743216   6.098589
    38  H    5.538776   5.226923   5.566546   6.594329   5.722370
    39  H    3.421359   3.768519   3.590292   4.271170   2.511229
                   11         12         13         14         15
    11  H    0.000000
    12  H    1.756327   0.000000
    13  H    1.760106   1.797082   0.000000
    14  N    3.287782   2.900454   2.634442   0.000000
    15  H    4.015369   3.777784   3.566981   0.999999   0.000000
    16  C    4.075022   3.003814   3.166667   1.499172   2.051438
    17  H    3.584668   2.261117   2.541699   2.026056   2.866205
    18  H    4.499208   3.276765   3.929042   2.178603   2.455456
    19  C    5.353442   4.287495   4.102083   2.621053   2.946516
    20  O    5.435078   4.719934   3.967993   2.821436   3.146070
    21  H    4.719043   4.238136   3.373999   2.046559   2.368660
    22  H    5.744957   4.457236   4.409051   3.462557   3.935757
    23  C    6.492419   5.479767   5.428849   3.402908   3.280031
    24  C    7.492129   6.258717   6.465077   4.589077   4.508304
    25  H    7.375266   5.962353   6.342307   4.803554   4.918897
    26  C    8.811315   7.622746   7.835073   5.792811   5.540934
    27  C    9.917867   8.574339   8.965399   7.080757   6.903262
    28  O    9.864236   8.474135   9.142579   7.219098   7.019897
    29  H    9.735141   8.455808   9.113424   6.998968   6.676782
    30  H   10.914168   9.616997   9.947227   7.981862   7.728892
    31  H   10.008850   8.574846   8.951204   7.329330   7.293025
    32  C    9.162640   8.183706   8.210819   5.958223   5.516622
    33  O   10.550525   9.586576   9.615578   7.327906   6.824721
    34  H   10.680150   9.852178   9.813729   7.419024   6.807844
    35  C    8.375247   7.611929   7.439000   5.094873   4.549466
    36  H    8.977133   8.371860   8.116590   5.698675   5.023054
    37  C    7.045979   6.325755   6.062843   3.770540   3.313262
    38  H    6.601876   6.128773   5.609678   3.372501   2.863570
    39  H    3.338455   3.199712   2.321534   0.999717   1.625908
                   16         17         18         19         20
    16  C    0.000000
    17  H    1.093460   0.000000
    18  H    1.093247   1.732776   0.000000
    19  C    1.520598   2.067974   2.165618   0.000000
    20  O    2.390368   2.769733   3.322700   1.401578   0.000000
    21  H    2.131706   2.588877   3.143019   1.808348   0.974927
    22  H    2.156260   2.234400   2.621838   1.093695   2.030266
    23  C    2.485956   3.344396   2.628697   1.512279   2.351677
    24  C    3.421170   4.110668   3.230803   2.481184   3.503122
    25  H    3.427116   3.861842   3.153327   2.599816   3.786546
    26  C    4.754921   5.513883   4.475800   3.832149   4.676328
    27  C    5.897328   6.516378   5.483466   5.018681   5.962237
    28  O    6.040120   6.643403   5.377073   5.508567   6.656533
    29  H    5.966701   6.688085   5.262642   5.551895   6.673604
    30  H    6.871606   7.537897   6.485249   5.937344   6.764108
    31  H    6.028743   6.490687   5.692553   5.046764   5.969718
    32  C    5.210325   6.111977   5.044121   4.300822   4.859681
    33  O    6.620865   7.523989   6.414988   5.700788   6.186606
    34  H    6.895593   7.867255   6.718322   6.068427   6.446208
    35  C    4.641393   5.628005   4.660241   3.817848   4.115688
    36  H    5.470789   6.496476   5.508083   4.751131   4.881188
    37  C    3.379230   4.365766   3.586960   2.608003   2.848050
    38  H    3.387704   4.345228   3.836012   2.782259   2.562129
    39  H    2.051390   2.348004   2.980658   2.741671   2.438252
                   21         22         23         24         25
    21  H    0.000000
    22  H    2.655067   0.000000
    23  C    2.727161   2.161619   0.000000
    24  C    4.032221   2.564654   1.402372   0.000000
    25  H    4.366058   2.262356   2.120058   1.087491   0.000000
    26  C    5.202897   3.949596   2.512195   1.428181   2.171103
    27  C    6.560167   4.872821   3.889428   2.563285   2.738034
    28  O    7.117210   5.394815   4.444126   3.165405   3.148991
    29  H    7.028307   5.626540   4.355394   3.261298   3.491823
    30  H    7.372026   5.841921   4.712773   3.487154   3.789993
    31  H    6.673420   4.671995   4.169143   2.802804   2.635375
    32  C    5.279022   4.688341   2.818786   2.356419   3.343194
    33  O    6.620058   6.038480   4.229945   3.657941   4.537919
    34  H    6.770161   6.549827   4.580439   4.259957   5.227479
    35  C    4.369925   4.481361   2.398833   2.686453   3.773771
    36  H    5.021110   5.493429   3.403601   3.765777   4.853050
    37  C    3.007203   3.447910   1.422098   2.402836   3.375585
    38  H    2.469932   3.765263   2.131273   3.362883   4.235418
    39  H    1.528619   3.556014   3.694057   4.975840   5.216944
                   26         27         28         29         30
    26  C    0.000000
    27  C    1.534897   0.000000
    28  O    2.435456   1.495958   0.000000
    29  H    2.444701   1.998500   0.973654   0.000000
    30  H    2.218027   1.093180   2.081514   2.412541   0.000000
    31  H    2.201071   1.092657   2.141216   2.901509   1.749479
    32  C    1.360062   2.567562   3.413912   3.109371   2.769738
    33  O    2.379314   2.903911   3.753990   3.408087   2.539124
    34  H    3.123654   3.817167   4.515361   4.014901   3.474134
    35  C    2.382818   3.825505   4.555613   4.159032   4.138068
    36  H    3.311699   4.631625   5.313606   4.798668   4.753410
    37  C    2.862352   4.395578   5.030032   4.727366   4.974927
    38  H    3.938969   5.470105   6.101889   5.779593   6.035882
    39  H    6.189973   7.525893   7.831679   7.657173   8.396617
                   31         32         33         34         35
    31  H    0.000000
    32  C    3.359461   0.000000
    33  O    3.768471   1.415042   0.000000
    34  H    4.717075   1.908697   0.974495   0.000000
    35  C    4.516801   1.375928   2.426563   2.408198   0.000000
    36  H    5.404191   2.069264   2.558914   2.115948   1.087972
    37  C    4.896298   2.442893   3.723120   3.791306   1.386170
    38  H    5.923041   3.443665   4.620870   4.547995   2.207091
    39  H    7.707739   6.286816   7.646702   7.724503   5.334333
                   36         37         38         39
    36  H    0.000000
    37  C    2.164482   0.000000
    38  H    2.612403   1.086539   0.000000
    39  H    5.899694   3.960996   3.367313   0.000000
 Stoichiometry    C13H22NO3(1+)
 Framework group  C1[X(C13H22NO3)]
 Deg. of freedom   111
 Full point group                 C1      NOp   1
 Largest Abelian subgroup         C1      NOp   1
 Largest concise Abelian subgroup C1      NOp   1
                         Standard orientation:                         
 ---------------------------------------------------------------------
 Center     Atomic      Atomic             Coordinates (Angstroms)
 Number     Number       Type             X           Y           Z
 ---------------------------------------------------------------------
      1          6           0       -4.575724   -0.746228   -1.315566
      2          1           0       -5.616122   -0.415001   -1.307091
      3          1           0       -4.452939   -1.758188   -0.923213
      4          1           0       -4.130841   -0.802237   -2.310454
      5          6           0       -3.848423    0.319025   -0.503974
      6          6           0       -3.607166    1.651823   -1.307390
      7          1           0       -2.931683    1.505834   -2.152916
      8          1           0       -3.053643    2.257553   -0.586408
      9          1           0       -4.513210    2.183922   -1.602270
     10          6           0       -4.649432    0.629823    0.740754
     11          1           0       -5.696372    0.663605    0.430096
     12          1           0       -4.356796    1.651835    0.990116
     13          1           0       -4.591058   -0.014845    1.620037
     14          7           0       -2.635141   -0.412488   -0.099426
     15          1           0       -2.209151   -0.803503   -0.915292
     16          6           0       -1.630284    0.453444    0.599104
     17          1           0       -2.246263    0.932368    1.365169
     18          1           0       -1.261782    1.276788   -0.018552
     19          6           0       -0.497953   -0.171627    1.398685
     20          8           0       -0.892693   -1.430229    1.872523
     21          1           0       -1.624495   -1.577885    1.245508
     22          1           0       -0.254272    0.457854    2.259233
     23          6           0        0.711743   -0.375841    0.514422
     24          6           0        1.788774    0.500848    0.709534
     25          1           0        1.589807    1.375856    1.323871
     26          6           0        3.104677    0.315125    0.186458
     27          6           0        4.197586    1.349253    0.489837
     28          8           0        3.955412    2.516918   -0.413378
     29          1           0        3.769970    2.143797   -1.293375
     30          1           0        5.211306    1.004166    0.270002
     31          1           0        4.200658    1.665240    1.535802
     32          6           0        3.293367   -0.830424   -0.521980
     33          8           0        4.607125   -1.141534   -0.945766
     34          1           0        4.485246   -1.789515   -1.663335
     35          6           0        2.250329   -1.692351   -0.771641
     36          1           0        2.492337   -2.477707   -1.484614
     37          6           0        0.962966   -1.524152   -0.285972
     38          1           0        0.172693   -2.269677   -0.301135
     39          1           0       -2.898906   -1.156395    0.514142
 ---------------------------------------------------------------------
 Rotational constants (GHZ):           0.8849489           0.1901964           0.1806680
 Leave Link  202 at Sun Jul 18 14:26:36 2021, MaxMem=   104857600 cpu:               0.1 elap:               0.1
 (Enter /prod/apps/gaussian/g16b1/l301.exe)
 Standard basis: 6-31G(d) (6D, 7F)
 Ernie: Thresh=  0.10000D-02 Tol=  0.10000D-05 Strict=F.
 There are   299 symmetry adapted cartesian basis functions of A   symmetry.
 There are   299 symmetry adapted basis functions of A   symmetry.
   299 basis functions,   564 primitive gaussians,   299 cartesian basis functions
    65 alpha electrons       65 beta electrons
       nuclear repulsion energy      1255.3812991442 Hartrees.
 IExCor=  402 DFT=T Ex+Corr=B3LYP ExCW=0 ScaHFX=  0.200000
 ScaDFX=  0.800000  0.720000  1.000000  0.810000 ScalE2=  1.000000  1.000000
 IRadAn=      5 IRanWt=     -1 IRanGd=            0 ICorTp=0 IEmpDi=  4
 NAtoms=   39 NActive=   39 NUniq=   39 SFac= 1.00D+00 NAtFMM=   60 NAOKFM=F Big=F
 Integral buffers will be    131072 words long.
 Raffenetti 2 integral format.
 Two-electron integral symmetry is turned on.
 Using the following non-standard input for PCM:
 MSTModel=DFT cav MSTCharged
 --- end of non-standard input.
 MST model for solvation energy: B3LYP parametrization.
 MST cavity parameters:
 ISph   IAn     Re0     Alpha   Atom Type   QCorr
 ------------------------------------------------
   1      6     1.50     1.25      CH3        F
   2      1     1.20     1.25      CH3        F
   3      1     1.20     1.25      CH3        F
   4      1     1.20     1.25      CH3        F
   5      6     1.50     1.25      C          F
   6      6     1.50     1.25      CH3        F
   7      1     1.20     1.25      CH3        F
   8      1     1.20     1.25      CH3        F
   9      1     1.20     1.25      CH3        F
  10      6     1.50     1.25      CH3        F
  11      1     1.20     1.25      CH3        F
  12      1     1.20     1.25      CH3        F
  13      1     1.20     1.25      CH3        F
  14      7     1.55     1.15      NH         T
  15      1     0.90     1.15      NH         T
  16      6     1.50     1.25      CH2        F
  17      1     1.20     1.25      CH2        F
  18      1     1.20     1.25      CH2        F
  19      6     1.50     1.25      CH         F
  20      8     1.45     1.25      OH         F
  21      1     0.90     1.25      OH         F
  22      1     1.20     1.25      CH         F
  23      6     1.50     1.25      C          F
  24      6     1.50     1.25      CH         F
  25      1     1.20     1.25      CH         F
  26      6     1.50     1.25      C          F
  27      6     1.50     1.25      CH2        F
  28      8     1.45     1.25      OH         F
  29      1     0.90     1.25      OH         F
  30      1     1.20     1.25      CH2        F
  31      1     1.20     1.25      CH2        F
  32      6     1.50     1.25      C          F
  33      8     1.45     1.25      OH         F
  34      1     0.90     1.25      OH         F
  35      6     1.50     1.25      CH         F
  36      1     1.20     1.25      CH         F
  37      6     1.50     1.25      CH         F
  38      1     1.20     1.25      CH         F
  39      1     0.90     1.15      NH         T
 ------------------------------------------------------------------------------
 Polarizable Continuum Model (PCM)
 =================================
 Model                : PCM.
 Atomic radii         : MST.
 Polarization charges : Total charges.
 Charge compensation  : None.
 Solution method      : On-the-fly selection.
 Cavity type          : Scaled VdW (van der Waals Surface) (Alpha=1.250).
 Cavity algorithm     : GePol (No added spheres)
                        Default sphere list used, NSphG=   39.
                        Lebedev-Laikov grids with approx.  5.0 points / Ang**2.
                        Smoothing algorithm: York/Karplus (Gamma=1.0000).
                        Polarization charges: spherical gaussians, with
                                              point-specific exponents (IZeta= 3).
                        Self-potential: point-specific (ISelfS= 7).
                        Self-field    : sphere-specific E.n sum rule (ISelfD= 2).
 1st derivatives      : Analytical E(r).r(x)/FMM algorithm (CHGder, D1EAlg=3).
                        Cavity 1st derivative terms included.
 Solvent              : Water, Eps=  78.355300 Eps(inf)=   1.777849
 ------------------------------------------------------------------------------
 GePol: Number of generator spheres                  =      39
 GePol: Total number of spheres                      =      39
 GePol: Number of exposed spheres                    =      39 (100.00%)
 GePol: Number of points                             =    2632
 GePol: Average weight of points                     =       0.13
 GePol: Minimum weight of points                     =   0.50D-09
 GePol: Maximum weight of points                     =    0.21416
 GePol: Number of points with low weight             =     180
 GePol: Fraction of low-weight points (<1% of avg)   =       6.84%
 GePol: Cavity surface area                          =    331.701 Ang**2
 GePol: Cavity volume                                =    312.605 Ang**3
 PCM non-electrostatic energy =         0.0007693181 Hartrees.
 Nuclear repulsion after PCM non-electrostatic terms =     1255.3820684622 Hartrees.
 Leave Link  301 at Sun Jul 18 14:26:36 2021, MaxMem=   104857600 cpu:               0.4 elap:               0.1
 (Enter /prod/apps/gaussian/g16b1/l302.exe)
 NPDir=0 NMtPBC=     1 NCelOv=     1 NCel=       1 NClECP=     1 NCelD=      1
         NCelK=      1 NCelE2=     1 NClLst=     1 CellRange=     0.0.
 One-electron integrals computed using PRISM.
 One-electron integral symmetry used in STVInt
 NBasis=   299 RedAO= T EigKep=  4.04D-04  NBF=   299
 NBsUse=   299 1.00D-06 EigRej= -1.00D+00 NBFU=   299
 Precomputing XC quadrature grid using
 IXCGrd= 4 IRadAn=           5 IRanWt=          -1 IRanGd=           0 AccXCQ= 0.00D+00.
 Generated NRdTot=       0 NPtTot=           0 NUsed=           0 NTot=          32
 NSgBfM=   296   296   296   296   296 MxSgAt=    39 MxSgA2=    39.
 Leave Link  302 at Sun Jul 18 14:26:37 2021, MaxMem=   104857600 cpu:               2.1 elap:               0.6
 (Enter /prod/apps/gaussian/g16b1/l303.exe)
 DipDrv:  MaxL=1.
 Leave Link  303 at Sun Jul 18 14:26:37 2021, MaxMem=   104857600 cpu:               0.2 elap:               0.1
 (Enter /prod/apps/gaussian/g16b1/l401.exe)
 ExpMin= 1.61D-01 ExpMax= 5.48D+03 ExpMxC= 8.25D+02 IAcc=3 IRadAn=         5 AccDes= 0.00D+00
 Harris functional with IExCor=  402 and IRadAn=       5 diagonalized for initial guess.
 HarFok:  IExCor=  402 AccDes= 0.00D+00 IRadAn=         5 IDoV= 1 UseB2=F ITyADJ=14
 ICtDFT=  3500011 ScaDFX=  1.000000  1.000000  1.000000  1.000000
 FoFCou: FMM=F IPFlag=           0 FMFlag=      100000 FMFlg1=           0
         NFxFlg=           0 DoJE=T BraDBF=F KetDBF=T FulRan=T
         wScrn=  0.000000 ICntrl=       500 IOpCl=  0 I1Cent=   200000004 NGrid=           0
         NMat0=    1 NMatS0=      1 NMatT0=    0 NMatD0=    1 NMtDS0=    0 NMtDT0=    0
 Petite list used in FoFCou.
 Harris En= -788.798309537403    
 JPrj=0 DoOrth=F DoCkMO=F.
 Leave Link  401 at Sun Jul 18 14:26:39 2021, MaxMem=   104857600 cpu:               8.9 elap:               2.3
 (Enter /prod/apps/gaussian/g16b1/l502.exe)
 Integral symmetry usage will be decided dynamically.
 Closed shell SCF:
 Using DIIS extrapolation, IDIIS=  1040.
 NGot=   104857600 LenX=   104673424 LenY=   104583582
 Requested convergence on RMS density matrix=1.00D-08 within 128 cycles.
 Requested convergence on MAX density matrix=1.00D-06.
 Requested convergence on             energy=1.00D-06.
 No special actions if energy rises.
 Fock matrices will be formed incrementally for  20 cycles.

 Cycle   1  Pass 1  IDiag  1:
 FoFJK:  IHMeth= 1 ICntrl=       0 DoSepK=F KAlg= 0 I1Cent=           0 FoldK=F
 IRaf= 790000000 NMat=       1 IRICut=       1 DoRegI=T DoRafI=F ISym2E= 0 IDoP0=0 IntGTp=1.
 FoFCou: FMM=F IPFlag=           0 FMFlag=      100000 FMFlg1=           0
         NFxFlg=           0 DoJE=F BraDBF=F KetDBF=F FulRan=T
         wScrn=  0.000000 ICntrl=         0 IOpCl=  0 I1Cent=           0 NGrid=           0
         NMat0=    1 NMatS0=      1 NMatT0=    0 NMatD0=    1 NMtDS0=    0 NMtDT0=    0
 Symmetry not used in FoFCou.
 Inv3:  Mode=1 IEnd=    20782272.
 Iteration    1 A*A^-1 deviation from unit magnitude is 3.33D-15 for   1139.
 Iteration    1 A*A^-1 deviation from orthogonality  is 2.89D-15 for   2433   1142.
 Iteration    1 A^-1*A deviation from unit magnitude is 3.55D-15 for   1097.
 Iteration    1 A^-1*A deviation from orthogonality  is 1.82D-14 for   1920   1912.
 E= -788.429445403370    
 DIIS: error= 2.50D-02 at cycle   1 NSaved=   1.
 NSaved= 1 IEnMin= 1 EnMin= -788.429445403370     IErMin= 1 ErrMin= 2.50D-02
 ErrMax= 2.50D-02  0.00D+00 EMaxC= 1.00D-01 BMatC= 4.38D-01 BMatP= 4.38D-01
 IDIUse=3 WtCom= 7.50D-01 WtEn= 2.50D-01
 Coeff-Com:  0.100D+01
 Coeff-En:   0.100D+01
 Coeff:      0.100D+01
 Gap=     0.217 Goal=   None    Shift=    0.000
 GapD=    0.217 DampG=1.000 DampE=0.500 DampFc=0.5000 IDamp=-1.
 Damping current iteration by 5.00D-01
 RMSDP=4.33D-03 MaxDP=1.29D-01              OVMax= 1.65D-01

 Cycle   2  Pass 1  IDiag  1:
 RMSU=  2.13D-03    CP:  9.81D-01
 E= -788.621431891406     Delta-E=       -0.191986488036 Rises=F Damp=T
 DIIS: error= 5.84D-03 at cycle   2 NSaved=   2.
 NSaved= 2 IEnMin= 2 EnMin= -788.621431891406     IErMin= 2 ErrMin= 5.84D-03
 ErrMax= 5.84D-03  0.00D+00 EMaxC= 1.00D-01 BMatC= 2.32D-02 BMatP= 4.38D-01
 IDIUse=3 WtCom= 9.42D-01 WtEn= 5.84D-02
 Coeff-Com:  0.461D-01 0.954D+00
 Coeff-En:   0.535D-01 0.947D+00
 Coeff:      0.465D-01 0.953D+00
 Gap=     0.254 Goal=   None    Shift=    0.000
 RMSDP=9.44D-04 MaxDP=2.09D-02 DE=-1.92D-01 OVMax= 8.94D-02

 Cycle   3  Pass 1  IDiag  1:
 RMSU=  9.34D-04    CP:  9.74D-01  9.85D-01
 E= -788.831946354024     Delta-E=       -0.210514462619 Rises=F Damp=F
 DIIS: error= 5.43D-03 at cycle   3 NSaved=   3.
 NSaved= 3 IEnMin= 3 EnMin= -788.831946354024     IErMin= 3 ErrMin= 5.43D-03
 ErrMax= 5.43D-03  0.00D+00 EMaxC= 1.00D-01 BMatC= 1.14D-02 BMatP= 2.32D-02
 IDIUse=3 WtCom= 9.46D-01 WtEn= 5.43D-02
 Coeff-Com: -0.215D-01 0.393D+00 0.628D+00
 Coeff-En:   0.000D+00 0.000D+00 0.100D+01
 Coeff:     -0.203D-01 0.372D+00 0.648D+00
 Gap=     0.210 Goal=   None    Shift=    0.000
 RMSDP=4.60D-04 MaxDP=2.13D-02 DE=-2.11D-01 OVMax= 1.91D-02

 Cycle   4  Pass 1  IDiag  1:
 RMSU=  3.89D-04    CP:  9.76D-01  9.95D-01  7.41D-01
 E= -788.838664412913     Delta-E=       -0.006718058889 Rises=F Damp=F
 DIIS: error= 2.71D-03 at cycle   4 NSaved=   4.
 NSaved= 4 IEnMin= 4 EnMin= -788.838664412913     IErMin= 4 ErrMin= 2.71D-03
 ErrMax= 2.71D-03  0.00D+00 EMaxC= 1.00D-01 BMatC= 3.06D-03 BMatP= 1.14D-02
 IDIUse=3 WtCom= 9.73D-01 WtEn= 2.71D-02
 Coeff-Com: -0.118D-01 0.706D-01 0.361D+00 0.580D+00
 Coeff-En:   0.000D+00 0.000D+00 0.224D+00 0.776D+00
 Coeff:     -0.115D-01 0.687D-01 0.357D+00 0.585D+00
 Gap=     0.210 Goal=   None    Shift=    0.000
 RMSDP=1.81D-04 MaxDP=7.85D-03 DE=-6.72D-03 OVMax= 8.53D-03

 Cycle   5  Pass 1  IDiag  1:
 RMSU=  7.59D-05    CP:  9.75D-01  1.00D+00  8.03D-01  6.08D-01
 E= -788.841165831921     Delta-E=       -0.002501419008 Rises=F Damp=F
 DIIS: error= 3.19D-04 at cycle   5 NSaved=   5.
 NSaved= 5 IEnMin= 5 EnMin= -788.841165831921     IErMin= 5 ErrMin= 3.19D-04
 ErrMax= 3.19D-04  0.00D+00 EMaxC= 1.00D-01 BMatC= 8.25D-05 BMatP= 3.06D-03
 IDIUse=3 WtCom= 9.97D-01 WtEn= 3.19D-03
 Coeff-Com: -0.380D-02 0.123D-01 0.129D+00 0.257D+00 0.605D+00
 Coeff-En:   0.000D+00 0.000D+00 0.000D+00 0.000D+00 0.100D+01
 Coeff:     -0.379D-02 0.123D-01 0.129D+00 0.256D+00 0.606D+00
 Gap=     0.209 Goal=   None    Shift=    0.000
 RMSDP=3.73D-05 MaxDP=1.33D-03 DE=-2.50D-03 OVMax= 3.10D-03

 Cycle   6  Pass 1  IDiag  1:
 RMSU=  2.62D-05    CP:  9.75D-01  1.00D+00  8.08D-01  6.23D-01  6.64D-01
 E= -788.841231848387     Delta-E=       -0.000066016466 Rises=F Damp=F
 DIIS: error= 1.08D-04 at cycle   6 NSaved=   6.
 NSaved= 6 IEnMin= 6 EnMin= -788.841231848387     IErMin= 6 ErrMin= 1.08D-04
 ErrMax= 1.08D-04  0.00D+00 EMaxC= 1.00D-01 BMatC= 1.18D-05 BMatP= 8.25D-05
 IDIUse=3 WtCom= 9.99D-01 WtEn= 1.08D-03
 Coeff-Com: -0.119D-02 0.158D-02 0.443D-01 0.990D-01 0.338D+00 0.519D+00
 Coeff-En:   0.000D+00 0.000D+00 0.000D+00 0.000D+00 0.652D-01 0.935D+00
 Coeff:     -0.119D-02 0.158D-02 0.443D-01 0.989D-01 0.337D+00 0.519D+00
 Gap=     0.209 Goal=   None    Shift=    0.000
 RMSDP=1.32D-05 MaxDP=5.59D-04 DE=-6.60D-05 OVMax= 1.23D-03

 Cycle   7  Pass 1  IDiag  1:
 RMSU=  6.12D-06    CP:  9.75D-01  1.00D+00  8.09D-01  6.25D-01  7.11D-01
                    CP:  5.78D-01
 E= -788.841242656421     Delta-E=       -0.000010808034 Rises=F Damp=F
 DIIS: error= 2.50D-05 at cycle   7 NSaved=   7.
 NSaved= 7 IEnMin= 7 EnMin= -788.841242656421     IErMin= 7 ErrMin= 2.50D-05
 ErrMax= 2.50D-05  0.00D+00 EMaxC= 1.00D-01 BMatC= 6.45D-07 BMatP= 1.18D-05
 IDIUse=1 WtCom= 1.00D+00 WtEn= 0.00D+00
 Coeff-Com: -0.441D-03 0.205D-03 0.167D-01 0.393D-01 0.148D+00 0.278D+00
 Coeff-Com:  0.518D+00
 Coeff:     -0.441D-03 0.205D-03 0.167D-01 0.393D-01 0.148D+00 0.278D+00
 Coeff:      0.518D+00
 Gap=     0.209 Goal=   None    Shift=    0.000
 RMSDP=3.19D-06 MaxDP=1.02D-04 DE=-1.08D-05 OVMax= 2.99D-04

 Cycle   8  Pass 1  IDiag  1:
 RMSU=  1.73D-06    CP:  9.75D-01  1.00D+00  8.09D-01  6.28D-01  7.09D-01
                    CP:  6.13D-01  6.13D-01
 E= -788.841243275660     Delta-E=       -0.000000619239 Rises=F Damp=F
 DIIS: error= 5.02D-06 at cycle   8 NSaved=   8.
 NSaved= 8 IEnMin= 8 EnMin= -788.841243275660     IErMin= 8 ErrMin= 5.02D-06
 ErrMax= 5.02D-06  0.00D+00 EMaxC= 1.00D-01 BMatC= 2.54D-08 BMatP= 6.45D-07
 IDIUse=1 WtCom= 1.00D+00 WtEn= 0.00D+00
 Coeff-Com: -0.518D-04-0.951D-04 0.191D-02 0.507D-02 0.219D-01 0.536D-01
 Coeff-Com:  0.202D+00 0.716D+00
 Coeff:     -0.518D-04-0.951D-04 0.191D-02 0.507D-02 0.219D-01 0.536D-01
 Coeff:      0.202D+00 0.716D+00
 Gap=     0.209 Goal=   None    Shift=    0.000
 RMSDP=7.03D-07 MaxDP=3.46D-05 DE=-6.19D-07 OVMax= 7.54D-05

 Cycle   9  Pass 1  IDiag  1:
 RMSU=  4.55D-07    CP:  9.75D-01  1.00D+00  8.09D-01  6.28D-01  7.11D-01
                    CP:  6.12D-01  6.62D-01  7.65D-01
 E= -788.841243296809     Delta-E=       -0.000000021150 Rises=F Damp=F
 DIIS: error= 1.62D-06 at cycle   9 NSaved=   9.
 NSaved= 9 IEnMin= 9 EnMin= -788.841243296809     IErMin= 9 ErrMin= 1.62D-06
 ErrMax= 1.62D-06  0.00D+00 EMaxC= 1.00D-01 BMatC= 3.86D-09 BMatP= 2.54D-08
 IDIUse=1 WtCom= 1.00D+00 WtEn= 0.00D+00
 Coeff-Com:  0.334D-05-0.656D-04-0.138D-03-0.321D-05 0.144D-02 0.926D-02
 Coeff-Com:  0.680D-01 0.365D+00 0.556D+00
 Coeff:      0.334D-05-0.656D-04-0.138D-03-0.321D-05 0.144D-02 0.926D-02
 Coeff:      0.680D-01 0.365D+00 0.556D+00
 Gap=     0.209 Goal=   None    Shift=    0.000
 RMSDP=2.47D-07 MaxDP=1.11D-05 DE=-2.11D-08 OVMax= 3.01D-05

 Cycle  10  Pass 1  IDiag  1:
 RMSU=  1.48D-07    CP:  9.75D-01  1.00D+00  8.09D-01  6.28D-01  7.11D-01
                    CP:  6.14D-01  6.63D-01  8.11D-01  6.34D-01
 E= -788.841243300330     Delta-E=       -0.000000003520 Rises=F Damp=F
 DIIS: error= 4.93D-07 at cycle  10 NSaved=  10.
 NSaved=10 IEnMin=10 EnMin= -788.841243300330     IErMin=10 ErrMin= 4.93D-07
 ErrMax= 4.93D-07  0.00D+00 EMaxC= 1.00D-01 BMatC= 2.70D-10 BMatP= 3.86D-09
 IDIUse=1 WtCom= 1.00D+00 WtEn= 0.00D+00
 Coeff-Com:  0.591D-05-0.184D-04-0.269D-03-0.544D-03-0.172D-02-0.122D-02
 Coeff-Com:  0.106D-01 0.943D-01 0.261D+00 0.638D+00
 Coeff:      0.591D-05-0.184D-04-0.269D-03-0.544D-03-0.172D-02-0.122D-02
 Coeff:      0.106D-01 0.943D-01 0.261D+00 0.638D+00
 Gap=     0.209 Goal=   None    Shift=    0.000
 RMSDP=6.57D-08 MaxDP=2.00D-06 DE=-3.52D-09 OVMax= 6.41D-06

 Cycle  11  Pass 1  IDiag  1:
 RMSU=  3.36D-08    CP:  9.75D-01  1.00D+00  8.09D-01  6.28D-01  7.11D-01
                    CP:  6.14D-01  6.65D-01  8.19D-01  6.99D-01  7.07D-01
 E= -788.841243300555     Delta-E=       -0.000000000225 Rises=F Damp=F
 DIIS: error= 1.44D-07 at cycle  11 NSaved=  11.
 NSaved=11 IEnMin=11 EnMin= -788.841243300555     IErMin=11 ErrMin= 1.44D-07
 ErrMax= 1.44D-07  0.00D+00 EMaxC= 1.00D-01 BMatC= 1.78D-11 BMatP= 2.70D-10
 IDIUse=1 WtCom= 1.00D+00 WtEn= 0.00D+00
 Coeff-Com:  0.260D-05-0.598D-05-0.127D-03-0.267D-03-0.907D-03-0.952D-03
 Coeff-Com:  0.228D-02 0.305D-01 0.106D+00 0.314D+00 0.550D+00
 Coeff:      0.260D-05-0.598D-05-0.127D-03-0.267D-03-0.907D-03-0.952D-03
 Coeff:      0.228D-02 0.305D-01 0.106D+00 0.314D+00 0.550D+00
 Gap=     0.209 Goal=   None    Shift=    0.000
 RMSDP=1.63D-08 MaxDP=7.08D-07 DE=-2.25D-10 OVMax= 1.62D-06

 Cycle  12  Pass 1  IDiag  1:
 RMSU=  1.09D-08    CP:  9.75D-01  1.00D+00  8.09D-01  6.28D-01  7.11D-01
                    CP:  6.14D-01  6.65D-01  8.20D-01  6.96D-01  7.39D-01
                    CP:  6.97D-01
 E= -788.841243300580     Delta-E=       -0.000000000025 Rises=F Damp=F
 DIIS: error= 3.91D-08 at cycle  12 NSaved=  12.
 NSaved=12 IEnMin=12 EnMin= -788.841243300580     IErMin=12 ErrMin= 3.91D-08
 ErrMax= 3.91D-08  0.00D+00 EMaxC= 1.00D-01 BMatC= 1.35D-12 BMatP= 1.78D-11
 IDIUse=1 WtCom= 1.00D+00 WtEn= 0.00D+00
 Coeff-Com:  0.176D-06 0.317D-06-0.160D-04-0.362D-04-0.138D-03-0.207D-03
 Coeff-Com: -0.467D-03-0.466D-03 0.795D-02 0.393D-01 0.235D+00 0.719D+00
 Coeff:      0.176D-06 0.317D-06-0.160D-04-0.362D-04-0.138D-03-0.207D-03
 Coeff:     -0.467D-03-0.466D-03 0.795D-02 0.393D-01 0.235D+00 0.719D+00
 Gap=     0.209 Goal=   None    Shift=    0.000
 RMSDP=4.57D-09 MaxDP=2.10D-07 DE=-2.48D-11 OVMax= 5.64D-07

 Error on total polarization charges =  0.01796
 SCF Done:  E(RB3LYP) =  -788.841243301     A.U. after   12 cycles
            NFock= 12  Conv=0.46D-08     -V/T= 2.0091
 KE= 7.817501066789D+02 PE=-4.326938681373D+03 EE= 1.500965262931D+03
 Leave Link  502 at Sun Jul 18 14:27:37 2021, MaxMem=   104857600 cpu:             229.3 elap:              57.4
 (Enter /prod/apps/gaussian/g16b1/l601.exe)
 Copying SCF densities to generalized density rwf, IOpCl= 0 IROHF=0.

 **********************************************************************

            Population analysis using the SCF Density.

 **********************************************************************

 Orbital symmetries:
       Occupied  (A) (A) (A) (A) (A) (A) (A) (A) (A) (A) (A) (A)
                 (A) (A) (A) (A) (A) (A) (A) (A) (A) (A) (A) (A)
                 (A) (A) (A) (A) (A) (A) (A) (A) (A) (A) (A) (A)
                 (A) (A) (A) (A) (A) (A) (A) (A) (A) (A) (A) (A)
                 (A) (A) (A) (A) (A) (A) (A) (A) (A) (A) (A) (A)
                 (A) (A) (A) (A) (A)
       Virtual   (A) (A) (A) (A) (A) (A) (A) (A) (A) (A) (A) (A)
                 (A) (A) (A) (A) (A) (A) (A) (A) (A) (A) (A) (A)
                 (A) (A) (A) (A) (A) (A) (A) (A) (A) (A) (A) (A)
                 (A) (A) (A) (A) (A) (A) (A) (A) (A) (A) (A) (A)
                 (A) (A) (A) (A) (A) (A) (A) (A) (A) (A) (A) (A)
                 (A) (A) (A) (A) (A) (A) (A) (A) (A) (A) (A) (A)
                 (A) (A) (A) (A) (A) (A) (A) (A) (A) (A) (A) (A)
                 (A) (A) (A) (A) (A) (A) (A) (A) (A) (A) (A) (A)
                 (A) (A) (A) (A) (A) (A) (A) (A) (A) (A) (A) (A)
                 (A) (A) (A) (A) (A) (A) (A) (A) (A) (A) (A) (A)
                 (A) (A) (A) (A) (A) (A) (A) (A) (A) (A) (A) (A)
                 (A) (A) (A) (A) (A) (A) (A) (A) (A) (A) (A) (A)
                 (A) (A) (A) (A) (A) (A) (A) (A) (A) (A) (A) (A)
                 (A) (A) (A) (A) (A) (A) (A) (A) (A) (A) (A) (A)
                 (A) (A) (A) (A) (A) (A) (A) (A) (A) (A) (A) (A)
                 (A) (A) (A) (A) (A) (A) (A) (A) (A) (A) (A) (A)
                 (A) (A) (A) (A) (A) (A) (A) (A) (A) (A) (A) (A)
                 (A) (A) (A) (A) (A) (A) (A) (A) (A) (A) (A) (A)
                 (A) (A) (A) (A) (A) (A) (A) (A) (A) (A) (A) (A)
                 (A) (A) (A) (A) (A) (A)
 The electronic state is 1-A.
 Alpha  occ. eigenvalues --  -19.17158 -19.16519 -19.13763 -14.45908 -10.26575
 Alpha  occ. eigenvalues --  -10.25961 -10.24864 -10.24720 -10.23796 -10.20081
 Alpha  occ. eigenvalues --  -10.19854 -10.19821 -10.19487 -10.19374 -10.19276
 Alpha  occ. eigenvalues --  -10.18790 -10.18715  -1.06356  -1.04024  -1.02692
 Alpha  occ. eigenvalues --   -0.99121  -0.86072  -0.82863  -0.78937  -0.76479
 Alpha  occ. eigenvalues --   -0.74387  -0.71111  -0.70903  -0.67715  -0.65137
 Alpha  occ. eigenvalues --   -0.62512  -0.62176  -0.60305  -0.57589  -0.53883
 Alpha  occ. eigenvalues --   -0.53154  -0.52095  -0.50596  -0.48791  -0.47551
 Alpha  occ. eigenvalues --   -0.46350  -0.46236  -0.45168  -0.44364  -0.43542
 Alpha  occ. eigenvalues --   -0.43414  -0.42191  -0.41791  -0.40443  -0.39993
 Alpha  occ. eigenvalues --   -0.39401  -0.39273  -0.38230  -0.37771  -0.36801
 Alpha  occ. eigenvalues --   -0.36366  -0.35889  -0.35319  -0.34526  -0.32517
 Alpha  occ. eigenvalues --   -0.32146  -0.28908  -0.27045  -0.24790  -0.22883
 Alpha virt. eigenvalues --   -0.01947   0.00220   0.03512   0.08171   0.08358
 Alpha virt. eigenvalues --    0.08982   0.09925   0.10199   0.10524   0.11054
 Alpha virt. eigenvalues --    0.11406   0.12287   0.13408   0.13571   0.14492
 Alpha virt. eigenvalues --    0.14926   0.15239   0.16010   0.16885   0.17207
 Alpha virt. eigenvalues --    0.17990   0.18656   0.19047   0.19500   0.20012
 Alpha virt. eigenvalues --    0.21308   0.21605   0.22078   0.22925   0.24119
 Alpha virt. eigenvalues --    0.24564   0.25103   0.26846   0.27409   0.28577
 Alpha virt. eigenvalues --    0.31127   0.33577   0.35002   0.35591   0.37865
 Alpha virt. eigenvalues --    0.47155   0.47959   0.48705   0.49615   0.50774
 Alpha virt. eigenvalues --    0.51120   0.52204   0.52508   0.53709   0.54783
 Alpha virt. eigenvalues --    0.55062   0.56342   0.56677   0.58209   0.59162
 Alpha virt. eigenvalues --    0.60100   0.60987   0.62300   0.62666   0.63888
 Alpha virt. eigenvalues --    0.64504   0.64713   0.66672   0.68177   0.68502
 Alpha virt. eigenvalues --    0.69863   0.71362   0.72619   0.73023   0.73576
 Alpha virt. eigenvalues --    0.74541   0.76599   0.77856   0.78228   0.79263
 Alpha virt. eigenvalues --    0.80296   0.81256   0.82141   0.83096   0.83821
 Alpha virt. eigenvalues --    0.84617   0.85757   0.85968   0.86632   0.87401
 Alpha virt. eigenvalues --    0.88457   0.88782   0.89649   0.90001   0.90959
 Alpha virt. eigenvalues --    0.91219   0.91737   0.92614   0.92917   0.93794
 Alpha virt. eigenvalues --    0.94628   0.95105   0.95977   0.97688   0.98233
 Alpha virt. eigenvalues --    0.98629   0.99677   1.00581   1.01967   1.02238
 Alpha virt. eigenvalues --    1.03071   1.04037   1.05204   1.07556   1.09021
 Alpha virt. eigenvalues --    1.11103   1.11431   1.14876   1.17836   1.18872
 Alpha virt. eigenvalues --    1.20756   1.21647   1.23588   1.26764   1.27335
 Alpha virt. eigenvalues --    1.30076   1.30500   1.32486   1.34894   1.37766
 Alpha virt. eigenvalues --    1.39998   1.42300   1.43441   1.46548   1.47214
 Alpha virt. eigenvalues --    1.47546   1.50762   1.54479   1.55691   1.58938
 Alpha virt. eigenvalues --    1.61800   1.65213   1.66452   1.67091   1.67825
 Alpha virt. eigenvalues --    1.69243   1.70354   1.72133   1.73080   1.74719
 Alpha virt. eigenvalues --    1.76534   1.77722   1.79220   1.80608   1.81451
 Alpha virt. eigenvalues --    1.82826   1.83683   1.86345   1.87293   1.89252
 Alpha virt. eigenvalues --    1.89358   1.91014   1.94436   1.95309   1.96291
 Alpha virt. eigenvalues --    1.98082   1.99813   2.00200   2.01280   2.02390
 Alpha virt. eigenvalues --    2.04405   2.06844   2.08119   2.09425   2.11231
 Alpha virt. eigenvalues --    2.11922   2.13973   2.14295   2.17395   2.20643
 Alpha virt. eigenvalues --    2.22324   2.22902   2.23310   2.25413   2.26361
 Alpha virt. eigenvalues --    2.27003   2.27104   2.28769   2.29511   2.31108
 Alpha virt. eigenvalues --    2.32435   2.33875   2.36224   2.37658   2.38609
 Alpha virt. eigenvalues --    2.40090   2.41299   2.45207   2.47018   2.47918
 Alpha virt. eigenvalues --    2.50403   2.54052   2.56919   2.57572   2.59266
 Alpha virt. eigenvalues --    2.63006   2.66215   2.67831   2.68846   2.69938
 Alpha virt. eigenvalues --    2.73228   2.75501   2.78144   2.79453   2.82402
 Alpha virt. eigenvalues --    2.83507   2.86307   2.93979   2.94787   2.99823
 Alpha virt. eigenvalues --    3.15530   3.40297   3.69706   3.82687   3.94148
 Alpha virt. eigenvalues --    3.98635   4.11335   4.13055   4.17929   4.22105
 Alpha virt. eigenvalues --    4.27626   4.30139   4.30483   4.31796   4.42971
 Alpha virt. eigenvalues --    4.47251   4.54483   4.64434   4.77785
          Condensed to atoms (all electrons):
               1          2          3          4          5          6
     1  C    5.183323   0.371606   0.372075   0.365660   0.390441  -0.056208
     2  H    0.371606   0.517916  -0.019235  -0.016447  -0.034092  -0.000398
     3  H    0.372075  -0.019235   0.533521  -0.035508  -0.030363   0.004480
     4  H    0.365660  -0.016447  -0.035508   0.536971  -0.029863  -0.006834
     5  C    0.390441  -0.034092  -0.030363  -0.029863   4.788021   0.392711
     6  C   -0.056208  -0.000398   0.004480  -0.006834   0.392711   5.141063
     7  H   -0.003642  -0.000071  -0.000064   0.003123  -0.025268   0.367782
     8  H    0.005391  -0.000121  -0.000213   0.000126  -0.032393   0.360000
     9  H   -0.002024   0.001166  -0.000000  -0.000029  -0.021014   0.378128
    10  C   -0.071576  -0.009458  -0.002198   0.006077   0.385128  -0.065281
    11  H   -0.011909   0.007461   0.000200   0.000351  -0.031432  -0.000302
    12  H    0.006752   0.000201  -0.000093  -0.000294  -0.043321  -0.008398
    13  H   -0.000071   0.000081   0.000542  -0.000113  -0.022617   0.003897
    14  N   -0.078233   0.005604  -0.004492  -0.001910   0.224607  -0.043860
    15  H   -0.005179   0.000027  -0.000968   0.004739  -0.020659  -0.002473
    16  C    0.006714  -0.000166   0.000293  -0.000293  -0.035033  -0.004660
    17  H    0.000450   0.000005  -0.000021  -0.000011  -0.005688  -0.003916
    18  H   -0.000027  -0.000002  -0.000011   0.000015  -0.003239   0.002149
    19  C   -0.000198   0.000003  -0.000005   0.000001   0.003424   0.000371
    20  O   -0.000004   0.000000  -0.000013   0.000000   0.000217  -0.000014
    21  H   -0.000002  -0.000001  -0.000044   0.000000   0.000283   0.000033
    22  H    0.000002  -0.000000   0.000000  -0.000000   0.000005   0.000005
    23  C    0.000003  -0.000000  -0.000001   0.000001  -0.000283  -0.000045
    24  C    0.000000  -0.000000   0.000000   0.000000   0.000002  -0.000002
    25  H   -0.000000   0.000000   0.000000   0.000000   0.000000   0.000000
    26  C    0.000000  -0.000000  -0.000000  -0.000000  -0.000000  -0.000000
    27  C   -0.000000   0.000000   0.000000  -0.000000   0.000000   0.000000
    28  O   -0.000000  -0.000000   0.000000   0.000000   0.000000  -0.000000
    29  H    0.000000   0.000000  -0.000000   0.000000  -0.000000   0.000000
    30  H    0.000000  -0.000000  -0.000000   0.000000  -0.000000  -0.000000
    31  H    0.000000   0.000000  -0.000000   0.000000  -0.000000   0.000000
    32  C   -0.000000   0.000000   0.000000   0.000000  -0.000000   0.000000
    33  O    0.000000  -0.000000  -0.000000   0.000000  -0.000000  -0.000000
    34  H   -0.000000  -0.000000   0.000000  -0.000000   0.000000  -0.000000
    35  C    0.000000  -0.000000   0.000000  -0.000000   0.000000  -0.000000
    36  H   -0.000000   0.000000  -0.000000  -0.000000   0.000000   0.000000
    37  C    0.000001  -0.000000   0.000000  -0.000001   0.000015  -0.000001
    38  H   -0.000005   0.000000   0.000006  -0.000000   0.000027   0.000000
    39  H   -0.002745  -0.000029   0.005081  -0.000470  -0.014698   0.003185
               7          8          9         10         11         12
     1  C   -0.003642   0.005391  -0.002024  -0.071576  -0.011909   0.006752
     2  H   -0.000071  -0.000121   0.001166  -0.009458   0.007461   0.000201
     3  H   -0.000064  -0.000213  -0.000000  -0.002198   0.000200  -0.000093
     4  H    0.003123   0.000126  -0.000029   0.006077   0.000351  -0.000294
     5  C   -0.025268  -0.032393  -0.021014   0.385128  -0.031432  -0.043321
     6  C    0.367782   0.360000   0.378128  -0.065281  -0.000302  -0.008398
     7  H    0.522739  -0.030545  -0.021694   0.004888  -0.000122   0.000304
     8  H   -0.030545   0.549380  -0.023735  -0.009085  -0.000057   0.007179
     9  H   -0.021694  -0.023735   0.487437  -0.001905   0.001095  -0.000180
    10  C    0.004888  -0.009085  -0.001905   5.191095   0.373842   0.367794
    11  H   -0.000122  -0.000057   0.001095   0.373842   0.520884  -0.023896
    12  H    0.000304   0.007179  -0.000180   0.367794  -0.023896   0.546821
    13  H   -0.000136  -0.000045   0.000033   0.370769  -0.023460  -0.024892
    14  N   -0.001603  -0.005080   0.002734  -0.067821   0.004867   0.000336
    15  H    0.001959  -0.000167  -0.000058   0.005668  -0.000103  -0.000317
    16  C   -0.000776   0.003855   0.000131  -0.008099   0.000396  -0.000971
    17  H    0.000162   0.000842  -0.000059   0.009580  -0.000009   0.000921
    18  H    0.000710   0.000573   0.000064  -0.000227  -0.000018   0.000133
    19  C   -0.000023   0.000127  -0.000004  -0.000278   0.000002  -0.000056
    20  O    0.000000  -0.000001   0.000000  -0.000014   0.000000   0.000001
    21  H   -0.000002  -0.000001  -0.000000  -0.000244   0.000000   0.000010
    22  H   -0.000000   0.000006   0.000000  -0.000018  -0.000000   0.000008
    23  C    0.000005  -0.000014  -0.000000   0.000011   0.000000  -0.000003
    24  C    0.000001  -0.000002  -0.000000  -0.000000   0.000000  -0.000000
    25  H   -0.000000  -0.000001   0.000000   0.000000  -0.000000  -0.000000
    26  C   -0.000000   0.000000   0.000000  -0.000000   0.000000   0.000000
    27  C   -0.000000  -0.000000  -0.000000  -0.000000  -0.000000  -0.000000
    28  O   -0.000000   0.000000  -0.000000  -0.000000   0.000000  -0.000000
    29  H   -0.000000  -0.000000   0.000000   0.000000  -0.000000   0.000000
    30  H    0.000000   0.000000   0.000000   0.000000   0.000000  -0.000000
    31  H   -0.000000  -0.000000   0.000000   0.000000  -0.000000  -0.000000
    32  C   -0.000000  -0.000000   0.000000   0.000000   0.000000  -0.000000
    33  O    0.000000   0.000000  -0.000000   0.000000   0.000000   0.000000
    34  H    0.000000  -0.000000  -0.000000  -0.000000  -0.000000   0.000000
    35  C   -0.000000   0.000000   0.000000   0.000000  -0.000000   0.000000
    36  H    0.000000  -0.000000   0.000000  -0.000000  -0.000000  -0.000000
    37  C   -0.000000  -0.000000  -0.000000  -0.000001  -0.000000   0.000000
    38  H   -0.000000  -0.000000  -0.000000   0.000000  -0.000000  -0.000000
    39  H   -0.000078  -0.000231  -0.000032  -0.003234   0.000032  -0.000319
              13         14         15         16         17         18
     1  C   -0.000071  -0.078233  -0.005179   0.006714   0.000450  -0.000027
     2  H    0.000081   0.005604   0.000027  -0.000166   0.000005  -0.000002
     3  H    0.000542  -0.004492  -0.000968   0.000293  -0.000021  -0.000011
     4  H   -0.000113  -0.001910   0.004739  -0.000293  -0.000011   0.000015
     5  C   -0.022617   0.224607  -0.020659  -0.035033  -0.005688  -0.003239
     6  C    0.003897  -0.043860  -0.002473  -0.004660  -0.003916   0.002149
     7  H   -0.000136  -0.001603   0.001959  -0.000776   0.000162   0.000710
     8  H   -0.000045  -0.005080  -0.000167   0.003855   0.000842   0.000573
     9  H    0.000033   0.002734  -0.000058   0.000131  -0.000059   0.000064
    10  C    0.370769  -0.067821   0.005668  -0.008099   0.009580  -0.000227
    11  H   -0.023460   0.004867  -0.000103   0.000396  -0.000009  -0.000018
    12  H   -0.024892   0.000336  -0.000317  -0.000971   0.000921   0.000133
    13  H    0.506688  -0.004713   0.000019  -0.001053   0.000446   0.000035
    14  N   -0.004713   6.920379   0.290046   0.218952  -0.048636  -0.025533
    15  H    0.000019   0.290046   0.282419  -0.021792   0.004567  -0.002591
    16  C   -0.001053   0.218952  -0.021792   5.192438   0.368104   0.365133
    17  H    0.000446  -0.048636   0.004567   0.368104   0.523217  -0.027707
    18  H    0.000035  -0.025533  -0.002591   0.365133  -0.027707   0.471701
    19  C    0.000013  -0.021379  -0.001512   0.309394  -0.035629  -0.024151
    20  O    0.000027  -0.011502   0.000265  -0.036166   0.001379   0.002618
    21  H   -0.000001   0.017461  -0.000852  -0.027101   0.000187   0.000462
    22  H   -0.000004   0.003111  -0.000063  -0.041137  -0.008070   0.001833
    23  C    0.000002  -0.004549   0.002796  -0.052012   0.006868  -0.000685
    24  C   -0.000000   0.000085   0.000028  -0.003998   0.000047   0.001279
    25  H    0.000000   0.000001  -0.000003   0.000861  -0.000099   0.000430
[...]
    35  C   -0.000452   0.005617  -0.000780   0.002234   0.000396  -0.000600
    36  H   -0.000094   0.000024  -0.000014   0.000066  -0.000004   0.000035
    37  C    0.000835  -0.001082  -0.003037   0.007191  -0.000841   0.002843
    38  H    0.000135   0.000118  -0.000024  -0.000123   0.000140  -0.000091
    39  H   -0.009092   0.009756  -0.001406  -0.007419   0.006696  -0.026515
              13         14         15         16         17         18
     1  C   -0.057580   0.258176  -0.084939  -0.010610   0.032282  -0.028884
     2  H    0.001240   0.054934  -0.014493   0.044186  -0.001613  -0.002124
     3  H   -0.046311  -0.059320   0.012352  -0.007941  -0.001440   0.011454
     4  H    0.014207  -0.048530  -0.009641  -0.037164   0.005397  -0.012103
     5  C    0.191093  -2.126811   0.023622  -0.098563  -0.026368   0.038548
     6  C   -0.004226   0.124300  -0.011404  -0.081198  -0.002257   0.011085
     7  H   -0.011057  -0.087645   0.032549   0.096877   0.005068  -0.004552
     8  H    0.018198  -0.157279  -0.014453   0.008811  -0.013768   0.012011
     9  H    0.004258   0.142810  -0.003609  -0.050960   0.001235   0.007270
    10  C    0.147872  -0.016152   0.017208   0.074948   0.010633   0.034811
    11  H   -0.284882   0.058177   0.000146  -0.058154   0.019737  -0.011961
    12  H   -0.264060  -0.022193   0.013637   0.145022  -0.031427   0.011372
    13  H    1.332633  -0.069287  -0.004762   0.039554  -0.023075   0.003366
    14  N   -0.069287   9.580609   0.305008  -0.499620  -0.142580  -0.112032
    15  H   -0.004762   0.305008   0.611207   0.056139   0.004293  -0.030648
    16  C    0.039554  -0.499620   0.056139   6.344532   0.082840  -0.182691
    17  H   -0.023075  -0.142580   0.004293   0.082840   1.734976  -0.291191
    18  H    0.003366  -0.112032  -0.030648  -0.182691  -0.291191   1.945657
    19  C   -0.011836   0.200604  -0.185546   0.125304  -0.012905  -0.155286
    20  O   -0.000963  -0.031082  -0.001396   0.055226   0.038962   0.049147
    21  H    0.000994  -0.001832   0.007209  -0.075951  -0.013597   0.006698
    22  H   -0.000817   0.036900   0.004769  -0.026775  -0.076889  -0.051838
    23  C    0.008250  -0.045521   0.025950  -0.387160  -0.100226   0.077731
    24  C   -0.000618   0.054955   0.106484  -0.606562   0.104394  -0.104119
    25  H   -0.000058  -0.061117  -0.009231   0.110112   0.002197  -0.009516
    26  C   -0.002710   0.115057  -0.018207  -0.178571   0.023304  -0.125258
    27  C    0.000107  -0.007655  -0.006417  -0.032235  -0.002682   0.011395
    28  O    0.000004  -0.001404  -0.000926  -0.001974  -0.000179   0.001117
    29  H   -0.000002  -0.000186  -0.000714   0.000561   0.000019   0.000242
    30  H    0.000009  -0.000479   0.001480  -0.003233  -0.000385   0.000717
    31  H   -0.000042   0.005797   0.002998   0.007603   0.001089  -0.004938
    32  C    0.000781  -0.032766   0.026865  -0.002969   0.001806   0.023508
    33  O   -0.000013  -0.000042  -0.001658   0.001339   0.000217  -0.001001
    34  H    0.000006   0.000092   0.000984  -0.000089   0.000074   0.000097
    35  C    0.000321   0.102370   0.015088  -0.005745  -0.009948  -0.036185
    36  H   -0.000015  -0.000731  -0.004934   0.001051  -0.000330   0.001001
    37  C    0.005548  -0.209029   0.023381   0.253740  -0.090545   0.174948
    38  H    0.000291   0.016059   0.000142  -0.002751   0.007449  -0.004264
    39  H    0.015600   0.299015  -0.116544  -0.028807  -0.015400   0.023655
              19         20         21         22         23         24
     1  C   -0.003183  -0.001849  -0.006034  -0.001515  -0.042319  -0.021338
     2  H   -0.002780  -0.000496   0.001024   0.000212  -0.000036  -0.000155
     3  H   -0.003543   0.001517  -0.000453  -0.000545  -0.003693   0.001010
     4  H    0.018485  -0.000129  -0.002490  -0.000091  -0.004101  -0.010139
     5  C   -0.074949   0.012646   0.010664   0.003042   0.089289  -0.269445
     6  C    0.042443  -0.001579   0.000027  -0.004894  -0.058629   0.086449
     7  H   -0.021418   0.000317   0.000584  -0.001318   0.006666   0.004188
     8  H    0.032748   0.000389  -0.000344  -0.002240   0.009407   0.006477
     9  H    0.001686  -0.000009  -0.000011   0.000197  -0.005246   0.000599
    10  C   -0.027304   0.006433   0.005442  -0.002532   0.012879  -0.004295
    11  H    0.024539   0.001121  -0.000612   0.000608  -0.000233   0.000794
    12  H   -0.060876  -0.000464   0.001029   0.001661   0.013949  -0.007387
    13  H   -0.011836  -0.000963   0.000994  -0.000817   0.008250  -0.000618
    14  N    0.200604  -0.031082  -0.001832   0.036900  -0.045521   0.054955
    15  H   -0.185546  -0.001396   0.007209   0.004769   0.025950   0.106484
    16  C    0.125304   0.055226  -0.075951  -0.026775  -0.387160  -0.606562
    17  H   -0.012905   0.038962  -0.013597  -0.076889  -0.100226   0.104394
    18  H   -0.155286   0.049147   0.006698  -0.051838   0.077731  -0.104119
    19  C   10.366186  -0.430851  -0.086842  -0.339608  -1.299844  -1.066007
    20  O   -0.430851   8.947937   0.275617  -0.128660   0.084753  -0.151914
    21  H   -0.086842   0.275617   0.569863   0.006814   0.132670   0.075986
    22  H   -0.339608  -0.128660   0.006814   1.468751   0.054876   0.056652
    23  C   -1.299844   0.084753   0.132670   0.054876  21.891152  -7.065847
    24  C   -1.066007  -0.151914   0.075986   0.056652  -7.065847  26.141281
    25  H   -0.186820   0.017187   0.001668  -0.030886   1.136648  -2.594781
    26  C   -0.231590  -0.058528   0.006661  -0.044992   2.115237  -6.124556
    27  C   -0.128507  -0.002620   0.000960   0.005633  -0.766675  -1.332093
    28  O    0.002285  -0.000020  -0.000032   0.000326  -0.033922  -0.061358
    29  H    0.000465  -0.000020  -0.000067   0.000047   0.030912   0.033152
    30  H   -0.009833   0.000199   0.000198  -0.000396  -0.056005  -0.155388
    31  H    0.007113  -0.000810  -0.000069   0.001969   0.011577   0.271893
    32  C   -0.036644   0.033472  -0.009514   0.007720  -5.799670   2.298082
    33  O    0.012998  -0.000679  -0.000138   0.000915   0.240982  -0.226195
    34  H   -0.000812   0.000038   0.000124  -0.000095  -0.024208   0.066843
    35  C    0.153088  -0.111972   0.005325   0.020732   3.271586  -5.385763
    36  H    0.026218   0.002311   0.001204  -0.000552  -0.446297   0.097482
    37  C   -1.782166   0.275779  -0.066557   0.148726  -8.095453   0.427377
    38  H    0.214518  -0.094938   0.008644   0.013662   0.816024   0.125720
    39  H    0.026071   0.019181   0.011090   0.008191  -0.075515  -0.130034
              25         26         27         28         29         30
     1  C    0.004445   0.027110  -0.000074   0.000816   0.000149  -0.000400
     2  H    0.001221   0.000336   0.000085   0.000063   0.000010   0.000000
     3  H   -0.004272   0.001906   0.000193   0.000044  -0.000016  -0.000007
     4  H    0.006044  -0.000835   0.000205   0.000117   0.000104  -0.000140
     5  C    0.038834  -0.052119  -0.003517  -0.001291  -0.000049   0.001485
     6  C   -0.014739   0.013628   0.001782  -0.000575  -0.000083  -0.000666
     7  H   -0.010286  -0.007433  -0.001515   0.000236  -0.000036  -0.000065
     8  H    0.009625  -0.011645  -0.002146   0.000084  -0.000055  -0.000029
     9  H    0.000159   0.005553   0.000373  -0.000152   0.000008  -0.000048
    10  C    0.010748  -0.006551   0.000271  -0.000041   0.000030  -0.000026
    11  H    0.001982   0.000343  -0.000069  -0.000005  -0.000001  -0.000008
    12  H   -0.001158   0.001351   0.000269   0.000010   0.000009   0.000034
    13  H   -0.000058  -0.002710   0.000107   0.000004  -0.000002   0.000009
    14  N   -0.061117   0.115057  -0.007655  -0.001404  -0.000186  -0.000479
    15  H   -0.009231  -0.018207  -0.006417  -0.000926  -0.000714   0.001480
    16  C    0.110112  -0.178571  -0.032235  -0.001974   0.000561  -0.003233
    17  H    0.002197   0.023304  -0.002682  -0.000179   0.000019  -0.000385
    18  H   -0.009516  -0.125258   0.011395   0.001117   0.000242   0.000717
    19  C   -0.186820  -0.231590  -0.128507   0.002285   0.000465  -0.009833
    20  O    0.017187  -0.058528  -0.002620  -0.000020  -0.000020   0.000199
    21  H    0.001668   0.006661   0.000960  -0.000032  -0.000067   0.000198
    22  H   -0.030886  -0.044992   0.005633   0.000326   0.000047  -0.000396
    23  C    1.136648   2.115237  -0.766675  -0.033922   0.030912  -0.056005
    24  C   -2.594781  -6.124556  -1.332093  -0.061358   0.033152  -0.155388
    25  H    2.968990   0.667592  -0.059484  -0.026518   0.000701   0.010088
    26  C    0.667592  17.162613  -0.729848  -0.086716   0.214320   0.088645
    27  C   -0.059484  -0.729848   7.017950   0.218975  -0.139945   0.276058
    28  O   -0.026518  -0.086716   0.218975   8.478626   0.310180   0.027220
    29  H    0.000701   0.214320  -0.139945   0.310180   0.518538  -0.024759
    30  H    0.010088   0.088645   0.276058   0.027220  -0.024759   0.817307
    31  H   -0.091248   0.056615  -0.108890  -0.029755   0.021604  -0.175425
    32  C   -0.346347  -3.880413  -0.019807   0.011358  -0.108543   0.087115
    33  O   -0.000160   0.390254   0.063695  -0.037104   0.014184   0.000132
    34  H   -0.002869  -0.062492  -0.024853   0.002606  -0.001348  -0.002600
    35  C    0.158347   2.592891   0.293480  -0.059880  -0.071035   0.067888
    36  H    0.008978  -0.243767   0.031635   0.000907   0.000550   0.002439
    37  C    0.052324  -4.875098   0.295316   0.011475  -0.001266   0.003757
    38  H   -0.016734  -0.042042  -0.014377   0.000552  -0.000111  -0.000677
    39  H    0.021379   0.012862  -0.002528  -0.000193   0.000232  -0.000242
              31         32         33         34         35         36
     1  C    0.001305  -0.007109   0.000409  -0.000112  -0.010589   0.000305
     2  H   -0.000045  -0.000024   0.000010  -0.000009  -0.000498   0.000029
     3  H    0.000241   0.000747   0.000001   0.000017  -0.001845  -0.000089
     4  H   -0.000688  -0.006954   0.000429  -0.000105   0.002909   0.000334
     5  C   -0.008643  -0.027124  -0.000618  -0.000114   0.059272   0.000974
     6  C    0.003889   0.015022   0.000070   0.000104  -0.009798  -0.000276
     7  H    0.001559   0.002275  -0.000349   0.000027  -0.000452  -0.000094
     8  H   -0.001318  -0.004601   0.000070   0.000006   0.005617   0.000024
     9  H    0.000587   0.000916   0.000003   0.000003  -0.000780  -0.000014
    10  C   -0.000333  -0.001627  -0.000024  -0.000016   0.002234   0.000066
    11  H   -0.000015  -0.000260   0.000001   0.000001   0.000396  -0.000004
    12  H   -0.000076  -0.000064  -0.000011  -0.000012  -0.000600   0.000035
    13  H   -0.000042   0.000781  -0.000013   0.000006   0.000321  -0.000015
    14  N    0.005797  -0.032766  -0.000042   0.000092   0.102370  -0.000731
    15  H    0.002998   0.026865  -0.001658   0.000984   0.015088  -0.004934
    16  C    0.007603  -0.002969   0.001339  -0.000089  -0.005745   0.001051
    17  H    0.001089   0.001806   0.000217   0.000074  -0.009948  -0.000330
    18  H   -0.004938   0.023508  -0.001001   0.000097  -0.036185   0.001001
    19  C    0.007113  -0.036644   0.012998  -0.000812   0.153088   0.026218
    20  O   -0.000810   0.033472  -0.000679   0.000038  -0.111972   0.002311
    21  H   -0.000069  -0.009514  -0.000138   0.000124   0.005325   0.001204
    22  H    0.001969   0.007720   0.000915  -0.000095   0.020732  -0.000552
    23  C    0.011577  -5.799670   0.240982  -0.024208   3.271586  -0.446297
    24  C    0.271893   2.298082  -0.226195   0.066843  -5.385763   0.097482
    25  H   -0.091248  -0.346347  -0.000160  -0.002869   0.158347   0.008978
    26  C    0.056615  -3.880413   0.390254  -0.062492   2.592891  -0.243767
    27  C   -0.108890  -0.019807   0.063695  -0.024853   0.293480   0.031635
    28  O   -0.029755   0.011358  -0.037104   0.002606  -0.059880   0.000907
    29  H    0.021604  -0.108543   0.014184  -0.001348  -0.071035   0.000550
    30  H   -0.175425   0.087115   0.000132  -0.002600   0.067888   0.002439
    31  H    1.410115  -0.051783  -0.006248   0.003462  -0.060302  -0.000790
    32  C   -0.051783  17.047195  -1.503707   0.026838  -7.764304   1.371724
    33  O   -0.006248  -1.503707   9.299001   0.283268   0.787781  -0.134030
    34  H    0.003462   0.026838   0.283268   0.501007  -0.084404   0.009279
    35  C   -0.060302  -7.764304   0.787781  -0.084404  19.151428  -1.775431
    36  H   -0.000790   1.371724  -0.134030   0.009279  -1.775431   2.051011
    37  C    0.030438   3.772392  -0.116649   0.047649  -6.290940   0.738743
    38  H   -0.001254  -0.244839  -0.000907  -0.000255   0.630414  -0.117839
    39  H   -0.000595  -0.021781   0.000619  -0.000417   0.023516   0.000909
              37         38         39
     1  C   -0.018924  -0.002975   0.004073
     2  H   -0.000625  -0.000176   0.002121
     3  H   -0.000133  -0.000288  -0.011326
     4  H   -0.001296   0.000063  -0.003779
     5  C    0.047372   0.001605  -0.022338
     6  C   -0.034025   0.000164  -0.004264
     7  H    0.000835   0.000135  -0.009092
     8  H   -0.001082   0.000118   0.009756
     9  H   -0.003037  -0.000024  -0.001406
    10  C    0.007191  -0.000123  -0.007419
    11  H   -0.000841   0.000140   0.006696
    12  H    0.002843  -0.000091  -0.026515
    13  H    0.005548   0.000291   0.015600
    14  N   -0.209029   0.016059   0.299015
    15  H    0.023381   0.000142  -0.116544
    16  C    0.253740  -0.002751  -0.028807
    17  H   -0.090545   0.007449  -0.015400
    18  H    0.174948  -0.004264   0.023655
    19  C   -1.782166   0.214518   0.026071
    20  O    0.275779  -0.094938   0.019181
    21  H   -0.066557   0.008644   0.011090
    22  H    0.148726   0.013662   0.008191
    23  C   -8.095453   0.816024  -0.075515
    24  C    0.427377   0.125720  -0.130034
    25  H    0.052324  -0.016734   0.021379
    26  C   -4.875098  -0.042042   0.012862
    27  C    0.295316  -0.014377  -0.002528
    28  O    0.011475   0.000552  -0.000193
    29  H   -0.001266  -0.000111   0.000232
    30  H    0.003757  -0.000677  -0.000242
    31  H    0.030438  -0.001254  -0.000595
    32  C    3.772392  -0.244839  -0.021781
    33  O   -0.116649  -0.000907   0.000619
    34  H    0.047649  -0.000255  -0.000417
    35  C   -6.290940   0.630414   0.023516
    36  H    0.738743  -0.117839   0.000909
    37  C   22.735111  -1.820327   0.063828
    38  H   -1.820327   2.259553   0.001458
    39  H    0.063828   0.001458   0.724576
 Mulliken charges:
               1
     1  C    1.351865
     2  H    0.024921
     3  H    0.008738
     4  H    0.010941
     5  C   -3.420847
     6  C    1.244767
     7  H    0.022428
     8  H   -0.019352
     9  H   -0.015706
    10  C    1.279758
    11  H    0.007053
    12  H   -0.011557
    13  H   -0.002016
    14  N   -0.621574
    15  H    0.228011
    16  C    0.931878
    17  H   -0.219168
    18  H   -0.277237
    19  C    0.904397
    20  O   -0.803254
    21  H    0.134047
    22  H   -0.127757
    23  C    0.280063
    24  C    1.358174
    25  H   -0.763048
    26  C   -0.712907
    27  C    1.167555
    28  O   -0.724954
    29  H    0.202217
    30  H    0.046040
    31  H   -0.296588
    32  C    1.143033
    33  O   -1.066844
    34  H    0.262287
    35  C    0.335788
    36  H   -0.622016
    37  C    0.289218
    38  H   -0.731722
    39  H    0.203369
 Sum of Mulliken charges =   1.00000
 Mulliken charges with hydrogens summed into heavy atoms:
               1
     1  C    1.396464
     5  C   -3.420847
     6  C    1.232137
    10  C    1.273239
    14  N   -0.190194
    16  C    0.435472
    19  C    0.776640
    20  O   -0.669207
    23  C    0.280063
    24  C    0.595126
    26  C   -0.712907
    27  C    0.917007
    28  O   -0.522738
    32  C    1.143033
    33  O   -0.804557
    35  C   -0.286228
    37  C   -0.442503
 Electronic spatial extent (au):  <R**2>=           5465.8939
 Charge=              1.0000 electrons
 Dipole moment (field-independent basis, Debye):
    X=             -7.7981    Y=             -1.0445    Z=             -2.1562  Tot=              8.1579
 Quadrupole moment (field-independent basis, Debye-Ang):
   XX=            -49.5099   YY=           -105.5626   ZZ=            -88.7297
   XY=            -16.3389   XZ=             -4.1129   YZ=              6.3968
 Traceless Quadrupole moment (field-independent basis, Debye-Ang):
   XX=             31.7575   YY=            -24.2952   ZZ=             -7.4623
   XY=            -16.3389   XZ=             -4.1129   YZ=              6.3968
 Octapole moment (field-independent basis, Debye-Ang**2):
  XXX=            -35.4083  YYY=             -1.8863  ZZZ=             -5.9946  XYY=            -28.0300
  XXY=              1.6476  XXZ=            -59.6055  XZZ=              4.6849  YZZ=             -4.2993
  YYZ=            -16.3666  XYZ=             14.7692
 Hexadecapole moment (field-independent basis, Debye-Ang**3):
 XXXX=          -3900.1691 YYYY=          -1708.5291 ZZZZ=           -554.2589 XXXY=           -171.3946
 XXXZ=           -192.4467 YYYX=           -128.2189 YYYZ=             42.4847 ZZZX=            -36.8158
 ZZZY=             -0.9808 XXYY=          -1049.4213 XXZZ=           -763.0762 YYZZ=           -311.9432
 XXYZ=             36.5669 YYXZ=             -6.1049 ZZXY=             15.7235
 N-N= 1.276183136408D+03 E-N=-4.368434063299D+03  KE= 7.830006803042D+02
 Leave Link  601 at Sun Jul 18 17:09:16 2021, MaxMem=   262144000 cpu:               1.5 elap:               0.7
 (Enter /prod/apps/gaussian/g16b1/l9999.exe)
 1\1\GINC-PIRINEUS35\SP\RMP2-FC\Aug-CC-pVDZ\C13H22N1O3(1+)\UBATOR02\18-
 Jul-2021\0\\#p mp2/aug-cc-pVDZ scf=tight maxdisk=180GB geom=allcheck\\
 SET_328_BBB301_conf1.geo_090_105_105 geometry\\1,1\C,0,-2.3192223796,2
 .1867725416,1.7587654054\H,0,-3.268704985,2.2926071739,2.2876705131\H,
 0,-1.9592241912,3.1878719906,1.5044296098\H,0,-1.602103281,1.716672846
 3,2.4384168127\C,0,-2.5399470139,1.3402082233,0.5035312078\C,0,-3.0258
 548634,-0.0627233123,0.8662463836\H,0,-2.3091340418,-0.5822293874,1.50
 945178\H,0,-3.2152398438,-0.6741646591,-0.0198612157\H,0,-3.9674935574
 ,0.02738639,1.4139977239\C,0,-3.5003351647,2.038039558,-0.4561476175\H
 ,0,-4.4476643721,2.2025599893,0.0607873025\H,0,-3.7082818599,1.4371420
 434,-1.3442010965\H,0,-3.1147998562,3.0119540051,-0.7699869189\N,0,-1.
 1637667735,1.2303854857,-0.1708565716\H,0,-0.5096369463,0.8091405083,0
 .5066712878\C,0,-1.0822439894,0.47243506,-1.4612371047\H,0,-1.77980704
 37,0.9358440808,-2.1548796611\H,0,-1.4015775513,-0.5484853041,-1.26329
 14609\C,0,0.3237970999,0.4994297122,-2.0810905242\O,0,0.6622965369,1.8
 028922516,-2.52935265\H,0,0.8753921273,2.3551887367,-1.7550190779\H,0,
 0.2255491718,-0.0870120206,-3.0021513668\C,0,1.404082718,-0.1361214899
 ,-1.2151407602\C,0,1.1868487799,-1.3599307371,-0.5641793294\H,0,0.2253
 37949,-1.8591378635,-0.6501584708\C,0,2.1768938449,-1.9804706106,0.192
 5386121\C,0,1.9477951201,-3.3047378451,0.8844107402\O,0,2.1615447968,-
 3.2444400786,2.295130966\H,0,3.1002610191,-3.0132273889,2.4112602395\H
 ,0,2.5915300035,-4.0737122041,0.4333835653\H,0,0.9108282718,-3.6200724
 58,0.7404868655\C,0,3.4284263437,-1.3497365982,0.3071378307\O,0,4.3640
 207909,-1.9977117638,1.0656358288\H,0,5.1820626219,-1.468998454,1.1199
 855945\C,0,3.6707052397,-0.1366016011,-0.3351978251\H,0,4.6407416957,0
 .3418225821,-0.2514649721\C,0,2.6621243263,0.4584964328,-1.0949987632\
 H,0,2.8655634223,1.3905299198,-1.6100513039\H,0,-0.8217641652,2.191134
 2449,-0.3286715785\\Version=ES64L-G16RevB.01\State=1-A\HF=-784.0215875
 \MP2=-786.6588091\RMSD=4.504e-09\PG=C01 [X(C13H22N1O3)]\\@


 My opinions may have changed, but not the fact that I am right.
                       -- Ashleigh Brilliant
 Job cpu time:       0 days  5 hours 25 minutes 21.9 seconds.
 Elapsed time:       0 days  1 hours 40 minutes  7.9 seconds.
 File lengths (MBytes):  RWF= 102750 Int=      0 D2E=      0 Chk=     28 Scr=      1
 Normal termination of Gaussian 16 at Sun Jul 18 17:09:19 2021.
