 Entering Gaussian System, Link 0=g16
 Initial command:
 /prod/apps/gaussian/g16b1/l1.exe "/tmp/ubator02/1839660/Gau-189350.inp" -scrdir="/tmp/ubator02/1839660/"
 Entering Link 1 = /prod/apps/gaussian/g16b1/l1.exe PID=    189351.
  
 Copyright (c) 1988-2017, Gaussian, Inc.  All Rights Reserved.
  
 This is part of the Gaussian(R) 16 program.  It is based on
 the Gaussian(R) 09 system (copyright 2009, Gaussian, Inc.),
 the Gaussian(R) 03 system (copyright 2003, Gaussian, Inc.),
 the Gaussian(R) 98 system (copyright 1998, Gaussian, Inc.),
 the Gaussian(R) 94 system (copyright 1995, Gaussian, Inc.),
 the Gaussian 92(TM) system (copyright 1992, Gaussian, Inc.),
 the Gaussian 90(TM) system (copyright 1990, Gaussian, Inc.),
 the Gaussian 88(TM) system (copyright 1988, Gaussian, Inc.),
 the Gaussian 86(TM) system (copyright 1986, Carnegie Mellon
 University), and the Gaussian 82(TM) system (copyright 1983,
 Carnegie Mellon University). Gaussian is a federally registered
 trademark of Gaussian, Inc.
  
 This software contains proprietary and confidential information,
 including trade secrets, belonging to Gaussian, Inc.
  
 This software is provided under written license and may be
 used, copied, transmitted, or stored only in accord with that
 written license.
  
 The following legend is applicable only to US Government
 contracts under FAR:
  
                    RESTRICTED RIGHTS LEGEND
  
 Use, reproduction and disclosure by the US Government is
 subject to restrictions as set forth in subparagraphs (a)
 and (c) of the Commercial Computer Software - Restricted
 Rights clause in FAR 52.227-19.
  
 Gaussian, Inc.
 340 Quinnipiac St., Bldg. 40, Wallingford CT 06492
  
  
 ---------------------------------------------------------------
 Warning -- This program may not be used in any manner that
 competes with the business of Gaussian, Inc. or will provide
 assistance to any competitor of Gaussian, Inc.  The licensee
 of this program is prohibited from giving any competitor of
 Gaussian, Inc. access to this program.  By using this program,
 the user acknowledges that Gaussian, Inc. is engaged in the
 business of creating and licensing software in the field of
 computational chemistry and represents and warrants to the
 licensee that it is not a competitor of Gaussian, Inc. and that
 it will not use this program in any manner prohibited above.
 ---------------------------------------------------------------
  

 Cite this work as:
 Gaussian 16, Revision B.01,
 M. J. Frisch, G. W. Trucks, H. B. Schlegel, G. E. Scuseria, 
 M. A. Robb, J. R. Cheeseman, G. Scalmani, V. Barone, 
 G. A. Petersson, H. Nakatsuji, X. Li, M. Caricato, A. V. Marenich, 
 J. Bloino, B. G. Janesko, R. Gomperts, B. Mennucci, H. P. Hratchian, 
 J. V. Ortiz, A. F. Izmaylov, J. L. Sonnenberg, D. Williams-Young, 
 F. Ding, F. Lipparini, F. Egidi, J. Goings, B. Peng, A. Petrone, 
 T. Henderson, D. Ranasinghe, V. G. Zakrzewski, J. Gao, N. Rega, 
 G. Zheng, W. Liang, M. Hada, M. Ehara, K. Toyota, R. Fukuda, 
 J. Hasegawa, M. Ishida, T. Nakajima, Y. Honda, O. Kitao, H. Nakai, 
 T. Vreven, K. Throssell, J. A. Montgomery, Jr., J. E. Peralta, 
 F. Ogliaro, M. J. Bearpark, J. J. Heyd, E. N. Brothers, K. N. Kudin, 
 V. N. Staroverov, T. A. Keith, R. Kobayashi, J. Normand, 
 K. Raghavachari, A. P. Rendell, J. C. Burant, S. S. Iyengar, 
 J. Tomasi, M. Cossi, J. M. Millam, M. Klene, C. Adamo, R. Cammi, 
 J. W. Ochterski, R. L. Martin, K. Morokuma, O. Farkas, 
 J. B. Foresman, and D. J. Fox, Gaussian, Inc., Wallingford CT, 2016.
 
 ******************************************
 Gaussian 16:  ES64L-G16RevB.01 20-Dec-2017
                18-Jul-2021 
 ******************************************
 %mem=800MB
 %nproc=4
 Will use up to    4 processors via shared memory.
 %chk=SET_328_BBB321_conf1.geo_165_150_255.chk
 -----------------------------------------------------------
 #p b3lyp/6-31G(d) opt freq scrf=(iefpcm,read,solvent=water)
 -----------------------------------------------------------
 1/18=20,19=15,26=3,38=1,40=2/1,3;
 2/9=110,12=2,17=6,18=5,40=1/2;
 3/5=1,6=6,7=1,11=2,25=1,30=1,70=2203,71=1,72=1,74=-5/1,2,3;
 4//1;
 5/5=2,38=5,53=1/2;
 6/7=2,8=2,9=2,10=2,28=1/1;
 7//1,2,3,16;
 1/18=20,19=15,26=3/3(2);
 2/9=110/2;
 99//99;
 2/9=110/2;
 3/5=1,6=6,7=1,11=2,25=1,30=1,70=2205,71=1,72=1,74=-5/1,2,3;
 4/5=5,16=3,69=1/1;
 5/5=2,38=5,53=1/2;
 7//1,2,3,16;
 1/18=20,19=15,26=3/3(-5);
 2/9=110/2;
 6/7=2,8=2,9=2,10=2,19=2,28=1/1;
 99/9=1/99;
 Leave Link    1 at Sun Jul 18 15:17:04 2021, MaxMem=   104857600 cpu:               0.1 elap:               0.0
 (Enter /prod/apps/gaussian/g16b1/l101.exe)
 ---------------------------------------------
 SET_328_BBB321_conf1.geo_165_150_255 geometry
 ---------------------------------------------
 Symbolic Z-matrix:
 Charge =  1 Multiplicity = 1
 C                    -1.686    -0.517    -5.685 
 H                    -1.278    -1.509    -5.888 
 H                    -1.209     0.279    -6.26 
 H                    -2.737    -0.533    -5.982 
 C                    -1.738    -0.173    -4.23 
 O                    -2.173     0.86     -3.792 
 N                    -1.174    -1.109    -3.447 
 H                    -0.652    -1.872    -3.851 
 C                    -1.264    -1.011    -2.073 
 C                    -2.532    -1.253    -1.494 
 C                    -2.624    -1.097    -0.157 
 C                    -1.494    -0.819     0.628 
 H                    -1.547    -0.834     1.714 
 H                    -3.566    -1.222     0.372 
 H                    -3.335    -1.53     -2.172 
 C                    -0.173    -0.556    -1.334 
 H                     0.731    -0.242    -1.849 
 C                    -0.227    -0.571     0.04 
 C                     0.934    -0.298     0.902 
 N                     0.957     0.23      2.17 
 C                     2.107    -0.897     0.529 
 H                     2.217    -1.558    -0.322 
 S                     3.322    -0.591     1.68 
 C                     2.14      0.176     2.703 
 N                     2.57      0.757     3.874 
 C                     1.852     1.545     4.514 
 N                     1.436     2.64      4.017 
 H                     1.772     2.651     3.06 
 H                     1.79      3.348     4.65 
 N                     2.415     2.122     5.568 
 H                     1.886     1.978     6.421 
 H                     3.279     1.606     5.695 
 H                     3.483     0.54      4.219 
 
 ITRead=  0  0  0  0  0  0  0  0  0  0  0  0  0  0  0  0  0  0  0  0
 ITRead=  0  0  0  0  0  0  0  0  0  0  0  0  0
 MicOpt= -1 -1 -1 -1 -1 -1 -1 -1 -1 -1 -1 -1 -1 -1 -1 -1 -1 -1 -1 -1
 MicOpt= -1 -1 -1 -1 -1 -1 -1 -1 -1 -1 -1 -1 -1
 NAtoms=     33 NQM=       33 NQMF=       0 NMMI=      0 NMMIF=      0
                NMic=       0 NMicF=      0.
                    Isotopes and Nuclear Properties:
 (Nuclear quadrupole moments (NQMom) in fm**2, nuclear magnetic moments (NMagM)
  in nuclear magnetons)

  Atom         1           2           3           4           5           6           7           8           9          10
 IAtWgt=          12           1           1           1          12          16          14           1          12          12
 AtmWgt=  12.0000000   1.0078250   1.0078250   1.0078250  12.0000000  15.9949146  14.0030740   1.0078250  12.0000000  12.0000000
 NucSpn=           0           1           1           1           0           0           2           1           0           0
 AtZEff=  -0.0000000  -0.0000000  -0.0000000  -0.0000000  -0.0000000  -0.0000000  -0.0000000  -0.0000000  -0.0000000  -0.0000000
 NQMom=    0.0000000   0.0000000   0.0000000   0.0000000   0.0000000   0.0000000   2.0440000   0.0000000   0.0000000   0.0000000
 NMagM=    0.0000000   2.7928460   2.7928460   2.7928460   0.0000000   0.0000000   0.4037610   2.7928460   0.0000000   0.0000000
 AtZNuc=   6.0000000   1.0000000   1.0000000   1.0000000   6.0000000   8.0000000   7.0000000   1.0000000   6.0000000   6.0000000

  Atom        11          12          13          14          15          16          17          18          19          20
 IAtWgt=          12          12           1           1           1          12           1          12          12          14
 AtmWgt=  12.0000000  12.0000000   1.0078250   1.0078250   1.0078250  12.0000000   1.0078250  12.0000000  12.0000000  14.0030740
 NucSpn=           0           0           1           1           1           0           1           0           0           2
 AtZEff=  -0.0000000  -0.0000000  -0.0000000  -0.0000000  -0.0000000  -0.0000000  -0.0000000  -0.0000000  -0.0000000  -0.0000000
 NQMom=    0.0000000   0.0000000   0.0000000   0.0000000   0.0000000   0.0000000   0.0000000   0.0000000   0.0000000   2.0440000
 NMagM=    0.0000000   0.0000000   2.7928460   2.7928460   2.7928460   0.0000000   2.7928460   0.0000000   0.0000000   0.4037610
 AtZNuc=   6.0000000   6.0000000   1.0000000   1.0000000   1.0000000   6.0000000   1.0000000   6.0000000   6.0000000   7.0000000

  Atom        21          22          23          24          25          26          27          28          29          30
 IAtWgt=          12           1          32          12          14          12          14           1           1          14
 AtmWgt=  12.0000000   1.0078250  31.9720718  12.0000000  14.0030740  12.0000000  14.0030740   1.0078250   1.0078250  14.0030740
 NucSpn=           0           1           0           0           2           0           2           1           1           2
 AtZEff=  -0.0000000  -0.0000000  -0.0000000  -0.0000000  -0.0000000  -0.0000000  -0.0000000  -0.0000000  -0.0000000  -0.0000000
 NQMom=    0.0000000   0.0000000   0.0000000   0.0000000   2.0440000   0.0000000   2.0440000   0.0000000   0.0000000   2.0440000
 NMagM=    0.0000000   2.7928460   0.0000000   0.0000000   0.4037610   0.0000000   0.4037610   2.7928460   2.7928460   0.4037610
 AtZNuc=   6.0000000   1.0000000  16.0000000   6.0000000   7.0000000   6.0000000   7.0000000   1.0000000   1.0000000   7.0000000

  Atom        31          32          33
 IAtWgt=           1           1           1
 AtmWgt=   1.0078250   1.0078250   1.0078250
 NucSpn=           1           1           1
 AtZEff=  -0.0000000  -0.0000000  -0.0000000
 NQMom=    0.0000000   0.0000000   0.0000000
 NMagM=    2.7928460   2.7928460   2.7928460
 AtZNuc=   1.0000000   1.0000000   1.0000000
 Leave Link  101 at Sun Jul 18 15:17:04 2021, MaxMem=   104857600 cpu:               0.5 elap:               0.1
 (Enter /prod/apps/gaussian/g16b1/l103.exe)

 GradGradGradGradGradGradGradGradGradGradGradGradGradGradGradGradGradGrad
 Berny optimization.
 Initialization pass.
                           ----------------------------
                           !    Initial Parameters    !
                           ! (Angstroms and Degrees)  !
 --------------------------                            --------------------------
 ! Name  Definition              Value          Derivative Info.                !
 --------------------------------------------------------------------------------
 ! R1    R(1,2)                  1.0917         estimate D2E/DX2                !
 ! R2    R(1,3)                  1.0917         estimate D2E/DX2                !
 ! R3    R(1,4)                  1.0923         estimate D2E/DX2                !
 ! R4    R(1,5)                  1.496          estimate D2E/DX2                !
 ! R5    R(5,6)                  1.2034         estimate D2E/DX2                !
 ! R6    R(5,7)                  1.3444         estimate D2E/DX2                !
 ! R7    R(7,8)                  1.0089         estimate D2E/DX2                !
 ! R8    R(7,9)                  1.3804         estimate D2E/DX2                !
 ! R9    R(9,10)                 1.4148         estimate D2E/DX2                !
 ! R10   R(9,16)                 1.3941         estimate D2E/DX2                !
 ! R11   R(10,11)                1.3492         estimate D2E/DX2                !
 ! R12   R(10,15)                1.0868         estimate D2E/DX2                !
 ! R13   R(11,12)                1.4037         estimate D2E/DX2                !
 ! R14   R(11,14)                1.0876         estimate D2E/DX2                !
 ! R15   R(12,13)                1.0874         estimate D2E/DX2                !
 ! R16   R(12,18)                1.4186         estimate D2E/DX2                !
 ! R17   R(16,17)                1.0868         estimate D2E/DX2                !
 ! R18   R(16,18)                1.3751         estimate D2E/DX2                !
 ! R19   R(18,19)                1.4716         estimate D2E/DX2                !
 ! R20   R(19,20)                1.3737         estimate D2E/DX2                !
 ! R21   R(19,21)                1.3689         estimate D2E/DX2                !
 ! R22   R(20,24)                1.2987         estimate D2E/DX2                !
 ! R23   R(21,22)                1.0832         estimate D2E/DX2                !
 ! R24   R(21,23)                1.7014         estimate D2E/DX2                !
 ! R25   R(23,24)                1.7412         estimate D2E/DX2                !
 ! R26   R(24,25)                1.3761         estimate D2E/DX2                !
 ! R27   R(25,26)                1.2434         estimate D2E/DX2                !
 ! R28   R(25,33)                0.9998         estimate D2E/DX2                !
 ! R29   R(26,27)                1.2724         estimate D2E/DX2                !
 ! R30   R(26,30)                1.327          estimate D2E/DX2                !
 ! R31   R(27,28)                1.0143         estimate D2E/DX2                !
 ! R32   R(27,29)                1.0135         estimate D2E/DX2                !
 ! R33   R(30,31)                1.014          estimate D2E/DX2                !
 ! R34   R(30,32)                1.0143         estimate D2E/DX2                !
 ! A1    A(2,1,3)              113.6616         estimate D2E/DX2                !
 ! A2    A(2,1,4)              107.2021         estimate D2E/DX2                !
 ! A3    A(2,1,5)              113.7532         estimate D2E/DX2                !
 ! A4    A(3,1,4)              106.7318         estimate D2E/DX2                !
 ! A5    A(3,1,5)              111.0875         estimate D2E/DX2                !
 ! A6    A(4,1,5)              103.5549         estimate D2E/DX2                !
 ! A7    A(1,5,6)              124.3288         estimate D2E/DX2                !
 ! A8    A(1,5,7)              113.0658         estimate D2E/DX2                !
 ! A9    A(6,5,7)              122.5016         estimate D2E/DX2                !
 ! A10   A(5,7,8)              120.6897         estimate D2E/DX2                !
 ! A11   A(5,7,9)              120.195          estimate D2E/DX2                !
 ! A12   A(8,7,9)              119.0778         estimate D2E/DX2                !
 ! A13   A(7,9,10)             116.977          estimate D2E/DX2                !
 ! A14   A(7,9,16)             119.9856         estimate D2E/DX2                !
 ! A15   A(10,9,16)            122.7032         estimate D2E/DX2                !
 ! A16   A(9,10,11)            116.5437         estimate D2E/DX2                !
 ! A17   A(9,10,15)            116.7743         estimate D2E/DX2                !
 ! A18   A(11,10,15)           126.6746         estimate D2E/DX2                !
 ! A19   A(10,11,12)           121.4784         estimate D2E/DX2                !
 ! A20   A(10,11,14)           121.8549         estimate D2E/DX2                !
 ! A21   A(12,11,14)           116.6157         estimate D2E/DX2                !
 ! A22   A(11,12,13)           121.1008         estimate D2E/DX2                !
 ! A23   A(11,12,18)           121.4524         estimate D2E/DX2                !
 ! A24   A(13,12,18)           117.3801         estimate D2E/DX2                !
 ! A25   A(9,16,17)            119.6096         estimate D2E/DX2                !
 ! A26   A(9,16,18)            119.6942         estimate D2E/DX2                !
 ! A27   A(17,16,18)           120.6179         estimate D2E/DX2                !
 ! A28   A(12,18,16)           116.8153         estimate D2E/DX2                !
 ! A29   A(12,18,19)           119.6213         estimate D2E/DX2                !
 ! A30   A(16,18,19)           123.5236         estimate D2E/DX2                !
 ! A31   A(18,19,20)           128.697          estimate D2E/DX2                !
 ! A32   A(18,19,21)           115.8021         estimate D2E/DX2                !
 ! A33   A(20,19,21)           113.9131         estimate D2E/DX2                !
 ! A34   A(19,20,24)           112.2164         estimate D2E/DX2                !
 ! A35   A(19,21,22)           124.6207         estimate D2E/DX2                !
 ! A36   A(19,21,23)           110.4199         estimate D2E/DX2                !
 ! A37   A(22,21,23)           124.663          estimate D2E/DX2                !
 ! A38   A(21,23,24)            89.5367         estimate D2E/DX2                !
 ! A39   A(20,24,23)           113.3008         estimate D2E/DX2                !
 ! A40   A(20,24,25)           128.0493         estimate D2E/DX2                !
 ! A41   A(23,24,25)           118.2812         estimate D2E/DX2                !
 ! A42   A(24,25,26)           121.6766         estimate D2E/DX2                !
 ! A43   A(24,25,33)           119.1648         estimate D2E/DX2                !
 ! A44   A(26,25,33)           119.1587         estimate D2E/DX2                !
 ! A45   A(25,26,27)           122.216          estimate D2E/DX2                !
 ! A46   A(25,26,30)           116.0661         estimate D2E/DX2                !
 ! A47   A(27,26,30)            94.2875         estimate D2E/DX2                !
 ! A48   A(26,27,28)           105.6374         estimate D2E/DX2                !
 ! A49   A(26,27,29)           104.0639         estimate D2E/DX2                !
 ! A50   A(28,27,29)           117.7731         estimate D2E/DX2                !
 ! A51   A(26,30,31)           112.6492         estimate D2E/DX2                !
 ! A52   A(26,30,32)           103.8656         estimate D2E/DX2                !
 ! A53   A(31,30,32)           105.4744         estimate D2E/DX2                !
 ! D1    D(2,1,5,6)           -178.687          estimate D2E/DX2                !
 ! D2    D(2,1,5,7)              4.9458         estimate D2E/DX2                !
 ! D3    D(3,1,5,6)             51.5473         estimate D2E/DX2                !
 ! D4    D(3,1,5,7)           -124.82           estimate D2E/DX2                !
 ! D5    D(4,1,5,6)            -62.6806         estimate D2E/DX2                !
 ! D6    D(4,1,5,7)            120.9522         estimate D2E/DX2                !
 ! D7    D(1,5,7,8)              9.0681         estimate D2E/DX2                !
 ! D8    D(1,5,7,9)           -173.1818         estimate D2E/DX2                !
 ! D9    D(6,5,7,8)           -167.3749         estimate D2E/DX2                !
 ! D10   D(6,5,7,9)             10.3752         estimate D2E/DX2                !
 ! D11   D(5,7,9,10)            71.3201         estimate D2E/DX2                !
 ! D12   D(5,7,9,16)          -102.2211         estimate D2E/DX2                !
 ! D13   D(8,7,9,10)          -110.8937         estimate D2E/DX2                !
 ! D14   D(8,7,9,16)            75.5651         estimate D2E/DX2                !
 ! D15   D(7,9,10,11)         -177.1567         estimate D2E/DX2                !
 ! D16   D(7,9,10,15)            1.9198         estimate D2E/DX2                !
 ! D17   D(16,9,10,11)          -3.8057         estimate D2E/DX2                !
 ! D18   D(16,9,10,15)         175.2708         estimate D2E/DX2                !
 ! D19   D(7,9,16,17)            2.4764         estimate D2E/DX2                !
 ! D20   D(7,9,16,18)         -174.3276         estimate D2E/DX2                !
 ! D21   D(10,9,16,17)        -170.6815         estimate D2E/DX2                !
 ! D22   D(10,9,16,18)          12.5145         estimate D2E/DX2                !
 ! D23   D(9,10,11,12)          -5.1626         estimate D2E/DX2                !
 ! D24   D(9,10,11,14)         177.5222         estimate D2E/DX2                !
 ! D25   D(15,10,11,12)        175.8654         estimate D2E/DX2                !
 ! D26   D(15,10,11,14)         -1.4498         estimate D2E/DX2                !
 ! D27   D(10,11,12,13)       -171.2124         estimate D2E/DX2                !
 ! D28   D(10,11,12,18)          5.7404         estimate D2E/DX2                !
 ! D29   D(14,11,12,13)          6.237          estimate D2E/DX2                !
 ! D30   D(14,11,12,18)       -176.8102         estimate D2E/DX2                !
 ! D31   D(11,12,18,16)          2.8718         estimate D2E/DX2                !
 ! D32   D(11,12,18,19)       -179.3424         estimate D2E/DX2                !
 ! D33   D(13,12,18,16)        179.9336         estimate D2E/DX2                !
 ! D34   D(13,12,18,19)         -2.2806         estimate D2E/DX2                !
 ! D35   D(9,16,18,12)         -11.4807         estimate D2E/DX2                !
 ! D36   D(9,16,18,19)         170.8283         estimate D2E/DX2                !
 ! D37   D(17,16,18,12)        171.7481         estimate D2E/DX2                !
 ! D38   D(17,16,18,19)         -5.9429         estimate D2E/DX2                !
 ! D39   D(12,18,19,20)        -26.0673         estimate D2E/DX2                !
 ! D40   D(12,18,19,21)        138.5494         estimate D2E/DX2                !
 ! D41   D(16,18,19,20)        151.5622         estimate D2E/DX2                !
 ! D42   D(16,18,19,21)        -43.8211         estimate D2E/DX2                !
 ! D43   D(18,19,20,24)        171.728          estimate D2E/DX2                !
 ! D44   D(21,19,20,24)          6.8725         estimate D2E/DX2                !
 ! D45   D(18,19,21,22)         -1.5836         estimate D2E/DX2                !
 ! D46   D(18,19,21,23)       -175.5674         estimate D2E/DX2                !
 ! D47   D(20,19,21,22)        165.3266         estimate D2E/DX2                !
 ! D48   D(20,19,21,23)         -8.6572         estimate D2E/DX2                !
 ! D49   D(19,20,24,23)         -1.894          estimate D2E/DX2                !
 ! D50   D(19,20,24,25)        170.9354         estimate D2E/DX2                !
 ! D51   D(19,21,23,24)          6.172          estimate D2E/DX2                !
 ! D52   D(22,21,23,24)       -167.8088         estimate D2E/DX2                !
 ! D53   D(21,23,24,20)         -2.5308         estimate D2E/DX2                !
 ! D54   D(21,23,24,25)       -176.1221         estimate D2E/DX2                !
 ! D55   D(20,24,25,26)         -7.2726         estimate D2E/DX2                !
 ! D56   D(20,24,25,33)        172.7271         estimate D2E/DX2                !
 ! D57   D(23,24,25,26)        165.2472         estimate D2E/DX2                !
 ! D58   D(23,24,25,33)        -14.7531         estimate D2E/DX2                !
 ! D59   D(24,25,26,27)        -60.8102         estimate D2E/DX2                !
 ! D60   D(24,25,26,30)       -174.8019         estimate D2E/DX2                !
 ! D61   D(33,25,26,27)        119.1901         estimate D2E/DX2                !
 ! D62   D(33,25,26,30)          5.1985         estimate D2E/DX2                !
 ! D63   D(25,26,27,28)          2.8398         estimate D2E/DX2                !
 ! D64   D(25,26,27,29)       -121.8375         estimate D2E/DX2                !
 ! D65   D(30,26,27,28)        127.4553         estimate D2E/DX2                !
 ! D66   D(30,26,27,29)          2.778          estimate D2E/DX2                !
 ! D67   D(25,26,30,31)       -124.9605         estimate D2E/DX2                !
 ! D68   D(25,26,30,32)        -11.3336         estimate D2E/DX2                !
 ! D69   D(27,26,30,31)        105.8554         estimate D2E/DX2                !
 ! D70   D(27,26,30,32)       -140.5178         estimate D2E/DX2                !
 --------------------------------------------------------------------------------
 Trust Radius=3.00D-01 FncErr=1.00D-07 GrdErr=1.00D-06 EigMax=2.50D+02 EigMin=1.00D-04
 Number of steps in this run=    167 maximum allowed number of steps=    198.
 GradGradGradGradGradGradGradGradGradGradGradGradGradGradGradGradGradGrad

 Leave Link  103 at Sun Jul 18 15:17:04 2021, MaxMem=   104857600 cpu:               0.1 elap:               0.0
 (Enter /prod/apps/gaussian/g16b1/l202.exe)
                          Input orientation:                          
 ---------------------------------------------------------------------
 Center     Atomic      Atomic             Coordinates (Angstroms)
 Number     Number       Type             X           Y           Z
 ---------------------------------------------------------------------
      1          6           0       -1.686000   -0.517000   -5.685000
      2          1           0       -1.278000   -1.509000   -5.888000
      3          1           0       -1.209000    0.279000   -6.260000
      4          1           0       -2.737000   -0.533000   -5.982000
      5          6           0       -1.738000   -0.173000   -4.230000
      6          8           0       -2.173000    0.860000   -3.792000
      7          7           0       -1.174000   -1.109000   -3.447000
      8          1           0       -0.652000   -1.872000   -3.851000
      9          6           0       -1.264000   -1.011000   -2.073000
     10          6           0       -2.532000   -1.253000   -1.494000
     11          6           0       -2.624000   -1.097000   -0.157000
     12          6           0       -1.494000   -0.819000    0.628000
     13          1           0       -1.547000   -0.834000    1.714000
     14          1           0       -3.566000   -1.222000    0.372000
     15          1           0       -3.335000   -1.530000   -2.172000
     16          6           0       -0.173000   -0.556000   -1.334000
     17          1           0        0.731000   -0.242000   -1.849000
     18          6           0       -0.227000   -0.571000    0.040000
     19          6           0        0.934000   -0.298000    0.902000
     20          7           0        0.957000    0.230000    2.170000
     21          6           0        2.107000   -0.897000    0.529000
     22          1           0        2.217000   -1.558000   -0.322000
     23         16           0        3.322000   -0.591000    1.680000
     24          6           0        2.140000    0.176000    2.703000
     25          7           0        2.570000    0.757000    3.874000
     26          6           0        1.852000    1.545000    4.514000
     27          7           0        1.436000    2.640000    4.017000
     28          1           0        1.772000    2.651000    3.060000
     29          1           0        1.790000    3.348000    4.650000
     30          7           0        2.415000    2.122000    5.568000
     31          1           0        1.886000    1.978000    6.421000
     32          1           0        3.279000    1.606000    5.695000
     33          1           0        3.483000    0.540000    4.219000
 ---------------------------------------------------------------------
                    Distance matrix (angstroms):
                    1          2          3          4          5
     1  C    0.000000
     2  H    1.091667   0.000000
     3  H    1.091682   1.827591   0.000000
     4  H    1.092276   1.757866   1.752544   0.000000
     5  C    1.496016   2.178408   2.145937   2.048684   0.000000
     6  O    2.390972   3.287309   2.712541   2.656058   1.203394
     7  N    2.370918   2.475742   3.136995   3.033310   1.344352
     8  H    2.503745   2.161716   3.277244   3.268227   2.051740
     9  C    3.669968   3.847392   4.381563   4.204580   2.362111
    10  C    4.338421   4.576602   5.178041   4.550008   3.046725
    11  C    5.636934   5.901341   6.414219   5.853332   4.269438
    12  C    6.323135   6.555991   6.980786   6.731935   4.906834
    13  H    7.407092   7.636648   8.058392   7.793274   5.983689
    14  H    6.381119   6.671200   7.196657   6.444787   5.061659
    15  H    4.010803   4.247393   4.950162   3.983430   2.937213
    16  C    4.606722   4.782065   5.102548   5.308345   3.314020
    17  H    4.542291   4.685605   4.846851   5.403091   3.430726
    18  C    5.908233   6.093080   6.432482   6.524265   4.546914
    19  C    7.092315   7.243174   7.497975   7.805186   5.787282
    20  N    8.321327   8.541119   8.703956   8.982367   6.955964
    21  C    7.290065   7.280842   7.646526   8.123420   6.160867
    22  H    6.714079   6.572502   7.097316   7.591333   5.729984
    23  S    8.906670   8.903783   9.183162   9.768372   7.791433
    24  C    9.245381   9.398257   9.568792   9.985842   7.951552
    25  N   10.540925  10.734920  10.826231  11.268056   9.224889
    26  C   10.990400  11.283857  11.271715  11.642294   9.607141
    27  N   10.669692  11.076508  10.871388  11.289901   9.273632
    28  H    9.923155  10.328350  10.068522  10.593710   8.569666
    29  H   11.568622  12.002188  11.723517  12.189968  10.183252
    30  N   12.264279  12.572285  12.507262  12.922640  10.886470
    31  H   12.866213  13.178829  13.163335  13.472626  11.454430
    32  H   12.596140  12.831031  12.838423  13.308640  11.262360
    33  H   11.221632  11.358564  11.484443  11.995838   9.957550
                    6          7          8          9         10
     6  O    0.000000
     7  N    2.234723   0.000000
     8  H    3.127418   1.008895   0.000000
     9  C    2.698496   1.380427   2.068127   0.000000
    10  C    3.142364   2.383088   3.077826   1.414789   0.000000
    11  C    4.152888   3.595378   4.258526   2.351181   1.349211
    12  C    4.776660   4.097820   4.677522   2.717566   2.401808
    13  H    5.794614   5.181764   5.731291   3.801682   3.381871
    14  H    4.859431   4.507682   5.171811   3.364781   2.133559
    15  H    3.112353   2.544167   3.183472   2.137335   1.086840
    16  C    3.470853   2.402619   2.880379   1.394069   2.465013
    17  H    3.663723   2.633309   2.928753   2.149782   3.434431
    18  C    4.529779   3.653139   4.124695   2.394522   2.851544
    19  C    5.747003   4.900529   5.252036   3.766988   4.320416
    20  N    6.763079   6.155061   6.577213   4.947320   5.272315
    21  C    6.330599   5.159310   5.267552   4.259934   5.073420
    22  H    6.095878   4.633153   4.558903   3.934790   4.900981
    23  S    7.889437   6.838748   6.930050   5.940775   6.691923
    24  C    7.826548   7.103261   7.412455   5.983842   6.440841
    25  N    9.015221   8.431876   8.773172   7.293298   7.673717
    26  C    9.255241   8.920645   9.376520   7.722122   7.946340
    27  N    8.784860   8.750908   9.307165   7.596572   7.827617
    28  H    8.106825   8.072024   8.607858   6.998230   7.382720
    29  H    9.652092   9.706264  10.270286   8.574761   8.808951
    30  N   10.500095  10.226950  10.680641   9.040775   9.259335
    31  H   11.046754  10.782884  11.259571   9.539636   9.623165
    32  H   10.967406  10.525046  10.893822   9.371732   9.675915
    33  H    9.811669   9.120000   9.383010   8.032987   8.487252
                   11         12         13         14         15
    11  C    0.000000
    12  C    1.403713   0.000000
    13  H    2.174796   1.087396   0.000000
    14  H    1.087580   2.126295   2.455172   0.000000
    15  H    2.180192   3.425610   4.333862   2.572967   0.000000
    16  C    2.772257   2.379843   3.354916   3.855702   3.413087
    17  H    3.853559   3.379213   4.270213   4.935327   4.277339
    18  C    2.461929   1.418639   2.147986   3.418032   3.933483
    19  C    3.797268   2.498340   2.664958   4.624357   5.402931
    20  N    4.472071   3.079865   2.758632   5.079236   6.353883
    21  C    4.784659   3.603205   3.841863   5.684470   6.108310
    22  H    4.865699   3.901300   4.340181   5.834177   5.852178
    23  S    6.243839   4.934830   4.875179   7.039430   7.748243
    24  C    5.700511   4.301349   3.948695   6.320317   7.526731
    25  N    6.831099   5.434739   4.913916   7.336957   8.755199
    26  C    6.988060   5.646699   5.005281   7.359835   9.003510
    27  N    6.918890   5.659938   5.125502   7.295277   8.857486
    28  H    6.612217   5.349979   4.997269   7.121778   8.422353
    29  H    7.896117   6.657704   6.102851   8.238502   9.828540
    30  N    8.278231   6.952220   6.268070   8.599600  10.310538
    31  H    8.547854   7.266805   6.469056   8.749555  10.649157
    32  H    8.740568   7.371339   6.715075   9.120633  10.745659
    33  H    7.689252   6.285912   5.784790   8.221463   9.571568
                   16         17         18         19         20
    16  C    0.000000
    17  H    1.086755   0.000000
    18  C    1.375143   2.143438   0.000000
    19  C    2.508328   2.759048   1.471562   0.000000
    20  N    3.764666   4.052927   2.565221   1.373731   0.000000
    21  C    2.964026   2.824409   2.406855   1.368890   2.299024
    22  H    2.782130   2.504352   2.660517   2.175285   3.315812
    23  S    4.615241   4.391916   3.909655   2.528572   2.550954
    24  C    4.709900   4.783378   3.640366   2.218719   1.298651
    25  N    6.030861   6.093657   4.928118   3.552788   2.404811
    26  C    6.535589   6.703565   5.368088   4.157634   2.832770
    27  N    6.437119   6.573652   5.375185   4.311273   3.073914
    28  H    5.777120   5.792358   4.847441   3.749108   2.705100
    29  H    7.409645   7.499772   6.378005   5.298448   4.070161
    30  N    7.842642   7.964687   6.692623   5.460890   4.153532
    31  H    8.414313   8.640331   7.188834   6.045316   4.689301
    32  H    8.123878   8.174310   7.000742   5.665429   4.439672
    33  H    6.738202   6.708625   5.697584   4.266396   3.267289
                   21         22         23         24         25
    21  C    0.000000
    22  H    1.083154   0.000000
    23  S    1.701371   2.482764   0.000000
    24  C    2.424602   3.487594   1.741247   0.000000
    25  N    3.760201   4.805232   2.682582   1.376118   0.000000
    26  C    4.680664   5.757493   3.841218   2.288411   1.243410
    27  N    5.012659   6.087700   4.411114   2.879845   2.202747
    28  H    4.371097   5.417714   3.849346   2.527548   2.210574
    29  H    5.924792   6.997996   5.165621   3.738301   2.814935
    30  N    5.882240   6.947928   4.826962   3.474301   2.181029
    31  H    6.559736   7.621083   5.580227   4.139474   2.906184
    32  H    5.858852   6.880627   4.576995   3.506321   2.130616
    33  H    4.192189   5.159946   2.784170   2.057766   0.999841
                   26         27         28         29         30
    26  C    0.000000
    27  N    1.272435   0.000000
    28  H    1.828593   1.014330   0.000000
    29  H    1.809185   1.013543   1.736155   0.000000
    30  N    1.326957   1.905877   2.642604   1.654214   0.000000
    31  H    1.955836   2.533764   3.429613   2.241106   1.013995
    32  H    1.853324   2.698423   3.210343   2.518672   1.014338
    33  H    1.938353   2.939560   2.954170   3.307094   2.337338
                   31         32         33
    31  H    0.000000
    32  H    1.614283   0.000000
    33  H    3.076858   1.832088   0.000000
 Stoichiometry    C12H14N5OS(1+)
 Framework group  C1[X(C12H14N5OS)]
 Deg. of freedom    93
 Full point group                 C1      NOp   1
 Largest Abelian subgroup         C1      NOp   1
 Largest concise Abelian subgroup C1      NOp   1
                         Standard orientation:                         
 ---------------------------------------------------------------------
 Center     Atomic      Atomic             Coordinates (Angstroms)
 Number     Number       Type             X           Y           Z
 ---------------------------------------------------------------------
      1          6           0       -6.227378    0.811123    1.075878
      2          1           0       -6.400965    1.577643    0.318216
      3          1           0       -6.337548    1.174047    2.099557
      4          1           0       -6.985707    0.038087    0.932982
      5          6           0       -4.937558    0.073374    0.902230
      6          8           0       -4.567355   -0.823196    1.614459
      7          7           0       -4.180612    0.563397   -0.094861
      8          1           0       -4.427458    1.428610   -0.551308
      9          6           0       -3.026411   -0.090792   -0.476225
     10          6           0       -3.181283   -1.318628   -1.161834
     11          6           0       -2.048419   -1.979651   -1.478120
     12          6           0       -0.782899   -1.421826   -1.237912
     13          1           0        0.119940   -1.891901   -1.620458
     14          1           0       -2.068016   -2.949638   -1.969619
     15          1           0       -4.199129   -1.640359   -1.366044
     16          6           0       -1.784308    0.391637   -0.066508
     17          1           0       -1.733868    1.259232    0.586005
     18          6           0       -0.635046   -0.193324   -0.544039
     19          6           0        0.710273    0.362148   -0.327102
     20          7           0        1.911465   -0.300358   -0.253902
     21          6           0        0.832125    1.714208   -0.503014
     22          1           0        0.025773    2.370354   -0.807140
     23         16           0        2.457369    2.190039   -0.339225
     24          6           0        2.921303    0.515649   -0.224658
     25          7           0        4.243550    0.220487    0.016681
     26          6           0        4.604248   -0.913806    0.376326
     27          7           0        4.194055   -1.445105    1.457322
     28          1           0        3.535816   -0.783456    1.854573
     29          1           0        5.043705   -1.635351    1.976138
     30          7           0        5.888758   -1.047880    0.681075
     31          1           0        6.339920   -1.787550    0.154266
     32          1           0        6.308301   -0.185555    0.350532
     33          1           0        4.931760    0.936312   -0.100130
 ---------------------------------------------------------------------
 Rotational constants (GHZ):           0.8340801           0.1333516           0.1266389
 Leave Link  202 at Sun Jul 18 15:17:04 2021, MaxMem=   104857600 cpu:               0.0 elap:               0.0
 (Enter /prod/apps/gaussian/g16b1/l301.exe)
 Standard basis: 6-31G(d) (6D, 7F)
 Ernie: Thresh=  0.10000D-02 Tol=  0.10000D-05 Strict=F.
 There are   317 symmetry adapted cartesian basis functions of A   symmetry.
 There are   317 symmetry adapted basis functions of A   symmetry.
   317 basis functions,   612 primitive gaussians,   317 cartesian basis functions
    72 alpha electrons       72 beta electrons
       nuclear repulsion energy      1467.9979216999 Hartrees.
 IExCor=  402 DFT=T Ex+Corr=B3LYP ExCW=0 ScaHFX=  0.200000
 ScaDFX=  0.800000  0.720000  1.000000  0.810000 ScalE2=  1.000000  1.000000
 IRadAn=      5 IRanWt=     -1 IRanGd=            0 ICorTp=0 IEmpDi=  4
 NAtoms=   33 NActive=   33 NUniq=   33 SFac= 1.00D+00 NAtFMM=   60 NAOKFM=F Big=F
 Integral buffers will be    131072 words long.
 Raffenetti 2 integral format.
 Two-electron integral symmetry is turned on.
 Using the following non-standard input for PCM:
 MSTModel=DFT cav MSTCharged
 --- end of non-standard input.
 MST model for solvation energy: B3LYP parametrization.
 MST cavity parameters:
 ISph   IAn     Re0     Alpha   Atom Type   QCorr
 ------------------------------------------------
   1      6     1.50     1.25      CH3        F
   2      1     1.20     1.25      CH3        F
   3      1     1.20     1.25      CH3        F
   4      1     1.20     1.25      CH3        F
   5      6     1.50     1.25      C          F
   6      8     1.40     1.25      O          F
   7      7     1.50     1.25      NH         F
   8      1     0.90     1.25      NH         F
   9      6     1.50     1.25      C          F
  10      6     1.50     1.25      CH         F
  11      6     1.50     1.25      CH         F
  12      6     1.50     1.25      CH         F
  13      1     1.20     1.25      CH         F
  14      1     1.20     1.25      CH         F
  15      1     1.20     1.25      CH         F
  16      6     1.50     1.25      CH         F
  17      1     1.20     1.25      CH         F
  18      6     1.50     1.25      C          F
  19      6     1.50     1.25      C          F
  20      7     1.40     1.25      N          F
  21      6     1.50     1.25      CH         F
  22      1     1.20     1.25      CH         F
  23     16     1.75     1.25      S          F
  24      6     1.50     1.25      C          F
  25      7     1.50     1.15      NH         T
  26      6     1.50     1.15      C          T
  27      7     1.55     1.15      NH         T
  28      1     0.90     1.15      NH         T
  29      1     0.90     1.15      NH         T
  30      7     1.55     1.15      NH         T
  31      1     0.90     1.15      NH         T
  32      1     0.90     1.15      NH         T
  33      1     0.90     1.15      NH         T
 ------------------------------------------------------------------------------
 Polarizable Continuum Model (PCM)
 =================================
 Model                : PCM.
 Atomic radii         : MST.
 Polarization charges : Total charges.
 Charge compensation  : None.
 Solution method      : On-the-fly selection.
 Cavity type          : Scaled VdW (van der Waals Surface) (Alpha=1.250).
 Cavity algorithm     : GePol (No added spheres)
                        Default sphere list used, NSphG=   33.
                        Lebedev-Laikov grids with approx.  5.0 points / Ang**2.
                        Smoothing algorithm: York/Karplus (Gamma=1.0000).
                        Polarization charges: spherical gaussians, with
                                              point-specific exponents (IZeta= 3).
                        Self-potential: point-specific (ISelfS= 7).
                        Self-field    : sphere-specific E.n sum rule (ISelfD= 2).
 1st derivatives      : Analytical E(r).r(x)/FMM algorithm (CHGder, D1EAlg=3).
                        Cavity 1st derivative terms included.
 Solvent              : Water, Eps=  78.355300 Eps(inf)=   1.777849
 ------------------------------------------------------------------------------
 GePol: Number of generator spheres                  =      33
 GePol: Total number of spheres                      =      33
 GePol: Number of exposed spheres                    =      33 (100.00%)
 GePol: Number of points                             =    2521
 GePol: Average weight of points                     =       0.13
 GePol: Minimum weight of points                     =   0.13D-11
 GePol: Maximum weight of points                     =    0.22001
 GePol: Number of points with low weight             =     171
 GePol: Fraction of low-weight points (<1% of avg)   =       6.78%
 GePol: Cavity surface area                          =    317.271 Ang**2
 GePol: Cavity volume                                =    294.200 Ang**3
 PCM non-electrostatic energy =         0.0014997699 Hartrees.
 Nuclear repulsion after PCM non-electrostatic terms =     1467.9994214699 Hartrees.
 Leave Link  301 at Sun Jul 18 15:17:04 2021, MaxMem=   104857600 cpu:               0.3 elap:               0.1
 (Enter /prod/apps/gaussian/g16b1/l302.exe)
 NPDir=0 NMtPBC=     1 NCelOv=     1 NCel=       1 NClECP=     1 NCelD=      1
         NCelK=      1 NCelE2=     1 NClLst=     1 CellRange=     0.0.
 One-electron integrals computed using PRISM.
 One-electron integral symmetry used in STVInt
 NBasis=   317 RedAO= T EigKep=  4.55D-04  NBF=   317
 NBsUse=   317 1.00D-06 EigRej= -1.00D+00 NBFU=   317
 Precomputing XC quadrature grid using
 IXCGrd= 4 IRadAn=           5 IRanWt=          -1 IRanGd=           0 AccXCQ= 0.00D+00.
 Generated NRdTot=       0 NPtTot=           0 NUsed=           0 NTot=          32
 NSgBfM=   311   311   311   311   311 MxSgAt=    33 MxSgA2=    33.
 Leave Link  302 at Sun Jul 18 15:17:05 2021, MaxMem=   104857600 cpu:               1.5 elap:               0.4
 (Enter /prod/apps/gaussian/g16b1/l303.exe)
 DipDrv:  MaxL=1.
 Leave Link  303 at Sun Jul 18 15:17:05 2021, MaxMem=   104857600 cpu:               0.1 elap:               0.1
 (Enter /prod/apps/gaussian/g16b1/l401.exe)
 ExpMin= 1.17D-01 ExpMax= 2.19D+04 ExpMxC= 3.30D+03 IAcc=3 IRadAn=         5 AccDes= 0.00D+00
 Harris functional with IExCor=  402 and IRadAn=       5 diagonalized for initial guess.
 HarFok:  IExCor=  402 AccDes= 0.00D+00 IRadAn=         5 IDoV= 1 UseB2=F ITyADJ=14
 ICtDFT=  3500011 ScaDFX=  1.000000  1.000000  1.000000  1.000000
 FoFCou: FMM=F IPFlag=           0 FMFlag=      100000 FMFlg1=           0
         NFxFlg=           0 DoJE=T BraDBF=F KetDBF=T FulRan=T
         wScrn=  0.000000 ICntrl=       500 IOpCl=  0 I1Cent=   200000004 NGrid=           0
         NMat0=    1 NMatS0=      1 NMatT0=    0 NMatD0=    1 NMtDS0=    0 NMtDT0=    0
 Petite list used in FoFCou.
 Harris En= -1212.46343233034    
 JPrj=0 DoOrth=F DoCkMO=F.
 Leave Link  401 at Sun Jul 18 15:17:06 2021, MaxMem=   104857600 cpu:               6.9 elap:               1.8
 (Enter /prod/apps/gaussian/g16b1/l502.exe)
 Integral symmetry usage will be decided dynamically.
 Closed shell SCF:
 Using DIIS extrapolation, IDIIS=  1040.
 NGot=   104857600 LenX=   104651207 LenY=   104550277
 Requested convergence on RMS density matrix=1.00D-08 within 128 cycles.
 Requested convergence on MAX density matrix=1.00D-06.
 Requested convergence on             energy=1.00D-06.
 No special actions if energy rises.
 Fock matrices will be formed incrementally for  20 cycles.

 Cycle   1  Pass 1  IDiag  1:
 FoFJK:  IHMeth= 1 ICntrl=       0 DoSepK=F KAlg= 0 I1Cent=           0 FoldK=F
 IRaf= 710000000 NMat=       1 IRICut=       1 DoRegI=T DoRafI=F ISym2E= 0 IDoP0=0 IntGTp=1.
 FoFCou: FMM=F IPFlag=           0 FMFlag=      100000 FMFlg1=           0
         NFxFlg=           0 DoJE=F BraDBF=F KetDBF=F FulRan=T
         wScrn=  0.000000 ICntrl=         0 IOpCl=  0 I1Cent=           0 NGrid=           0
         NMat0=    1 NMatS0=      1 NMatT0=    0 NMatD0=    1 NMtDS0=    0 NMtDT0=    0
 Symmetry not used in FoFCou.
 Inv3:  Mode=1 IEnd=    19066323.
 Iteration    1 A*A^-1 deviation from unit magnitude is 3.11D-15 for    933.
 Iteration    1 A*A^-1 deviation from orthogonality  is 2.53D-15 for   1878    389.
 Iteration    1 A^-1*A deviation from unit magnitude is 3.11D-15 for    565.
 Iteration    1 A^-1*A deviation from orthogonality  is 2.87D-14 for   1136   1077.
 E= -1212.11217462885    
 DIIS: error= 2.65D-02 at cycle   1 NSaved=   1.
 NSaved= 1 IEnMin= 1 EnMin= -1212.11217462885     IErMin= 1 ErrMin= 2.65D-02
 ErrMax= 2.65D-02  0.00D+00 EMaxC= 1.00D-01 BMatC= 5.25D-01 BMatP= 5.25D-01
 IDIUse=3 WtCom= 7.35D-01 WtEn= 2.65D-01
 Coeff-Com:  0.100D+01
 Coeff-En:   0.100D+01
 Coeff:      0.100D+01
 Gap=     0.180 Goal=   None    Shift=    0.000
 GapD=    0.180 DampG=1.000 DampE=0.500 DampFc=0.5000 IDamp=-1.
 Damping current iteration by 5.00D-01
 RMSDP=5.44D-03 MaxDP=2.24D-01              OVMax= 3.28D-01

 Cycle   2  Pass 1  IDiag  1:
 RMSU=  2.70D-03    CP:  9.84D-01
 E= -1212.28880860248     Delta-E=       -0.176633973630 Rises=F Damp=T
 DIIS: error= 6.87D-03 at cycle   2 NSaved=   2.
 NSaved= 2 IEnMin= 2 EnMin= -1212.28880860248     IErMin= 2 ErrMin= 6.87D-03
 ErrMax= 6.87D-03  0.00D+00 EMaxC= 1.00D-01 BMatC= 4.83D-02 BMatP= 5.25D-01
 IDIUse=3 WtCom= 9.31D-01 WtEn= 6.87D-02
 Coeff-Com:  0.142D+00 0.858D+00
 Coeff-En:   0.250D+00 0.750D+00
 Coeff:      0.149D+00 0.851D+00
 Gap=     0.155 Goal=   None    Shift=    0.000
 RMSDP=1.52D-03 MaxDP=6.80D-02 DE=-1.77D-01 OVMax= 2.38D-01

 Cycle   3  Pass 1  IDiag  1:
 RMSU=  1.36D-03    CP:  9.75D-01  7.59D-01
 E= -1212.55721479604     Delta-E=       -0.268406193553 Rises=F Damp=F
 DIIS: error= 6.53D-03 at cycle   3 NSaved=   3.
 NSaved= 3 IEnMin= 3 EnMin= -1212.55721479604     IErMin= 3 ErrMin= 6.53D-03
 ErrMax= 6.53D-03  0.00D+00 EMaxC= 1.00D-01 BMatC= 4.29D-02 BMatP= 4.83D-02
 IDIUse=3 WtCom= 9.35D-01 WtEn= 6.53D-02
 Coeff-Com:  0.286D-01 0.482D+00 0.489D+00
 Coeff-En:   0.000D+00 0.000D+00 0.100D+01
 Coeff:      0.268D-01 0.451D+00 0.523D+00
 Gap=     0.130 Goal=   None    Shift=    0.000
 RMSDP=8.27D-04 MaxDP=3.70D-02 DE=-2.68D-01 OVMax= 5.19D-02

 Cycle   4  Pass 1  IDiag  1:
 RMSU=  5.88D-04    CP:  9.78D-01  8.40D-01  6.07D-01
 E= -1212.59108374360     Delta-E=       -0.033868947562 Rises=F Damp=F
 DIIS: error= 2.39D-03 at cycle   4 NSaved=   4.
 NSaved= 4 IEnMin= 4 EnMin= -1212.59108374360     IErMin= 4 ErrMin= 2.39D-03
 ErrMax= 2.39D-03  0.00D+00 EMaxC= 1.00D-01 BMatC= 6.07D-03 BMatP= 4.29D-02
 IDIUse=3 WtCom= 9.76D-01 WtEn= 2.39D-02
 Coeff-Com: -0.873D-02 0.779D-01 0.289D+00 0.642D+00
 Coeff-En:   0.000D+00 0.000D+00 0.123D+00 0.877D+00
 Coeff:     -0.852D-02 0.761D-01 0.285D+00 0.647D+00
 Gap=     0.129 Goal=   None    Shift=    0.000
 RMSDP=2.73D-04 MaxDP=1.14D-02 DE=-3.39D-02 OVMax= 1.73D-02

 Cycle   5  Pass 1  IDiag  1:
 RMSU=  1.52D-04    CP:  9.78D-01  8.27D-01  7.02D-01  6.90D-01
 E= -1212.59610991895     Delta-E=       -0.005026175355 Rises=F Damp=F
 DIIS: error= 5.33D-04 at cycle   5 NSaved=   5.
 NSaved= 5 IEnMin= 5 EnMin= -1212.59610991895     IErMin= 5 ErrMin= 5.33D-04
 ErrMax= 5.33D-04  0.00D+00 EMaxC= 1.00D-01 BMatC= 3.36D-04 BMatP= 6.07D-03
 IDIUse=3 WtCom= 9.95D-01 WtEn= 5.33D-03
 Coeff-Com: -0.537D-02 0.128D-01 0.115D+00 0.326D+00 0.552D+00
 Coeff-En:   0.000D+00 0.000D+00 0.000D+00 0.000D+00 0.100D+01
 Coeff:     -0.534D-02 0.127D-01 0.114D+00 0.324D+00 0.554D+00
 Gap=     0.128 Goal=   None    Shift=    0.000
 RMSDP=7.05D-05 MaxDP=4.37D-03 DE=-5.03D-03 OVMax= 3.89D-03

 Cycle   6  Pass 1  IDiag  1:
 RMSU=  4.24D-05    CP:  9.78D-01  8.30D-01  7.06D-01  7.25D-01  6.64D-01
 E= -1212.59640872064     Delta-E=       -0.000298801688 Rises=F Damp=F
 DIIS: error= 1.18D-04 at cycle   6 NSaved=   6.
 NSaved= 6 IEnMin= 6 EnMin= -1212.59640872064     IErMin= 6 ErrMin= 1.18D-04
 ErrMax= 1.18D-04  0.00D+00 EMaxC= 1.00D-01 BMatC= 2.15D-05 BMatP= 3.36D-04
 IDIUse=3 WtCom= 9.99D-01 WtEn= 1.18D-03
 Coeff-Com: -0.214D-02 0.163D-02 0.393D-01 0.121D+00 0.279D+00 0.561D+00
 Coeff-En:   0.000D+00 0.000D+00 0.000D+00 0.000D+00 0.000D+00 0.100D+01
 Coeff:     -0.214D-02 0.163D-02 0.393D-01 0.121D+00 0.278D+00 0.562D+00
 Gap=     0.128 Goal=   None    Shift=    0.000
 RMSDP=1.92D-05 MaxDP=7.38D-04 DE=-2.99D-04 OVMax= 1.36D-03

 Cycle   7  Pass 1  IDiag  1:
 RMSU=  1.40D-05    CP:  9.78D-01  8.29D-01  7.09D-01  7.29D-01  6.82D-01
                    CP:  7.28D-01
 E= -1212.59642627913     Delta-E=       -0.000017558482 Rises=F Damp=F
 DIIS: error= 5.37D-05 at cycle   7 NSaved=   7.
 NSaved= 7 IEnMin= 7 EnMin= -1212.59642627913     IErMin= 7 ErrMin= 5.37D-05
 ErrMax= 5.37D-05  0.00D+00 EMaxC= 1.00D-01 BMatC= 2.96D-06 BMatP= 2.15D-05
 IDIUse=1 WtCom= 1.00D+00 WtEn= 0.00D+00
 Coeff-Com: -0.684D-03-0.317D-03 0.102D-01 0.336D-01 0.998D-01 0.314D+00
 Coeff-Com:  0.543D+00
 Coeff:     -0.684D-03-0.317D-03 0.102D-01 0.336D-01 0.998D-01 0.314D+00
 Coeff:      0.543D+00
 Gap=     0.129 Goal=   None    Shift=    0.000
 RMSDP=6.67D-06 MaxDP=2.90D-04 DE=-1.76D-05 OVMax= 5.74D-04

 Cycle   8  Pass 1  IDiag  1:
 RMSU=  4.35D-06    CP:  9.78D-01  8.29D-01  7.09D-01  7.30D-01  6.86D-01
                    CP:  7.73D-01  6.72D-01
 E= -1212.59642904956     Delta-E=       -0.000002770433 Rises=F Damp=F
 DIIS: error= 1.35D-05 at cycle   8 NSaved=   8.
 NSaved= 8 IEnMin= 8 EnMin= -1212.59642904956     IErMin= 8 ErrMin= 1.35D-05
 ErrMax= 1.35D-05  0.00D+00 EMaxC= 1.00D-01 BMatC= 2.05D-07 BMatP= 2.96D-06
 IDIUse=1 WtCom= 1.00D+00 WtEn= 0.00D+00
 Coeff-Com: -0.688D-04-0.329D-03 0.171D-03 0.136D-02 0.138D-01 0.702D-01
 Coeff-Com:  0.250D+00 0.665D+00
 Coeff:     -0.688D-04-0.329D-03 0.171D-03 0.136D-02 0.138D-01 0.702D-01
 Coeff:      0.250D+00 0.665D+00
 Gap=     0.129 Goal=   None    Shift=    0.000
 RMSDP=2.07D-06 MaxDP=8.31D-05 DE=-2.77D-06 OVMax= 1.45D-04

 Cycle   9  Pass 1  IDiag  1:
 RMSU=  1.61D-06    CP:  9.78D-01  8.29D-01  7.09D-01  7.30D-01  6.91D-01
                    CP:  7.79D-01  7.22D-01  8.23D-01
 E= -1212.59642922605     Delta-E=       -0.000000176497 Rises=F Damp=F
 DIIS: error= 6.97D-06 at cycle   9 NSaved=   9.
 NSaved= 9 IEnMin= 9 EnMin= -1212.59642922605     IErMin= 9 ErrMin= 6.97D-06
 ErrMax= 6.97D-06  0.00D+00 EMaxC= 1.00D-01 BMatC= 3.82D-08 BMatP= 2.05D-07
 IDIUse=1 WtCom= 1.00D+00 WtEn= 0.00D+00
 Coeff-Com:  0.286D-04-0.144D-03-0.966D-03-0.280D-02-0.285D-02 0.396D-02
 Coeff-Com:  0.842D-01 0.376D+00 0.542D+00
 Coeff:      0.286D-04-0.144D-03-0.966D-03-0.280D-02-0.285D-02 0.396D-02
 Coeff:      0.842D-01 0.376D+00 0.542D+00
 Gap=     0.129 Goal=   None    Shift=    0.000
 RMSDP=7.80D-07 MaxDP=3.76D-05 DE=-1.76D-07 OVMax= 6.29D-05

 Cycle  10  Pass 1  IDiag  1:
 RMSU=  5.09D-07    CP:  9.78D-01  8.29D-01  7.09D-01  7.30D-01  6.91D-01
                    CP:  7.83D-01  7.39D-01  8.81D-01  7.36D-01
 E= -1212.59642925984     Delta-E=       -0.000000033784 Rises=F Damp=F
 DIIS: error= 1.89D-06 at cycle  10 NSaved=  10.
 NSaved=10 IEnMin=10 EnMin= -1212.59642925984     IErMin=10 ErrMin= 1.89D-06
 ErrMax= 1.89D-06  0.00D+00 EMaxC= 1.00D-01 BMatC= 3.24D-09 BMatP= 3.82D-08
 IDIUse=1 WtCom= 1.00D+00 WtEn= 0.00D+00
 Coeff-Com:  0.230D-04-0.480D-04-0.579D-03-0.175D-02-0.314D-02-0.597D-02
 Coeff-Com:  0.204D-01 0.135D+00 0.284D+00 0.572D+00
 Coeff:      0.230D-04-0.480D-04-0.579D-03-0.175D-02-0.314D-02-0.597D-02
 Coeff:      0.204D-01 0.135D+00 0.284D+00 0.572D+00
 Gap=     0.129 Goal=   None    Shift=    0.000
 RMSDP=2.47D-07 MaxDP=8.36D-06 DE=-3.38D-08 OVMax= 1.47D-05

 Cycle  11  Pass 1  IDiag  1:
 RMSU=  1.62D-07    CP:  9.78D-01  8.29D-01  7.09D-01  7.30D-01  6.91D-01
                    CP:  7.84D-01  7.43D-01  8.98D-01  7.78D-01  7.32D-01
 E= -1212.59642926271     Delta-E=       -0.000000002867 Rises=F Damp=F
 DIIS: error= 5.94D-07 at cycle  11 NSaved=  11.
 NSaved=11 IEnMin=11 EnMin= -1212.59642926271     IErMin=11 ErrMin= 5.94D-07
 ErrMax= 5.94D-07  0.00D+00 EMaxC= 1.00D-01 BMatC= 3.40D-10 BMatP= 3.24D-09
 IDIUse=1 WtCom= 1.00D+00 WtEn= 0.00D+00
 Coeff-Com:  0.627D-05 0.216D-06-0.145D-03-0.459D-03-0.109D-02-0.350D-02
 Coeff-Com: -0.535D-03 0.150D-01 0.603D-01 0.277D+00 0.653D+00
 Coeff:      0.627D-05 0.216D-06-0.145D-03-0.459D-03-0.109D-02-0.350D-02
 Coeff:     -0.535D-03 0.150D-01 0.603D-01 0.277D+00 0.653D+00
 Gap=     0.129 Goal=   None    Shift=    0.000
 RMSDP=8.85D-08 MaxDP=2.41D-06 DE=-2.87D-09 OVMax= 9.60D-06

 Cycle  12  Pass 1  IDiag  1:
 RMSU=  5.35D-08    CP:  9.78D-01  8.29D-01  7.09D-01  7.30D-01  6.91D-01
                    CP:  7.84D-01  7.44D-01  9.02D-01  7.95D-01  8.15D-01
                    CP:  7.79D-01
 E= -1212.59642926306     Delta-E=       -0.000000000357 Rises=F Damp=F
 DIIS: error= 1.85D-07 at cycle  12 NSaved=  12.
 NSaved=12 IEnMin=12 EnMin= -1212.59642926306     IErMin=12 ErrMin= 1.85D-07
 ErrMax= 1.85D-07  0.00D+00 EMaxC= 1.00D-01 BMatC= 3.89D-11 BMatP= 3.40D-10
 IDIUse=1 WtCom= 1.00D+00 WtEn= 0.00D+00
 Coeff-Com:  0.673D-06 0.459D-05-0.175D-04-0.586D-04-0.242D-03-0.125D-02
 Coeff-Com: -0.215D-02-0.592D-02 0.167D-02 0.795D-01 0.322D+00 0.606D+00
 Coeff:      0.673D-06 0.459D-05-0.175D-04-0.586D-04-0.242D-03-0.125D-02
 Coeff:     -0.215D-02-0.592D-02 0.167D-02 0.795D-01 0.322D+00 0.606D+00
 Gap=     0.129 Goal=   None    Shift=    0.000
 RMSDP=3.06D-08 MaxDP=1.85D-06 DE=-3.57D-10 OVMax= 2.06D-06

 Cycle  13  Pass 1  IDiag  1:
 RMSU=  2.10D-08    CP:  9.78D-01  8.29D-01  7.09D-01  7.30D-01  6.91D-01
                    CP:  7.85D-01  7.44D-01  9.04D-01  7.99D-01  8.26D-01
                    CP:  8.69D-01  8.11D-01
 E= -1212.59642926310     Delta-E=       -0.000000000035 Rises=F Damp=F
 DIIS: error= 8.13D-08 at cycle  13 NSaved=  13.
 NSaved=13 IEnMin=13 EnMin= -1212.59642926310     IErMin=13 ErrMin= 8.13D-08
 ErrMax= 8.13D-08  0.00D+00 EMaxC= 1.00D-01 BMatC= 4.42D-12 BMatP= 3.89D-11
 IDIUse=1 WtCom= 1.00D+00 WtEn= 0.00D+00
 Coeff-Com: -0.540D-06 0.223D-05 0.102D-04 0.320D-04 0.311D-04-0.132D-03
 Coeff-Com: -0.789D-03-0.460D-02-0.745D-02 0.488D-03 0.687D-01 0.297D+00
 Coeff-Com:  0.647D+00
 Coeff:     -0.540D-06 0.223D-05 0.102D-04 0.320D-04 0.311D-04-0.132D-03
 Coeff:     -0.789D-03-0.460D-02-0.745D-02 0.488D-03 0.687D-01 0.297D+00
 Coeff:      0.647D+00
 Gap=     0.129 Goal=   None    Shift=    0.000
 RMSDP=1.05D-08 MaxDP=5.05D-07 DE=-3.46D-11 OVMax= 9.67D-07

 Cycle  14  Pass 1  IDiag  1:
 RMSU=  6.08D-09    CP:  9.78D-01  8.29D-01  7.09D-01  7.30D-01  6.91D-01
                    CP:  7.85D-01  7.44D-01  9.04D-01  8.01D-01  8.32D-01
                    CP:  8.83D-01  9.05D-01  8.05D-01
 E= -1212.59642926309     Delta-E=        0.000000000008 Rises=F Damp=F
 DIIS: error= 2.88D-08 at cycle  14 NSaved=  14.
 NSaved=14 IEnMin=13 EnMin= -1212.59642926310     IErMin=14 ErrMin= 2.88D-08
 ErrMax= 2.88D-08  0.00D+00 EMaxC= 1.00D-01 BMatC= 5.57D-13 BMatP= 4.42D-12
 IDIUse=1 WtCom= 1.00D+00 WtEn= 0.00D+00
 Coeff-Com: -0.337D-06 0.662D-06 0.640D-05 0.211D-04 0.356D-04 0.324D-04
 Coeff-Com: -0.173D-03-0.172D-02-0.385D-02-0.575D-02 0.108D-01 0.103D+00
 Coeff-Com:  0.341D+00 0.556D+00
 Coeff:     -0.337D-06 0.662D-06 0.640D-05 0.211D-04 0.356D-04 0.324D-04
 Coeff:     -0.173D-03-0.172D-02-0.385D-02-0.575D-02 0.108D-01 0.103D+00
 Coeff:      0.341D+00 0.556D+00
 Gap=     0.129 Goal=   None    Shift=    0.000
 RMSDP=3.48D-09 MaxDP=1.80D-07 DE= 8.19D-12 OVMax= 3.69D-07

 Error on total polarization charges =  0.02584
 SCF Done:  E(RB3LYP) =  -1212.59642926     A.U. after   14 cycles
            NFock= 14  Conv=0.35D-08     -V/T= 2.0059
 KE= 1.205447488383D+03 PE=-5.758159070823D+03 EE= 1.872115731707D+03
 Leave Link  502 at Sun Jul 18 15:18:04 2021, MaxMem=   104857600 cpu:             228.6 elap:              57.2
 (Enter /prod/apps/gaussian/g16b1/l601.exe)
 Copying SCF densities to generalized density rwf, IOpCl= 0 IROHF=0.

 **********************************************************************

            Population analysis using the SCF Density.

 **********************************************************************

 Orbital symmetries:
       Occupied  (A) (A) (A) (A) (A) (A) (A) (A) (A) (A) (A) (A)
                 (A) (A) (A) (A) (A) (A) (A) (A) (A) (A) (A) (A)
                 (A) (A) (A) (A) (A) (A) (A) (A) (A) (A) (A) (A)
                 (A) (A) (A) (A) (A) (A) (A) (A) (A) (A) (A) (A)
                 (A) (A) (A) (A) (A) (A) (A) (A) (A) (A) (A) (A)
                 (A) (A) (A) (A) (A) (A) (A) (A) (A) (A) (A) (A)
       Virtual   (A) (A) (A) (A) (A) (A) (A) (A) (A) (A) (A) (A)
                 (A) (A) (A) (A) (A) (A) (A) (A) (A) (A) (A) (A)
                 (A) (A) (A) (A) (A) (A) (A) (A) (A) (A) (A) (A)
                 (A) (A) (A) (A) (A) (A) (A) (A) (A) (A) (A) (A)
                 (A) (A) (A) (A) (A) (A) (A) (A) (A) (A) (A) (A)
                 (A) (A) (A) (A) (A) (A) (A) (A) (A) (A) (A) (A)
                 (A) (A) (A) (A) (A) (A) (A) (A) (A) (A) (A) (A)
                 (A) (A) (A) (A) (A) (A) (A) (A) (A) (A) (A) (A)
                 (A) (A) (A) (A) (A) (A) (A) (A) (A) (A) (A) (A)
                 (A) (A) (A) (A) (A) (A) (A) (A) (A) (A) (A) (A)
                 (A) (A) (A) (A) (A) (A) (A) (A) (A) (A) (A) (A)
                 (A) (A) (A) (A) (A) (A) (A) (A) (A) (A) (A) (A)
                 (A) (A) (A) (A) (A) (A) (A) (A) (A) (A) (A) (A)
                 (A) (A) (A) (A) (A) (A) (A) (A) (A) (A) (A) (A)
                 (A) (A) (A) (A) (A) (A) (A) (A) (A) (A) (A) (A)
                 (A) (A) (A) (A) (A) (A) (A) (A) (A) (A) (A) (A)
                 (A) (A) (A) (A) (A) (A) (A) (A) (A) (A) (A) (A)
                 (A) (A) (A) (A) (A) (A) (A) (A) (A) (A) (A) (A)
                 (A) (A) (A) (A) (A) (A) (A) (A) (A) (A) (A) (A)
                 (A) (A) (A) (A) (A) (A) (A) (A) (A) (A) (A) (A)
                 (A) (A) (A) (A) (A)
 The electronic state is 1-A.
 Alpha  occ. eigenvalues --  -88.93428 -19.11400 -14.42816 -14.36184 -14.35458
 Alpha  occ. eigenvalues --  -14.35399 -14.34074 -10.33667 -10.31470 -10.28563
 Alpha  occ. eigenvalues --  -10.24524 -10.22991 -10.22873 -10.21193 -10.19753
 Alpha  occ. eigenvalues --  -10.19670 -10.19491 -10.19415 -10.18151  -7.99659
 Alpha  occ. eigenvalues --   -5.96045  -5.95676  -5.95365  -1.11336  -1.05077
 Alpha  occ. eigenvalues --   -1.01461  -0.96830  -0.94313  -0.89541  -0.86320
 Alpha  occ. eigenvalues --   -0.82666  -0.79927  -0.76272  -0.75066  -0.71957
 Alpha  occ. eigenvalues --   -0.68899  -0.65514  -0.62606  -0.62315  -0.61040
 Alpha  occ. eigenvalues --   -0.58820  -0.57444  -0.54791  -0.53895  -0.53063
 Alpha  occ. eigenvalues --   -0.51719  -0.49586  -0.48574  -0.47660  -0.46900
 Alpha  occ. eigenvalues --   -0.46064  -0.45010  -0.44331  -0.44031  -0.43490
 Alpha  occ. eigenvalues --   -0.42098  -0.41097  -0.39656  -0.39475  -0.37956
 Alpha  occ. eigenvalues --   -0.36770  -0.36273  -0.34735  -0.33754  -0.30779
 Alpha  occ. eigenvalues --   -0.30199  -0.27988  -0.26954  -0.26090  -0.25836
 Alpha  occ. eigenvalues --   -0.24839  -0.22863
 Alpha virt. eigenvalues --   -0.10012  -0.03985  -0.01628  -0.00533   0.00851
 Alpha virt. eigenvalues --    0.03572   0.05270   0.08251   0.09490   0.10117
 Alpha virt. eigenvalues --    0.10848   0.12334   0.13236   0.13640   0.14423
 Alpha virt. eigenvalues --    0.14914   0.15529   0.16221   0.16627   0.17615
 Alpha virt. eigenvalues --    0.18414   0.18858   0.19124   0.20104   0.22740
 Alpha virt. eigenvalues --    0.24341   0.25394   0.26407   0.27231   0.29603
 Alpha virt. eigenvalues --    0.30230   0.30846   0.31477   0.33603   0.34619
 Alpha virt. eigenvalues --    0.35612   0.36449   0.38227   0.38951   0.39894
 Alpha virt. eigenvalues --    0.42769   0.43212   0.43765   0.44779   0.49423
 Alpha virt. eigenvalues --    0.50835   0.51429   0.52267   0.52956   0.53667
 Alpha virt. eigenvalues --    0.53880   0.54729   0.55448   0.55629   0.56055
 Alpha virt. eigenvalues --    0.56623   0.57665   0.58282   0.58874   0.60387
 Alpha virt. eigenvalues --    0.61491   0.62133   0.62807   0.63899   0.65122
 Alpha virt. eigenvalues --    0.65380   0.66893   0.67575   0.69221   0.70057
 Alpha virt. eigenvalues --    0.70891   0.71398   0.72227   0.74119   0.74846
 Alpha virt. eigenvalues --    0.75475   0.76053   0.76470   0.77594   0.78915
 Alpha virt. eigenvalues --    0.80541   0.81500   0.82131   0.82440   0.83223
 Alpha virt. eigenvalues --    0.83646   0.84205   0.84593   0.85018   0.85549
 Alpha virt. eigenvalues --    0.86581   0.87605   0.88698   0.89139   0.89471
 Alpha virt. eigenvalues --    0.90595   0.91716   0.92110   0.92463   0.93212
 Alpha virt. eigenvalues --    0.93740   0.94598   0.95223   0.95967   0.97924
 Alpha virt. eigenvalues --    0.98495   0.98786   0.99548   1.01120   1.01186
 Alpha virt. eigenvalues --    1.02691   1.03712   1.03919   1.05620   1.08109
 Alpha virt. eigenvalues --    1.09904   1.12311   1.13151   1.16139   1.17119
 Alpha virt. eigenvalues --    1.17712   1.19129   1.23241   1.25710   1.27725
 Alpha virt. eigenvalues --    1.28769   1.29842   1.31640   1.35081   1.36440
 Alpha virt. eigenvalues --    1.38674   1.39485   1.40203   1.43109   1.44823
 Alpha virt. eigenvalues --    1.47138   1.47415   1.49076   1.49686   1.51828
 Alpha virt. eigenvalues --    1.54310   1.55164   1.60122   1.60756   1.62362
 Alpha virt. eigenvalues --    1.66976   1.69407   1.71868   1.73952   1.74872
 Alpha virt. eigenvalues --    1.76291   1.77368   1.79769   1.81920   1.82090
 Alpha virt. eigenvalues --    1.82716   1.83837   1.84302   1.87419   1.88677
 Alpha virt. eigenvalues --    1.90077   1.90906   1.92612   1.94685   1.95007
 Alpha virt. eigenvalues --    1.96900   1.97218   1.99403   2.01127   2.04088
 Alpha virt. eigenvalues --    2.07761   2.08170   2.10898   2.13264   2.14127
 Alpha virt. eigenvalues --    2.15035   2.16199   2.17965   2.19611   2.20613
 Alpha virt. eigenvalues --    2.22587   2.23271   2.23763   2.24723   2.26460
 Alpha virt. eigenvalues --    2.27195   2.28743   2.29720   2.32361   2.34326
 Alpha virt. eigenvalues --    2.35116   2.37352   2.38772   2.42342   2.43402
 Alpha virt. eigenvalues --    2.44395   2.46806   2.50995   2.53342   2.55696
 Alpha virt. eigenvalues --    2.56081   2.57686   2.58060   2.61168   2.62479
 Alpha virt. eigenvalues --    2.64388   2.65569   2.67456   2.68896   2.70773
 Alpha virt. eigenvalues --    2.75365   2.75837   2.77349   2.79456   2.82825
 Alpha virt. eigenvalues --    2.84356   2.88360   2.95588   2.97663   3.01784
 Alpha virt. eigenvalues --    3.05380   3.09361   3.17117   3.21790   3.27505
 Alpha virt. eigenvalues --    3.43509   3.82209   3.86805   3.92911   4.00646
 Alpha virt. eigenvalues --    4.07810   4.09560   4.11533   4.12384   4.13822
 Alpha virt. eigenvalues --    4.17821   4.20359   4.22373   4.25621   4.29927
 Alpha virt. eigenvalues --    4.37745   4.45165   4.47302   4.56809   4.73660
          Condensed to atoms (all electrons):
               1          2          3          4          5          6
     1  C    5.327709   0.347998   0.361379   0.355683   0.356721  -0.089145
     2  H    0.347998   0.534516  -0.019352  -0.024826  -0.024334   0.003231
     3  H    0.361379  -0.019352   0.513181  -0.023788  -0.021507   0.001516
     4  H    0.355683  -0.024826  -0.023788   0.530102  -0.025052   0.000834
     5  C    0.356721  -0.024334  -0.021507  -0.025052   4.255415   0.627778
     6  O   -0.089145   0.003231   0.001516   0.000834   0.627778   8.121460
     7  N   -0.123867   0.006244   0.002055   0.001792   0.278548  -0.112086
     8  H   -0.000539   0.002382  -0.000032   0.000020  -0.015322   0.002936
     9  C    0.008982   0.000142  -0.000153  -0.000244  -0.021910   0.009768
    10  C    0.000038  -0.000008  -0.000002   0.000019  -0.002782   0.002311
    11  C   -0.000009   0.000001   0.000000  -0.000002  -0.000076  -0.000560
    12  C    0.000001  -0.000000  -0.000000  -0.000000   0.000047   0.000048
    13  H    0.000000  -0.000000  -0.000000  -0.000000  -0.000000   0.000000
    14  H   -0.000000   0.000000  -0.000000   0.000000  -0.000012  -0.000001
    15  H   -0.000151   0.000008   0.000006   0.000003   0.002430  -0.000332
    16  C   -0.000221  -0.000010   0.000011   0.000000  -0.000757  -0.000254
    17  H   -0.000035  -0.000002  -0.000004   0.000002   0.000471  -0.000105
    18  C    0.000000   0.000000  -0.000000   0.000000   0.000012  -0.000060
    19  C   -0.000000   0.000000   0.000000  -0.000000  -0.000004  -0.000000
    20  N    0.000000   0.000000  -0.000000   0.000000  -0.000000  -0.000000
    21  C    0.000000  -0.000000   0.000000  -0.000000   0.000000   0.000000
    22  H   -0.000000  -0.000000  -0.000000   0.000000   0.000001   0.000000
    23  S    0.000000   0.000000   0.000000  -0.000000  -0.000000  -0.000000
    24  C   -0.000000   0.000000   0.000000   0.000000  -0.000000  -0.000000
    25  N   -0.000000   0.000000  -0.000000   0.000000   0.000000  -0.000000
    26  C    0.000000   0.000000  -0.000000   0.000000   0.000000  -0.000000
    27  N    0.000000   0.000000   0.000000   0.000000   0.000000  -0.000000
    28  H    0.000000  -0.000000  -0.000000  -0.000000   0.000000   0.000000
    29  H    0.000000  -0.000000  -0.000000  -0.000000   0.000000   0.000000
    30  N   -0.000000   0.000000   0.000000   0.000000   0.000000  -0.000000
    31  H   -0.000000   0.000000   0.000000   0.000000  -0.000000  -0.000000
    32  H   -0.000000  -0.000000  -0.000000   0.000000   0.000000  -0.000000
    33  H   -0.000000  -0.000000   0.000000  -0.000000   0.000000   0.000000
               7          8          9         10         11         12
     1  C   -0.123867  -0.000539   0.008982   0.000038  -0.000009   0.000001
     2  H    0.006244   0.002382   0.000142  -0.000008   0.000001  -0.000000
     3  H    0.002055  -0.000032  -0.000153  -0.000002   0.000000  -0.000000
     4  H    0.001792   0.000020  -0.000244   0.000019  -0.000002  -0.000000
     5  C    0.278548  -0.015322  -0.021910  -0.002782  -0.000076   0.000047
     6  O   -0.112086   0.002936   0.009768   0.002311  -0.000560   0.000048
     7  N    7.257810   0.301277   0.177273  -0.062742   0.007107   0.001253
     8  H    0.301277   0.333875  -0.019272   0.002256  -0.000110   0.000024
     9  C    0.177273  -0.019272   4.651683   0.552781  -0.016848  -0.042944
    10  C   -0.062742   0.002256   0.552781   4.911310   0.528428  -0.045393
    11  C    0.007107  -0.000110  -0.016848   0.528428   4.913606   0.505067
    12  C    0.001253   0.000024  -0.042944  -0.045393   0.505067   5.039758
    13  H    0.000005  -0.000000   0.000315   0.004780  -0.041460   0.361078
    14  H   -0.000201   0.000003   0.004033  -0.038171   0.356557  -0.039583
    15  H   -0.003700   0.000169  -0.040297   0.356917  -0.038071   0.003966
    16  C   -0.051648  -0.001901   0.523920  -0.058769  -0.048234  -0.067203
    17  H   -0.002674   0.000889  -0.038248   0.005185  -0.000104   0.006423
    18  C    0.003748  -0.000099  -0.007870  -0.034014  -0.008740   0.513862
    19  C   -0.000209   0.000006   0.004986   0.000645   0.007213  -0.056629
    20  N    0.000000  -0.000000  -0.000063  -0.000001   0.000262  -0.004156
    21  C   -0.000004  -0.000000   0.000080   0.000051  -0.000253   0.006143
    22  H    0.000003  -0.000002  -0.000018   0.000003  -0.000010  -0.000081
    23  S   -0.000000   0.000000   0.000004  -0.000001   0.000013   0.000046
    24  C   -0.000000  -0.000000   0.000001   0.000000  -0.000002  -0.000085
    25  N   -0.000000  -0.000000  -0.000000  -0.000000  -0.000000  -0.000007
    26  C    0.000000  -0.000000  -0.000000   0.000000   0.000000   0.000002
    27  N    0.000000   0.000000   0.000000   0.000000  -0.000000  -0.000001
    28  H    0.000000  -0.000000  -0.000000  -0.000000   0.000000   0.000001
    29  H    0.000000  -0.000000  -0.000000  -0.000000   0.000000   0.000000
    30  N    0.000000  -0.000000  -0.000000  -0.000000   0.000000   0.000000
    31  H   -0.000000   0.000000   0.000000  -0.000000   0.000000   0.000000
    32  H    0.000000  -0.000000  -0.000000   0.000000   0.000000  -0.000000
    33  H   -0.000000  -0.000000  -0.000000   0.000000  -0.000000  -0.000000
              13         14         15         16         17         18
     1  C    0.000000  -0.000000  -0.000151  -0.000221  -0.000035   0.000000
     2  H   -0.000000   0.000000   0.000008  -0.000010  -0.000002   0.000000
     3  H   -0.000000  -0.000000   0.000006   0.000011  -0.000004  -0.000000
     4  H   -0.000000   0.000000   0.000003   0.000000   0.000002   0.000000
     5  C   -0.000000  -0.000012   0.002430  -0.000757   0.000471   0.000012
     6  O    0.000000  -0.000001  -0.000332  -0.000254  -0.000105  -0.000060
     7  N    0.000005  -0.000201  -0.003700  -0.051648  -0.002674   0.003748
     8  H   -0.000000   0.000003   0.000169  -0.001901   0.000889  -0.000099
     9  C    0.000315   0.004033  -0.040297   0.523920  -0.038248  -0.007870
    10  C    0.004780  -0.038171   0.356917  -0.058769   0.005185  -0.034014
    11  C   -0.041460   0.356557  -0.038071  -0.048234  -0.000104  -0.008740
    12  C    0.361078  -0.039583   0.003966  -0.067203   0.006423   0.513862
    13  H    0.570622  -0.005389  -0.000132   0.006604  -0.000169  -0.045246
    14  H   -0.005389   0.569677  -0.004791   0.001020   0.000021   0.003578
    15  H   -0.000132  -0.004791   0.556155   0.005551  -0.000146   0.000353
    16  C    0.006604   0.001020   0.005551   5.087898   0.348252   0.504928
    17  H   -0.000169   0.000021  -0.000146   0.348252   0.563382  -0.040978
    18  C   -0.045246   0.003578   0.000353   0.504928  -0.040978   4.788831
    19  C   -0.012190  -0.000178   0.000012  -0.043125  -0.008331   0.330346
    20  N    0.008292  -0.000004   0.000000   0.003205  -0.000031  -0.053076
    21  C    0.000678   0.000001  -0.000000  -0.012853   0.006358  -0.052873
    22  H   -0.000029   0.000000  -0.000000   0.004369   0.001589  -0.005728
    23  S    0.000060  -0.000000   0.000000   0.000378  -0.000135   0.006072
    24  C   -0.000175  -0.000000  -0.000000   0.000001  -0.000028   0.006125
    25  N   -0.000014   0.000000  -0.000000   0.000002  -0.000000  -0.000161
    26  C    0.000018  -0.000000   0.000000  -0.000000   0.000000  -0.000013
    27  N   -0.000000  -0.000000   0.000000  -0.000000   0.000000   0.000004
    28  H    0.000001  -0.000000  -0.000000  -0.000000  -0.000000   0.000003
    29  H    0.000000  -0.000000  -0.000000  -0.000000  -0.000000   0.000000
    30  N    0.000000   0.000000   0.000000   0.000000   0.000000  -0.000000
    31  H    0.000000   0.000000   0.000000   0.000000   0.000000  -0.000000
    32  H    0.000000  -0.000000  -0.000000  -0.000000  -0.000000   0.000000
    33  H   -0.000000   0.000000  -0.000000  -0.000000  -0.000000   0.000002
              19         20         21         22         23         24
     1  C   -0.000000   0.000000   0.000000  -0.000000   0.000000  -0.000000
     2  H    0.000000   0.000000  -0.000000  -0.000000   0.000000   0.000000
     3  H    0.000000  -0.000000   0.000000  -0.000000   0.000000   0.000000
     4  H   -0.000000   0.000000  -0.000000   0.000000  -0.000000   0.000000
     5  C   -0.000004  -0.000000   0.000000   0.000001  -0.000000  -0.000000
     6  O   -0.000000  -0.000000   0.000000   0.000000  -0.000000  -0.000000
     7  N   -0.000209   0.000000  -0.000004   0.000003  -0.000000  -0.000000
     8  H    0.000006  -0.000000  -0.000000  -0.000002   0.000000  -0.000000
     9  C    0.004986  -0.000063   0.000080  -0.000018   0.000004   0.000001
    10  C    0.000645  -0.000001   0.000051   0.000003  -0.000001   0.000000
    11  C    0.007213   0.000262  -0.000253  -0.000010   0.000013  -0.000002
    12  C   -0.056629  -0.004156   0.006143  -0.000081   0.000046  -0.000085
    13  H   -0.012190   0.008292   0.000678  -0.000029   0.000060  -0.000175
    14  H   -0.000178  -0.000004   0.000001   0.000000  -0.000000  -0.000000
    15  H    0.000012   0.000000  -0.000000  -0.000000   0.000000  -0.000000
    16  C   -0.043125   0.003205  -0.012853   0.004369   0.000378   0.000001
    17  H   -0.008331  -0.000031   0.006358   0.001589  -0.000135  -0.000028
    18  C    0.330346  -0.053076  -0.052873  -0.005728   0.006072   0.006125
    19  C    4.739709   0.403649   0.518574  -0.017550  -0.068879  -0.056282
    20  N    0.403649   6.929043  -0.097326   0.004885  -0.091424   0.460227
    21  C    0.518574  -0.097326   5.382127   0.350337   0.312268  -0.054262
    22  H   -0.017550   0.004885   0.350337   0.459717  -0.024934   0.001981
    23  S   -0.068879  -0.091424   0.312268  -0.024934  15.320281   0.307963
    24  C   -0.056282   0.460227  -0.054262   0.001981   0.307963   4.819708
    25  N    0.000727  -0.060385   0.002367  -0.000020  -0.069946   0.250359
    26  C    0.000455   0.009140   0.000156  -0.000001   0.006766  -0.044114
    27  N    0.000104  -0.002494  -0.000019   0.000000   0.000600  -0.000821
    28  H   -0.000086   0.003668  -0.000070  -0.000001   0.000283   0.007785
    29  H    0.000002   0.000190  -0.000000  -0.000000   0.000053   0.000380
    30  N   -0.000005   0.000422   0.000002  -0.000000  -0.000271   0.006311
    31  H   -0.000001   0.000016  -0.000000  -0.000000   0.000012  -0.000255
    32  H    0.000001   0.000018   0.000001  -0.000000  -0.000042   0.001131
    33  H   -0.000036   0.001804   0.000032  -0.000001  -0.000019  -0.013351
              25         26         27         28         29         30
     1  C   -0.000000   0.000000   0.000000   0.000000   0.000000  -0.000000
     2  H    0.000000   0.000000   0.000000  -0.000000  -0.000000   0.000000
     3  H   -0.000000  -0.000000   0.000000  -0.000000  -0.000000   0.000000
     4  H    0.000000   0.000000   0.000000  -0.000000  -0.000000   0.000000
     5  C    0.000000   0.000000   0.000000   0.000000   0.000000   0.000000
     6  O   -0.000000  -0.000000  -0.000000   0.000000   0.000000  -0.000000
     7  N   -0.000000   0.000000   0.000000   0.000000   0.000000   0.000000
     8  H   -0.000000  -0.000000   0.000000  -0.000000  -0.000000  -0.000000
     9  C   -0.000000  -0.000000   0.000000  -0.000000  -0.000000  -0.000000
    10  C   -0.000000   0.000000   0.000000  -0.000000  -0.000000  -0.000000
    11  C   -0.000000   0.000000  -0.000000   0.000000   0.000000   0.000000
    12  C   -0.000007   0.000002  -0.000001   0.000001   0.000000   0.000000
    13  H   -0.000014   0.000018  -0.000000   0.000001   0.000000   0.000000
    14  H    0.000000  -0.000000  -0.000000  -0.000000  -0.000000   0.000000
    15  H   -0.000000   0.000000   0.000000  -0.000000  -0.000000   0.000000
    16  C    0.000002  -0.000000  -0.000000  -0.000000  -0.000000   0.000000
    17  H   -0.000000   0.000000   0.000000  -0.000000  -0.000000   0.000000
    18  C   -0.000161  -0.000013   0.000004   0.000003   0.000000  -0.000000
    19  C    0.000727   0.000455   0.000104  -0.000086   0.000002  -0.000005
    20  N   -0.060385   0.009140  -0.002494   0.003668   0.000190   0.000422
    21  C    0.002367   0.000156  -0.000019  -0.000070  -0.000000   0.000002
    22  H   -0.000020  -0.000001   0.000000  -0.000001  -0.000000  -0.000000
    23  S   -0.069946   0.006766   0.000600   0.000283   0.000053  -0.000271
    24  C    0.250359  -0.044114  -0.000821   0.007785   0.000380   0.006311
    25  N    6.906349   0.428586  -0.126072  -0.014035   0.004724  -0.042434
    26  C    0.428586   4.308741   0.423494  -0.028786  -0.054981   0.363393
    27  N   -0.126072   0.423494   7.040757   0.294344   0.333513  -0.361363
    28  H   -0.014035  -0.028786   0.294344   0.332579  -0.011772   0.018180
    29  H    0.004724  -0.054981   0.333513  -0.011772   0.281418   0.000061
    30  N   -0.042434   0.363393  -0.361363   0.018180   0.000061   7.274020
    31  H    0.000489  -0.020267   0.009636  -0.000404   0.001490   0.283804
    32  H    0.000266  -0.050134   0.016651  -0.001595   0.002220   0.300135
    33  H    0.297123  -0.024518   0.005253  -0.000170  -0.000282  -0.003442
              31         32         33
     1  C   -0.000000  -0.000000  -0.000000
     2  H    0.000000  -0.000000  -0.000000
     3  H    0.000000  -0.000000   0.000000
     4  H    0.000000   0.000000  -0.000000
     5  C   -0.000000   0.000000   0.000000
     6  O   -0.000000  -0.000000   0.000000
     7  N   -0.000000   0.000000  -0.000000
     8  H    0.000000  -0.000000  -0.000000
     9  C    0.000000  -0.000000  -0.000000
    10  C   -0.000000   0.000000   0.000000
    11  C    0.000000   0.000000  -0.000000
    12  C    0.000000  -0.000000  -0.000000
    13  H    0.000000   0.000000  -0.000000
    14  H    0.000000  -0.000000   0.000000
    15  H    0.000000  -0.000000  -0.000000
    16  C    0.000000  -0.000000  -0.000000
    17  H    0.000000  -0.000000  -0.000000
    18  C   -0.000000   0.000000   0.000002
    19  C   -0.000001   0.000001  -0.000036
    20  N    0.000016   0.000018   0.001804
    21  C   -0.000000   0.000001   0.000032
    22  H   -0.000000  -0.000000  -0.000001
    23  S    0.000012  -0.000042  -0.000019
    24  C   -0.000255   0.001131  -0.013351
    25  N    0.000489   0.000266   0.297123
    26  C   -0.020267  -0.050134  -0.024518
    27  N    0.009636   0.016651   0.005253
    28  H   -0.000404  -0.001595  -0.000170
    29  H    0.001490   0.002220  -0.000282
    30  N    0.283804   0.300135  -0.003442
    31  H    0.326257  -0.010543   0.000294
    32  H   -0.010543   0.350719   0.007621
    33  H    0.000294   0.007621   0.250777
 Mulliken charges:
               1
     1  C   -0.544544
     2  H    0.174010
     3  H    0.186689
     4  H    0.185457
     5  C    0.590336
     6  O   -0.567339
     7  N   -0.679982
     8  H    0.393443
     9  C    0.253899
    10  C   -0.122842
    11  C   -0.163776
    12  C   -0.181637
[...]
 Alpha virt. eigenvalues --    3.68672   3.72775   3.74886   3.75037   3.75719
 Alpha virt. eigenvalues --    3.78334   3.80868   3.84807   3.94770   4.04564
 Alpha virt. eigenvalues --    4.07914   4.15775   4.21094   4.91899
          Condensed to atoms (all electrons):
               1          2          3          4          5          6
     1  C    4.703916   0.217755   0.357588   0.350815  -0.021366  -0.051367
     2  H    0.217755   1.166561  -0.088034  -0.079059   0.253856  -0.006938
     3  H    0.357588  -0.088034   0.718866  -0.043120  -0.066667   0.015479
     4  H    0.350815  -0.079059  -0.043120   0.707732  -0.050770   0.011416
     5  C   -0.021366   0.253856  -0.066667  -0.050770   5.769404   0.126808
     6  O   -0.051367  -0.006938   0.015479   0.011416   0.126808   8.805632
     7  N   -0.082529  -0.204349   0.062993   0.057810   0.073715  -0.142300
     8  H   -0.082290  -0.008002  -0.001334  -0.000609  -0.106708  -0.012821
     9  C    0.254694  -0.044518  -0.012513  -0.022462  -0.485972   0.202886
    10  C   -0.029494   0.033667  -0.002182  -0.000689   0.236160   0.034396
    11  C   -0.005631  -0.005093   0.003295   0.003763  -0.025289  -0.066629
    12  C   -0.019707  -0.004132  -0.000733  -0.000574   0.061835   0.002289
    13  H   -0.000230   0.000032   0.000004  -0.000039  -0.006378   0.000399
    14  H    0.001327  -0.000040   0.000190   0.000193   0.016628  -0.000547
    15  H   -0.022193   0.002490  -0.002569  -0.002318   0.120346  -0.073731
    16  C   -0.161831  -0.041859   0.005873   0.007041  -0.326283   0.006626
    17  H    0.047116   0.001847   0.000763   0.000714  -0.056270   0.010460
    18  C    0.035254   0.022613  -0.002047  -0.002497  -0.037505   0.012894
    19  C   -0.003204  -0.004023   0.000765   0.000298   0.045157  -0.009060
    20  N   -0.000263  -0.000008   0.000002  -0.000008   0.002022  -0.000084
    21  C    0.001614   0.001148  -0.000179   0.000172  -0.014933   0.001295
    22  H   -0.000645   0.000566  -0.000001   0.000003   0.005789  -0.000352
    23  S    0.000130   0.000074  -0.000008  -0.000001  -0.000537   0.000038
    24  C   -0.000261  -0.000344   0.000039   0.000026   0.004429  -0.000238
    25  N   -0.000006  -0.000000  -0.000001  -0.000001  -0.000074   0.000002
    26  C    0.000004  -0.000001   0.000000  -0.000000  -0.000058   0.000003
    27  N    0.000001   0.000002  -0.000000  -0.000000  -0.000033   0.000001
    28  H   -0.000025  -0.000016  -0.000001   0.000004   0.000547  -0.000040
    29  H   -0.000000   0.000000  -0.000000  -0.000000  -0.000018   0.000001
    30  N    0.000000   0.000000  -0.000000  -0.000000   0.000000   0.000000
    31  H   -0.000000  -0.000000  -0.000000   0.000000   0.000000  -0.000000
    32  H    0.000000   0.000000  -0.000000  -0.000000  -0.000001   0.000000
    33  H    0.000000  -0.000001   0.000000   0.000000   0.000026  -0.000000
               7          8          9         10         11         12
     1  C   -0.082529  -0.082290   0.254694  -0.029494  -0.005631  -0.019707
     2  H   -0.204349  -0.008002  -0.044518   0.033667  -0.005093  -0.004132
     3  H    0.062993  -0.001334  -0.012513  -0.002182   0.003295  -0.000733
     4  H    0.057810  -0.000609  -0.022462  -0.000689   0.003763  -0.000574
     5  C    0.073715  -0.106708  -0.485972   0.236160  -0.025289   0.061835
     6  O   -0.142300  -0.012821   0.202886   0.034396  -0.066629   0.002289
     7  N    8.197319   0.311834  -1.218743   0.901991  -0.289517   0.272866
     8  H    0.311834   0.978584  -0.184425  -0.182404  -0.009810   0.031290
     9  C   -1.218743  -0.184425  18.343091  -6.492627   3.968875  -3.625470
    10  C    0.901991  -0.182404  -6.492627  16.260301  -6.556118   3.027050
    11  C   -0.289517  -0.009810   3.968875  -6.556118  18.216920  -6.066521
    12  C    0.272866   0.031290  -3.625470   3.027050  -6.066521  21.154312
    13  H    0.000172  -0.004528  -0.055703  -0.157698   0.662592  -1.405324
    14  H   -0.003571  -0.000211  -0.338956   1.122131  -1.637920   0.873980
    15  H   -0.182381   0.010462   0.894007  -1.743666   0.772365  -0.202062
    16  C    0.617123   0.340864  -6.183423   2.603175  -4.183596  -1.754482
    17  H   -0.244522  -0.027391   0.760409  -0.196398   0.051743  -0.108190
    18  C   -0.611457  -0.071229   1.167608  -4.111910   1.616923  -5.998149
    19  C    0.098430   0.056816  -1.907908   0.612101  -0.748792   0.766566
    20  N   -0.005394   0.000359   0.143429  -0.050295   0.010719  -0.080940
    21  C   -0.054528  -0.028149   0.976067  -0.353645   0.238580  -1.477150
    22  H   -0.002049  -0.002833  -0.050522  -0.024580   0.021183   0.117463
    23  S    0.000290   0.000329  -0.018544   0.018242  -0.027917   0.060180
    24  C   -0.000536   0.008774   0.210012  -0.114091   0.172236  -0.307081
    25  N    0.000328   0.000073  -0.014692   0.008400  -0.024974   0.021195
    26  C   -0.000165   0.000084  -0.002459  -0.001923   0.035237  -0.020051
    27  N   -0.000103  -0.000120   0.001435  -0.001084  -0.015862  -0.010882
    28  H    0.000707   0.000469   0.000026   0.003389  -0.006497  -0.007035
    29  H   -0.000027  -0.000019  -0.000187   0.000128   0.003484   0.003510
    30  N    0.000001  -0.000004  -0.000236   0.000341  -0.001295   0.000076
    31  H    0.000001   0.000004  -0.000011   0.000017   0.000227  -0.000041
    32  H   -0.000002  -0.000007  -0.000049   0.000035  -0.000021   0.000542
    33  H    0.000023   0.000071   0.000604  -0.000013  -0.000023  -0.003324
              13         14         15         16         17         18
     1  C   -0.000230   0.001327  -0.022193  -0.161831   0.047116   0.035254
     2  H    0.000032  -0.000040   0.002490  -0.041859   0.001847   0.022613
     3  H    0.000004   0.000190  -0.002569   0.005873   0.000763  -0.002047
     4  H   -0.000039   0.000193  -0.002318   0.007041   0.000714  -0.002497
     5  C   -0.006378   0.016628   0.120346  -0.326283  -0.056270  -0.037505
     6  O    0.000399  -0.000547  -0.073731   0.006626   0.010460   0.012894
     7  N    0.000172  -0.003571  -0.182381   0.617123  -0.244522  -0.611457
     8  H   -0.004528  -0.000211   0.010462   0.340864  -0.027391  -0.071229
     9  C   -0.055703  -0.338956   0.894007  -6.183423   0.760409   1.167608
    10  C   -0.157698   1.122131  -1.743666   2.603175  -0.196398  -4.111910
    11  C    0.662592  -1.637920   0.772365  -4.183596   0.051743   1.616923
    12  C   -1.405324   0.873980  -0.202062  -1.754482  -0.108190  -5.998149
    13  H    2.175893  -0.117721  -0.007354  -0.160408  -0.001275   0.686119
    14  H   -0.117721   1.851030  -0.102451   0.103197   0.010810  -0.255124
    15  H   -0.007354  -0.102451   2.342442  -0.074284  -0.034019  -0.067167
    16  C   -0.160408   0.103197  -0.074284  27.026645  -2.334426  -8.549417
    17  H   -0.001275   0.010810  -0.034019  -2.334426   2.517608   1.457254
    18  C    0.686119  -0.255124  -0.067167  -8.549417   1.457254  24.032879
    19  C    0.148210  -0.022403   0.019319  -0.301419  -0.321908  -8.184008
    20  N   -0.093345   0.005515   0.001206  -0.036735   0.012368   0.502464
    21  C    0.028847   0.004602  -0.000941  -1.538745   0.330638   2.756840
    22  H    0.004227  -0.000691   0.001923   0.002815  -0.057833  -0.229320
    23  S    0.001480  -0.001063   0.000382   0.003390  -0.003083  -0.276021
    24  C   -0.058265   0.005009  -0.002385  -0.161444  -0.037222   0.625739
    25  N    0.008361  -0.001306   0.000262   0.057856   0.001254  -0.235270
    26  C    0.002764   0.001510  -0.000252  -0.039457  -0.000100  -0.014476
    27  N    0.000917  -0.000095   0.000076   0.012882   0.000564   0.036554
    28  H   -0.012804   0.000760   0.000054   0.005022  -0.002178   0.026856
    29  H   -0.000637  -0.000027   0.000021   0.000646   0.000120  -0.006920
    30  N    0.001947  -0.000136   0.000010   0.001619   0.000131  -0.003367
    31  H   -0.000129   0.000008  -0.000003  -0.000304  -0.000027  -0.000509
    32  H   -0.000034   0.000001   0.000001   0.000149   0.000077  -0.000030
    33  H   -0.001181   0.000021   0.000001  -0.002498  -0.000960   0.009092
              19         20         21         22         23         24
     1  C   -0.003204  -0.000263   0.001614  -0.000645   0.000130  -0.000261
     2  H   -0.004023  -0.000008   0.001148   0.000566   0.000074  -0.000344
     3  H    0.000765   0.000002  -0.000179  -0.000001  -0.000008   0.000039
     4  H    0.000298  -0.000008   0.000172   0.000003  -0.000001   0.000026
     5  C    0.045157   0.002022  -0.014933   0.005789  -0.000537   0.004429
     6  O   -0.009060  -0.000084   0.001295  -0.000352   0.000038  -0.000238
     7  N    0.098430  -0.005394  -0.054528  -0.002049   0.000290  -0.000536
     8  H    0.056816   0.000359  -0.028149  -0.002833   0.000329   0.008774
     9  C   -1.907908   0.143429   0.976067  -0.050522  -0.018544   0.210012
    10  C    0.612101  -0.050295  -0.353645  -0.024580   0.018242  -0.114091
    11  C   -0.748792   0.010719   0.238580   0.021183  -0.027917   0.172236
    12  C    0.766566  -0.080940  -1.477150   0.117463   0.060180  -0.307081
    13  H    0.148210  -0.093345   0.028847   0.004227   0.001480  -0.058265
    14  H   -0.022403   0.005515   0.004602  -0.000691  -0.001063   0.005009
    15  H    0.019319   0.001206  -0.000941   0.001923   0.000382  -0.002385
    16  C   -0.301419  -0.036735  -1.538745   0.002815   0.003390  -0.161444
    17  H   -0.321908   0.012368   0.330638  -0.057833  -0.003083  -0.037222
    18  C   -8.184008   0.502464   2.756840  -0.229320  -0.276021   0.625739
    19  C   26.444509  -1.481056  -8.356672   0.909802   0.148102  -1.932686
    20  N   -1.481056   8.072744   0.657873   0.002868  -0.199929   0.399807
    21  C   -8.356672   0.657873  13.789260  -0.466516   0.148171  -0.871709
    22  H    0.909802   0.002868  -0.466516   1.594749  -0.227827  -0.002289
    23  S    0.148102  -0.199929   0.148171  -0.227827  15.842176   0.230409
    24  C   -1.932686   0.399807  -0.871709  -0.002289   0.230409   8.220430
    25  N    0.678856  -0.177144  -0.057944  -0.016508  -0.135482  -0.334272
    26  C    0.120357   0.039045  -0.159589  -0.009336  -0.061742  -0.434326
    27  N   -0.109816  -0.020659   0.074340   0.002637  -0.010611   0.018737
    28  H   -0.033892  -0.018140  -0.060891  -0.002281   0.002450   0.033586
    29  H    0.011195  -0.001782   0.002421   0.000045  -0.001121  -0.001792
    30  N    0.026923   0.004944  -0.001808  -0.000134   0.004478   0.026028
    31  H    0.003352   0.002350  -0.003691  -0.000169  -0.000158  -0.015435
    32  H   -0.000481   0.000201   0.001227   0.000053  -0.002225  -0.024561
    33  H   -0.086283  -0.014963   0.001800   0.001328   0.023107  -0.097716
              25         26         27         28         29         30
     1  C   -0.000006   0.000004   0.000001  -0.000025  -0.000000   0.000000
     2  H   -0.000000  -0.000001   0.000002  -0.000016   0.000000   0.000000
     3  H   -0.000001   0.000000  -0.000000  -0.000001  -0.000000  -0.000000
     4  H   -0.000001  -0.000000  -0.000000   0.000004  -0.000000  -0.000000
     5  C   -0.000074  -0.000058  -0.000033   0.000547  -0.000018   0.000000
     6  O    0.000002   0.000003   0.000001  -0.000040   0.000001   0.000000
     7  N    0.000328  -0.000165  -0.000103   0.000707  -0.000027   0.000001
     8  H    0.000073   0.000084  -0.000120   0.000469  -0.000019  -0.000004
     9  C   -0.014692  -0.002459   0.001435   0.000026  -0.000187  -0.000236
    10  C    0.008400  -0.001923  -0.001084   0.003389   0.000128   0.000341
    11  C   -0.024974   0.035237  -0.015862  -0.006497   0.003484  -0.001295
    12  C    0.021195  -0.020051  -0.010882  -0.007035   0.003510   0.000076
    13  H    0.008361   0.002764   0.000917  -0.012804  -0.000637   0.001947
    14  H   -0.001306   0.001510  -0.000095   0.000760  -0.000027  -0.000136
    15  H    0.000262  -0.000252   0.000076   0.000054   0.000021   0.000010
    16  C    0.057856  -0.039457   0.012882   0.005022   0.000646   0.001619
    17  H    0.001254  -0.000100   0.000564  -0.002178   0.000120   0.000131
    18  C   -0.235270  -0.014476   0.036554   0.026856  -0.006920  -0.003367
    19  C    0.678856   0.120357  -0.109816  -0.033892   0.011195   0.026923
    20  N   -0.177144   0.039045  -0.020659  -0.018140  -0.001782   0.004944
    21  C   -0.057944  -0.159589   0.074340  -0.060891   0.002421  -0.001808
    22  H   -0.016508  -0.009336   0.002637  -0.002281   0.000045  -0.000134
    23  S   -0.135482  -0.061742  -0.010611   0.002450  -0.001121   0.004478
    24  C   -0.334272  -0.434326   0.018737   0.033586  -0.001792   0.026028
    25  N    7.435707   0.199231  -0.035979  -0.035528   0.019501  -0.099028
    26  C    0.199231   5.187840   0.153452  -0.096954  -0.126224   0.111945
    27  N   -0.035979   0.153452   6.320968   0.417011   0.448742  -0.105980
    28  H   -0.035528  -0.096954   0.417011   0.849359  -0.201290   0.010378
    29  H    0.019501  -0.126224   0.448742  -0.201290   0.849653  -0.002892
    30  N   -0.099028   0.111945  -0.105980   0.010378  -0.002892   6.389792
    31  H   -0.021796  -0.071902  -0.016792   0.003346  -0.009011   0.460694
    32  H    0.020102  -0.081239   0.005161  -0.001565   0.002650   0.449641
    33  H    0.436582  -0.104550   0.013149   0.003673  -0.000816  -0.006204
              31         32         33
     1  C   -0.000000   0.000000   0.000000
     2  H   -0.000000   0.000000  -0.000001
     3  H   -0.000000  -0.000000   0.000000
     4  H    0.000000  -0.000000   0.000000
     5  C    0.000000  -0.000001   0.000026
     6  O   -0.000000   0.000000  -0.000000
     7  N    0.000001  -0.000002   0.000023
     8  H    0.000004  -0.000007   0.000071
     9  C   -0.000011  -0.000049   0.000604
    10  C    0.000017   0.000035  -0.000013
    11  C    0.000227  -0.000021  -0.000023
    12  C   -0.000041   0.000542  -0.003324
    13  H   -0.000129  -0.000034  -0.001181
    14  H    0.000008   0.000001   0.000021
    15  H   -0.000003   0.000001   0.000001
    16  C   -0.000304   0.000149  -0.002498
    17  H   -0.000027   0.000077  -0.000960
    18  C   -0.000509  -0.000030   0.009092
    19  C    0.003352  -0.000481  -0.086283
    20  N    0.002350   0.000201  -0.014963
    21  C   -0.003691   0.001227   0.001800
    22  H   -0.000169   0.000053   0.001328
    23  S   -0.000158  -0.002225   0.023107
    24  C   -0.015435  -0.024561  -0.097716
    25  N   -0.021796   0.020102   0.436582
    26  C   -0.071902  -0.081239  -0.104550
    27  N   -0.016792   0.005161   0.013149
    28  H    0.003346  -0.001565   0.003673
    29  H   -0.009011   0.002650  -0.000816
    30  N    0.460694   0.449641  -0.006204
    31  H    0.780021  -0.143078   0.002148
    32  H   -0.143078   0.774030  -0.003800
    33  H    0.002148  -0.003800   0.833495
 Mulliken charges:
               1
     1  C    0.510828
     2  H   -0.214192
     3  H    0.053533
     4  H    0.062161
     5  C    0.482140
     6  O   -0.866514
     7  N   -0.553430
     8  H   -0.017119
     9  C   -0.263723
    10  C    1.157294
    11  C   -0.106636
    12  C    0.698695
    13  H   -0.638910
    14  H   -0.514647
    15  H   -0.647592
    16  C    1.055687
    17  H   -0.778073
    18  C    1.667335
    19  C   -0.587144
    20  N   -0.677173
    21  C    0.432194
    22  H   -0.571565
    23  S    0.482843
    24  C    0.441390
    25  N   -0.697706
    26  C    1.373333
    27  N   -0.178612
    28  H    0.121501
    29  H    0.010647
    30  N   -0.267867
    31  H    0.030888
    32  H    0.003222
    33  H   -0.002789
 Sum of Mulliken charges =   1.00000
 Mulliken charges with hydrogens summed into heavy atoms:
               1
     1  C    0.412330
     5  C    0.482140
     6  O   -0.866514
     7  N   -0.570548
     9  C   -0.263723
    10  C    0.509702
    11  C   -0.621283
    12  C    0.059785
    16  C    0.277614
    18  C    1.667335
    19  C   -0.587144
    20  N   -0.677173
    21  C   -0.139370
    23  S    0.482843
    24  C    0.441390
    25  N   -0.700494
    26  C    1.373333
    27  N   -0.046465
    30  N   -0.233757
 Electronic spatial extent (au):  <R**2>=           8743.8498
 Charge=              1.0000 electrons
 Dipole moment (field-independent basis, Debye):
    X=             20.2476    Y=              0.9114    Z=              1.3356  Tot=             20.3121
 Quadrupole moment (field-independent basis, Debye-Ang):
   XX=             14.8306   YY=            -88.2016   ZZ=           -123.5243
   XY=            -40.3276   XZ=              2.5230   YZ=             -1.4444
 Traceless Quadrupole moment (field-independent basis, Debye-Ang):
   XX=             80.4624   YY=            -22.5698   ZZ=            -57.8925
   XY=            -40.3276   XZ=              2.5230   YZ=             -1.4444
 Octapole moment (field-independent basis, Debye-Ang**2):
  XXX=            752.1019  YYY=            -34.9275  ZZZ=              5.6351  XYY=             82.2072
  XXY=              8.5854  XXZ=             53.8724  XZZ=             -1.0205  YZZ=             -0.7069
  YYZ=              3.7038  XYZ=            -20.3812
 Hexadecapole moment (field-independent basis, Debye-Ang**3):
 XXXX=          -4877.5096 YYYY=          -1263.5186 ZZZZ=           -181.2061 XXXY=          -1404.9280
 XXXZ=             97.6142 YYYX=           -239.2566 YYYZ=            -16.4804 ZZZX=             -6.2077
 ZZZY=             -4.7539 XXYY=          -1449.4611 XXZZ=          -1687.9185 YYZZ=           -302.4545
 XXYZ=            -60.0765 YYXZ=             41.0141 ZZXY=            -21.6539
 N-N= 1.442144887825D+03 E-N=-5.704788414500D+03  KE= 1.205984648009D+03
 Leave Link  601 at Sun Jul 18 16:34:36 2021, MaxMem=   262144000 cpu:               1.7 elap:               0.7
 (Enter /prod/apps/gaussian/g16b1/l9999.exe)
 1\1\GINC-PIRINEUS17\SP\RMP2-FC\Aug-CC-pVDZ\C12H14N5O1S1(1+)\UBATOR02\1
 8-Jul-2021\0\\#p mp2/aug-cc-pVDZ scf=tight maxdisk=180GB geom=allcheck
 \\SET_328_BBB321_conf1.geo_165_150_255 geometry\\1,1\C,0,-1.7379844856
 ,-1.1822436339,-5.8152357448\H,0,-0.6593590301,-1.3072514648,-5.919249
 0524\H,0,-2.0736888952,-0.3952471102,-6.4952284535\H,0,-2.2331527343,-
 2.1093092728,-6.1164133455\C,0,-2.1830275147,-0.8306404511,-4.41035184
 26\O,0,-3.3693721311,-0.6226988192,-4.1507379096\N,0,-1.1771414026,-0.
 7721364125,-3.4841428712\H,0,-0.2419740159,-0.9618001388,-3.8267716164
 \C,0,-1.2588930859,-0.4815527321,-2.1083131708\C,0,-2.4634493968,-0.18
 17875294,-1.4504801035\C,0,-2.4385027631,0.1021060156,-0.0854008538\C,
 0,-1.2488252946,0.0924585993,0.6390808539\H,0,-1.2438838349,0.30874619
 86,1.7000725864\H,0,-3.3703775244,0.3338555402,0.420069346\H,0,-3.3846
 65525,-0.1733688618,-2.0120387033\C,0,-0.0607442262,-0.4914482644,-1.3
 826774032\H,0,0.8677336834,-0.7095946945,-1.9005922504\C,0,-0.04210437
 85,-0.2112277636,-0.0106983342\C,0,1.2241725034,-0.2402653648,0.743194
 5383\N,0,1.2606739307,0.2781517317,2.0326914145\C,0,2.4135583136,-0.75
 35165923,0.3044240065\H,0,2.6392578757,-1.2325140464,-0.6351922355\S,0
 ,3.6468505953,-0.5875562202,1.5142212111\C,0,2.4478586555,0.1668373692
 ,2.5529774762\N,0,2.8119865444,0.5992757536,3.8156848869\C,0,2.0329020
 427,1.2908544669,4.6998029364\N,0,0.7840502839,1.6138725658,4.40197197
 53\H,0,0.3929978184,1.3301332856,3.5051722005\H,0,0.2224357897,2.12877
 85666,5.0728036844\N,0,2.580622035,1.6239516375,5.8643591685\H,0,2.039
 1321984,2.1340442122,6.5545688952\H,0,3.5445250818,1.3870004539,6.0764
 035939\H,0,3.760388887,0.3940929762,4.1260251168\\Version=ES64L-G16Rev
 B.01\State=1-A\HF=-1207.1548009\MP2=-1209.9712992\RMSD=5.355e-09\PG=C0
 1 [X(C12H14N5O1S1)]\\@


 REALITY IS FOR PEOPLE WHO CAN'T FACE SCIENCE FICTION.
 Job cpu time:       0 days  2 hours 10 minutes 37.7 seconds.
 Elapsed time:       0 days  0 hours 35 minutes 27.6 seconds.
 File lengths (MBytes):  RWF=  86242 Int=      0 D2E=      0 Chk=     27 Scr=      1
 Normal termination of Gaussian 16 at Sun Jul 18 16:34:38 2021.
