 Entering Gaussian System, Link 0=g16
 Initial command:
 /prod/apps/gaussian/g16b1/l1.exe "/tmp/ubator02/1839592/Gau-185637.inp" -scrdir="/tmp/ubator02/1839592/"
 Entering Link 1 = /prod/apps/gaussian/g16b1/l1.exe PID=    185641.
  
 Copyright (c) 1988-2017, Gaussian, Inc.  All Rights Reserved.
  
 This is part of the Gaussian(R) 16 program.  It is based on
 the Gaussian(R) 09 system (copyright 2009, Gaussian, Inc.),
 the Gaussian(R) 03 system (copyright 2003, Gaussian, Inc.),
 the Gaussian(R) 98 system (copyright 1998, Gaussian, Inc.),
 the Gaussian(R) 94 system (copyright 1995, Gaussian, Inc.),
 the Gaussian 92(TM) system (copyright 1992, Gaussian, Inc.),
 the Gaussian 90(TM) system (copyright 1990, Gaussian, Inc.),
 the Gaussian 88(TM) system (copyright 1988, Gaussian, Inc.),
 the Gaussian 86(TM) system (copyright 1986, Carnegie Mellon
 University), and the Gaussian 82(TM) system (copyright 1983,
 Carnegie Mellon University). Gaussian is a federally registered
 trademark of Gaussian, Inc.
  
 This software contains proprietary and confidential information,
 including trade secrets, belonging to Gaussian, Inc.
  
 This software is provided under written license and may be
 used, copied, transmitted, or stored only in accord with that
 written license.
  
 The following legend is applicable only to US Government
 contracts under FAR:
  
                    RESTRICTED RIGHTS LEGEND
  
 Use, reproduction and disclosure by the US Government is
 subject to restrictions as set forth in subparagraphs (a)
 and (c) of the Commercial Computer Software - Restricted
 Rights clause in FAR 52.227-19.
  
 Gaussian, Inc.
 340 Quinnipiac St., Bldg. 40, Wallingford CT 06492
  
  
 ---------------------------------------------------------------
 Warning -- This program may not be used in any manner that
 competes with the business of Gaussian, Inc. or will provide
 assistance to any competitor of Gaussian, Inc.  The licensee
 of this program is prohibited from giving any competitor of
 Gaussian, Inc. access to this program.  By using this program,
 the user acknowledges that Gaussian, Inc. is engaged in the
 business of creating and licensing software in the field of
 computational chemistry and represents and warrants to the
 licensee that it is not a competitor of Gaussian, Inc. and that
 it will not use this program in any manner prohibited above.
 ---------------------------------------------------------------
  

 Cite this work as:
 Gaussian 16, Revision B.01,
 M. J. Frisch, G. W. Trucks, H. B. Schlegel, G. E. Scuseria, 
 M. A. Robb, J. R. Cheeseman, G. Scalmani, V. Barone, 
 G. A. Petersson, H. Nakatsuji, X. Li, M. Caricato, A. V. Marenich, 
 J. Bloino, B. G. Janesko, R. Gomperts, B. Mennucci, H. P. Hratchian, 
 J. V. Ortiz, A. F. Izmaylov, J. L. Sonnenberg, D. Williams-Young, 
 F. Ding, F. Lipparini, F. Egidi, J. Goings, B. Peng, A. Petrone, 
 T. Henderson, D. Ranasinghe, V. G. Zakrzewski, J. Gao, N. Rega, 
 G. Zheng, W. Liang, M. Hada, M. Ehara, K. Toyota, R. Fukuda, 
 J. Hasegawa, M. Ishida, T. Nakajima, Y. Honda, O. Kitao, H. Nakai, 
 T. Vreven, K. Throssell, J. A. Montgomery, Jr., J. E. Peralta, 
 F. Ogliaro, M. J. Bearpark, J. J. Heyd, E. N. Brothers, K. N. Kudin, 
 V. N. Staroverov, T. A. Keith, R. Kobayashi, J. Normand, 
 K. Raghavachari, A. P. Rendell, J. C. Burant, S. S. Iyengar, 
 J. Tomasi, M. Cossi, J. M. Millam, M. Klene, C. Adamo, R. Cammi, 
 J. W. Ochterski, R. L. Martin, K. Morokuma, O. Farkas, 
 J. B. Foresman, and D. J. Fox, Gaussian, Inc., Wallingford CT, 2016.
 
 ******************************************
 Gaussian 16:  ES64L-G16RevB.01 20-Dec-2017
                18-Jul-2021 
 ******************************************
 %mem=800MB
 %nproc=4
 Will use up to    4 processors via shared memory.
 %chk=SET_328_BBB29_conf1.geo_090_075_180.chk
 -----------------------------------------------------------
 #p b3lyp/6-31G(d) opt freq scrf=(iefpcm,read,solvent=water)
 -----------------------------------------------------------
 1/18=20,19=15,26=3,38=1,40=2/1,3;
 2/9=110,12=2,17=6,18=5,40=1/2;
 3/5=1,6=6,7=1,11=2,25=1,30=1,70=2203,71=1,72=1,74=-5/1,2,3;
 4//1;
 5/5=2,38=5,53=1/2;
 6/7=2,8=2,9=2,10=2,28=1/1;
 7//1,2,3,16;
 1/18=20,19=15,26=3/3(2);
 2/9=110/2;
 99//99;
 2/9=110/2;
 3/5=1,6=6,7=1,11=2,25=1,30=1,70=2205,71=1,72=1,74=-5/1,2,3;
 4/5=5,16=3,69=1/1;
 5/5=2,38=5,53=1/2;
 7//1,2,3,16;
 1/18=20,19=15,26=3/3(-5);
 2/9=110/2;
 6/7=2,8=2,9=2,10=2,19=2,28=1/1;
 99/9=1/99;
 Leave Link    1 at Sun Jul 18 13:49:15 2021, MaxMem=   104857600 cpu:               0.1 elap:               0.0
 (Enter /prod/apps/gaussian/g16b1/l101.exe)
 --------------------------------------------
 SET_328_BBB29_conf1.geo_090_075_180 geometry
 --------------------------------------------
 Symbolic Z-matrix:
 Charge =  1 Multiplicity = 1
 N                    -1.779    -1.346    -3.426 
 H                    -1.16     -1.726    -4.113 
 H                    -2.57     -0.937    -3.88 
 C                    -1.054    -0.286    -2.624 
 H                    -1.712     0.061    -1.822 
 H                    -0.913     0.589    -3.263 
 C                     0.313    -0.792    -2.267 
 H                     0.831    -0.972    -3.211 
 H                     0.211    -1.742    -1.74 
 C                     1.117     0.249    -1.436 
 H                     0.918     1.254    -1.815 
 H                     2.184     0.015    -1.394 
 N                     0.683     0.322    -0.044 
 C                     0.927    -0.699     0.875 
 C                     2.142    -1.348     0.981 
 H                     2.966    -0.944     0.399 
 C                     2.274    -2.516     1.725 
 Cl                    3.883    -3.116     2.031 
 C                     1.18     -3.112     2.357 
 H                     1.35     -4.017     2.935 
 C                    -0.064    -2.48      2.148 
 H                    -1.056    -2.861     2.377 
 C                    -0.194    -1.265     1.443 
 S                    -1.836    -0.573     1.244 
 C                    -1.264     1.092     1.206 
 C                    -0.113     1.379     0.44 
 C                     0.291     2.723     0.442 
 H                     1.251     2.943    -0.019 
 C                    -0.456     3.719     1.062 
 H                    -0.027     4.716     1.015 
 C                    -1.56      3.384     1.776 
 H                    -2.233     4.135     2.182 
 C                    -1.929     2.027     1.947 
 H                    -2.794     1.764     2.551 
 H                    -2.086    -2.075    -2.814 
 
 ITRead=  0  0  0  0  0  0  0  0  0  0  0  0  0  0  0  0  0  0  0  0
 ITRead=  0  0  0  0  0  0  0  0  0  0  0  0  0  0  0
 MicOpt= -1 -1 -1 -1 -1 -1 -1 -1 -1 -1 -1 -1 -1 -1 -1 -1 -1 -1 -1 -1
 MicOpt= -1 -1 -1 -1 -1 -1 -1 -1 -1 -1 -1 -1 -1 -1 -1
 NAtoms=     35 NQM=       35 NQMF=       0 NMMI=      0 NMMIF=      0
                NMic=       0 NMicF=      0.
                    Isotopes and Nuclear Properties:
 (Nuclear quadrupole moments (NQMom) in fm**2, nuclear magnetic moments (NMagM)
  in nuclear magnetons)

  Atom         1           2           3           4           5           6           7           8           9          10
 IAtWgt=          14           1           1          12           1           1          12           1           1          12
 AtmWgt=  14.0030740   1.0078250   1.0078250  12.0000000   1.0078250   1.0078250  12.0000000   1.0078250   1.0078250  12.0000000
 NucSpn=           2           1           1           0           1           1           0           1           1           0
 AtZEff=  -0.0000000  -0.0000000  -0.0000000  -0.0000000  -0.0000000  -0.0000000  -0.0000000  -0.0000000  -0.0000000  -0.0000000
 NQMom=    2.0440000   0.0000000   0.0000000   0.0000000   0.0000000   0.0000000   0.0000000   0.0000000   0.0000000   0.0000000
 NMagM=    0.4037610   2.7928460   2.7928460   0.0000000   2.7928460   2.7928460   0.0000000   2.7928460   2.7928460   0.0000000
 AtZNuc=   7.0000000   1.0000000   1.0000000   6.0000000   1.0000000   1.0000000   6.0000000   1.0000000   1.0000000   6.0000000

  Atom        11          12          13          14          15          16          17          18          19          20
 IAtWgt=           1           1          14          12          12           1          12          35          12           1
 AtmWgt=   1.0078250   1.0078250  14.0030740  12.0000000  12.0000000   1.0078250  12.0000000  34.9688527  12.0000000   1.0078250
 NucSpn=           1           1           2           0           0           1           0           3           0           1
 AtZEff=  -0.0000000  -0.0000000  -0.0000000  -0.0000000  -0.0000000  -0.0000000  -0.0000000  -0.0000000  -0.0000000  -0.0000000
 NQMom=    0.0000000   0.0000000   2.0440000   0.0000000   0.0000000   0.0000000   0.0000000  -8.1650000   0.0000000   0.0000000
 NMagM=    2.7928460   2.7928460   0.4037610   0.0000000   0.0000000   2.7928460   0.0000000   0.8218740   0.0000000   2.7928460
 AtZNuc=   1.0000000   1.0000000   7.0000000   6.0000000   6.0000000   1.0000000   6.0000000  17.0000000   6.0000000   1.0000000

  Atom        21          22          23          24          25          26          27          28          29          30
 IAtWgt=          12           1          12          32          12          12          12           1          12           1
 AtmWgt=  12.0000000   1.0078250  12.0000000  31.9720718  12.0000000  12.0000000  12.0000000   1.0078250  12.0000000   1.0078250
 NucSpn=           0           1           0           0           0           0           0           1           0           1
 AtZEff=  -0.0000000  -0.0000000  -0.0000000  -0.0000000  -0.0000000  -0.0000000  -0.0000000  -0.0000000  -0.0000000  -0.0000000
 NQMom=    0.0000000   0.0000000   0.0000000   0.0000000   0.0000000   0.0000000   0.0000000   0.0000000   0.0000000   0.0000000
 NMagM=    0.0000000   2.7928460   0.0000000   0.0000000   0.0000000   0.0000000   0.0000000   2.7928460   0.0000000   2.7928460
 AtZNuc=   6.0000000   1.0000000   6.0000000  16.0000000   6.0000000   6.0000000   6.0000000   1.0000000   6.0000000   1.0000000

  Atom        31          32          33          34          35
 IAtWgt=          12           1          12           1           1
 AtmWgt=  12.0000000   1.0078250  12.0000000   1.0078250   1.0078250
 NucSpn=           0           1           0           1           1
 AtZEff=  -0.0000000  -0.0000000  -0.0000000  -0.0000000  -0.0000000
 NQMom=    0.0000000   0.0000000   0.0000000   0.0000000   0.0000000
 NMagM=    0.0000000   2.7928460   0.0000000   2.7928460   2.7928460
 AtZNuc=   6.0000000   1.0000000   6.0000000   1.0000000   1.0000000
 Leave Link  101 at Sun Jul 18 13:49:15 2021, MaxMem=   104857600 cpu:               0.5 elap:               0.1
 (Enter /prod/apps/gaussian/g16b1/l103.exe)

 GradGradGradGradGradGradGradGradGradGradGradGradGradGradGradGradGradGrad
 Berny optimization.
 Initialization pass.
                           ----------------------------
                           !    Initial Parameters    !
                           ! (Angstroms and Degrees)  !
 --------------------------                            --------------------------
 ! Name  Definition              Value          Derivative Info.                !
 --------------------------------------------------------------------------------
 ! R1    R(1,2)                  0.9998         estimate D2E/DX2                !
 ! R2    R(1,3)                  0.9995         estimate D2E/DX2                !
 ! R3    R(1,4)                  1.5141         estimate D2E/DX2                !
 ! R4    R(1,35)                 1.0001         estimate D2E/DX2                !
 ! R5    R(4,5)                  1.0939         estimate D2E/DX2                !
 ! R6    R(4,6)                  1.0926         estimate D2E/DX2                !
 ! R7    R(4,7)                  1.5007         estimate D2E/DX2                !
 ! R8    R(7,8)                  1.0917         estimate D2E/DX2                !
 ! R9    R(7,9)                  1.0912         estimate D2E/DX2                !
 ! R10   R(7,10)                 1.5558         estimate D2E/DX2                !
 ! R11   R(10,11)                1.0924         estimate D2E/DX2                !
 ! R12   R(10,12)                1.0932         estimate D2E/DX2                !
 ! R13   R(10,13)                1.4599         estimate D2E/DX2                !
 ! R14   R(13,14)                1.3952         estimate D2E/DX2                !
 ! R15   R(13,26)                1.4089         estimate D2E/DX2                !
 ! R16   R(14,15)                1.3815         estimate D2E/DX2                !
 ! R17   R(14,23)                1.3783         estimate D2E/DX2                !
 ! R18   R(15,16)                1.0867         estimate D2E/DX2                !
 ! R19   R(15,17)                1.3911         estimate D2E/DX2                !
 ! R20   R(17,18)                1.7443         estimate D2E/DX2                !
 ! R21   R(17,19)                1.397          estimate D2E/DX2                !
 ! R22   R(19,20)                1.0872         estimate D2E/DX2                !
 ! R23   R(19,21)                1.4109         estimate D2E/DX2                !
 ! R24   R(21,22)                1.087          estimate D2E/DX2                !
 ! R25   R(21,23)                1.4107         estimate D2E/DX2                !
 ! R26   R(23,24)                1.7929         estimate D2E/DX2                !
 ! R27   R(24,25)                1.7609         estimate D2E/DX2                !
 ! R28   R(25,26)                1.4121         estimate D2E/DX2                !
 ! R29   R(25,33)                1.3658         estimate D2E/DX2                !
 ! R30   R(26,27)                1.4034         estimate D2E/DX2                !
 ! R31   R(27,28)                1.0874         estimate D2E/DX2                !
 ! R32   R(27,29)                1.3908         estimate D2E/DX2                !
 ! R33   R(29,30)                1.0864         estimate D2E/DX2                !
 ! R34   R(29,31)                1.3568         estimate D2E/DX2                !
 ! R35   R(31,32)                1.0871         estimate D2E/DX2                !
 ! R36   R(31,33)                1.4166         estimate D2E/DX2                !
 ! R37   R(33,34)                1.0873         estimate D2E/DX2                !
 ! A1    A(2,1,3)              109.4742         estimate D2E/DX2                !
 ! A2    A(2,1,4)              109.4883         estimate D2E/DX2                !
 ! A3    A(2,1,35)             109.4811         estimate D2E/DX2                !
 ! A4    A(3,1,4)              109.4545         estimate D2E/DX2                !
 ! A5    A(3,1,35)             109.4684         estimate D2E/DX2                !
 ! A6    A(4,1,35)             109.4608         estimate D2E/DX2                !
 ! A7    A(1,4,5)              108.8084         estimate D2E/DX2                !
 ! A8    A(1,4,6)              108.2199         estimate D2E/DX2                !
 ! A9    A(1,4,7)              109.0338         estimate D2E/DX2                !
 ! A10   A(5,4,6)              104.6177         estimate D2E/DX2                !
 ! A11   A(5,4,7)              118.7164         estimate D2E/DX2                !
 ! A12   A(6,4,7)              106.9531         estimate D2E/DX2                !
 ! A13   A(4,7,8)              106.3853         estimate D2E/DX2                !
 ! A14   A(4,7,9)              108.8623         estimate D2E/DX2                !
 ! A15   A(4,7,10)             111.8498         estimate D2E/DX2                !
 ! A16   A(8,7,9)              108.5678         estimate D2E/DX2                !
 ! A17   A(8,7,10)             109.0848         estimate D2E/DX2                !
 ! A18   A(9,7,10)             111.893          estimate D2E/DX2                !
 ! A19   A(7,10,11)            109.6408         estimate D2E/DX2                !
 ! A20   A(7,10,12)            112.4384         estimate D2E/DX2                !
 ! A21   A(7,10,13)            112.8987         estimate D2E/DX2                !
 ! A22   A(11,10,12)           112.8351         estimate D2E/DX2                !
 ! A23   A(11,10,13)           103.3355         estimate D2E/DX2                !
 ! A24   A(12,10,13)           105.3214         estimate D2E/DX2                !
 ! A25   A(10,13,14)           122.6476         estimate D2E/DX2                !
 ! A26   A(10,13,26)           122.2086         estimate D2E/DX2                !
 ! A27   A(14,13,26)           114.9315         estimate D2E/DX2                !
 ! A28   A(13,14,15)           123.2381         estimate D2E/DX2                !
 ! A29   A(13,14,23)           115.4508         estimate D2E/DX2                !
 ! A30   A(15,14,23)           119.3905         estimate D2E/DX2                !
 ! A31   A(14,15,16)           116.8154         estimate D2E/DX2                !
 ! A32   A(14,15,17)           121.259          estimate D2E/DX2                !
 ! A33   A(16,15,17)           121.7779         estimate D2E/DX2                !
 ! A34   A(15,17,18)           118.0451         estimate D2E/DX2                !
 ! A35   A(15,17,19)           121.7268         estimate D2E/DX2                !
 ! A36   A(18,17,19)           119.7536         estimate D2E/DX2                !
 ! A37   A(17,19,20)           118.2428         estimate D2E/DX2                !
 ! A38   A(17,19,21)           115.6178         estimate D2E/DX2                !
 ! A39   A(20,19,21)           126.121          estimate D2E/DX2                !
 ! A40   A(19,21,22)           128.0544         estimate D2E/DX2                !
 ! A41   A(19,21,23)           122.7566         estimate D2E/DX2                !
 ! A42   A(22,21,23)           108.8473         estimate D2E/DX2                !
 ! A43   A(14,23,21)           118.9918         estimate D2E/DX2                !
 ! A44   A(14,23,24)           122.7266         estimate D2E/DX2                !
 ! A45   A(21,23,24)           118.1818         estimate D2E/DX2                !
 ! A46   A(23,24,25)            94.0051         estimate D2E/DX2                !
 ! A47   A(24,25,26)           117.9472         estimate D2E/DX2                !
 ! A48   A(24,25,33)           118.5163         estimate D2E/DX2                !
 ! A49   A(26,25,33)           123.5063         estimate D2E/DX2                !
 ! A50   A(13,26,25)           119.629          estimate D2E/DX2                !
 ! A51   A(13,26,27)           123.8006         estimate D2E/DX2                !
 ! A52   A(25,26,27)           115.3737         estimate D2E/DX2                !
 ! A53   A(26,27,28)           116.5691         estimate D2E/DX2                !
 ! A54   A(26,27,29)           122.1289         estimate D2E/DX2                !
 ! A55   A(28,27,29)           121.2147         estimate D2E/DX2                !
 ! A56   A(27,29,30)           115.2024         estimate D2E/DX2                !
 ! A57   A(27,29,31)           119.6564         estimate D2E/DX2                !
 ! A58   A(30,29,31)           124.7971         estimate D2E/DX2                !
 ! A59   A(29,31,32)           121.986          estimate D2E/DX2                !
 ! A60   A(29,31,33)           120.7962         estimate D2E/DX2                !
 ! A61   A(32,31,33)           117.0917         estimate D2E/DX2                !
 ! A62   A(25,33,31)           117.6089         estimate D2E/DX2                !
 ! A63   A(25,33,34)           121.5423         estimate D2E/DX2                !
 ! A64   A(31,33,34)           120.3964         estimate D2E/DX2                !
 ! D1    D(2,1,4,5)           -175.2078         estimate D2E/DX2                !
 ! D2    D(2,1,4,6)             71.664          estimate D2E/DX2                !
 ! D3    D(2,1,4,7)            -44.331          estimate D2E/DX2                !
 ! D4    D(3,1,4,5)             64.7883         estimate D2E/DX2                !
 ! D5    D(3,1,4,6)            -48.3399         estimate D2E/DX2                !
 ! D6    D(3,1,4,7)           -164.3349         estimate D2E/DX2                !
 ! D7    D(35,1,4,5)           -55.1916         estimate D2E/DX2                !
 ! D8    D(35,1,4,6)          -168.3198         estimate D2E/DX2                !
 ! D9    D(35,1,4,7)            75.6852         estimate D2E/DX2                !
 ! D10   D(1,4,7,8)             61.1039         estimate D2E/DX2                !
 ! D11   D(1,4,7,9)            -55.7166         estimate D2E/DX2                !
 ! D12   D(1,4,7,10)          -179.8777         estimate D2E/DX2                !
 ! D13   D(5,4,7,8)           -173.5942         estimate D2E/DX2                !
 ! D14   D(5,4,7,9)             69.5853         estimate D2E/DX2                !
 ! D15   D(5,4,7,10)           -54.5759         estimate D2E/DX2                !
 ! D16   D(6,4,7,8)            -55.7            estimate D2E/DX2                !
 ! D17   D(6,4,7,9)           -172.5205         estimate D2E/DX2                !
 ! D18   D(6,4,7,10)            63.3183         estimate D2E/DX2                !
 ! D19   D(4,7,10,11)          -38.5368         estimate D2E/DX2                !
 ! D20   D(4,7,10,12)         -164.9201         estimate D2E/DX2                !
 ! D21   D(4,7,10,13)           76.0832         estimate D2E/DX2                !
 ! D22   D(8,7,10,11)           78.8721         estimate D2E/DX2                !
 ! D23   D(8,7,10,12)          -47.5112         estimate D2E/DX2                !
 ! D24   D(8,7,10,13)         -166.5079         estimate D2E/DX2                !
 ! D25   D(9,7,10,11)         -160.9842         estimate D2E/DX2                !
 ! D26   D(9,7,10,12)           72.6325         estimate D2E/DX2                !
 ! D27   D(9,7,10,13)          -46.3642         estimate D2E/DX2                !
 ! D28   D(7,10,13,14)          70.6222         estimate D2E/DX2                !
 ! D29   D(7,10,13,26)        -103.8129         estimate D2E/DX2                !
 ! D30   D(11,10,13,14)       -171.0111         estimate D2E/DX2                !
 ! D31   D(11,10,13,26)         14.5539         estimate D2E/DX2                !
 ! D32   D(12,10,13,14)        -52.4253         estimate D2E/DX2                !
 ! D33   D(12,10,13,26)        133.1397         estimate D2E/DX2                !
 ! D34   D(10,13,14,15)         43.8979         estimate D2E/DX2                !
 ! D35   D(10,13,14,23)       -120.1932         estimate D2E/DX2                !
 ! D36   D(26,13,14,15)       -141.2935         estimate D2E/DX2                !
 ! D37   D(26,13,14,23)         54.6154         estimate D2E/DX2                !
 ! D38   D(10,13,26,25)        131.3479         estimate D2E/DX2                !
 ! D39   D(10,13,26,27)        -61.7452         estimate D2E/DX2                !
 ! D40   D(14,13,26,25)        -43.486          estimate D2E/DX2                !
 ! D41   D(14,13,26,27)        123.4209         estimate D2E/DX2                !
 ! D42   D(13,14,15,16)          7.834          estimate D2E/DX2                !
 ! D43   D(13,14,15,17)       -167.8228         estimate D2E/DX2                !
 ! D44   D(23,14,15,16)        171.3308         estimate D2E/DX2                !
 ! D45   D(23,14,15,17)         -4.3259         estimate D2E/DX2                !
 ! D46   D(13,14,23,21)        166.2832         estimate D2E/DX2                !
 ! D47   D(13,14,23,24)        -10.0141         estimate D2E/DX2                !
 ! D48   D(15,14,23,21)          1.539          estimate D2E/DX2                !
 ! D49   D(15,14,23,24)       -174.7582         estimate D2E/DX2                !
 ! D50   D(14,15,17,18)       -169.7105         estimate D2E/DX2                !
 ! D51   D(14,15,17,19)          2.3628         estimate D2E/DX2                !
 ! D52   D(16,15,17,18)         14.8497         estimate D2E/DX2                !
 ! D53   D(16,15,17,19)       -173.077          estimate D2E/DX2                !
 ! D54   D(15,17,19,20)       -179.2026         estimate D2E/DX2                !
 ! D55   D(15,17,19,21)          2.2632         estimate D2E/DX2                !
 ! D56   D(18,17,19,20)         -7.2617         estimate D2E/DX2                !
 ! D57   D(18,17,19,21)        174.204          estimate D2E/DX2                !
 ! D58   D(17,19,21,22)        167.4249         estimate D2E/DX2                !
 ! D59   D(17,19,21,23)         -5.0929         estimate D2E/DX2                !
 ! D60   D(20,19,21,22)        -10.9766         estimate D2E/DX2                !
 ! D61   D(20,19,21,23)        176.5057         estimate D2E/DX2                !
 ! D62   D(19,21,23,14)          3.2959         estimate D2E/DX2                !
 ! D63   D(19,21,23,24)        179.7621         estimate D2E/DX2                !
 ! D64   D(22,21,23,14)       -170.4841         estimate D2E/DX2                !
 ! D65   D(22,21,23,24)          5.9822         estimate D2E/DX2                !
 ! D66   D(14,23,24,25)        -33.5817         estimate D2E/DX2                !
 ! D67   D(21,23,24,25)        150.0927         estimate D2E/DX2                !
 ! D68   D(23,24,25,26)         43.3713         estimate D2E/DX2                !
 ! D69   D(23,24,25,33)       -134.6992         estimate D2E/DX2                !
 ! D70   D(24,25,26,13)        -12.349          estimate D2E/DX2                !
 ! D71   D(24,25,26,27)        179.6763         estimate D2E/DX2                !
 ! D72   D(33,25,26,13)        165.6176         estimate D2E/DX2                !
 ! D73   D(33,25,26,27)         -2.357          estimate D2E/DX2                !
 ! D74   D(24,25,33,31)       -172.3471         estimate D2E/DX2                !
 ! D75   D(24,25,33,34)         -0.0386         estimate D2E/DX2                !
 ! D76   D(26,25,33,31)          9.6971         estimate D2E/DX2                !
 ! D77   D(26,25,33,34)       -177.9944         estimate D2E/DX2                !
 ! D78   D(13,26,27,28)          3.9818         estimate D2E/DX2                !
 ! D79   D(13,26,27,29)       -172.6565         estimate D2E/DX2                !
 ! D80   D(25,26,27,28)        171.3938         estimate D2E/DX2                !
 ! D81   D(25,26,27,29)         -5.2445         estimate D2E/DX2                !
 ! D82   D(26,27,29,30)        178.6139         estimate D2E/DX2                !
 ! D83   D(26,27,29,31)          5.0278         estimate D2E/DX2                !
 ! D84   D(28,27,29,30)          2.1297         estimate D2E/DX2                !
 ! D85   D(28,27,29,31)       -171.4563         estimate D2E/DX2                !
 ! D86   D(27,29,31,32)       -173.0163         estimate D2E/DX2                !
 ! D87   D(27,29,31,33)          2.7816         estimate D2E/DX2                !
 ! D88   D(30,29,31,32)         14.0541         estimate D2E/DX2                !
 ! D89   D(30,29,31,33)       -170.148          estimate D2E/DX2                !
 ! D90   D(29,31,33,25)         -9.8681         estimate D2E/DX2                !
 ! D91   D(29,31,33,34)        177.731          estimate D2E/DX2                !
 ! D92   D(32,31,33,25)        166.1288         estimate D2E/DX2                !
 ! D93   D(32,31,33,34)         -6.2721         estimate D2E/DX2                !
 --------------------------------------------------------------------------------
 Trust Radius=3.00D-01 FncErr=1.00D-07 GrdErr=1.00D-06 EigMax=2.50D+02 EigMin=1.00D-04
 Number of steps in this run=    204 maximum allowed number of steps=    210.
 GradGradGradGradGradGradGradGradGradGradGradGradGradGradGradGradGradGrad

 Leave Link  103 at Sun Jul 18 13:49:15 2021, MaxMem=   104857600 cpu:               0.1 elap:               0.0
 (Enter /prod/apps/gaussian/g16b1/l202.exe)
                          Input orientation:                          
 ---------------------------------------------------------------------
 Center     Atomic      Atomic             Coordinates (Angstroms)
 Number     Number       Type             X           Y           Z
 ---------------------------------------------------------------------
      1          7           0       -1.779000   -1.346000   -3.426000
      2          1           0       -1.160000   -1.726000   -4.113000
      3          1           0       -2.570000   -0.937000   -3.880000
      4          6           0       -1.054000   -0.286000   -2.624000
      5          1           0       -1.712000    0.061000   -1.822000
      6          1           0       -0.913000    0.589000   -3.263000
      7          6           0        0.313000   -0.792000   -2.267000
      8          1           0        0.831000   -0.972000   -3.211000
      9          1           0        0.211000   -1.742000   -1.740000
     10          6           0        1.117000    0.249000   -1.436000
     11          1           0        0.918000    1.254000   -1.815000
     12          1           0        2.184000    0.015000   -1.394000
     13          7           0        0.683000    0.322000   -0.044000
     14          6           0        0.927000   -0.699000    0.875000
     15          6           0        2.142000   -1.348000    0.981000
     16          1           0        2.966000   -0.944000    0.399000
     17          6           0        2.274000   -2.516000    1.725000
     18         17           0        3.883000   -3.116000    2.031000
     19          6           0        1.180000   -3.112000    2.357000
     20          1           0        1.350000   -4.017000    2.935000
     21          6           0       -0.064000   -2.480000    2.148000
     22          1           0       -1.056000   -2.861000    2.377000
     23          6           0       -0.194000   -1.265000    1.443000
     24         16           0       -1.836000   -0.573000    1.244000
     25          6           0       -1.264000    1.092000    1.206000
     26          6           0       -0.113000    1.379000    0.440000
     27          6           0        0.291000    2.723000    0.442000
     28          1           0        1.251000    2.943000   -0.019000
     29          6           0       -0.456000    3.719000    1.062000
     30          1           0       -0.027000    4.716000    1.015000
     31          6           0       -1.560000    3.384000    1.776000
     32          1           0       -2.233000    4.135000    2.182000
     33          6           0       -1.929000    2.027000    1.947000
     34          1           0       -2.794000    1.764000    2.551000
     35          1           0       -2.086000   -2.075000   -2.814000
 ---------------------------------------------------------------------
                    Distance matrix (angstroms):
                    1          2          3          4          5
     1  N    0.000000
     2  H    0.999765   0.000000
     3  H    0.999539   1.632455   0.000000
     4  C    1.514077   2.074116   2.073546   0.000000
     5  H    2.134702   2.957491   2.442853   1.093882   0.000000
     6  H    2.126206   2.478454   2.335597   1.092624   1.730221
     7  C    2.454926   2.539646   3.306733   1.500724   2.241932
     8  H    2.645411   2.312185   3.466351   2.090069   3.076241
     9  H    2.638089   2.740625   3.600220   2.121701   2.637321
    10  C    3.858878   4.031338   4.579705   2.531958   2.861395
    11  H    4.077883   4.298754   4.607695   2.629613   2.887940
    12  H    4.656900   4.648266   5.448579   3.476801   3.919709
    13  N    4.503509   4.914032   5.184784   3.169106   2.994233
    14  C    5.122465   5.503675   5.907256   4.042021   3.849121
    15  C    5.898804   6.082345   6.782417   4.933385   4.969447
    16  H    6.107966   6.163890   6.996941   5.072661   5.275088
    17  C    6.657966   6.818996   7.574536   5.912891   5.925397
    18  Cl   8.060397   8.069243   9.018269   7.351999   7.499531
    19  C    6.731829   7.018368   7.595610   6.147145   5.991297
    20  H    7.575434   7.824518   8.443757   7.113512   6.973878
    21  C    5.941099   6.400770   6.708030   5.344691   4.993344
    22  H    6.040924   6.589320   6.718930   5.625000   5.157521
    23  C    5.121128   5.658163   5.838432   4.270659   3.837033
    24  S    4.733886   5.521217   5.189087   3.956680   3.133319
    25  C    5.259705   6.020274   5.629376   4.075768   3.229930
    26  C    5.014692   5.609549   5.482983   3.611897   3.067665
    27  C    5.983568   6.530469   6.345125   4.501496   4.027896
    28  H    6.259718   6.661330   6.675460   4.746103   4.509557
    29  C    6.895411   7.544817   7.111308   5.475785   4.824516
    30  H    7.716206   8.311404   7.898372   6.270331   5.705858
    31  C    7.034321   7.807203   7.188983   5.751951   4.900106
    32  H    7.854753   8.667738   7.911169   6.635730   5.735933
    33  C    6.345767   7.169377   6.568874   5.197079   4.256478
    34  H    6.813725   7.697984   6.978778   5.831871   4.816021
    35  H    1.000117   1.632997   1.632684   2.074041   2.384625
                    6          7          8          9         10
     6  H    0.000000
     7  C    2.098155   0.000000
     8  H    2.341145   1.091723   0.000000
     9  H    3.002743   1.091161   1.772326   0.000000
    10  C    2.752168   1.555846   2.173307   2.208468   0.000000
    11  H    2.427239   2.180928   2.628966   3.079203   1.092368
    12  H    3.662519   2.216759   2.471086   2.664488   1.093165
    13  N    3.602841   2.513886   3.424358   2.712802   1.459914
    14  C    4.708247   3.202781   4.096235   2.904949   2.505100
    15  C    5.576426   3.768804   4.408283   3.359738   3.072934
    16  H    5.550403   3.764182   4.194176   3.578009   2.865183
    17  C    6.684171   4.770090   5.369384   4.106248   4.356122
    18  Cl   8.047054   6.051337   6.433506   5.439844   5.567232
    19  C    7.047159   5.245519   5.975285   4.427332   5.068248
    20  H    8.046838   6.207801   6.878568   5.322459   6.112175
    21  C    6.278414   4.741698   5.638614   3.966965   4.656958
    22  H    6.613059   5.265136   6.193128   4.450521   5.378940
    23  C    5.108886   3.774239   4.774536   3.243924   3.507073
    24  S    4.745021   4.122291   5.207602   3.802766   4.071645
    25  C    4.510895   4.254188   5.306506   4.345814   3.655130
    26  C    3.869924   3.496079   4.443888   3.820735   2.511807
    27  C    4.441914   4.437836   5.223891   4.970287   3.214006
    28  H    4.554970   4.459100   5.068776   5.098300   3.046881
    29  C    5.358300   5.658862   6.474595   6.174027   4.555791
    30  H    6.009859   6.420684   7.137828   7.025129   5.222090
    31  C    5.798461   6.106796   7.040013   6.463325   5.226040
    32  H    6.630576   7.109926   8.034550   7.476252   6.278011
    33  C    5.499473   5.543566   6.573931   5.690249   4.887135
    34  H    6.222651   6.276919   7.336686   6.303550   5.786823
    35  H    2.945238   2.774977   3.143741   2.557455   4.190354
                   11         12         13         14         15
    11  H    0.000000
    12  H    1.820747   0.000000
    13  N    2.015016   2.041997   0.000000
    14  C    3.324213   2.690391   1.395184   0.000000
    15  C    4.010760   2.738642   2.442991   1.381543   0.000000
    16  H    3.731930   2.178544   2.647847   2.108109   1.086700
    17  C    5.346329   4.017738   3.703361   2.416278   1.391109
    18  Cl   6.532981   4.941699   5.134732   3.989506   2.694328
    19  C    6.044517   4.985594   4.219498   2.843044   2.435265
    20  H    7.108626   5.974347   5.305304   3.928314   3.401315
    21  C    5.532852   4.881014   3.635117   2.403034   2.740392
    22  H    6.196996   5.743641   4.360831   3.295836   3.803313
    23  C    4.265732   3.916868   2.344966   1.378267   2.382694
    24  S    4.503324   4.844088   2.967378   2.790377   4.061315
    25  C    3.730122   4.450689   2.438485   2.849162   4.195839
    26  C    2.482662   3.240411   1.408943   2.364087   3.579698
    27  C    2.764984   3.779895   2.480859   3.507431   4.504416
    28  H    2.487816   3.366645   2.681956   3.764090   4.495171
    29  C    4.030041   5.169251   3.749689   4.633183   5.694792
    30  H    4.570270   5.726360   4.575240   5.500176   6.440327
    31  C    4.855169   5.951185   4.209429   4.864962   6.060417
    32  H    5.848502   7.019406   5.291229   5.921267   7.116622
    33  C    4.780751   5.668086   3.700493   4.091087   5.375576
    34  H    5.753347   6.588058   4.571971   4.766675   6.042643
    35  H    4.593937   4.961592   4.591935   4.957849   5.727699
                   16         17         18         19         20
    16  H    0.000000
    17  C    2.169867   0.000000
    18  Cl   2.867385   1.744281   0.000000
    19  C    3.424001   1.396952   2.722591   0.000000
    20  H    4.299544   2.137961   2.836390   1.087202   0.000000
    21  C    3.820890   2.376230   3.999624   1.410901   2.231845
    22  H    4.874819   3.410723   4.957667   2.250133   2.727001
    23  C    3.343438   2.781285   4.515958   2.476829   3.490488
    24  S    4.889874   4.571511   6.308183   4.096529   4.987105
    25  C    4.763344   5.079810   6.699216   4.997154   5.993690
    26  C    3.857234   4.745526   6.221280   5.051319   6.122272
    27  C    4.539203   5.746782   7.037138   6.205221   7.263892
    28  H    4.269042   5.821404   6.916748   6.504878   7.561582
    29  C    5.821789   6.838691   8.153717   7.142554   8.161830
    30  H    6.432193   7.622370   8.812524   8.033393   9.046978
    31  C    6.411894   7.036488   8.481820   7.074120   8.036553
    32  H    7.483644   8.047217   9.487110   8.012378   8.936442
    33  C    5.931625   6.193008   7.761240   6.020241   6.946792
    34  H    6.718777   6.684706   8.286563   6.293305   7.123212
    35  H    6.093048   6.309247   7.758007   6.203335   6.973411
                   21         22         23         24         25
    21  C    0.000000
    22  H    1.087045   0.000000
    23  C    1.410727   2.040249   0.000000
    24  S    2.755694   2.669650   1.792939   0.000000
    25  C    3.884141   4.128040   2.599330   1.760924   0.000000
    26  C    4.220373   4.755925   2.829011   2.724968   1.412064
    27  C    5.487046   6.061327   4.140214   4.003867   2.379471
    28  H    5.986154   6.689505   4.683240   4.846338   3.354408
    29  C    6.305606   6.736885   5.005403   4.512071   2.752223
    30  H    7.284743   7.766905   5.998619   5.594501   3.834061
    31  C    6.063241   6.294064   4.856959   4.002131   2.380290
    32  H    6.961605   7.096997   5.819248   4.816920   3.339369
    33  C    4.881770   4.983931   3.755197   2.694969   1.365844
    34  H    5.062296   4.943839   4.142765   2.843867   2.145113
    35  H    5.373449   5.350250   4.728405   4.334267   5.183240
                   26         27         28         29         30
    26  C    0.000000
    27  C    1.403409   0.000000
    28  H    2.125388   1.087438   0.000000
    29  C    2.445431   1.390836   2.164390   0.000000
    30  H    3.387269   2.097976   2.417844   1.086397   0.000000
    31  C    2.810468   2.375432   3.364257   1.356774   2.168740
    32  H    3.889023   3.375192   4.289933   2.141305   2.562398
    33  C    2.447204   2.770892   3.849235   2.411601   3.423003
    34  H    3.433993   3.858081   4.935278   3.391960   4.327804
    35  H    5.139198   6.266775   6.642885   7.158960   8.063399
                   31         32         33         34         35
    31  C    0.000000
    32  H    1.087091   0.000000
    33  C    1.416634   2.142733   0.000000
    34  H    2.178940   2.464249   1.087295   0.000000
    35  H    7.151605   7.971557   6.286348   6.634939   0.000000
 Stoichiometry    C15H16ClN2S(1+)
 Framework group  C1[X(C15H16ClN2S)]
 Deg. of freedom    99
 Full point group                 C1      NOp   1
 Largest Abelian subgroup         C1      NOp   1
 Largest concise Abelian subgroup C1      NOp   1
                         Standard orientation:                         
 ---------------------------------------------------------------------
 Center     Atomic      Atomic             Coordinates (Angstroms)
 Number     Number       Type             X           Y           Z
 ---------------------------------------------------------------------
      1          7           0        1.605319    4.158210    0.756924
      2          1           0        1.127719    4.876344    0.251245
      3          1           0        2.522174    4.474369    0.998789
      4          6           0        1.710649    2.917999   -0.105173
      5          1           0        2.157116    2.113814    0.486884
      6          1           0        2.437371    3.113317   -0.897355
      7          6           0        0.389635    2.673117   -0.773851
      8          1           0        0.191510    3.549166   -1.394450
      9          1           0       -0.385859    2.606473   -0.009129
     10          6           0        0.423845    1.406904   -1.677286
     11          1           0        1.387202    1.346693   -2.188739
     12          1           0       -0.424963    1.361723   -2.364668
     13          7           0        0.369206    0.163256   -0.914591
     14          6           0       -0.780981   -0.261478   -0.248852
     15          6           0       -2.043495   -0.204844   -0.806985
     16          1           0       -2.103526    0.069208   -1.856845
     17          6           0       -3.183773   -0.398909   -0.034139
     18         17           0       -4.710791   -0.582251   -0.857011
     19          6           0       -3.109423   -0.610786    1.344649
     20          1           0       -4.035630   -0.769228    1.891498
     21          6           0       -1.813212   -0.564485    1.899928
     22          1           0       -1.535363   -0.513088    2.949606
     23          6           0       -0.650384   -0.425533    1.113371
     24         16           0        0.935471   -0.374085    1.948264
     25          6           0        1.808044   -1.095226    0.599403
     26          6           0        1.508321   -0.638385   -0.702668
     27          6           0        2.239802   -1.244267   -1.735817
     28          1           0        1.927194   -1.015602   -2.751942
     29          6           0        3.266632   -2.147854   -1.483677
     30          1           0        3.741744   -2.566349   -2.366508
     31          6           0        3.516027   -2.542278   -0.209680
     32          1           0        4.375520   -3.157266    0.044930
     33          6           0        2.706077   -2.090488    0.861169
     34          1           0        2.888963   -2.439519    1.874549
     35          1           0        1.096478    3.942384    1.590432
 ---------------------------------------------------------------------
 Rotational constants (GHZ):           0.4022815           0.2266935           0.1921868
 Leave Link  202 at Sun Jul 18 13:49:15 2021, MaxMem=   104857600 cpu:               0.1 elap:               0.0
 (Enter /prod/apps/gaussian/g16b1/l301.exe)
 Standard basis: 6-31G(d) (6D, 7F)
 Ernie: Thresh=  0.10000D-02 Tol=  0.10000D-05 Strict=F.
 There are   325 symmetry adapted cartesian basis functions of A   symmetry.
 There are   325 symmetry adapted basis functions of A   symmetry.
   325 basis functions,   644 primitive gaussians,   325 cartesian basis functions
    76 alpha electrons       76 beta electrons
       nuclear repulsion energy      1676.4646492659 Hartrees.
 IExCor=  402 DFT=T Ex+Corr=B3LYP ExCW=0 ScaHFX=  0.200000
 ScaDFX=  0.800000  0.720000  1.000000  0.810000 ScalE2=  1.000000  1.000000
 IRadAn=      5 IRanWt=     -1 IRanGd=            0 ICorTp=0 IEmpDi=  4
 NAtoms=   35 NActive=   35 NUniq=   35 SFac= 1.00D+00 NAtFMM=   60 NAOKFM=F Big=F
 Integral buffers will be    131072 words long.
 Raffenetti 2 integral format.
 Two-electron integral symmetry is turned on.
 Using the following non-standard input for PCM:
 MSTModel=DFT cav MSTCharged
 --- end of non-standard input.
 MST model for solvation energy: B3LYP parametrization.
 MST cavity parameters:
 ISph   IAn     Re0     Alpha   Atom Type   QCorr
 ------------------------------------------------
   1      7     1.70     1.15      NH         T
   2      1     0.90     1.15      NH         T
   3      1     0.90     1.15      NH         T
   4      6     1.50     1.25      CH2        F
   5      1     1.20     1.25      CH2        F
   6      1     1.20     1.25      CH2        F
   7      6     1.50     1.25      CH2        F
   8      1     1.20     1.25      CH2        F
   9      1     1.20     1.25      CH2        F
  10      6     1.50     1.25      CH2        F
  11      1     1.20     1.25      CH2        F
  12      1     1.20     1.25      CH2        F
  13      7     1.40     1.25      N          F
  14      6     1.50     1.25      C          F
  15      6     1.50     1.25      CH         F
  16      1     1.20     1.25      CH         F
  17      6     1.50     1.25      C          F
  18     17     1.80     1.25      Cl         F
  19      6     1.50     1.25      CH         F
  20      1     1.20     1.25      CH         F
  21      6     1.50     1.25      CH         F
  22      1     1.20     1.25      CH         F
  23      6     1.50     1.25      C          F
  24     16     1.75     1.25      S          F
  25      6     1.50     1.25      C          F
  26      6     1.50     1.25      C          F
  27      6     1.50     1.25      CH         F
  28      1     1.20     1.25      CH         F
  29      6     1.50     1.25      CH         F
  30      1     1.20     1.25      CH         F
  31      6     1.50     1.25      CH         F
  32      1     1.20     1.25      CH         F
  33      6     1.50     1.25      CH         F
  34      1     1.20     1.25      CH         F
  35      1     0.90     1.15      NH         T
 ------------------------------------------------------------------------------
 Polarizable Continuum Model (PCM)
 =================================
 Model                : PCM.
 Atomic radii         : MST.
 Polarization charges : Total charges.
 Charge compensation  : None.
 Solution method      : On-the-fly selection.
 Cavity type          : Scaled VdW (van der Waals Surface) (Alpha=1.250).
 Cavity algorithm     : GePol (No added spheres)
                        Default sphere list used, NSphG=   35.
                        Lebedev-Laikov grids with approx.  5.0 points / Ang**2.
                        Smoothing algorithm: York/Karplus (Gamma=1.0000).
                        Polarization charges: spherical gaussians, with
                                              point-specific exponents (IZeta= 3).
                        Self-potential: point-specific (ISelfS= 7).
                        Self-field    : sphere-specific E.n sum rule (ISelfD= 2).
 1st derivatives      : Analytical E(r).r(x)/FMM algorithm (CHGder, D1EAlg=3).
                        Cavity 1st derivative terms included.
 Solvent              : Water, Eps=  78.355300 Eps(inf)=   1.777849
 ------------------------------------------------------------------------------
 GePol: Number of generator spheres                  =      35
 GePol: Total number of spheres                      =      35
 GePol: Number of exposed spheres                    =      35 (100.00%)
 GePol: Number of points                             =    2668
 GePol: Average weight of points                     =       0.13
 GePol: Minimum weight of points                     =   0.76D-11
 GePol: Maximum weight of points                     =    0.21948
 GePol: Number of points with low weight             =     169
 GePol: Fraction of low-weight points (<1% of avg)   =       6.33%
 GePol: Cavity surface area                          =    337.099 Ang**2
 GePol: Cavity volume                                =    338.950 Ang**3
 PCM non-electrostatic energy =         0.0017984436 Hartrees.
 Nuclear repulsion after PCM non-electrostatic terms =     1676.4664477095 Hartrees.
 Leave Link  301 at Sun Jul 18 13:49:15 2021, MaxMem=   104857600 cpu:               0.3 elap:               0.1
 (Enter /prod/apps/gaussian/g16b1/l302.exe)
 NPDir=0 NMtPBC=     1 NCelOv=     1 NCel=       1 NClECP=     1 NCelD=      1
         NCelK=      1 NCelE2=     1 NClLst=     1 CellRange=     0.0.
 One-electron integrals computed using PRISM.
 One-electron integral symmetry used in STVInt
 NBasis=   325 RedAO= T EigKep=  4.53D-04  NBF=   325
 NBsUse=   325 1.00D-06 EigRej= -1.00D+00 NBFU=   325
 Precomputing XC quadrature grid using
 IXCGrd= 4 IRadAn=           5 IRanWt=          -1 IRanGd=           0 AccXCQ= 0.00D+00.
 Generated NRdTot=       0 NPtTot=           0 NUsed=           0 NTot=          32
 NSgBfM=   323   323   323   323   323 MxSgAt=    35 MxSgA2=    35.
 Leave Link  302 at Sun Jul 18 13:49:15 2021, MaxMem=   104857600 cpu:               1.6 elap:               0.4
 (Enter /prod/apps/gaussian/g16b1/l303.exe)
 DipDrv:  MaxL=1.
 Leave Link  303 at Sun Jul 18 13:49:15 2021, MaxMem=   104857600 cpu:               0.2 elap:               0.1
 (Enter /prod/apps/gaussian/g16b1/l401.exe)
 ExpMin= 1.17D-01 ExpMax= 2.52D+04 ExpMxC= 3.78D+03 IAcc=3 IRadAn=         5 AccDes= 0.00D+00
 Harris functional with IExCor=  402 and IRadAn=       5 diagonalized for initial guess.
 HarFok:  IExCor=  402 AccDes= 0.00D+00 IRadAn=         5 IDoV= 1 UseB2=F ITyADJ=14
 ICtDFT=  3500011 ScaDFX=  1.000000  1.000000  1.000000  1.000000
 FoFCou: FMM=F IPFlag=           0 FMFlag=      100000 FMFlg1=           0
         NFxFlg=           0 DoJE=T BraDBF=F KetDBF=T FulRan=T
         wScrn=  0.000000 ICntrl=       500 IOpCl=  0 I1Cent=   200000004 NGrid=           0
         NMat0=    1 NMatS0=      1 NMatT0=    0 NMatD0=    1 NMtDS0=    0 NMtDT0=    0
 Petite list used in FoFCou.
 Harris En= -1548.75233750383    
 JPrj=0 DoOrth=F DoCkMO=F.
 Leave Link  401 at Sun Jul 18 13:49:18 2021, MaxMem=   104857600 cpu:               9.3 elap:               2.4
 (Enter /prod/apps/gaussian/g16b1/l502.exe)
 Integral symmetry usage will be decided dynamically.
 Closed shell SCF:
 Using DIIS extrapolation, IDIIS=  1040.
 NGot=   104857600 LenX=   104640764 LenY=   104534698
 Requested convergence on RMS density matrix=1.00D-08 within 128 cycles.
 Requested convergence on MAX density matrix=1.00D-06.
 Requested convergence on             energy=1.00D-06.
 No special actions if energy rises.
 Fock matrices will be formed incrementally for  20 cycles.

 Cycle   1  Pass 1  IDiag  1:
 FoFJK:  IHMeth= 1 ICntrl=       0 DoSepK=F KAlg= 0 I1Cent=           0 FoldK=F
 IRaf= 830000000 NMat=       1 IRICut=       1 DoRegI=T DoRafI=F ISym2E= 0 IDoP0=0 IntGTp=1.
 FoFCou: FMM=F IPFlag=           0 FMFlag=      100000 FMFlg1=           0
         NFxFlg=           0 DoJE=F BraDBF=F KetDBF=F FulRan=T
         wScrn=  0.000000 ICntrl=         0 IOpCl=  0 I1Cent=           0 NGrid=           0
         NMat0=    1 NMatS0=      1 NMatT0=    0 NMatD0=    1 NMtDS0=    0 NMtDT0=    0
 Symmetry not used in FoFCou.
 Inv3:  Mode=1 IEnd=    21354672.
 Iteration    1 A*A^-1 deviation from unit magnitude is 3.11D-15 for   1276.
 Iteration    1 A*A^-1 deviation from orthogonality  is 2.22D-15 for   1529    211.
 Iteration    1 A^-1*A deviation from unit magnitude is 3.11D-15 for   1081.
 Iteration    1 A^-1*A deviation from orthogonality  is 8.83D-14 for   1264   1250.
 E= -1548.54745547640    
 DIIS: error= 2.70D-02 at cycle   1 NSaved=   1.
 NSaved= 1 IEnMin= 1 EnMin= -1548.54745547640     IErMin= 1 ErrMin= 2.70D-02
 ErrMax= 2.70D-02  0.00D+00 EMaxC= 1.00D-01 BMatC= 3.87D-01 BMatP= 3.87D-01
 IDIUse=3 WtCom= 7.30D-01 WtEn= 2.70D-01
 Coeff-Com:  0.100D+01
 Coeff-En:   0.100D+01
 Coeff:      0.100D+01
 Gap=     0.300 Goal=   None    Shift=    0.000
 GapD=    0.300 DampG=1.000 DampE=0.500 DampFc=0.5000 IDamp=-1.
 Damping current iteration by 5.00D-01
 RMSDP=4.58D-03 MaxDP=1.62D-01              OVMax= 1.99D-01

 Cycle   2  Pass 1  IDiag  1:
 RMSU=  2.26D-03    CP:  9.84D-01
 E= -1548.72946091784     Delta-E=       -0.182005441441 Rises=F Damp=T
 DIIS: error= 8.66D-03 at cycle   2 NSaved=   2.
 NSaved= 2 IEnMin= 2 EnMin= -1548.72946091784     IErMin= 2 ErrMin= 8.66D-03
 ErrMax= 8.66D-03  0.00D+00 EMaxC= 1.00D-01 BMatC= 2.56D-02 BMatP= 3.87D-01
 IDIUse=3 WtCom= 9.13D-01 WtEn= 8.66D-02
 Coeff-Com:  0.448D-01 0.955D+00
 Coeff-En:   0.102D+00 0.898D+00
 Coeff:      0.498D-01 0.950D+00
 Gap=     0.219 Goal=   None    Shift=    0.000
 RMSDP=1.17D-03 MaxDP=7.36D-02 DE=-1.82D-01 OVMax= 1.23D-01

 Cycle   3  Pass 1  IDiag  1:
 RMSU=  1.14D-03    CP:  9.76D-01  9.02D-01
 E= -1548.94295903485     Delta-E=       -0.213498117017 Rises=F Damp=F
 DIIS: error= 3.88D-03 at cycle   3 NSaved=   3.
 NSaved= 3 IEnMin= 3 EnMin= -1548.94295903485     IErMin= 3 ErrMin= 3.88D-03
 ErrMax= 3.88D-03  0.00D+00 EMaxC= 1.00D-01 BMatC= 1.10D-02 BMatP= 2.56D-02
 IDIUse=3 WtCom= 9.61D-01 WtEn= 3.88D-02
 Coeff-Com: -0.309D-01 0.373D+00 0.658D+00
 Coeff-En:   0.000D+00 0.000D+00 0.100D+01
 Coeff:     -0.297D-01 0.359D+00 0.671D+00
 Gap=     0.186 Goal=   None    Shift=    0.000
 RMSDP=6.67D-04 MaxDP=3.18D-02 DE=-2.13D-01 OVMax= 6.09D-02

 Cycle   4  Pass 1  IDiag  1:
 RMSU=  5.62D-04    CP:  9.77D-01  9.63D-01  7.10D-01
 E= -1548.94828335380     Delta-E=       -0.005324318949 Rises=F Damp=F
 DIIS: error= 3.06D-03 at cycle   4 NSaved=   4.
 NSaved= 4 IEnMin= 4 EnMin= -1548.94828335380     IErMin= 4 ErrMin= 3.06D-03
 ErrMax= 3.06D-03  0.00D+00 EMaxC= 1.00D-01 BMatC= 6.09D-03 BMatP= 1.10D-02
 IDIUse=3 WtCom= 9.69D-01 WtEn= 3.06D-02
 Coeff-Com: -0.232D-01 0.101D+00 0.445D+00 0.477D+00
 Coeff-En:   0.000D+00 0.000D+00 0.374D+00 0.626D+00
 Coeff:     -0.225D-01 0.976D-01 0.443D+00 0.482D+00
 Gap=     0.177 Goal=   None    Shift=    0.000
 RMSDP=3.42D-04 MaxDP=1.25D-02 DE=-5.32D-03 OVMax= 3.05D-02

 Cycle   5  Pass 1  IDiag  1:
 RMSU=  1.52D-04    CP:  9.77D-01  9.68D-01  7.96D-01  4.84D-01
 E= -1548.95454746250     Delta-E=       -0.006264108699 Rises=F Damp=F
 DIIS: error= 4.51D-04 at cycle   5 NSaved=   5.
 NSaved= 5 IEnMin= 5 EnMin= -1548.95454746250     IErMin= 5 ErrMin= 4.51D-04
 ErrMax= 4.51D-04  0.00D+00 EMaxC= 1.00D-01 BMatC= 2.22D-04 BMatP= 6.09D-03
 IDIUse=3 WtCom= 9.95D-01 WtEn= 4.51D-03
 Coeff-Com: -0.822D-02 0.215D-01 0.171D+00 0.241D+00 0.574D+00
 Coeff-En:   0.000D+00 0.000D+00 0.000D+00 0.000D+00 0.100D+01
 Coeff:     -0.819D-02 0.214D-01 0.171D+00 0.240D+00 0.576D+00
 Gap=     0.176 Goal=   None    Shift=    0.000
 RMSDP=7.40D-05 MaxDP=6.23D-03 DE=-6.26D-03 OVMax= 4.70D-03

 Cycle   6  Pass 1  IDiag  1:
 RMSU=  4.00D-05    CP:  9.77D-01  9.62D-01  8.14D-01  5.30D-01  6.64D-01
 E= -1548.95476850122     Delta-E=       -0.000221038721 Rises=F Damp=F
 DIIS: error= 1.59D-04 at cycle   6 NSaved=   6.
 NSaved= 6 IEnMin= 6 EnMin= -1548.95476850122     IErMin= 6 ErrMin= 1.59D-04
 ErrMax= 1.59D-04  0.00D+00 EMaxC= 1.00D-01 BMatC= 2.17D-05 BMatP= 2.22D-04
 IDIUse=3 WtCom= 9.98D-01 WtEn= 1.59D-03
 Coeff-Com: -0.274D-02 0.429D-02 0.612D-01 0.948D-01 0.309D+00 0.534D+00
 Coeff-En:   0.000D+00 0.000D+00 0.000D+00 0.000D+00 0.000D+00 0.100D+01
 Coeff:     -0.273D-02 0.428D-02 0.611D-01 0.946D-01 0.308D+00 0.535D+00
 Gap=     0.176 Goal=   None    Shift=    0.000
 RMSDP=1.92D-05 MaxDP=9.09D-04 DE=-2.21D-04 OVMax= 1.32D-03

 Cycle   7  Pass 1  IDiag  1:
 RMSU=  1.27D-05    CP:  9.77D-01  9.62D-01  8.15D-01  5.31D-01  7.01D-01
                    CP:  6.71D-01
 E= -1548.95478867756     Delta-E=       -0.000020176332 Rises=F Damp=F
 DIIS: error= 5.08D-05 at cycle   7 NSaved=   7.
 NSaved= 7 IEnMin= 7 EnMin= -1548.95478867756     IErMin= 7 ErrMin= 5.08D-05
 ErrMax= 5.08D-05  0.00D+00 EMaxC= 1.00D-01 BMatC= 2.17D-06 BMatP= 2.17D-05
 IDIUse=1 WtCom= 1.00D+00 WtEn= 0.00D+00
 Coeff-Com: -0.762D-03 0.300D-03 0.185D-01 0.295D-01 0.114D+00 0.297D+00
 Coeff-Com:  0.541D+00
 Coeff:     -0.762D-03 0.300D-03 0.185D-01 0.295D-01 0.114D+00 0.297D+00
 Coeff:      0.541D+00
 Gap=     0.176 Goal=   None    Shift=    0.000
 RMSDP=6.64D-06 MaxDP=4.12D-04 DE=-2.02D-05 OVMax= 5.94D-04

 Cycle   8  Pass 1  IDiag  1:
 RMSU=  3.82D-06    CP:  9.77D-01  9.63D-01  8.15D-01  5.33D-01  7.08D-01
                    CP:  7.25D-01  6.30D-01
 E= -1548.95479092999     Delta-E=       -0.000002252432 Rises=F Damp=F
 DIIS: error= 1.38D-05 at cycle   8 NSaved=   8.
 NSaved= 8 IEnMin= 8 EnMin= -1548.95479092999     IErMin= 8 ErrMin= 1.38D-05
 ErrMax= 1.38D-05  0.00D+00 EMaxC= 1.00D-01 BMatC= 1.55D-07 BMatP= 2.17D-06
 IDIUse=1 WtCom= 1.00D+00 WtEn= 0.00D+00
 Coeff-Com:  0.219D-04-0.462D-03 0.943D-03 0.101D-02 0.133D-01 0.705D-01
 Coeff-Com:  0.249D+00 0.666D+00
 Coeff:      0.219D-04-0.462D-03 0.943D-03 0.101D-02 0.133D-01 0.705D-01
 Coeff:      0.249D+00 0.666D+00
 Gap=     0.176 Goal=   None    Shift=    0.000
 RMSDP=1.90D-06 MaxDP=8.59D-05 DE=-2.25D-06 OVMax= 1.33D-04

 Cycle   9  Pass 1  IDiag  1:
 RMSU=  1.36D-06    CP:  9.77D-01  9.62D-01  8.15D-01  5.33D-01  7.10D-01
                    CP:  7.33D-01  7.03D-01  8.23D-01
 E= -1548.95479108924     Delta-E=       -0.000000159255 Rises=F Damp=F
 DIIS: error= 4.04D-06 at cycle   9 NSaved=   9.
 NSaved= 9 IEnMin= 9 EnMin= -1548.95479108924     IErMin= 9 ErrMin= 4.04D-06
 ErrMax= 4.04D-06  0.00D+00 EMaxC= 1.00D-01 BMatC= 2.06D-08 BMatP= 1.55D-07
 IDIUse=1 WtCom= 1.00D+00 WtEn= 0.00D+00
 Coeff-Com:  0.104D-03-0.286D-03-0.147D-02-0.291D-02-0.566D-02 0.347D-02
 Coeff-Com:  0.659D-01 0.334D+00 0.607D+00
 Coeff:      0.104D-03-0.286D-03-0.147D-02-0.291D-02-0.566D-02 0.347D-02
 Coeff:      0.659D-01 0.334D+00 0.607D+00
 Gap=     0.176 Goal=   None    Shift=    0.000
 RMSDP=6.21D-07 MaxDP=3.58D-05 DE=-1.59D-07 OVMax= 4.23D-05

 Cycle  10  Pass 1  IDiag  1:
 RMSU=  3.59D-07    CP:  9.77D-01  9.62D-01  8.15D-01  5.33D-01  7.11D-01
                    CP:  7.39D-01  7.13D-01  8.83D-01  7.96D-01
 E= -1548.95479111097     Delta-E=       -0.000000021728 Rises=F Damp=F
 DIIS: error= 7.80D-07 at cycle  10 NSaved=  10.
 NSaved=10 IEnMin=10 EnMin= -1548.95479111097     IErMin=10 ErrMin= 7.80D-07
 ErrMax= 7.80D-07  0.00D+00 EMaxC= 1.00D-01 BMatC= 9.73D-10 BMatP= 2.06D-08
 IDIUse=1 WtCom= 1.00D+00 WtEn= 0.00D+00
 Coeff-Com:  0.428D-04-0.863D-04-0.641D-03-0.130D-02-0.307D-02-0.309D-02
 Coeff-Com:  0.103D-01 0.938D-01 0.249D+00 0.655D+00
 Coeff:      0.428D-04-0.863D-04-0.641D-03-0.130D-02-0.307D-02-0.309D-02
 Coeff:      0.103D-01 0.938D-01 0.249D+00 0.655D+00
 Gap=     0.176 Goal=   None    Shift=    0.000
 RMSDP=1.56D-07 MaxDP=5.69D-06 DE=-2.17D-08 OVMax= 1.55D-05

 Cycle  11  Pass 1  IDiag  1:
 RMSU=  1.18D-07    CP:  9.77D-01  9.62D-01  8.15D-01  5.33D-01  7.11D-01
                    CP:  7.39D-01  7.16D-01  8.97D-01  8.25D-01  8.15D-01
 E= -1548.95479111188     Delta-E=       -0.000000000913 Rises=F Damp=F
 DIIS: error= 6.62D-07 at cycle  11 NSaved=  11.
 NSaved=11 IEnMin=11 EnMin= -1548.95479111188     IErMin=11 ErrMin= 6.62D-07
 ErrMax= 6.62D-07  0.00D+00 EMaxC= 1.00D-01 BMatC= 1.81D-10 BMatP= 9.73D-10
 IDIUse=1 WtCom= 1.00D+00 WtEn= 0.00D+00
 Coeff-Com:  0.954D-05-0.924D-05-0.138D-03-0.318D-03-0.801D-03-0.196D-02
 Coeff-Com: -0.291D-02 0.741D-02 0.546D-01 0.342D+00 0.602D+00
 Coeff:      0.954D-05-0.924D-05-0.138D-03-0.318D-03-0.801D-03-0.196D-02
 Coeff:     -0.291D-02 0.741D-02 0.546D-01 0.342D+00 0.602D+00
 Gap=     0.176 Goal=   None    Shift=    0.000
 RMSDP=6.32D-08 MaxDP=2.50D-06 DE=-9.13D-10 OVMax= 5.75D-06

 Cycle  12  Pass 1  IDiag  1:
 RMSU=  3.89D-08    CP:  9.77D-01  9.62D-01  8.15D-01  5.33D-01  7.11D-01
                    CP:  7.40D-01  7.16D-01  9.01D-01  8.36D-01  8.88D-01
                    CP:  7.32D-01
 E= -1548.95479111210     Delta-E=       -0.000000000215 Rises=F Damp=F
 DIIS: error= 1.24D-07 at cycle  12 NSaved=  12.
 NSaved=12 IEnMin=12 EnMin= -1548.95479111210     IErMin=12 ErrMin= 1.24D-07
 ErrMax= 1.24D-07  0.00D+00 EMaxC= 1.00D-01 BMatC= 1.56D-11 BMatP= 1.81D-10
 IDIUse=1 WtCom= 1.00D+00 WtEn= 0.00D+00
 Coeff-Com:  0.430D-07 0.463D-05 0.648D-05-0.673D-05-0.199D-04-0.586D-03
 Coeff-Com: -0.258D-02-0.726D-02-0.214D-02 0.880D-01 0.282D+00 0.643D+00
 Coeff:      0.430D-07 0.463D-05 0.648D-05-0.673D-05-0.199D-04-0.586D-03
 Coeff:     -0.258D-02-0.726D-02-0.214D-02 0.880D-01 0.282D+00 0.643D+00
 Gap=     0.176 Goal=   None    Shift=    0.000
 RMSDP=2.13D-08 MaxDP=1.08D-06 DE=-2.15D-10 OVMax= 2.08D-06

 Cycle  13  Pass 1  IDiag  1:
 RMSU=  1.29D-08    CP:  9.77D-01  9.62D-01  8.15D-01  5.33D-01  7.11D-01
                    CP:  7.40D-01  7.16D-01  9.01D-01  8.42D-01  9.03D-01
                    CP:  8.04D-01  7.83D-01
 E= -1548.95479111211     Delta-E=       -0.000000000013 Rises=F Damp=F
 DIIS: error= 5.05D-08 at cycle  13 NSaved=  13.
 NSaved=13 IEnMin=13 EnMin= -1548.95479111211     IErMin=13 ErrMin= 5.05D-08
 ErrMax= 5.05D-08  0.00D+00 EMaxC= 1.00D-01 BMatC= 1.64D-12 BMatP= 1.56D-11
 IDIUse=1 WtCom= 1.00D+00 WtEn= 0.00D+00
 Coeff-Com: -0.102D-05 0.316D-05 0.186D-04 0.338D-04 0.830D-04-0.604D-04
 Coeff-Com: -0.915D-03-0.446D-02-0.773D-02-0.919D-04 0.571D-01 0.294D+00
 Coeff-Com:  0.662D+00
 Coeff:     -0.102D-05 0.316D-05 0.186D-04 0.338D-04 0.830D-04-0.604D-04
 Coeff:     -0.915D-03-0.446D-02-0.773D-02-0.919D-04 0.571D-01 0.294D+00
 Coeff:      0.662D+00
 Gap=     0.176 Goal=   None    Shift=    0.000
 RMSDP=6.51D-09 MaxDP=2.20D-07 DE=-1.27D-11 OVMax= 5.49D-07

 Error on total polarization charges =  0.01843
 SCF Done:  E(RB3LYP) =  -1548.95479111     A.U. after   13 cycles
            NFock= 13  Conv=0.65D-08     -V/T= 2.0059
 KE= 1.539906120068D+03 PE=-6.974166208278D+03 EE= 2.208838849389D+03
 Leave Link  502 at Sun Jul 18 13:50:38 2021, MaxMem=   104857600 cpu:             317.9 elap:              79.7
 (Enter /prod/apps/gaussian/g16b1/l601.exe)
 Copying SCF densities to generalized density rwf, IOpCl= 0 IROHF=0.

 **********************************************************************

            Population analysis using the SCF Density.

 **********************************************************************

 Orbital symmetries:
       Occupied  (A) (A) (A) (A) (A) (A) (A) (A) (A) (A) (A) (A)
                 (A) (A) (A) (A) (A) (A) (A) (A) (A) (A) (A) (A)
                 (A) (A) (A) (A) (A) (A) (A) (A) (A) (A) (A) (A)
                 (A) (A) (A) (A) (A) (A) (A) (A) (A) (A) (A) (A)
                 (A) (A) (A) (A) (A) (A) (A) (A) (A) (A) (A) (A)
                 (A) (A) (A) (A) (A) (A) (A) (A) (A) (A) (A) (A)
                 (A) (A) (A) (A)
       Virtual   (A) (A) (A) (A) (A) (A) (A) (A) (A) (A) (A) (A)
                 (A) (A) (A) (A) (A) (A) (A) (A) (A) (A) (A) (A)
                 (A) (A) (A) (A) (A) (A) (A) (A) (A) (A) (A) (A)
                 (A) (A) (A) (A) (A) (A) (A) (A) (A) (A) (A) (A)
                 (A) (A) (A) (A) (A) (A) (A) (A) (A) (A) (A) (A)
                 (A) (A) (A) (A) (A) (A) (A) (A) (A) (A) (A) (A)
                 (A) (A) (A) (A) (A) (A) (A) (A) (A) (A) (A) (A)
                 (A) (A) (A) (A) (A) (A) (A) (A) (A) (A) (A) (A)
                 (A) (A) (A) (A) (A) (A) (A) (A) (A) (A) (A) (A)
                 (A) (A) (A) (A) (A) (A) (A) (A) (A) (A) (A) (A)
                 (A) (A) (A) (A) (A) (A) (A) (A) (A) (A) (A) (A)
                 (A) (A) (A) (A) (A) (A) (A) (A) (A) (A) (A) (A)
                 (A) (A) (A) (A) (A) (A) (A) (A) (A) (A) (A) (A)
                 (A) (A) (A) (A) (A) (A) (A) (A) (A) (A) (A) (A)
                 (A) (A) (A) (A) (A) (A) (A) (A) (A) (A) (A) (A)
                 (A) (A) (A) (A) (A) (A) (A) (A) (A) (A) (A) (A)
                 (A) (A) (A) (A) (A) (A) (A) (A) (A) (A) (A) (A)
                 (A) (A) (A) (A) (A) (A) (A) (A) (A) (A) (A) (A)
                 (A) (A) (A) (A) (A) (A) (A) (A) (A) (A) (A) (A)
                 (A) (A) (A) (A) (A) (A) (A) (A) (A) (A) (A) (A)
                 (A) (A) (A) (A) (A) (A) (A) (A) (A)
 The electronic state is 1-A.
 Alpha  occ. eigenvalues -- -101.55632 -88.89906 -14.44640 -14.35786 -10.25813
 Alpha  occ. eigenvalues --  -10.24975 -10.23937 -10.23750 -10.23468 -10.22725
 Alpha  occ. eigenvalues --  -10.22289 -10.21029 -10.20930 -10.20464 -10.20267
 Alpha  occ. eigenvalues --  -10.19930 -10.19479 -10.19337 -10.19237  -9.47292
 Alpha  occ. eigenvalues --   -7.95985  -7.23674  -7.22726  -7.22689  -5.92470
 Alpha  occ. eigenvalues --   -5.92141  -5.91493  -1.00624  -0.97598  -0.89769
 Alpha  occ. eigenvalues --   -0.86942  -0.85171  -0.80600  -0.80237  -0.76773
 Alpha  occ. eigenvalues --   -0.75012  -0.74240  -0.70941  -0.68085  -0.64725
 Alpha  occ. eigenvalues --   -0.63106  -0.60959  -0.60242  -0.58985  -0.57327
 Alpha  occ. eigenvalues --   -0.56710  -0.54562  -0.51209  -0.50591  -0.49352
 Alpha  occ. eigenvalues --   -0.48620  -0.48170  -0.46695  -0.45220  -0.44543
 Alpha  occ. eigenvalues --   -0.43858  -0.43097  -0.42266  -0.41585  -0.40703
 Alpha  occ. eigenvalues --   -0.39824  -0.39003  -0.38127  -0.37569  -0.36876
 Alpha  occ. eigenvalues --   -0.36175  -0.35620  -0.35035  -0.33305  -0.32149
 Alpha  occ. eigenvalues --   -0.29755  -0.29432  -0.26018  -0.25481  -0.22957
 Alpha  occ. eigenvalues --   -0.20063
 Alpha virt. eigenvalues --   -0.02442  -0.02130  -0.01408  -0.00730   0.01686
 Alpha virt. eigenvalues --    0.03710   0.05509   0.07908   0.08409   0.10899
 Alpha virt. eigenvalues --    0.11188   0.11742   0.12088   0.13069   0.13852
 Alpha virt. eigenvalues --    0.13937   0.14467   0.15007   0.15372   0.15903
 Alpha virt. eigenvalues --    0.17138   0.17506   0.18235   0.18708   0.19115
 Alpha virt. eigenvalues --    0.21408   0.22029   0.22115   0.23537   0.24046
 Alpha virt. eigenvalues --    0.25123   0.26219   0.27560   0.30022   0.30189
 Alpha virt. eigenvalues --    0.31550   0.31757   0.32522   0.35398   0.37569
 Alpha virt. eigenvalues --    0.38181   0.38852   0.39999   0.40812   0.42209
 Alpha virt. eigenvalues --    0.43464   0.43514   0.47550   0.47790   0.49373
 Alpha virt. eigenvalues --    0.50023   0.51007   0.51948   0.52481   0.53091
 Alpha virt. eigenvalues --    0.53540   0.54559   0.55296   0.56352   0.56712
 Alpha virt. eigenvalues --    0.57169   0.57393   0.58677   0.59392   0.59766
 Alpha virt. eigenvalues --    0.60211   0.60685   0.61153   0.61582   0.61898
 Alpha virt. eigenvalues --    0.62387   0.64140   0.64886   0.65529   0.65888
 Alpha virt. eigenvalues --    0.66161   0.68374   0.70304   0.70484   0.72024
 Alpha virt. eigenvalues --    0.73006   0.74489   0.75411   0.76585   0.79987
 Alpha virt. eigenvalues --    0.80225   0.81603   0.82034   0.82551   0.83653
 Alpha virt. eigenvalues --    0.83742   0.83983   0.84675   0.85084   0.85393
 Alpha virt. eigenvalues --    0.85617   0.86414   0.87585   0.87855   0.88257
 Alpha virt. eigenvalues --    0.88640   0.89846   0.90951   0.91821   0.92338
 Alpha virt. eigenvalues --    0.92673   0.93519   0.94233   0.95358   0.95428
 Alpha virt. eigenvalues --    0.95819   0.97380   0.97744   0.98988   0.99950
 Alpha virt. eigenvalues --    1.01328   1.02853   1.04219   1.04424   1.05685
 Alpha virt. eigenvalues --    1.06140   1.09231   1.10410   1.11268   1.12106
 Alpha virt. eigenvalues --    1.13657   1.14473   1.17079   1.19501   1.21318
 Alpha virt. eigenvalues --    1.24525   1.26035   1.27125   1.29451   1.31286
 Alpha virt. eigenvalues --    1.33731   1.34634   1.35554   1.37123   1.40154
 Alpha virt. eigenvalues --    1.41411   1.43541   1.44654   1.44860   1.46974
 Alpha virt. eigenvalues --    1.48816   1.49640   1.53140   1.54891   1.57455
 Alpha virt. eigenvalues --    1.58108   1.58651   1.60828   1.62760   1.65615
 Alpha virt. eigenvalues --    1.68534   1.70418   1.75174   1.76480   1.78692
 Alpha virt. eigenvalues --    1.79602   1.80561   1.81358   1.82532   1.83838
 Alpha virt. eigenvalues --    1.86523   1.87173   1.88240   1.89734   1.91588
 Alpha virt. eigenvalues --    1.92499   1.94908   1.95184   1.96862   1.98301
 Alpha virt. eigenvalues --    1.99571   2.02671   2.03937   2.05123   2.06320
 Alpha virt. eigenvalues --    2.08927   2.10441   2.11779   2.13225   2.13605
 Alpha virt. eigenvalues --    2.15117   2.16104   2.17131   2.17227   2.22083
 Alpha virt. eigenvalues --    2.23123   2.23689   2.25628   2.26694   2.29336
 Alpha virt. eigenvalues --    2.30994   2.32593   2.33111   2.33869   2.36628
 Alpha virt. eigenvalues --    2.39107   2.39709   2.43618   2.44927   2.49162
 Alpha virt. eigenvalues --    2.52679   2.53737   2.54869   2.58308   2.60177
 Alpha virt. eigenvalues --    2.62775   2.63706   2.64854   2.65893   2.67622
 Alpha virt. eigenvalues --    2.69176   2.71308   2.73270   2.75120   2.77219
 Alpha virt. eigenvalues --    2.77421   2.80189   2.81395   2.86384   2.91604
 Alpha virt. eigenvalues --    2.97299   3.09863   3.18857   3.33659   3.38835
 Alpha virt. eigenvalues --    3.76280   3.95985   4.05092   4.08075   4.09708
 Alpha virt. eigenvalues --    4.10066   4.12096   4.16259   4.20244   4.25302
 Alpha virt. eigenvalues --    4.27138   4.34186   4.35330   4.38609   4.41325
 Alpha virt. eigenvalues --    4.43381   4.51969   4.69668   4.72015
          Condensed to atoms (all electrons):
               1          2          3          4          5          6
     1  N    6.693991   0.303062   0.304393   0.232363  -0.029974  -0.031123
     2  H    0.303062   0.274433  -0.010239  -0.019753   0.003171  -0.002082
     3  H    0.304393  -0.010239   0.268102  -0.015342  -0.000651  -0.002591
     4  C    0.232363  -0.019753  -0.015342   5.012931   0.376826   0.382647
     5  H   -0.029974   0.003171  -0.000651   0.376826   0.480926  -0.033395
     6  H   -0.031123  -0.002082  -0.002591   0.382647  -0.033395   0.512833
     7  C   -0.051692  -0.000416   0.003457   0.363856  -0.028479  -0.043419
     8  H   -0.004573   0.005803  -0.000033  -0.038162   0.004535  -0.006808
     9  H   -0.001262  -0.000527   0.000012  -0.047052  -0.003813   0.005378
    10  C    0.002857  -0.000010  -0.000089  -0.032690  -0.002415  -0.002474
    11  H    0.000072   0.000008   0.000003  -0.006445  -0.000131   0.005079
    12  H   -0.000090  -0.000005   0.000002   0.004010   0.000041  -0.000008
    13  N   -0.000092   0.000008   0.000004  -0.000985   0.002937   0.000034
    14  C    0.000008   0.000000  -0.000000   0.000000  -0.000130  -0.000010
    15  C    0.000000  -0.000000  -0.000000   0.000061  -0.000006   0.000000
    16  H   -0.000000  -0.000000  -0.000000  -0.000001  -0.000001  -0.000000
    17  C    0.000000  -0.000000   0.000000   0.000001   0.000000  -0.000000
    18  Cl  -0.000000   0.000000   0.000000   0.000000  -0.000000  -0.000000
    19  C   -0.000000   0.000000   0.000000   0.000000   0.000000   0.000000
    20  H   -0.000000   0.000000   0.000000  -0.000000   0.000000   0.000000
    21  C    0.000000   0.000000   0.000000  -0.000007  -0.000002   0.000000
    22  H    0.000000   0.000000  -0.000000  -0.000000   0.000000  -0.000000
    23  C    0.000003  -0.000000  -0.000000   0.000042  -0.000498  -0.000005
    24  S   -0.000241  -0.000001   0.000008  -0.003082   0.006725   0.000224
    25  C    0.000020  -0.000000  -0.000001  -0.000609   0.000675  -0.000013
    26  C   -0.000005  -0.000001   0.000001   0.001927   0.001162   0.000012
    27  C   -0.000000  -0.000000   0.000000   0.000033   0.000036   0.000006
    28  H   -0.000000   0.000000   0.000000  -0.000006   0.000006  -0.000004
    29  C    0.000000  -0.000000  -0.000000  -0.000000  -0.000023  -0.000000
    30  H   -0.000000   0.000000   0.000000  -0.000000   0.000000   0.000000
    31  C   -0.000000   0.000000   0.000000   0.000001  -0.000011  -0.000000
    32  H   -0.000000   0.000000   0.000000  -0.000000   0.000000   0.000000
    33  C    0.000000  -0.000000   0.000000  -0.000012   0.000007   0.000000
    34  H    0.000000   0.000000  -0.000000  -0.000000  -0.000001  -0.000000
    35  H    0.302794  -0.011134  -0.009797  -0.017145  -0.003207   0.003329
               7          8          9         10         11         12
     1  N   -0.051692  -0.004573  -0.001262   0.002857   0.000072  -0.000090
     2  H   -0.000416   0.005803  -0.000527  -0.000010   0.000008  -0.000005
     3  H    0.003457  -0.000033   0.000012  -0.000089   0.000003   0.000002
     4  C    0.363856  -0.038162  -0.047052  -0.032690  -0.006445   0.004010
     5  H   -0.028479   0.004535  -0.003813  -0.002415  -0.000131   0.000041
     6  H   -0.043419  -0.006808   0.005378  -0.002474   0.005079  -0.000008
     7  C    5.094643   0.363405   0.379173   0.352505  -0.042744  -0.045386
     8  H    0.363405   0.548703  -0.031069  -0.023220  -0.000083  -0.001207
     9  H    0.379173  -0.031069   0.538416  -0.025406   0.004044  -0.001500
    10  C    0.352505  -0.023220  -0.025406   4.897837   0.377043   0.380191
    11  H   -0.042744  -0.000083   0.004044   0.377043   0.537416  -0.020144
    12  H   -0.045386  -0.001207  -0.001500   0.380191  -0.020144   0.548707
    13  N   -0.068103   0.004186  -0.007627   0.305339  -0.042996  -0.045076
    14  C   -0.000999  -0.000057   0.005360  -0.041079   0.004815  -0.006901
    15  C    0.000015  -0.000129   0.001285  -0.005346   0.000109   0.003925
    16  H    0.000205  -0.000017   0.000026   0.001589  -0.000139   0.002741
    17  C   -0.000005  -0.000005  -0.000055   0.000218  -0.000002  -0.000132
    18  Cl  -0.000001   0.000000  -0.000001   0.000001  -0.000000   0.000001
    19  C    0.000004   0.000001  -0.000042   0.000006   0.000000   0.000013
    20  H    0.000000   0.000000  -0.000000  -0.000000   0.000000  -0.000000
    21  C   -0.000050   0.000002   0.000019  -0.000228   0.000005   0.000013
    22  H   -0.000001  -0.000000  -0.000006   0.000006  -0.000000  -0.000000
    23  C    0.000583  -0.000032   0.001335   0.005103  -0.000262  -0.000465
    24  S   -0.000425   0.000068   0.000068  -0.000727  -0.000032   0.000150
    25  C    0.000163  -0.000006   0.000039   0.006397   0.000203  -0.000342
    26  C   -0.001020  -0.000067  -0.000026  -0.036972   0.001439   0.003372
    27  C    0.000189  -0.000007  -0.000007  -0.008801   0.003713   0.000548
    28  H    0.000055   0.000000   0.000000   0.001990   0.001588  -0.000339
    29  C    0.000013  -0.000000   0.000000   0.000011  -0.000214  -0.000006
    30  H   -0.000000   0.000000  -0.000000  -0.000002   0.000006   0.000000
    31  C   -0.000001   0.000000   0.000000   0.000005   0.000004   0.000000
    32  H   -0.000000   0.000000   0.000000   0.000000  -0.000000   0.000000
    33  C   -0.000003   0.000000  -0.000000  -0.000111  -0.000024   0.000005
    34  H    0.000000  -0.000000   0.000000   0.000002  -0.000000  -0.000000
    35  H   -0.001398  -0.000190   0.002886  -0.000063   0.000009   0.000002
              13         14         15         16         17         18
     1  N   -0.000092   0.000008   0.000000  -0.000000   0.000000  -0.000000
     2  H    0.000008   0.000000  -0.000000  -0.000000  -0.000000   0.000000
     3  H    0.000004  -0.000000  -0.000000  -0.000000   0.000000   0.000000
     4  C   -0.000985   0.000000   0.000061  -0.000001   0.000001   0.000000
     5  H    0.002937  -0.000130  -0.000006  -0.000001   0.000000  -0.000000
     6  H    0.000034  -0.000010   0.000000  -0.000000  -0.000000  -0.000000
     7  C   -0.068103  -0.000999   0.000015   0.000205  -0.000005  -0.000001
     8  H    0.004186  -0.000057  -0.000129  -0.000017  -0.000005   0.000000
     9  H   -0.007627   0.005360   0.001285   0.000026  -0.000055  -0.000001
    10  C    0.305339  -0.041079  -0.005346   0.001589   0.000218   0.000001
    11  H   -0.042996   0.004815   0.000109  -0.000139  -0.000002  -0.000000
    12  H   -0.045076  -0.006901   0.003925   0.002741  -0.000132   0.000001
    13  N    7.116436   0.305937  -0.059629  -0.007144   0.005355  -0.000111
    14  C    0.305937   4.624269   0.518760  -0.034045   0.001082   0.004250
    15  C   -0.059629   0.518760   5.106363   0.351854   0.482608  -0.067643
    16  H   -0.007144  -0.034045   0.351854   0.540171  -0.041618  -0.001419
    17  C    0.005355   0.001082   0.482608  -0.041618   4.996018   0.225885
    18  Cl  -0.000111   0.004250  -0.067643  -0.001419   0.225885  16.937380
    19  C    0.000524  -0.035307  -0.042951   0.003978   0.519210  -0.067676
    20  H    0.000003   0.000447   0.004498  -0.000153  -0.042951   0.000235
    21  C    0.006416  -0.011865  -0.050650   0.000354  -0.019533   0.004709
    22  H   -0.000275   0.005877   0.000868   0.000016   0.003580  -0.000129
    23  C   -0.092694   0.477039  -0.076501   0.006712  -0.033649   0.000565
    24  S    0.006861  -0.069260   0.006908  -0.000269   0.000099   0.000012
    25  C   -0.082439  -0.015464   0.000340   0.000012  -0.000006   0.000000
    26  C    0.293630  -0.029324   0.004155   0.000151  -0.000164   0.000002
    27  C   -0.074100   0.000551   0.000105  -0.000004  -0.000005   0.000000
    28  H   -0.005816   0.000175   0.000015   0.000020   0.000000  -0.000000
    29  C    0.006249  -0.000109  -0.000007   0.000001   0.000000   0.000000
    30  H   -0.000134  -0.000002  -0.000000  -0.000000   0.000000  -0.000000
    31  C    0.000196  -0.000053  -0.000001   0.000000   0.000000  -0.000000
    32  H    0.000003   0.000001   0.000000  -0.000000  -0.000000   0.000000
    33  C    0.005618   0.000653   0.000010   0.000000  -0.000002   0.000000
    34  H   -0.000100   0.000006  -0.000000   0.000000   0.000000  -0.000000
    35  H    0.000030  -0.000015  -0.000000  -0.000000   0.000000  -0.000000
              19         20         21         22         23         24
     1  N   -0.000000  -0.000000   0.000000   0.000000   0.000003  -0.000241
     2  H    0.000000   0.000000   0.000000   0.000000  -0.000000  -0.000001
     3  H    0.000000   0.000000   0.000000  -0.000000  -0.000000   0.000008
     4  C    0.000000  -0.000000  -0.000007  -0.000000   0.000042  -0.003082
     5  H    0.000000   0.000000  -0.000002   0.000000  -0.000498   0.006725
     6  H    0.000000   0.000000   0.000000  -0.000000  -0.000005   0.000224
     7  C    0.000004   0.000000  -0.000050  -0.000001   0.000583  -0.000425
     8  H    0.000001   0.000000   0.000002  -0.000000  -0.000032   0.000068
     9  H   -0.000042  -0.000000   0.000019  -0.000006   0.001335   0.000068
    10  C    0.000006  -0.000000  -0.000228   0.000006   0.005103  -0.000727
    11  H    0.000000   0.000000   0.000005  -0.000000  -0.000262  -0.000032
    12  H    0.000013  -0.000000   0.000013  -0.000000  -0.000465   0.000150
    13  N    0.000524   0.000003   0.006416  -0.000275  -0.092694   0.006861
    14  C   -0.035307   0.000447  -0.011865   0.005877   0.477039  -0.069260
    15  C   -0.042951   0.004498  -0.050650   0.000868  -0.076501   0.006908
    16  H    0.003978  -0.000153   0.000354   0.000016   0.006712  -0.000269
    17  C    0.519210  -0.042951  -0.019533   0.003580  -0.033649   0.000099
    18  Cl  -0.067676   0.000235   0.004709  -0.000129   0.000565   0.000012
    19  C    4.964226   0.365139   0.499765  -0.035253  -0.042281   0.004644
    20  H    0.365139   0.527096  -0.031847  -0.003360   0.003362  -0.000114
    21  C    0.499765  -0.031847   4.978084   0.353075   0.502159  -0.052151
    22  H   -0.035253  -0.003360   0.353075   0.557826  -0.042849  -0.001579
    23  C   -0.042281   0.003362   0.502159  -0.042849   5.188388   0.234767
    24  S    0.004644  -0.000114  -0.052151  -0.001579   0.234767  15.603377
    25  C   -0.000138   0.000000   0.000590   0.000161   0.001619   0.227302
    26  C   -0.000047   0.000000   0.001166  -0.000033  -0.025491  -0.061202
    27  C   -0.000001   0.000000   0.000025  -0.000000   0.000350   0.009163
    28  H    0.000000  -0.000000  -0.000000   0.000000  -0.000003  -0.000318
    29  C    0.000000  -0.000000  -0.000001   0.000000   0.000017   0.000043
    30  H   -0.000000   0.000000   0.000000  -0.000000   0.000000   0.000025
    31  C   -0.000000   0.000000   0.000000   0.000000  -0.000115   0.005811
    32  H    0.000000  -0.000000  -0.000000  -0.000000  -0.000000  -0.000256
    33  C    0.000002   0.000000  -0.000043   0.000004  -0.000185  -0.058829
    34  H    0.000000  -0.000000  -0.000004   0.000003   0.000032  -0.001834
[...]
 Rotational constants (GHZ):           0.3935329           0.2274920           0.1839868
 Leave Link  202 at Sun Jul 18 14:52:37 2021, MaxMem=   262144000 cpu:               0.0 elap:               0.0
 (Enter /prod/apps/gaussian/g16b1/l301.exe)
 Standard basis: Aug-CC-pVDZ (5D, 7F)
 Ernie: Thresh=  0.10000D-02 Tol=  0.10000D-05 Strict=F.
 Ernie:  54 primitive shells out of 643 were deleted.
 There are   627 symmetry adapted cartesian basis functions of A   symmetry.
 There are   589 symmetry adapted basis functions of A   symmetry.
   589 basis functions,  1069 primitive gaussians,   627 cartesian basis functions
    76 alpha electrons       76 beta electrons
       nuclear repulsion energy      1660.4147757917 Hartrees.
 IExCor=    0 DFT=F Ex=HF Corr=None ExCW=0 ScaHFX=  1.000000
 ScaDFX=  1.000000  1.000000  1.000000  1.000000 ScalE2=  1.000000  1.000000
 IRadAn=      5 IRanWt=     -1 IRanGd=            0 ICorTp=0 IEmpDi=  4
 NAtoms=   35 NActive=   35 NUniq=   35 SFac= 1.00D+00 NAtFMM=   60 NAOKFM=F Big=F
 Integral buffers will be    131072 words long.
 Raffenetti 1 integral format.
 Two-electron integral symmetry is turned on.
 Leave Link  301 at Sun Jul 18 14:52:37 2021, MaxMem=   262144000 cpu:               0.2 elap:               0.1
 (Enter /prod/apps/gaussian/g16b1/l302.exe)
 NPDir=0 NMtPBC=     1 NCelOv=     1 NCel=       1 NClECP=     1 NCelD=      1
         NCelK=      1 NCelE2=     1 NClLst=     1 CellRange=     0.0.
 One-electron integrals computed using PRISM.
 One-electron integral symmetry used in STVInt
 NBasis=   589 RedAO= T EigKep=  1.29D-06  NBF=   589
 NBsUse=   588 1.00D-06 EigRej=  7.48D-07 NBFU=   588
 Leave Link  302 at Sun Jul 18 14:52:37 2021, MaxMem=   262144000 cpu:               1.7 elap:               0.4
 (Enter /prod/apps/gaussian/g16b1/l303.exe)
 DipDrv:  MaxL=1.
 Leave Link  303 at Sun Jul 18 14:52:37 2021, MaxMem=   262144000 cpu:               0.4 elap:               0.1
 (Enter /prod/apps/gaussian/g16b1/l401.exe)
 ExpMin= 2.97D-02 ExpMax= 1.28D+05 ExpMxC= 1.24D+03 IAcc=3 IRadAn=         5 AccDes= 0.00D+00
 Harris functional with IExCor=  205 and IRadAn=       5 diagonalized for initial guess.
 HarFok:  IExCor=  205 AccDes= 0.00D+00 IRadAn=         5 IDoV= 1 UseB2=F ITyADJ=14
 ICtDFT=  3500011 ScaDFX=  1.000000  1.000000  1.000000  1.000000
 FoFCou: FMM=F IPFlag=           0 FMFlag=      100000 FMFlg1=           0
         NFxFlg=           0 DoJE=T BraDBF=F KetDBF=T FulRan=T
         wScrn=  0.000000 ICntrl=       500 IOpCl=  0 I1Cent=   200000004 NGrid=           0
         NMat0=    1 NMatS0=      1 NMatT0=    0 NMatD0=    1 NMtDS0=    0 NMtDT0=    0
 Petite list used in FoFCou.
 Harris En= -1543.28668827460    
 JPrj=0 DoOrth=F DoCkMO=F.
 Leave Link  401 at Sun Jul 18 14:52:41 2021, MaxMem=   262144000 cpu:              15.1 elap:               3.8
 (Enter /prod/apps/gaussian/g16b1/l502.exe)
 Integral symmetry usage will be decided dynamically.
 Closed shell SCF:
 Using DIIS extrapolation, IDIIS=  1040.
 NGot=   262144000 LenX=   261348123 LenY=   260954367
 Requested convergence on RMS density matrix=1.00D-08 within 128 cycles.
 Requested convergence on MAX density matrix=1.00D-06.
 Requested convergence on             energy=1.00D-06.
 No special actions if energy rises.
 Fock matrices will be formed incrementally for  20 cycles.

 Cycle   1  Pass 1  IDiag  1:
 FoFJK:  IHMeth= 1 ICntrl=       0 DoSepK=F KAlg= 0 I1Cent=           0 FoldK=F
 IRaf= 940000000 NMat=       1 IRICut=       1 DoRegI=T DoRafI=F ISym2E= 0 IDoP0=0 IntGTp=1.
 FoFCou: FMM=F IPFlag=           0 FMFlag=      100000 FMFlg1=           0
         NFxFlg=           0 DoJE=F BraDBF=F KetDBF=F FulRan=T
         wScrn=  0.000000 ICntrl=         0 IOpCl=  0 I1Cent=           0 NGrid=           0
         NMat0=    1 NMatS0=      1 NMatT0=    0 NMatD0=    1 NMtDS0=    0 NMtDT0=    0
 Symmetry not used in FoFCou.
 E= -1542.39478292865    
 DIIS: error= 1.87D-02 at cycle   1 NSaved=   1.
 NSaved= 1 IEnMin= 1 EnMin= -1542.39478292865     IErMin= 1 ErrMin= 1.87D-02
 ErrMax= 1.87D-02  0.00D+00 EMaxC= 1.00D-01 BMatC= 9.07D-01 BMatP= 9.07D-01
 IDIUse=3 WtCom= 8.13D-01 WtEn= 1.87D-01
 Coeff-Com:  0.100D+01
 Coeff-En:   0.100D+01
 Coeff:      0.100D+01
 Gap=     0.527 Goal=   None    Shift=    0.000
 GapD=    0.527 DampG=2.000 DampE=0.500 DampFc=1.0000 IDamp=-1.
 RMSDP=5.53D-02 MaxDP=4.27D+00              OVMax= 1.99D-01

 Cycle   2  Pass 1  IDiag  1:
 RMSU=  2.91D-02    CP:  5.52D-01
 E= -1542.96247078880     Delta-E=       -0.567687860153 Rises=F Damp=F
 DIIS: error= 9.59D-03 at cycle   2 NSaved=   2.
 NSaved= 2 IEnMin= 2 EnMin= -1542.96247078880     IErMin= 2 ErrMin= 9.59D-03
 ErrMax= 9.59D-03  0.00D+00 EMaxC= 1.00D-01 BMatC= 1.56D-01 BMatP= 9.07D-01
 IDIUse=3 WtCom= 9.04D-01 WtEn= 9.59D-02
 Coeff-Com:  0.236D+00 0.764D+00
 Coeff-En:   0.000D+00 0.100D+01
 Coeff:      0.213D+00 0.787D+00
 Gap=     0.292 Goal=   None    Shift=    0.000
 RMSDP=7.25D-03 MaxDP=5.35D-01 DE=-5.68D-01 OVMax= 7.17D-02

 Cycle   3  Pass 1  IDiag  1:
 RMSU=  7.17D-03    CP:  5.49D-01  9.64D-01
 E= -1543.10932066928     Delta-E=       -0.146849880479 Rises=F Damp=F
 DIIS: error= 2.47D-03 at cycle   3 NSaved=   3.
 NSaved= 3 IEnMin= 3 EnMin= -1543.10932066928     IErMin= 3 ErrMin= 2.47D-03
 ErrMax= 2.47D-03  0.00D+00 EMaxC= 1.00D-01 BMatC= 1.44D-02 BMatP= 1.56D-01
 IDIUse=3 WtCom= 9.75D-01 WtEn= 2.47D-02
 Coeff-Com: -0.199D-01 0.194D+00 0.826D+00
 Coeff-En:   0.000D+00 0.000D+00 0.100D+01
 Coeff:     -0.194D-01 0.189D+00 0.830D+00
 Gap=     0.273 Goal=   None    Shift=    0.000
 RMSDP=2.13D-03 MaxDP=1.20D-01 DE=-1.47D-01 OVMax= 4.46D-02

 Cycle   4  Pass 1  IDiag  1:
 RMSU=  1.56D-03    CP:  5.40D-01  9.90D-01  8.78D-01
 E= -1543.12479107991     Delta-E=       -0.015470410626 Rises=F Damp=F
 DIIS: error= 8.60D-04 at cycle   4 NSaved=   4.
 NSaved= 4 IEnMin= 4 EnMin= -1543.12479107991     IErMin= 4 ErrMin= 8.60D-04
 ErrMax= 8.60D-04  0.00D+00 EMaxC= 1.00D-01 BMatC= 1.45D-03 BMatP= 1.44D-02
 IDIUse=3 WtCom= 9.91D-01 WtEn= 8.60D-03
 Coeff-Com: -0.166D-01 0.316D-01 0.295D+00 0.690D+00
 Coeff-En:   0.000D+00 0.000D+00 0.000D+00 0.100D+01
 Coeff:     -0.165D-01 0.313D-01 0.292D+00 0.693D+00
 Gap=     0.264 Goal=   None    Shift=    0.000
 RMSDP=5.83D-04 MaxDP=5.90D-02 DE=-1.55D-02 OVMax= 9.08D-03

 Cycle   5  Pass 1  IDiag  1:
 RMSU=  4.82D-04    CP:  5.38D-01  9.89D-01  8.81D-01  9.27D-01
 E= -1543.12639168553     Delta-E=       -0.001600605623 Rises=F Damp=F
 DIIS: error= 2.52D-04 at cycle   5 NSaved=   5.
 NSaved= 5 IEnMin= 5 EnMin= -1543.12639168553     IErMin= 5 ErrMin= 2.52D-04
 ErrMax= 2.52D-04  0.00D+00 EMaxC= 1.00D-01 BMatC= 1.04D-04 BMatP= 1.45D-03
 IDIUse=3 WtCom= 9.97D-01 WtEn= 2.52D-03
 Coeff-Com: -0.196D-03-0.208D-01-0.522D-01 0.107D+00 0.966D+00
 Coeff-En:   0.000D+00 0.000D+00 0.000D+00 0.000D+00 0.100D+01
 Coeff:     -0.195D-03-0.207D-01-0.521D-01 0.107D+00 0.966D+00
 Gap=     0.267 Goal=   None    Shift=    0.000
 RMSDP=2.77D-04 MaxDP=2.88D-02 DE=-1.60D-03 OVMax= 8.13D-03

 Cycle   6  Pass 1  IDiag  1:
 RMSU=  1.44D-04    CP:  5.37D-01  9.91D-01  9.01D-01  1.04D+00  9.69D-01
 E= -1543.12662757377     Delta-E=       -0.000235888243 Rises=F Damp=F
 DIIS: error= 8.62D-05 at cycle   6 NSaved=   6.
 NSaved= 6 IEnMin= 6 EnMin= -1543.12662757377     IErMin= 6 ErrMin= 8.62D-05
 ErrMax= 8.62D-05  0.00D+00 EMaxC= 1.00D-01 BMatC= 1.86D-05 BMatP= 1.04D-04
 IDIUse=1 WtCom= 1.00D+00 WtEn= 0.00D+00
 Coeff-Com:  0.172D-02-0.892D-02-0.409D-01-0.663D-01 0.225D+00 0.889D+00
 Coeff:      0.172D-02-0.892D-02-0.409D-01-0.663D-01 0.225D+00 0.889D+00
 Gap=     0.267 Goal=   None    Shift=    0.000
 RMSDP=8.73D-05 MaxDP=4.05D-03 DE=-2.36D-04 OVMax= 2.66D-03

 Cycle   7  Pass 1  IDiag  1:
 RMSU=  5.88D-05    CP:  5.37D-01  9.91D-01  9.01D-01  1.05D+00  1.09D+00
                    CP:  1.11D+00
 E= -1543.12666738515     Delta-E=       -0.000039811372 Rises=F Damp=F
 DIIS: error= 3.15D-05 at cycle   7 NSaved=   7.
 NSaved= 7 IEnMin= 7 EnMin= -1543.12666738515     IErMin= 7 ErrMin= 3.15D-05
 ErrMax= 3.15D-05  0.00D+00 EMaxC= 1.00D-01 BMatC= 2.20D-06 BMatP= 1.86D-05
 IDIUse=1 WtCom= 1.00D+00 WtEn= 0.00D+00
 Coeff-Com:  0.244D-03 0.108D-02 0.209D-02-0.282D-01-0.812D-01 0.747D-01
 Coeff-Com:  0.103D+01
 Coeff:      0.244D-03 0.108D-02 0.209D-02-0.282D-01-0.812D-01 0.747D-01
 Coeff:      0.103D+01
 Gap=     0.267 Goal=   None    Shift=    0.000
 RMSDP=3.95D-05 MaxDP=2.88D-03 DE=-3.98D-05 OVMax= 1.71D-03

 Cycle   8  Pass 1  IDiag  1:
 RMSU=  2.26D-05    CP:  5.37D-01  9.91D-01  9.03D-01  1.06D+00  1.10D+00
                    CP:  1.25D+00  1.24D+00
 E= -1543.12667529319     Delta-E=       -0.000007908043 Rises=F Damp=F
 DIIS: error= 1.77D-05 at cycle   8 NSaved=   8.
 NSaved= 8 IEnMin= 8 EnMin= -1543.12667529319     IErMin= 8 ErrMin= 1.77D-05
 ErrMax= 1.77D-05  0.00D+00 EMaxC= 1.00D-01 BMatC= 4.43D-07 BMatP= 2.20D-06
 IDIUse=1 WtCom= 1.00D+00 WtEn= 0.00D+00
 Coeff-Com: -0.276D-03 0.137D-02 0.715D-02 0.120D-01-0.215D-01-0.178D+00
 Coeff-Com: -0.384D-01 0.122D+01
 Coeff:     -0.276D-03 0.137D-02 0.715D-02 0.120D-01-0.215D-01-0.178D+00
 Coeff:     -0.384D-01 0.122D+01
 Gap=     0.267 Goal=   None    Shift=    0.000
 RMSDP=2.04D-05 MaxDP=7.18D-04 DE=-7.91D-06 OVMax= 9.38D-04

 Cycle   9  Pass 1  IDiag  1:
 RMSU=  1.11D-05    CP:  5.37D-01  9.91D-01  9.03D-01  1.06D+00  1.12D+00
                    CP:  1.29D+00  1.46D+00  1.31D+00
 E= -1543.12667741668     Delta-E=       -0.000002123487 Rises=F Damp=F
 DIIS: error= 7.07D-06 at cycle   9 NSaved=   9.
 NSaved= 9 IEnMin= 9 EnMin= -1543.12667741668     IErMin= 9 ErrMin= 7.07D-06
 ErrMax= 7.07D-06  0.00D+00 EMaxC= 1.00D-01 BMatC= 8.87D-08 BMatP= 4.43D-07
 IDIUse=1 WtCom= 1.00D+00 WtEn= 0.00D+00
 Coeff-Com: -0.796D-04 0.131D-04 0.738D-03 0.663D-02 0.111D-01-0.440D-01
 Coeff-Com: -0.167D+00 0.181D+00 0.101D+01
 Coeff:     -0.796D-04 0.131D-04 0.738D-03 0.663D-02 0.111D-01-0.440D-01
 Coeff:     -0.167D+00 0.181D+00 0.101D+01
 Gap=     0.267 Goal=   None    Shift=    0.000
 RMSDP=8.39D-06 MaxDP=4.95D-04 DE=-2.12D-06 OVMax= 3.85D-04

 Cycle  10  Pass 1  IDiag  1:
 RMSU=  4.65D-06    CP:  5.37D-01  9.91D-01  9.03D-01  1.06D+00  1.12D+00
                    CP:  1.30D+00  1.51D+00  1.53D+00  1.27D+00
 E= -1543.12667785602     Delta-E=       -0.000000439340 Rises=F Damp=F
 DIIS: error= 4.69D-06 at cycle  10 NSaved=  10.
 NSaved=10 IEnMin=10 EnMin= -1543.12667785602     IErMin=10 ErrMin= 4.69D-06
 ErrMax= 4.69D-06  0.00D+00 EMaxC= 1.00D-01 BMatC= 2.04D-08 BMatP= 8.87D-08
 IDIUse=1 WtCom= 1.00D+00 WtEn= 0.00D+00
 Coeff-Com:  0.726D-04-0.373D-03-0.192D-02-0.313D-02 0.458D-02 0.465D-01
 Coeff-Com:  0.281D-01-0.315D+00-0.162D+00 0.140D+01
 Coeff:      0.726D-04-0.373D-03-0.192D-02-0.313D-02 0.458D-02 0.465D-01
 Coeff:      0.281D-01-0.315D+00-0.162D+00 0.140D+01
 Gap=     0.267 Goal=   None    Shift=    0.000
 RMSDP=5.84D-06 MaxDP=2.08D-04 DE=-4.39D-07 OVMax= 2.56D-04

 Cycle  11  Pass 1  IDiag  1:
 RMSU=  2.55D-06    CP:  5.37D-01  9.91D-01  9.03D-01  1.06D+00  1.12D+00
                    CP:  1.31D+00  1.53D+00  1.62D+00  1.61D+00  1.52D+00
 E= -1543.12667799898     Delta-E=       -0.000000142961 Rises=F Damp=F
 DIIS: error= 1.41D-06 at cycle  11 NSaved=  11.
 NSaved=11 IEnMin=11 EnMin= -1543.12667799898     IErMin=11 ErrMin= 1.41D-06
 ErrMax= 1.41D-06  0.00D+00 EMaxC= 1.00D-01 BMatC= 3.54D-09 BMatP= 2.04D-08
 IDIUse=1 WtCom= 1.00D+00 WtEn= 0.00D+00
 Coeff-Com:  0.248D-04-0.626D-04-0.426D-03-0.143D-02-0.167D-02 0.135D-01
 Coeff-Com:  0.352D-01-0.705D-01-0.239D+00 0.232D+00 0.103D+01
 Coeff:      0.248D-04-0.626D-04-0.426D-03-0.143D-02-0.167D-02 0.135D-01
 Coeff:      0.352D-01-0.705D-01-0.239D+00 0.232D+00 0.103D+01
 Gap=     0.267 Goal=   None    Shift=    0.000
 RMSDP=2.16D-06 MaxDP=1.05D-04 DE=-1.43D-07 OVMax= 8.28D-05

 Cycle  12  Pass 1  IDiag  1:
 RMSU=  9.21D-07    CP:  5.37D-01  9.91D-01  9.03D-01  1.06D+00  1.12D+00
                    CP:  1.31D+00  1.54D+00  1.64D+00  1.70D+00  1.79D+00
                    CP:  1.25D+00
 E= -1543.12667801581     Delta-E=       -0.000000016832 Rises=F Damp=F
 DIIS: error= 5.12D-07 at cycle  12 NSaved=  12.
 NSaved=12 IEnMin=12 EnMin= -1543.12667801581     IErMin=12 ErrMin= 5.12D-07
 ErrMax= 5.12D-07  0.00D+00 EMaxC= 1.00D-01 BMatC= 5.54D-10 BMatP= 3.54D-09
 IDIUse=1 WtCom= 1.00D+00 WtEn= 0.00D+00
 Coeff-Com: -0.474D-05 0.408D-04 0.185D-03 0.254D-03-0.114D-02-0.425D-02
 Coeff-Com:  0.389D-02 0.373D-01-0.368D-01-0.167D+00 0.216D+00 0.952D+00
 Coeff:     -0.474D-05 0.408D-04 0.185D-03 0.254D-03-0.114D-02-0.425D-02
 Coeff:      0.389D-02 0.373D-01-0.368D-01-0.167D+00 0.216D+00 0.952D+00
 Gap=     0.267 Goal=   None    Shift=    0.000
 RMSDP=7.06D-07 MaxDP=4.18D-05 DE=-1.68D-08 OVMax= 2.56D-05

 Cycle  13  Pass 1  IDiag  1:
 RMSU=  3.94D-07    CP:  5.37D-01  9.91D-01  9.03D-01  1.06D+00  1.12D+00
                    CP:  1.31D+00  1.54D+00  1.64D+00  1.71D+00  1.84D+00
                    CP:  1.40D+00  1.18D+00
 E= -1543.12667801760     Delta-E=       -0.000000001788 Rises=F Damp=F
 DIIS: error= 2.27D-07 at cycle  13 NSaved=  13.
 NSaved=13 IEnMin=13 EnMin= -1543.12667801760     IErMin=13 ErrMin= 2.27D-07
 ErrMax= 2.27D-07  0.00D+00 EMaxC= 1.00D-01 BMatC= 6.91D-11 BMatP= 5.54D-10
 IDIUse=1 WtCom= 1.00D+00 WtEn= 0.00D+00
 Coeff-Com: -0.446D-05 0.149D-04 0.867D-04 0.294D-03 0.277D-04-0.261D-02
 Coeff-Com: -0.529D-02 0.155D-01 0.290D-01-0.475D-01-0.131D+00 0.101D+00
 Coeff-Com:  0.104D+01
 Coeff:     -0.446D-05 0.149D-04 0.867D-04 0.294D-03 0.277D-04-0.261D-02
 Coeff:     -0.529D-02 0.155D-01 0.290D-01-0.475D-01-0.131D+00 0.101D+00
 Coeff:      0.104D+01
 Gap=     0.267 Goal=   None    Shift=    0.000
 RMSDP=2.52D-07 MaxDP=1.58D-05 DE=-1.79D-09 OVMax= 8.41D-06

 Cycle  14  Pass 1  IDiag  1:
 RMSU=  1.46D-07    CP:  5.37D-01  9.91D-01  9.03D-01  1.06D+00  1.12D+00
                    CP:  1.31D+00  1.54D+00  1.64D+00  1.71D+00  1.85D+00
                    CP:  1.43D+00  1.28D+00  1.23D+00
 E= -1543.12667801781     Delta-E=       -0.000000000213 Rises=F Damp=F
 DIIS: error= 9.82D-08 at cycle  14 NSaved=  14.
 NSaved=14 IEnMin=14 EnMin= -1543.12667801781     IErMin=14 ErrMin= 9.82D-08
 ErrMax= 9.82D-08  0.00D+00 EMaxC= 1.00D-01 BMatC= 1.03D-11 BMatP= 6.91D-11
 IDIUse=1 WtCom= 1.00D+00 WtEn= 0.00D+00
 Coeff-Com:  0.917D-06-0.622D-05-0.309D-04-0.474D-04 0.107D-03 0.826D-03
 Coeff-Com: -0.314D-04-0.581D-02 0.163D-02 0.272D-01-0.193D-01-0.127D+00
 Coeff-Com: -0.917D-01 0.121D+01
 Coeff:      0.917D-06-0.622D-05-0.309D-04-0.474D-04 0.107D-03 0.826D-03
 Coeff:     -0.314D-04-0.581D-02 0.163D-02 0.272D-01-0.193D-01-0.127D+00
 Coeff:     -0.917D-01 0.121D+01
 Gap=     0.267 Goal=   None    Shift=    0.000
 RMSDP=1.11D-07 MaxDP=5.46D-06 DE=-2.13D-10 OVMax= 4.31D-06

 Cycle  15  Pass 1  IDiag  1:
 RMSU=  6.73D-08    CP:  5.37D-01  9.91D-01  9.03D-01  1.06D+00  1.12D+00
                    CP:  1.31D+00  1.54D+00  1.64D+00  1.71D+00  1.85D+00
                    CP:  1.43D+00  1.30D+00  1.42D+00  1.28D+00
 E= -1543.12667801797     Delta-E=       -0.000000000162 Rises=F Damp=F
 DIIS: error= 5.39D-08 at cycle  15 NSaved=  15.
 NSaved=15 IEnMin=15 EnMin= -1543.12667801797     IErMin=15 ErrMin= 5.39D-08
 ErrMax= 5.39D-08  0.00D+00 EMaxC= 1.00D-01 BMatC= 2.36D-12 BMatP= 1.03D-11
 IDIUse=1 WtCom= 1.00D+00 WtEn= 0.00D+00
 Coeff-Com:  0.745D-06-0.231D-05-0.138D-04-0.501D-04-0.218D-04 0.438D-03
 Coeff-Com:  0.996D-03-0.246D-02-0.613D-02 0.721D-02 0.263D-01-0.907D-02
 Coeff-Com: -0.218D+00-0.234D-01 0.122D+01
 Coeff:      0.745D-06-0.231D-05-0.138D-04-0.501D-04-0.218D-04 0.438D-03
 Coeff:      0.996D-03-0.246D-02-0.613D-02 0.721D-02 0.263D-01-0.907D-02
 Coeff:     -0.218D+00-0.234D-01 0.122D+01
 Gap=     0.267 Goal=   None    Shift=    0.000
 RMSDP=5.57D-08 MaxDP=2.18D-06 DE=-1.62D-10 OVMax= 2.40D-06

 Cycle  16  Pass 1  IDiag  1:
 RMSU=  2.63D-08    CP:  5.37D-01  9.91D-01  9.03D-01  1.06D+00  1.12D+00
                    CP:  1.31D+00  1.54D+00  1.64D+00  1.72D+00  1.86D+00
                    CP:  1.43D+00  1.30D+00  1.47D+00  1.43D+00  1.46D+00
 E= -1543.12667801794     Delta-E=        0.000000000032 Rises=F Damp=F
 DIIS: error= 2.42D-08 at cycle  16 NSaved=  16.
 NSaved=16 IEnMin=15 EnMin= -1543.12667801797     IErMin=16 ErrMin= 2.42D-08
 ErrMax= 2.42D-08  0.00D+00 EMaxC= 1.00D-01 BMatC= 4.06D-13 BMatP= 2.36D-12
 IDIUse=1 WtCom= 1.00D+00 WtEn= 0.00D+00
 Coeff-Com: -0.209D-06 0.141D-05 0.733D-05 0.112D-04-0.238D-04-0.197D-03
 Coeff-Com:  0.209D-04 0.139D-02-0.473D-03-0.609D-02 0.504D-02 0.301D-01
 Coeff-Com:  0.137D-01-0.250D+00-0.142D-01 0.122D+01
 Coeff:     -0.209D-06 0.141D-05 0.733D-05 0.112D-04-0.238D-04-0.197D-03
 Coeff:      0.209D-04 0.139D-02-0.473D-03-0.609D-02 0.504D-02 0.301D-01
 Coeff:      0.137D-01-0.250D+00-0.142D-01 0.122D+01
 Gap=     0.267 Goal=   None    Shift=    0.000
 RMSDP=2.57D-08 MaxDP=1.06D-06 DE= 3.23D-11 OVMax= 1.11D-06

 Cycle  17  Pass 1  IDiag  1:
 RMSU=  1.12D-08    CP:  5.37D-01  9.91D-01  9.03D-01  1.06D+00  1.12D+00
                    CP:  1.31D+00  1.54D+00  1.64D+00  1.72D+00  1.86D+00
                    CP:  1.43D+00  1.30D+00  1.48D+00  1.44D+00  1.68D+00
                    CP:  1.43D+00
 E= -1543.12667801800     Delta-E=       -0.000000000063 Rises=F Damp=F
 DIIS: error= 5.24D-09 at cycle  17 NSaved=  17.
 NSaved=17 IEnMin=17 EnMin= -1543.12667801800     IErMin=17 ErrMin= 5.24D-09
 ErrMax= 5.24D-09  0.00D+00 EMaxC= 1.00D-01 BMatC= 5.86D-14 BMatP= 4.06D-13
 IDIUse=1 WtCom= 1.00D+00 WtEn= 0.00D+00
 Coeff-Com: -0.149D-06 0.615D-06 0.357D-05 0.962D-05-0.148D-06-0.110D-03
 Coeff-Com: -0.147D-03 0.655D-03 0.884D-03-0.237D-02-0.317D-02 0.703D-02
 Coeff-Com:  0.366D-01-0.413D-01-0.198D+00 0.222D+00 0.977D+00
 Coeff:     -0.149D-06 0.615D-06 0.357D-05 0.962D-05-0.148D-06-0.110D-03
 Coeff:     -0.147D-03 0.655D-03 0.884D-03-0.237D-02-0.317D-02 0.703D-02
 Coeff:      0.366D-01-0.413D-01-0.198D+00 0.222D+00 0.977D+00
 Gap=     0.267 Goal=   None    Shift=    0.000
 RMSDP=7.66D-09 MaxDP=4.88D-07 DE=-6.32D-11 OVMax= 2.94D-07

 SCF Done:  E(RHF) =  -1543.12667802     A.U. after   17 cycles
            NFock= 17  Conv=0.77D-08     -V/T= 2.0005
 KE= 1.542384150240D+03 PE=-6.941766642959D+03 EE= 2.195841038909D+03
 Leave Link  502 at Sun Jul 18 15:10:04 2021, MaxMem=   262144000 cpu:            4157.9 elap:            1043.1
 (Enter /prod/apps/gaussian/g16b1/l801.exe)
 ExpMin= 2.97D-02 ExpMax= 1.28D+05 ExpMxC= 1.24D+03 IAcc=3 IRadAn=         5 AccDes= 0.00D+00
 HarFok:  IExCor=  205 AccDes= 0.00D+00 IRadAn=         5 IDoV=-2 UseB2=F ITyADJ=14
 ICtDFT= 12500011 ScaDFX=  1.000000  1.000000  1.000000  1.000000
 GSVD:  LWork=        -945 too small for GESVD, short by        4050 words or        4050 for optimal perf.
 Largest valence mixing into a core orbital is  3.28D-04
 Largest core mixing into a valence orbital is  7.74D-05
 Range of M.O.s used for correlation:    28   588
 NBasis=   589 NAE=    76 NBE=    76 NFC=    27 NFV=     0
 NROrb=    561 NOA=    49 NOB=    49 NVA=   512 NVB=   512

 **** Warning!!: The largest alpha MO coefficient is  0.10525313D+03

 Leave Link  801 at Sun Jul 18 15:10:05 2021, MaxMem=   262144000 cpu:               1.4 elap:               0.4
 (Enter /prod/apps/gaussian/g16b1/l906.exe)
 FulOut=F Deriv=F AODrv=F NAtomX=    35
   MMem=           3  MDisk=          49 MDiskD=          49
  W3Min=    15730176 MinDsk=    16236966 NBas6D=         627
 NBas2D=      197721    NTT=      196878    LW2=     2000000
    MDV=   259624664 MDiskM=        5706 NBas2p=      183597
 Disk-based method using OVN memory for 49 occupieds at a time.
 Estimated scratch disk usage= 14077023744 words.
 IMap=   1   2   3   4   5   6   7   8   9  10  11  12  13  14  15  16  17  18  19  20
 IMap=  21  22  23  24  25  26  27  28  29  30  31  32  33  34  35  36  37  38  39  40
 IMap=  41  42  43  44  45  46  47  48  49
 Actual    scratch disk usage= 13854379520 words.
 JobTyp=1 Pass  1:  I=   1 to  49 NPSUse=  4 ParTrn=T ParDer=T DoDerP=F.
Erroneous write. Write -1 instead of 8304.
fd = 4
orig len = 8384512 left = 8304
g_write
