 Entering Gaussian System, Link 0=g16
 Initial command:
 /prod/apps/gaussian/g16b1/l1.exe "/tmp/ubator02/1839530/Gau-74538.inp" -scrdir="/tmp/ubator02/1839530/"
 Entering Link 1 = /prod/apps/gaussian/g16b1/l1.exe PID=     74549.
  
 Copyright (c) 1988-2017, Gaussian, Inc.  All Rights Reserved.
  
 This is part of the Gaussian(R) 16 program.  It is based on
 the Gaussian(R) 09 system (copyright 2009, Gaussian, Inc.),
 the Gaussian(R) 03 system (copyright 2003, Gaussian, Inc.),
 the Gaussian(R) 98 system (copyright 1998, Gaussian, Inc.),
 the Gaussian(R) 94 system (copyright 1995, Gaussian, Inc.),
 the Gaussian 92(TM) system (copyright 1992, Gaussian, Inc.),
 the Gaussian 90(TM) system (copyright 1990, Gaussian, Inc.),
 the Gaussian 88(TM) system (copyright 1988, Gaussian, Inc.),
 the Gaussian 86(TM) system (copyright 1986, Carnegie Mellon
 University), and the Gaussian 82(TM) system (copyright 1983,
 Carnegie Mellon University). Gaussian is a federally registered
 trademark of Gaussian, Inc.
  
 This software contains proprietary and confidential information,
 including trade secrets, belonging to Gaussian, Inc.
  
 This software is provided under written license and may be
 used, copied, transmitted, or stored only in accord with that
 written license.
  
 The following legend is applicable only to US Government
 contracts under FAR:
  
                    RESTRICTED RIGHTS LEGEND
  
 Use, reproduction and disclosure by the US Government is
 subject to restrictions as set forth in subparagraphs (a)
 and (c) of the Commercial Computer Software - Restricted
 Rights clause in FAR 52.227-19.
  
 Gaussian, Inc.
 340 Quinnipiac St., Bldg. 40, Wallingford CT 06492
  
  
 ---------------------------------------------------------------
 Warning -- This program may not be used in any manner that
 competes with the business of Gaussian, Inc. or will provide
 assistance to any competitor of Gaussian, Inc.  The licensee
 of this program is prohibited from giving any competitor of
 Gaussian, Inc. access to this program.  By using this program,
 the user acknowledges that Gaussian, Inc. is engaged in the
 business of creating and licensing software in the field of
 computational chemistry and represents and warrants to the
 licensee that it is not a competitor of Gaussian, Inc. and that
 it will not use this program in any manner prohibited above.
 ---------------------------------------------------------------
  

 Cite this work as:
 Gaussian 16, Revision B.01,
 M. J. Frisch, G. W. Trucks, H. B. Schlegel, G. E. Scuseria, 
 M. A. Robb, J. R. Cheeseman, G. Scalmani, V. Barone, 
 G. A. Petersson, H. Nakatsuji, X. Li, M. Caricato, A. V. Marenich, 
 J. Bloino, B. G. Janesko, R. Gomperts, B. Mennucci, H. P. Hratchian, 
 J. V. Ortiz, A. F. Izmaylov, J. L. Sonnenberg, D. Williams-Young, 
 F. Ding, F. Lipparini, F. Egidi, J. Goings, B. Peng, A. Petrone, 
 T. Henderson, D. Ranasinghe, V. G. Zakrzewski, J. Gao, N. Rega, 
 G. Zheng, W. Liang, M. Hada, M. Ehara, K. Toyota, R. Fukuda, 
 J. Hasegawa, M. Ishida, T. Nakajima, Y. Honda, O. Kitao, H. Nakai, 
 T. Vreven, K. Throssell, J. A. Montgomery, Jr., J. E. Peralta, 
 F. Ogliaro, M. J. Bearpark, J. J. Heyd, E. N. Brothers, K. N. Kudin, 
 V. N. Staroverov, T. A. Keith, R. Kobayashi, J. Normand, 
 K. Raghavachari, A. P. Rendell, J. C. Burant, S. S. Iyengar, 
 J. Tomasi, M. Cossi, J. M. Millam, M. Klene, C. Adamo, R. Cammi, 
 J. W. Ochterski, R. L. Martin, K. Morokuma, O. Farkas, 
 J. B. Foresman, and D. J. Fox, Gaussian, Inc., Wallingford CT, 2016.
 
 ******************************************
 Gaussian 16:  ES64L-G16RevB.01 20-Dec-2017
                18-Jul-2021 
 ******************************************
 %mem=800MB
 %nproc=4
 Will use up to    4 processors via shared memory.
 %chk=SET_328_BBB256_conf1.geo_180_180_270.chk
 -----------------------------------------------------------
 #p b3lyp/6-31G(d) opt freq scrf=(iefpcm,read,solvent=water)
 -----------------------------------------------------------
 1/18=20,19=15,26=3,38=1,40=2/1,3;
 2/9=110,12=2,17=6,18=5,40=1/2;
 3/5=1,6=6,7=1,11=2,25=1,30=1,70=2203,71=1,72=1,74=-5/1,2,3;
 4//1;
 5/5=2,38=5,53=1/2;
 6/7=2,8=2,9=2,10=2,28=1/1;
 7//1,2,3,16;
 1/18=20,19=15,26=3/3(2);
 2/9=110/2;
 99//99;
 2/9=110/2;
 3/5=1,6=6,7=1,11=2,25=1,30=1,70=2205,71=1,72=1,74=-5/1,2,3;
 4/5=5,16=3,69=1/1;
 5/5=2,38=5,53=1/2;
 7//1,2,3,16;
 1/18=20,19=15,26=3/3(-5);
 2/9=110/2;
 6/7=2,8=2,9=2,10=2,19=2,28=1/1;
 99/9=1/99;
 Leave Link    1 at Sun Jul 18 13:37:05 2021, MaxMem=   104857600 cpu:               0.1 elap:               0.0
 (Enter /prod/apps/gaussian/g16b1/l101.exe)
 ---------------------------------------------
 SET_328_BBB256_conf1.geo_180_180_270 geometry
 ---------------------------------------------
 Symbolic Z-matrix:
 Charge =  1 Multiplicity = 1
 C                     1.49      3.012     1.305 
 H                     0.439     3.174     1.558 
 H                     1.697     3.425     0.314 
 H                     2.095     3.575     2.021 
 N                     1.714     1.578     1.309 
 H                     1.688     1.24      2.25 
 C                     0.676     0.914     0.527 
 H                     0.727     1.267    -0.506 
 H                    -0.32      1.019     0.964 
 C                     0.963    -0.475     0.582 
 H                     1.014    -0.794     1.625 
 H                     1.937    -0.745     0.169 
 C                    -0.075    -1.271    -0.201 
 N                    -1.167    -1.677     0.518 
 C                    -2.247    -2.167    -0.131 
 H                    -3.141    -2.516     0.381 
 C                    -2.284    -2.092    -1.485 
 H                    -3.144    -2.399    -2.075 
 C                    -1.237    -1.574    -2.213 
 H                    -1.35     -1.49     -3.291 
 C                    -0.12     -1.185    -1.568 
 H                     0.779    -0.825    -2.061 
 H                     2.609     1.38      0.909 
 
 ITRead=  0  0  0  0  0  0  0  0  0  0  0  0  0  0  0  0  0  0  0  0
 ITRead=  0  0  0
 MicOpt= -1 -1 -1 -1 -1 -1 -1 -1 -1 -1 -1 -1 -1 -1 -1 -1 -1 -1 -1 -1
 MicOpt= -1 -1 -1
 NAtoms=     23 NQM=       23 NQMF=       0 NMMI=      0 NMMIF=      0
                NMic=       0 NMicF=      0.
                    Isotopes and Nuclear Properties:
 (Nuclear quadrupole moments (NQMom) in fm**2, nuclear magnetic moments (NMagM)
  in nuclear magnetons)

  Atom         1           2           3           4           5           6           7           8           9          10
 IAtWgt=          12           1           1           1          14           1          12           1           1          12
 AtmWgt=  12.0000000   1.0078250   1.0078250   1.0078250  14.0030740   1.0078250  12.0000000   1.0078250   1.0078250  12.0000000
 NucSpn=           0           1           1           1           2           1           0           1           1           0
 AtZEff=  -0.0000000  -0.0000000  -0.0000000  -0.0000000  -0.0000000  -0.0000000  -0.0000000  -0.0000000  -0.0000000  -0.0000000
 NQMom=    0.0000000   0.0000000   0.0000000   0.0000000   2.0440000   0.0000000   0.0000000   0.0000000   0.0000000   0.0000000
 NMagM=    0.0000000   2.7928460   2.7928460   2.7928460   0.4037610   2.7928460   0.0000000   2.7928460   2.7928460   0.0000000
 AtZNuc=   6.0000000   1.0000000   1.0000000   1.0000000   7.0000000   1.0000000   6.0000000   1.0000000   1.0000000   6.0000000

  Atom        11          12          13          14          15          16          17          18          19          20
 IAtWgt=           1           1          12          14          12           1          12           1          12           1
 AtmWgt=   1.0078250   1.0078250  12.0000000  14.0030740  12.0000000   1.0078250  12.0000000   1.0078250  12.0000000   1.0078250
 NucSpn=           1           1           0           2           0           1           0           1           0           1
 AtZEff=  -0.0000000  -0.0000000  -0.0000000  -0.0000000  -0.0000000  -0.0000000  -0.0000000  -0.0000000  -0.0000000  -0.0000000
 NQMom=    0.0000000   0.0000000   0.0000000   2.0440000   0.0000000   0.0000000   0.0000000   0.0000000   0.0000000   0.0000000
 NMagM=    2.7928460   2.7928460   0.0000000   0.4037610   0.0000000   2.7928460   0.0000000   2.7928460   0.0000000   2.7928460
 AtZNuc=   1.0000000   1.0000000   6.0000000   7.0000000   6.0000000   1.0000000   6.0000000   1.0000000   6.0000000   1.0000000

  Atom        21          22          23
 IAtWgt=          12           1           1
 AtmWgt=  12.0000000   1.0078250   1.0078250
 NucSpn=           0           1           1
 AtZEff=  -0.0000000  -0.0000000  -0.0000000
 NQMom=    0.0000000   0.0000000   0.0000000
 NMagM=    0.0000000   2.7928460   2.7928460
 AtZNuc=   6.0000000   1.0000000   1.0000000
 Leave Link  101 at Sun Jul 18 13:37:05 2021, MaxMem=   104857600 cpu:               0.5 elap:               0.1
 (Enter /prod/apps/gaussian/g16b1/l103.exe)

 GradGradGradGradGradGradGradGradGradGradGradGradGradGradGradGradGradGrad
 Berny optimization.
 Initialization pass.
                           ----------------------------
                           !    Initial Parameters    !
                           ! (Angstroms and Degrees)  !
 --------------------------                            --------------------------
 ! Name  Definition              Value          Derivative Info.                !
 --------------------------------------------------------------------------------
 ! R1    R(1,2)                  1.0931         estimate D2E/DX2                !
 ! R2    R(1,3)                  1.0934         estimate D2E/DX2                !
 ! R3    R(1,4)                  1.0935         estimate D2E/DX2                !
 ! R4    R(1,5)                  1.4514         estimate D2E/DX2                !
 ! R5    R(5,6)                  1.0002         estimate D2E/DX2                !
 ! R6    R(5,7)                  1.4594         estimate D2E/DX2                !
 ! R7    R(5,23)                 1.0001         estimate D2E/DX2                !
 ! R8    R(7,8)                  1.0928         estimate D2E/DX2                !
 ! R9    R(7,9)                  1.0927         estimate D2E/DX2                !
 ! R10   R(7,10)                 1.4194         estimate D2E/DX2                !
 ! R11   R(10,11)                1.0919         estimate D2E/DX2                !
 ! R12   R(10,12)                1.0919         estimate D2E/DX2                !
 ! R13   R(10,13)                1.5245         estimate D2E/DX2                !
 ! R14   R(13,14)                1.369          estimate D2E/DX2                !
 ! R15   R(13,21)                1.3704         estimate D2E/DX2                !
 ! R16   R(14,15)                1.3519         estimate D2E/DX2                !
 ! R17   R(15,16)                1.0877         estimate D2E/DX2                !
 ! R18   R(15,17)                1.3566         estimate D2E/DX2                !
 ! R19   R(17,18)                1.0872         estimate D2E/DX2                !
 ! R20   R(17,19)                1.3764         estimate D2E/DX2                !
 ! R21   R(19,20)                1.0872         estimate D2E/DX2                !
 ! R22   R(19,21)                1.3472         estimate D2E/DX2                !
 ! R23   R(21,22)                1.0867         estimate D2E/DX2                !
 ! A1    A(2,1,3)              109.6229         estimate D2E/DX2                !
 ! A2    A(2,1,4)              107.7053         estimate D2E/DX2                !
 ! A3    A(2,1,5)              107.1084         estimate D2E/DX2                !
 ! A4    A(3,1,4)              107.1128         estimate D2E/DX2                !
 ! A5    A(3,1,5)              110.272          estimate D2E/DX2                !
 ! A6    A(4,1,5)              114.9302         estimate D2E/DX2                !
 ! A7    A(1,5,6)              109.4183         estimate D2E/DX2                !
 ! A8    A(1,5,7)              109.7721         estimate D2E/DX2                !
 ! A9    A(1,5,23)             109.4276         estimate D2E/DX2                !
 ! A10   A(6,5,7)              109.3828         estimate D2E/DX2                !
 ! A11   A(6,5,23)             109.4292         estimate D2E/DX2                !
 ! A12   A(7,5,23)             109.3969         estimate D2E/DX2                !
 ! A13   A(5,7,8)              109.0467         estimate D2E/DX2                !
 ! A14   A(5,7,9)              112.9724         estimate D2E/DX2                !
 ! A15   A(5,7,10)             106.2995         estimate D2E/DX2                !
 ! A16   A(8,7,9)              112.9249         estimate D2E/DX2                !
 ! A17   A(8,7,10)             110.077          estimate D2E/DX2                !
 ! A18   A(9,7,10)             105.2386         estimate D2E/DX2                !
 ! A19   A(7,10,11)            109.4118         estimate D2E/DX2                !
 ! A20   A(7,10,12)            114.0607         estimate D2E/DX2                !
 ! A21   A(7,10,13)            110.6939         estimate D2E/DX2                !
 ! A22   A(11,10,12)           104.3242         estimate D2E/DX2                !
 ! A23   A(11,10,13)           111.7076         estimate D2E/DX2                !
 ! A24   A(12,10,13)           106.4984         estimate D2E/DX2                !
 ! A25   A(10,13,14)           115.3531         estimate D2E/DX2                !
 ! A26   A(10,13,21)           120.1263         estimate D2E/DX2                !
 ! A27   A(14,13,21)           121.0835         estimate D2E/DX2                !
 ! A28   A(13,14,15)           119.5098         estimate D2E/DX2                !
 ! A29   A(14,15,16)           123.1547         estimate D2E/DX2                !
 ! A30   A(14,15,17)           118.7438         estimate D2E/DX2                !
 ! A31   A(16,15,17)           117.7184         estimate D2E/DX2                !
 ! A32   A(15,17,18)           123.204          estimate D2E/DX2                !
 ! A33   A(15,17,19)           121.868          estimate D2E/DX2                !
 ! A34   A(18,17,19)           114.8952         estimate D2E/DX2                !
 ! A35   A(17,19,20)           118.3248         estimate D2E/DX2                !
 ! A36   A(17,19,21)           119.086          estimate D2E/DX2                !
 ! A37   A(20,19,21)           122.5881         estimate D2E/DX2                !
 ! A38   A(13,21,19)           119.1214         estimate D2E/DX2                !
 ! A39   A(13,21,22)           116.4979         estimate D2E/DX2                !
 ! A40   A(19,21,22)           124.3587         estimate D2E/DX2                !
 ! D1    D(2,1,5,6)            -71.2011         estimate D2E/DX2                !
 ! D2    D(2,1,5,7)             48.8426         estimate D2E/DX2                !
 ! D3    D(2,1,5,23)           168.9093         estimate D2E/DX2                !
 ! D4    D(3,1,5,6)            169.5722         estimate D2E/DX2                !
 ! D5    D(3,1,5,7)            -70.3841         estimate D2E/DX2                !
 ! D6    D(3,1,5,23)            49.6826         estimate D2E/DX2                !
 ! D7    D(4,1,5,6)             48.4008         estimate D2E/DX2                !
 ! D8    D(4,1,5,7)            168.4445         estimate D2E/DX2                !
 ! D9    D(4,1,5,23)           -71.4888         estimate D2E/DX2                !
 ! D10   D(1,5,7,8)             61.464          estimate D2E/DX2                !
 ! D11   D(1,5,7,9)            -64.9725         estimate D2E/DX2                !
 ! D12   D(1,5,7,10)          -179.8948         estimate D2E/DX2                !
 ! D13   D(6,5,7,8)           -178.4707         estimate D2E/DX2                !
 ! D14   D(6,5,7,9)             55.0929         estimate D2E/DX2                !
 ! D15   D(6,5,7,10)           -59.8294         estimate D2E/DX2                !
 ! D16   D(23,5,7,8)           -58.6214         estimate D2E/DX2                !
 ! D17   D(23,5,7,9)           174.9421         estimate D2E/DX2                !
 ! D18   D(23,5,7,10)           60.0198         estimate D2E/DX2                !
 ! D19   D(5,7,10,11)           56.0602         estimate D2E/DX2                !
 ! D20   D(5,7,10,12)          -60.3389         estimate D2E/DX2                !
 ! D21   D(5,7,10,13)          179.5866         estimate D2E/DX2                !
 ! D22   D(8,7,10,11)          174.0215         estimate D2E/DX2                !
 ! D23   D(8,7,10,12)           57.6224         estimate D2E/DX2                !
 ! D24   D(8,7,10,13)          -62.452          estimate D2E/DX2                !
 ! D25   D(9,7,10,11)          -64.0131         estimate D2E/DX2                !
 ! D26   D(9,7,10,12)          179.5878         estimate D2E/DX2                !
 ! D27   D(9,7,10,13)           59.5133         estimate D2E/DX2                !
 ! D28   D(7,10,13,14)         -89.8618         estimate D2E/DX2                !
 ! D29   D(7,10,13,21)          69.4469         estimate D2E/DX2                !
 ! D30   D(11,10,13,14)         32.3314         estimate D2E/DX2                !
 ! D31   D(11,10,13,21)       -168.3599         estimate D2E/DX2                !
 ! D32   D(12,10,13,14)        145.6373         estimate D2E/DX2                !
 ! D33   D(12,10,13,21)        -55.054          estimate D2E/DX2                !
 ! D34   D(10,13,14,15)        167.8409         estimate D2E/DX2                !
 ! D35   D(21,13,14,15)          8.7472         estimate D2E/DX2                !
 ! D36   D(10,13,21,19)       -161.5885         estimate D2E/DX2                !
 ! D37   D(10,13,21,22)         20.043          estimate D2E/DX2                !
 ! D38   D(14,13,21,19)         -3.4791         estimate D2E/DX2                !
 ! D39   D(14,13,21,22)        178.1525         estimate D2E/DX2                !
 ! D40   D(13,14,15,16)        179.3252         estimate D2E/DX2                !
 ! D41   D(13,14,15,17)         -7.9499         estimate D2E/DX2                !
 ! D42   D(14,15,17,18)       -175.5934         estimate D2E/DX2                !
 ! D43   D(14,15,17,19)          2.2175         estimate D2E/DX2                !
 ! D44   D(16,15,17,18)         -2.4717         estimate D2E/DX2                !
 ! D45   D(16,15,17,19)        175.3392         estimate D2E/DX2                !
 ! D46   D(15,17,19,20)       -176.6334         estimate D2E/DX2                !
 ! D47   D(15,17,19,21)          2.9934         estimate D2E/DX2                !
 ! D48   D(18,17,19,20)          1.3473         estimate D2E/DX2                !
 ! D49   D(18,17,19,21)       -179.0259         estimate D2E/DX2                !
 ! D50   D(17,19,21,13)         -2.3163         estimate D2E/DX2                !
 ! D51   D(17,19,21,22)        175.9148         estimate D2E/DX2                !
 ! D52   D(20,19,21,13)        177.2938         estimate D2E/DX2                !
 ! D53   D(20,19,21,22)         -4.4751         estimate D2E/DX2                !
 --------------------------------------------------------------------------------
 Trust Radius=3.00D-01 FncErr=1.00D-07 GrdErr=1.00D-06 EigMax=2.50D+02 EigMin=1.00D-04
 Number of steps in this run=    126 maximum allowed number of steps=    138.
 GradGradGradGradGradGradGradGradGradGradGradGradGradGradGradGradGradGrad

 Leave Link  103 at Sun Jul 18 13:37:05 2021, MaxMem=   104857600 cpu:               0.1 elap:               0.0
 (Enter /prod/apps/gaussian/g16b1/l202.exe)
                          Input orientation:                          
 ---------------------------------------------------------------------
 Center     Atomic      Atomic             Coordinates (Angstroms)
 Number     Number       Type             X           Y           Z
 ---------------------------------------------------------------------
      1          6           0        1.490000    3.012000    1.305000
      2          1           0        0.439000    3.174000    1.558000
      3          1           0        1.697000    3.425000    0.314000
      4          1           0        2.095000    3.575000    2.021000
      5          7           0        1.714000    1.578000    1.309000
      6          1           0        1.688000    1.240000    2.250000
      7          6           0        0.676000    0.914000    0.527000
      8          1           0        0.727000    1.267000   -0.506000
      9          1           0       -0.320000    1.019000    0.964000
     10          6           0        0.963000   -0.475000    0.582000
     11          1           0        1.014000   -0.794000    1.625000
     12          1           0        1.937000   -0.745000    0.169000
     13          6           0       -0.075000   -1.271000   -0.201000
     14          7           0       -1.167000   -1.677000    0.518000
     15          6           0       -2.247000   -2.167000   -0.131000
     16          1           0       -3.141000   -2.516000    0.381000
     17          6           0       -2.284000   -2.092000   -1.485000
     18          1           0       -3.144000   -2.399000   -2.075000
     19          6           0       -1.237000   -1.574000   -2.213000
     20          1           0       -1.350000   -1.490000   -3.291000
     21          6           0       -0.120000   -1.185000   -1.568000
     22          1           0        0.779000   -0.825000   -2.061000
     23          1           0        2.609000    1.380000    0.909000
 ---------------------------------------------------------------------
                    Distance matrix (angstroms):
                    1          2          3          4          5
     1  C    0.000000
     2  H    1.093094   0.000000
     3  H    1.093389   1.786925   0.000000
     4  H    1.093458   1.765646   1.759191   0.000000
     5  N    1.451395   2.057873   2.098028   2.154092   0.000000
     6  H    2.017972   2.404001   2.919315   2.381242   1.000200
     7  C    2.381068   2.495342   2.718994   3.365489   1.459405
     8  H    2.628101   2.824834   2.504050   3.685650   2.089286
     9  H    2.713748   2.360708   3.206185   3.671867   2.137443
    10  C    3.599948   3.813444   3.977509   4.444620   2.303766
    11  H    3.848975   4.010005   4.470478   4.518134   2.493239
    12  H    3.950361   4.419489   4.179417   4.702900   2.597240
    13  C    4.802223   4.807942   5.045555   5.755858   3.687468
    14  N    5.446626   5.214694   5.854444   6.362638   4.418243
    15  C    6.545938   6.212375   6.857377   7.513630   5.638098
    16  H    7.270400   6.824795   7.661998   8.197901   6.418181
    17  C    6.933830   6.663733   7.037191   7.973868   6.104043
    18  H    7.885257   7.556117   7.941132   8.939408   7.132191
    19  C    6.390951   6.290701   6.323297   7.452596   5.572072
    20  H    7.032554   6.961768   6.814504   8.107996   6.321449
    21  C    5.334889   5.393073   5.300520   6.359618   4.390314
    22  H    5.153450   5.404143   4.954377   6.144476   4.243293
    23  H    2.018019   2.889383   2.316850   2.513715   1.000114
                    6          7          8          9         10
     6  H    0.000000
     7  C    2.024636   0.000000
     8  H    2.918867   1.092840   0.000000
     9  H    2.394724   1.092708   1.821706   0.000000
    10  C    2.499815   1.419407   2.067366   2.006003   0.000000
    11  H    2.232052   2.058425   2.978465   2.345942   1.091884
    12  H    2.886657   2.114371   2.442922   2.972839   1.091854
    13  C    3.926919   2.422439   2.679118   2.580959   1.524516
    14  N    4.433930   3.179624   3.647321   2.860899   2.446589
    15  C    5.723726   4.297610   4.558252   3.881102   3.698017
    16  H    6.396869   5.133781   5.482635   4.560061   4.587908
    17  C    6.389776   4.673947   4.615999   4.419640   4.174948
    18  H    7.436139   5.686719   5.557514   5.375241   5.256318
    19  C    6.032627   4.166211   3.852587   4.202126   3.722879
    20  H    6.883678   4.945808   4.435223   5.045890   4.623886
    21  C    4.870997   3.070577   2.803133   3.362832   2.509878
    22  H    4.865720   3.119691   2.607143   3.709281   2.672416
    23  H    1.632826   2.024739   2.357312   2.951675   2.501454
                   11         12         13         14         15
    11  H    0.000000
    12  H    1.724606   0.000000
    13  C    2.178928   2.112278   0.000000
    14  N    2.600365   3.259638   1.369037   0.000000
    15  C    3.950036   4.429214   2.350596   1.351925   0.000000
    16  H    4.666567   5.382144   3.359926   2.149271   1.087741
    17  C    4.715263   4.729373   2.683725   2.330649   1.356580
    18  H    5.792667   5.795499   3.768690   3.339680   2.153502
    19  C    4.517261   4.054065   2.343117   2.733838   2.388823
    20  H    5.499088   4.830217   3.349879   3.817976   3.353884
    21  C    3.410878   2.728006   1.370442   2.385303   2.748349
    22  H    3.693614   2.514014   2.094715   3.341266   3.831780
    23  H    2.789795   2.348363   3.932398   4.874044   6.102749
                   16         17         18         19         20
    16  H    0.000000
    17  C    2.096707   0.000000
    18  H    2.458787   1.087175   0.000000
    19  C    3.352822   1.376415   2.082383   0.000000
    20  H    4.212356   2.120471   2.350186   1.087156   0.000000
    21  C    3.833615   2.347857   3.297790   1.347232   2.138844
    22  H    4.918256   3.364377   4.227009   2.156006   2.547109
    23  H    6.965637   6.459680   7.502140   5.767557   6.445974
                   21         22         23
    21  C    0.000000
    22  H    1.086669   0.000000
    23  H    4.490233   4.126963   0.000000
 Stoichiometry    C8H13N2(1+)
 Framework group  C1[X(C8H13N2)]
 Deg. of freedom    63
 Full point group                 C1      NOp   1
 Largest Abelian subgroup         C1      NOp   1
 Largest concise Abelian subgroup C1      NOp   1
                         Standard orientation:                         
 ---------------------------------------------------------------------
 Center     Atomic      Atomic             Coordinates (Angstroms)
 Number     Number       Type             X           Y           Z
 ---------------------------------------------------------------------
      1          6           0       -3.829333    0.189945   -0.867555
      2          1           0       -3.448015   -0.336497   -1.746367
      3          1           0       -3.826650    1.267151   -1.054955
      4          1           0       -4.871504   -0.109547   -0.726720
      5          7           0       -2.945944   -0.130244    0.238633
      6          1           0       -3.084321   -1.083029    0.509655
      7          6           0       -1.557231    0.061063   -0.167250
      8          1           0       -1.405422    1.109392   -0.436059
      9          1           0       -1.243764   -0.629710   -0.953749
     10          6           0       -0.762923   -0.272666    0.960764
     11          1           0       -1.001267   -1.287714    1.284927
     12          1           0       -0.957226    0.344427    1.840302
     13          6           0        0.719471   -0.116288    0.641073
     14          7           0        1.331403   -1.232449    0.137105
     15          6           0        2.565789   -1.128046   -0.404276
     16          1           0        3.110434   -1.976905   -0.811683
     17          6           0        3.098097    0.107089   -0.581472
     18          1           0        4.052760    0.279132   -1.072359
     19          6           0        2.436522    1.247200   -0.185264
     20          1           0        2.890951    2.210038   -0.405143
     21          6           0        1.254000    1.131015    0.449698
     22          1           0        0.690806    1.967269    0.855091
     23          1           0       -3.151345    0.468971    1.012572
 ---------------------------------------------------------------------
 Rotational constants (GHZ):           3.5577501           0.6247172           0.5941315
 Leave Link  202 at Sun Jul 18 13:37:05 2021, MaxMem=   104857600 cpu:               0.0 elap:               0.0
 (Enter /prod/apps/gaussian/g16b1/l301.exe)
 Standard basis: 6-31G(d) (6D, 7F)
 Ernie: Thresh=  0.10000D-02 Tol=  0.10000D-05 Strict=F.
 There are   176 symmetry adapted cartesian basis functions of A   symmetry.
 There are   176 symmetry adapted basis functions of A   symmetry.
   176 basis functions,   332 primitive gaussians,   176 cartesian basis functions
    37 alpha electrons       37 beta electrons
       nuclear repulsion energy       518.1227113329 Hartrees.
 IExCor=  402 DFT=T Ex+Corr=B3LYP ExCW=0 ScaHFX=  0.200000
 ScaDFX=  0.800000  0.720000  1.000000  0.810000 ScalE2=  1.000000  1.000000
 IRadAn=      5 IRanWt=     -1 IRanGd=            0 ICorTp=0 IEmpDi=  4
 NAtoms=   23 NActive=   23 NUniq=   23 SFac= 1.00D+00 NAtFMM=   60 NAOKFM=F Big=F
 Integral buffers will be    131072 words long.
 Raffenetti 2 integral format.
 Two-electron integral symmetry is turned on.
 Using the following non-standard input for PCM:
 MSTModel=DFT cav MSTCharged
 --- end of non-standard input.
 MST model for solvation energy: B3LYP parametrization.
 MST cavity parameters:
 ISph   IAn     Re0     Alpha   Atom Type   QCorr
 ------------------------------------------------
   1      6     1.50     1.25      CH3        F
   2      1     1.20     1.25      CH3        F
   3      1     1.20     1.25      CH3        F
   4      1     1.20     1.25      CH3        F
   5      7     1.55     1.15      NH         T
   6      1     0.90     1.15      NH         T
   7      6     1.50     1.25      CH2        F
   8      1     1.20     1.25      CH2        F
   9      1     1.20     1.25      CH2        F
  10      6     1.50     1.25      CH2        F
  11      1     1.20     1.25      CH2        F
  12      1     1.20     1.25      CH2        F
  13      6     1.50     1.25      C          F
  14      7     1.40     1.25      N          F
  15      6     1.50     1.25      CH         F
  16      1     1.20     1.25      CH         F
  17      6     1.50     1.25      CH         F
  18      1     1.20     1.25      CH         F
  19      6     1.50     1.25      CH         F
  20      1     1.20     1.25      CH         F
  21      6     1.50     1.25      CH         F
  22      1     1.20     1.25      CH         F
  23      1     0.90     1.15      NH         T
 ------------------------------------------------------------------------------
 Polarizable Continuum Model (PCM)
 =================================
 Model                : PCM.
 Atomic radii         : MST.
 Polarization charges : Total charges.
 Charge compensation  : None.
 Solution method      : On-the-fly selection.
 Cavity type          : Scaled VdW (van der Waals Surface) (Alpha=1.250).
 Cavity algorithm     : GePol (No added spheres)
                        Default sphere list used, NSphG=   23.
                        Lebedev-Laikov grids with approx.  5.0 points / Ang**2.
                        Smoothing algorithm: York/Karplus (Gamma=1.0000).
                        Polarization charges: spherical gaussians, with
                                              point-specific exponents (IZeta= 3).
                        Self-potential: point-specific (ISelfS= 7).
                        Self-field    : sphere-specific E.n sum rule (ISelfD= 2).
 1st derivatives      : Analytical E(r).r(x)/FMM algorithm (CHGder, D1EAlg=3).
                        Cavity 1st derivative terms included.
 Solvent              : Water, Eps=  78.355300 Eps(inf)=   1.777849
 ------------------------------------------------------------------------------
 GePol: Number of generator spheres                  =      23
 GePol: Total number of spheres                      =      23
 GePol: Number of exposed spheres                    =      23 (100.00%)
 GePol: Number of points                             =    1634
 GePol: Average weight of points                     =       0.13
 GePol: Minimum weight of points                     =   0.15D-10
 GePol: Maximum weight of points                     =    0.22001
 GePol: Number of points with low weight             =      96
 GePol: Fraction of low-weight points (<1% of avg)   =       5.88%
 GePol: Cavity surface area                          =    210.881 Ang**2
 GePol: Cavity volume                                =    186.697 Ang**3
 PCM non-electrostatic energy =         0.0013824715 Hartrees.
 Nuclear repulsion after PCM non-electrostatic terms =      518.1240938044 Hartrees.
 Leave Link  301 at Sun Jul 18 13:37:05 2021, MaxMem=   104857600 cpu:               0.3 elap:               0.1
 (Enter /prod/apps/gaussian/g16b1/l302.exe)
 NPDir=0 NMtPBC=     1 NCelOv=     1 NCel=       1 NClECP=     1 NCelD=      1
         NCelK=      1 NCelE2=     1 NClLst=     1 CellRange=     0.0.
 One-electron integrals computed using PRISM.
 One-electron integral symmetry used in STVInt
 NBasis=   176 RedAO= T EigKep=  7.30D-04  NBF=   176
 NBsUse=   176 1.00D-06 EigRej= -1.00D+00 NBFU=   176
 Precomputing XC quadrature grid using
 IXCGrd= 4 IRadAn=           5 IRanWt=          -1 IRanGd=           0 AccXCQ= 0.00D+00.
 Generated NRdTot=       0 NPtTot=           0 NUsed=           0 NTot=          32
 NSgBfM=   176   176   176   176   176 MxSgAt=    23 MxSgA2=    23.
 Leave Link  302 at Sun Jul 18 13:37:05 2021, MaxMem=   104857600 cpu:               0.9 elap:               0.2
 (Enter /prod/apps/gaussian/g16b1/l303.exe)
 DipDrv:  MaxL=1.
 Leave Link  303 at Sun Jul 18 13:37:06 2021, MaxMem=   104857600 cpu:               0.1 elap:               0.0
 (Enter /prod/apps/gaussian/g16b1/l401.exe)
 ExpMin= 1.61D-01 ExpMax= 4.17D+03 ExpMxC= 6.27D+02 IAcc=3 IRadAn=         5 AccDes= 0.00D+00
 Harris functional with IExCor=  402 and IRadAn=       5 diagonalized for initial guess.
 HarFok:  IExCor=  402 AccDes= 0.00D+00 IRadAn=         5 IDoV= 1 UseB2=F ITyADJ=14
 ICtDFT=  3500011 ScaDFX=  1.000000  1.000000  1.000000  1.000000
 FoFCou: FMM=F IPFlag=           0 FMFlag=      100000 FMFlg1=           0
         NFxFlg=           0 DoJE=T BraDBF=F KetDBF=T FulRan=T
         wScrn=  0.000000 ICntrl=       500 IOpCl=  0 I1Cent=   200000004 NGrid=           0
         NMat0=    1 NMatS0=      1 NMatT0=    0 NMatD0=    1 NMtDS0=    0 NMtDT0=    0
 Petite list used in FoFCou.
 Harris En= -421.951408070984    
 JPrj=0 DoOrth=F DoCkMO=F.
 Leave Link  401 at Sun Jul 18 13:37:07 2021, MaxMem=   104857600 cpu:               4.5 elap:               1.2
 (Enter /prod/apps/gaussian/g16b1/l502.exe)
 Integral symmetry usage will be decided dynamically.
 Closed shell SCF:
 Using DIIS extrapolation, IDIIS=  1040.
 NGot=   104857600 LenX=   104792415 LenY=   104760998
 Requested convergence on RMS density matrix=1.00D-08 within 128 cycles.
 Requested convergence on MAX density matrix=1.00D-06.
 Requested convergence on             energy=1.00D-06.
 No special actions if energy rises.
 Fock matrices will be formed incrementally for  20 cycles.

 Cycle   1  Pass 1  IDiag  1:
 FoFJK:  IHMeth= 1 ICntrl=       0 DoSepK=F KAlg= 0 I1Cent=           0 FoldK=F
 IRaf= 900000000 NMat=       1 IRICut=       1 DoRegI=T DoRafI=F ISym2E= 0 IDoP0=0 IntGTp=1.
 FoFCou: FMM=F IPFlag=           0 FMFlag=      100000 FMFlg1=           0
         NFxFlg=           0 DoJE=F BraDBF=F KetDBF=F FulRan=T
         wScrn=  0.000000 ICntrl=         0 IOpCl=  0 I1Cent=           0 NGrid=           0
         NMat0=    1 NMatS0=      1 NMatT0=    0 NMatD0=    1 NMtDS0=    0 NMtDT0=    0
 Symmetry not used in FoFCou.
 Inv3:  Mode=1 IEnd=     8009868.
 Iteration    1 A*A^-1 deviation from unit magnitude is 3.11D-15 for    736.
 Iteration    1 A*A^-1 deviation from orthogonality  is 2.66D-15 for   1558    210.
 Iteration    1 A^-1*A deviation from unit magnitude is 3.11D-15 for    383.
 Iteration    1 A^-1*A deviation from orthogonality  is 2.09D-15 for    923    576.
 E= -421.813058621840    
 DIIS: error= 2.72D-02 at cycle   1 NSaved=   1.
 NSaved= 1 IEnMin= 1 EnMin= -421.813058621840     IErMin= 1 ErrMin= 2.72D-02
 ErrMax= 2.72D-02  0.00D+00 EMaxC= 1.00D-01 BMatC= 1.99D-01 BMatP= 1.99D-01
 IDIUse=3 WtCom= 7.28D-01 WtEn= 2.72D-01
 Coeff-Com:  0.100D+01
 Coeff-En:   0.100D+01
 Coeff:      0.100D+01
 Gap=     0.247 Goal=   None    Shift=    0.000
 GapD=    0.247 DampG=1.000 DampE=0.500 DampFc=0.5000 IDamp=-1.
 Damping current iteration by 5.00D-01
 RMSDP=5.30D-03 MaxDP=1.16D-01              OVMax= 1.46D-01

 Cycle   2  Pass 1  IDiag  1:
 RMSU=  2.57D-03    CP:  9.74D-01
 E= -421.915004351342     Delta-E=       -0.101945729502 Rises=F Damp=T
 DIIS: error= 5.46D-03 at cycle   2 NSaved=   2.
 NSaved= 2 IEnMin= 2 EnMin= -421.915004351342     IErMin= 2 ErrMin= 5.46D-03
 ErrMax= 5.46D-03  0.00D+00 EMaxC= 1.00D-01 BMatC= 1.12D-02 BMatP= 1.99D-01
 IDIUse=3 WtCom= 9.45D-01 WtEn= 5.46D-02
 Coeff-Com: -0.224D-01 0.102D+01
 Coeff-En:   0.000D+00 0.100D+01
 Coeff:     -0.212D-01 0.102D+01
 Gap=     0.231 Goal=   None    Shift=    0.000
 RMSDP=1.20D-03 MaxDP=2.56D-02 DE=-1.02D-01 OVMax= 1.15D-01

 Cycle   3  Pass 1  IDiag  1:
 RMSU=  1.18D-03    CP:  9.68D-01  1.06D+00
 E= -422.016919498515     Delta-E=       -0.101915147173 Rises=F Damp=F
 DIIS: error= 3.21D-03 at cycle   3 NSaved=   3.
 NSaved= 3 IEnMin= 3 EnMin= -422.016919498515     IErMin= 3 ErrMin= 3.21D-03
 ErrMax= 3.21D-03  0.00D+00 EMaxC= 1.00D-01 BMatC= 3.84D-03 BMatP= 1.12D-02
 IDIUse=3 WtCom= 9.68D-01 WtEn= 3.21D-02
 Coeff-Com: -0.486D-01 0.359D+00 0.690D+00
 Coeff-En:   0.000D+00 0.000D+00 0.100D+01
 Coeff:     -0.471D-01 0.347D+00 0.700D+00
 Gap=     0.235 Goal=   None    Shift=    0.000
 RMSDP=5.67D-04 MaxDP=1.51D-02 DE=-1.02D-01 OVMax= 3.28D-02

 Cycle   4  Pass 1  IDiag  1:
 RMSU=  4.63D-04    CP:  9.69D-01  1.06D+00  7.24D-01
 E= -422.019122532711     Delta-E=       -0.002203034196 Rises=F Damp=F
 DIIS: error= 1.99D-03 at cycle   4 NSaved=   4.
 NSaved= 4 IEnMin= 4 EnMin= -422.019122532711     IErMin= 4 ErrMin= 1.99D-03
 ErrMax= 1.99D-03  0.00D+00 EMaxC= 1.00D-01 BMatC= 1.62D-03 BMatP= 3.84D-03
 IDIUse=3 WtCom= 9.80D-01 WtEn= 1.99D-02
 Coeff-Com: -0.235D-01 0.936D-01 0.419D+00 0.511D+00
 Coeff-En:   0.000D+00 0.000D+00 0.318D+00 0.682D+00
 Coeff:     -0.230D-01 0.917D-01 0.417D+00 0.514D+00
 Gap=     0.231 Goal=   None    Shift=    0.000
 RMSDP=2.79D-04 MaxDP=7.71D-03 DE=-2.20D-03 OVMax= 1.81D-02

 Cycle   5  Pass 1  IDiag  1:
 RMSU=  1.08D-04    CP:  9.68D-01  1.07D+00  8.24D-01  5.14D-01
 E= -422.020767017640     Delta-E=       -0.001644484929 Rises=F Damp=F
 DIIS: error= 4.56D-04 at cycle   5 NSaved=   5.
 NSaved= 5 IEnMin= 5 EnMin= -422.020767017640     IErMin= 5 ErrMin= 4.56D-04
 ErrMax= 4.56D-04  0.00D+00 EMaxC= 1.00D-01 BMatC= 7.61D-05 BMatP= 1.62D-03
 IDIUse=3 WtCom= 9.95D-01 WtEn= 4.56D-03
 Coeff-Com: -0.819D-02 0.226D-01 0.167D+00 0.264D+00 0.555D+00
 Coeff-En:   0.000D+00 0.000D+00 0.000D+00 0.000D+00 0.100D+01
 Coeff:     -0.815D-02 0.225D-01 0.166D+00 0.263D+00 0.557D+00
 Gap=     0.230 Goal=   None    Shift=    0.000
 RMSDP=5.27D-05 MaxDP=2.23D-03 DE=-1.64D-03 OVMax= 4.27D-03

 Cycle   6  Pass 1  IDiag  1:
 RMSU=  3.15D-05    CP:  9.68D-01  1.07D+00  8.20D-01  5.61D-01  6.65D-01
 E= -422.020829622336     Delta-E=       -0.000062604696 Rises=F Damp=F
 DIIS: error= 1.63D-04 at cycle   6 NSaved=   6.
 NSaved= 6 IEnMin= 6 EnMin= -422.020829622336     IErMin= 6 ErrMin= 1.63D-04
 ErrMax= 1.63D-04  0.00D+00 EMaxC= 1.00D-01 BMatC= 9.09D-06 BMatP= 7.61D-05
 IDIUse=3 WtCom= 9.98D-01 WtEn= 1.63D-03
 Coeff-Com: -0.245D-02 0.398D-02 0.537D-01 0.995D-01 0.312D+00 0.533D+00
 Coeff-En:   0.000D+00 0.000D+00 0.000D+00 0.000D+00 0.359D-01 0.964D+00
 Coeff:     -0.245D-02 0.398D-02 0.536D-01 0.994D-01 0.312D+00 0.534D+00
 Gap=     0.230 Goal=   None    Shift=    0.000
 RMSDP=1.52D-05 MaxDP=6.54D-04 DE=-6.26D-05 OVMax= 8.76D-04

 Cycle   7  Pass 1  IDiag  1:
 RMSU=  6.81D-06    CP:  9.68D-01  1.07D+00  8.24D-01  5.62D-01  7.05D-01
                    CP:  6.10D-01
 E= -422.020837188022     Delta-E=       -0.000007565686 Rises=F Damp=F
 DIIS: error= 2.48D-05 at cycle   7 NSaved=   7.
 NSaved= 7 IEnMin= 7 EnMin= -422.020837188022     IErMin= 7 ErrMin= 2.48D-05
 ErrMax= 2.48D-05  0.00D+00 EMaxC= 1.00D-01 BMatC= 2.76D-07 BMatP= 9.09D-06
 IDIUse=1 WtCom= 1.00D+00 WtEn= 0.00D+00
 Coeff-Com: -0.849D-03 0.105D-02 0.195D-01 0.372D-01 0.126D+00 0.257D+00
 Coeff-Com:  0.560D+00
 Coeff:     -0.849D-03 0.105D-02 0.195D-01 0.372D-01 0.126D+00 0.257D+00
 Coeff:      0.560D+00
 Gap=     0.230 Goal=   None    Shift=    0.000
 RMSDP=3.62D-06 MaxDP=9.29D-05 DE=-7.57D-06 OVMax= 1.67D-04

 Cycle   8  Pass 1  IDiag  1:
 RMSU=  2.42D-06    CP:  9.68D-01  1.07D+00  8.24D-01  5.63D-01  7.07D-01
                    CP:  6.30D-01  6.37D-01
 E= -422.020837421920     Delta-E=       -0.000000233898 Rises=F Damp=F
 DIIS: error= 7.82D-06 at cycle   8 NSaved=   8.
 NSaved= 8 IEnMin= 8 EnMin= -422.020837421920     IErMin= 8 ErrMin= 7.82D-06
 ErrMax= 7.82D-06  0.00D+00 EMaxC= 1.00D-01 BMatC= 2.63D-08 BMatP= 2.76D-07
 IDIUse=1 WtCom= 1.00D+00 WtEn= 0.00D+00
 Coeff-Com: -0.443D-04-0.125D-03 0.158D-02 0.327D-02 0.145D-01 0.490D-01
 Coeff-Com:  0.263D+00 0.669D+00
 Coeff:     -0.443D-04-0.125D-03 0.158D-02 0.327D-02 0.145D-01 0.490D-01
 Coeff:      0.263D+00 0.669D+00
 Gap=     0.230 Goal=   None    Shift=    0.000
 RMSDP=1.08D-06 MaxDP=2.60D-05 DE=-2.34D-07 OVMax= 6.63D-05

 Cycle   9  Pass 1  IDiag  1:
 RMSU=  6.53D-07    CP:  9.68D-01  1.07D+00  8.24D-01  5.63D-01  7.08D-01
                    CP:  6.33D-01  7.08D-01  7.22D-01
 E= -422.020837444943     Delta-E=       -0.000000023023 Rises=F Damp=F
 DIIS: error= 2.70D-06 at cycle   9 NSaved=   9.
 NSaved= 9 IEnMin= 9 EnMin= -422.020837444943     IErMin= 9 ErrMin= 2.70D-06
 ErrMax= 2.70D-06  0.00D+00 EMaxC= 1.00D-01 BMatC= 2.66D-09 BMatP= 2.63D-08
 IDIUse=1 WtCom= 1.00D+00 WtEn= 0.00D+00
 Coeff-Com:  0.236D-04-0.129D-03-0.185D-03-0.302D-03 0.708D-03 0.130D-01
 Coeff-Com:  0.106D+00 0.349D+00 0.532D+00
 Coeff:      0.236D-04-0.129D-03-0.185D-03-0.302D-03 0.708D-03 0.130D-01
 Coeff:      0.106D+00 0.349D+00 0.532D+00
 Gap=     0.230 Goal=   None    Shift=    0.000
 RMSDP=3.55D-07 MaxDP=9.41D-06 DE=-2.30D-08 OVMax= 2.39D-05

 Cycle  10  Pass 1  IDiag  1:
 RMSU=  2.19D-07    CP:  9.68D-01  1.07D+00  8.24D-01  5.63D-01  7.09D-01
                    CP:  6.35D-01  7.13D-01  7.66D-01  6.33D-01
 E= -422.020837447504     Delta-E=       -0.000000002561 Rises=F Damp=F
 DIIS: error= 8.74D-07 at cycle  10 NSaved=  10.
 NSaved=10 IEnMin=10 EnMin= -422.020837447504     IErMin=10 ErrMin= 8.74D-07
 ErrMax= 8.74D-07  0.00D+00 EMaxC= 1.00D-01 BMatC= 2.39D-10 BMatP= 2.66D-09
 IDIUse=1 WtCom= 1.00D+00 WtEn= 0.00D+00
 Coeff-Com:  0.189D-04-0.423D-04-0.327D-03-0.694D-03-0.203D-02-0.565D-03
 Coeff-Com:  0.119D-01 0.709D-01 0.256D+00 0.664D+00
 Coeff:      0.189D-04-0.423D-04-0.327D-03-0.694D-03-0.203D-02-0.565D-03
 Coeff:      0.119D-01 0.709D-01 0.256D+00 0.664D+00
 Gap=     0.230 Goal=   None    Shift=    0.000
 RMSDP=9.76D-08 MaxDP=2.78D-06 DE=-2.56D-09 OVMax= 6.70D-06

 Cycle  11  Pass 1  IDiag  1:
 RMSU=  4.55D-08    CP:  9.68D-01  1.07D+00  8.24D-01  5.63D-01  7.09D-01
                    CP:  6.36D-01  7.14D-01  7.70D-01  7.20D-01  7.42D-01
 E= -422.020837447740     Delta-E=       -0.000000000236 Rises=F Damp=F
 DIIS: error= 2.14D-07 at cycle  11 NSaved=  11.
 NSaved=11 IEnMin=11 EnMin= -422.020837447740     IErMin=11 ErrMin= 2.14D-07
 ErrMax= 2.14D-07  0.00D+00 EMaxC= 1.00D-01 BMatC= 1.49D-11 BMatP= 2.39D-10
 IDIUse=1 WtCom= 1.00D+00 WtEn= 0.00D+00
 Coeff-Com:  0.827D-05-0.147D-04-0.148D-03-0.327D-03-0.104D-02-0.728D-03
 Coeff-Com:  0.534D-03 0.187D-01 0.979D-01 0.316D+00 0.569D+00
 Coeff:      0.827D-05-0.147D-04-0.148D-03-0.327D-03-0.104D-02-0.728D-03
 Coeff:      0.534D-03 0.187D-01 0.979D-01 0.316D+00 0.569D+00
 Gap=     0.230 Goal=   None    Shift=    0.000
 RMSDP=2.23D-08 MaxDP=6.68D-07 DE=-2.36D-10 OVMax= 1.09D-06

 Cycle  12  Pass 1  IDiag  1:
 RMSU=  1.58D-08    CP:  9.68D-01  1.07D+00  8.24D-01  5.63D-01  7.09D-01
                    CP:  6.36D-01  7.14D-01  7.73D-01  7.21D-01  7.77D-01
                    CP:  7.42D-01
 E= -422.020837447753     Delta-E=       -0.000000000013 Rises=F Damp=F
 DIIS: error= 5.04D-08 at cycle  12 NSaved=  12.
 NSaved=12 IEnMin=12 EnMin= -422.020837447753     IErMin=12 ErrMin= 5.04D-08
 ErrMax= 5.04D-08  0.00D+00 EMaxC= 1.00D-01 BMatC= 1.09D-12 BMatP= 1.49D-11
 IDIUse=1 WtCom= 1.00D+00 WtEn= 0.00D+00
 Coeff-Com:  0.412D-06 0.445D-06-0.456D-05-0.189D-04-0.888D-04-0.521D-04
 Coeff-Com: -0.157D-02-0.260D-02-0.167D-02 0.171D-01 0.196D+00 0.793D+00
 Coeff:      0.412D-06 0.445D-06-0.456D-05-0.189D-04-0.888D-04-0.521D-04
 Coeff:     -0.157D-02-0.260D-02-0.167D-02 0.171D-01 0.196D+00 0.793D+00
 Gap=     0.230 Goal=   None    Shift=    0.000
 RMSDP=6.54D-09 MaxDP=1.78D-07 DE=-1.32D-11 OVMax= 3.28D-07

 Error on total polarization charges =  0.01639
 SCF Done:  E(RB3LYP) =  -422.020837448     A.U. after   12 cycles
            NFock= 12  Conv=0.65D-08     -V/T= 2.0084
 KE= 4.185180785350D+02 PE=-2.001809259233D+03 EE= 6.431462494461D+02
 Leave Link  502 at Sun Jul 18 13:37:31 2021, MaxMem=   104857600 cpu:              98.2 elap:              24.6
 (Enter /prod/apps/gaussian/g16b1/l601.exe)
 Copying SCF densities to generalized density rwf, IOpCl= 0 IROHF=0.

 **********************************************************************

            Population analysis using the SCF Density.

 **********************************************************************

 Orbital symmetries:
       Occupied  (A) (A) (A) (A) (A) (A) (A) (A) (A) (A) (A) (A)
                 (A) (A) (A) (A) (A) (A) (A) (A) (A) (A) (A) (A)
                 (A) (A) (A) (A) (A) (A) (A) (A) (A) (A) (A) (A)
                 (A)
       Virtual   (A) (A) (A) (A) (A) (A) (A) (A) (A) (A) (A) (A)
                 (A) (A) (A) (A) (A) (A) (A) (A) (A) (A) (A) (A)
                 (A) (A) (A) (A) (A) (A) (A) (A) (A) (A) (A) (A)
                 (A) (A) (A) (A) (A) (A) (A) (A) (A) (A) (A) (A)
                 (A) (A) (A) (A) (A) (A) (A) (A) (A) (A) (A) (A)
                 (A) (A) (A) (A) (A) (A) (A) (A) (A) (A) (A) (A)
                 (A) (A) (A) (A) (A) (A) (A) (A) (A) (A) (A) (A)
                 (A) (A) (A) (A) (A) (A) (A) (A) (A) (A) (A) (A)
                 (A) (A) (A) (A) (A) (A) (A) (A) (A) (A) (A) (A)
                 (A) (A) (A) (A) (A) (A) (A) (A) (A) (A) (A) (A)
                 (A) (A) (A) (A) (A) (A) (A) (A) (A) (A) (A) (A)
                 (A) (A) (A) (A) (A) (A) (A)
 The electronic state is 1-A.
 Alpha  occ. eigenvalues --  -14.45006 -14.33811 -10.24285 -10.23670 -10.23529
 Alpha  occ. eigenvalues --  -10.22536 -10.20226 -10.19572 -10.19520 -10.19146
 Alpha  occ. eigenvalues --   -1.03045  -0.94510  -0.83008  -0.81072  -0.76473
 Alpha  occ. eigenvalues --   -0.71590  -0.66885  -0.63914  -0.61102  -0.60622
 Alpha  occ. eigenvalues --   -0.53373  -0.53181  -0.50415  -0.50281  -0.46136
 Alpha  occ. eigenvalues --   -0.45959  -0.42563  -0.41908  -0.41474  -0.40969
 Alpha  occ. eigenvalues --   -0.39423  -0.38748  -0.36622  -0.35485  -0.29155
 Alpha  occ. eigenvalues --   -0.26746  -0.26046
 Alpha virt. eigenvalues --   -0.03067  -0.01225   0.06067   0.09052   0.10112
 Alpha virt. eigenvalues --    0.11029   0.11483   0.12961   0.14352   0.14749
 Alpha virt. eigenvalues --    0.15740   0.15942   0.16950   0.18379   0.18711
 Alpha virt. eigenvalues --    0.19334   0.20151   0.21184   0.23420   0.26239
 Alpha virt. eigenvalues --    0.29675   0.32374   0.32992   0.33910   0.44985
 Alpha virt. eigenvalues --    0.47200   0.48260   0.49836   0.49989   0.51261
 Alpha virt. eigenvalues --    0.53581   0.54040   0.57415   0.58403   0.59472
 Alpha virt. eigenvalues --    0.59594   0.60052   0.61353   0.63373   0.64142
 Alpha virt. eigenvalues --    0.65954   0.66868   0.69208   0.71060   0.72106
 Alpha virt. eigenvalues --    0.74955   0.76909   0.79820   0.81704   0.82891
 Alpha virt. eigenvalues --    0.84130   0.84635   0.85039   0.85365   0.87167
 Alpha virt. eigenvalues --    0.88498   0.89016   0.89870   0.90702   0.91488
 Alpha virt. eigenvalues --    0.92399   0.95074   0.96743   0.96898   0.98388
 Alpha virt. eigenvalues --    1.01693   1.07193   1.09891   1.10257   1.15720
 Alpha virt. eigenvalues --    1.18610   1.22272   1.23748   1.29064   1.32402
 Alpha virt. eigenvalues --    1.36250   1.39721   1.41648   1.44086   1.47674
 Alpha virt. eigenvalues --    1.49647   1.51193   1.52954   1.58108   1.61575
 Alpha virt. eigenvalues --    1.70674   1.74420   1.76808   1.81456   1.82817
 Alpha virt. eigenvalues --    1.86313   1.89414   1.92253   1.93781   1.95249
 Alpha virt. eigenvalues --    1.97050   1.98042   2.00932   2.03120   2.06627
 Alpha virt. eigenvalues --    2.09631   2.12418   2.15590   2.17583   2.18824
 Alpha virt. eigenvalues --    2.19955   2.24183   2.26904   2.27399   2.30146
 Alpha virt. eigenvalues --    2.36243   2.37278   2.38194   2.40988   2.48447
 Alpha virt. eigenvalues --    2.52233   2.54822   2.57054   2.57903   2.64805
 Alpha virt. eigenvalues --    2.69967   2.73869   2.75214   2.79381   2.80658
 Alpha virt. eigenvalues --    2.85422   2.89920   3.07926   3.44030   3.91834
 Alpha virt. eigenvalues --    4.03622   4.13400   4.15114   4.21173   4.24233
 Alpha virt. eigenvalues --    4.27623   4.37034   4.49224   4.63085
          Condensed to atoms (all electrons):
               1          2          3          4          5          6
     1  C    5.016419   0.387126   0.386235   0.377787   0.256557  -0.020337
     2  H    0.387126   0.489954  -0.024211  -0.025452  -0.038386  -0.002163
     3  H    0.386235  -0.024211   0.481009  -0.025342  -0.031817   0.003240
     4  H    0.377787  -0.025452  -0.025342   0.482468  -0.023278  -0.002512
     5  N    0.256557  -0.038386  -0.031817  -0.023278   6.680246   0.303275
     6  H   -0.020337  -0.002163   0.003240  -0.002512   0.303275   0.277706
     7  C   -0.049130  -0.002921  -0.002912   0.003823   0.240404  -0.021733
     8  H    0.000231  -0.000744   0.002913   0.000054  -0.036102   0.003730
     9  H   -0.003443   0.003578  -0.000169   0.000050  -0.030032  -0.002909
    10  C    0.006768   0.000343  -0.000019  -0.000290  -0.060814  -0.001029
    11  H    0.000239   0.000008  -0.000010   0.000006  -0.005412   0.005751
    12  H    0.000025  -0.000002   0.000020   0.000001  -0.004109  -0.000666
    13  C   -0.000124  -0.000003   0.000007   0.000003   0.004874  -0.000011
    14  N    0.000001  -0.000005   0.000000   0.000000   0.000037  -0.000008
    15  C    0.000000  -0.000000   0.000000   0.000000  -0.000002   0.000000
    16  H    0.000000   0.000000   0.000000  -0.000000  -0.000000   0.000000
    17  C    0.000000   0.000000  -0.000000  -0.000000  -0.000000  -0.000000
    18  H   -0.000000   0.000000   0.000000   0.000000   0.000000   0.000000
    19  C   -0.000000  -0.000000  -0.000000   0.000000  -0.000001  -0.000000
    20  H    0.000000  -0.000000  -0.000000  -0.000000  -0.000000   0.000000
    21  C    0.000000   0.000002  -0.000006   0.000000   0.000131  -0.000005
    22  H    0.000000   0.000000  -0.000000  -0.000000  -0.000027  -0.000000
    23  H   -0.020627   0.003628  -0.003918  -0.000957   0.304151  -0.012258
               7          8          9         10         11         12
     1  C   -0.049130   0.000231  -0.003443   0.006768   0.000239   0.000025
     2  H   -0.002921  -0.000744   0.003578   0.000343   0.000008  -0.000002
     3  H   -0.002912   0.002913  -0.000169  -0.000019  -0.000010   0.000020
     4  H    0.003823   0.000054   0.000050  -0.000290   0.000006   0.000001
     5  N    0.240404  -0.036102  -0.030032  -0.060814  -0.005412  -0.004109
     6  H   -0.021733   0.003730  -0.002909  -0.001029   0.005751  -0.000666
     7  C    5.008934   0.386979   0.383293   0.370640  -0.042652  -0.040240
     8  H    0.386979   0.492675  -0.023474  -0.043641   0.006083  -0.006014
     9  H    0.383293  -0.023474   0.496155  -0.053590  -0.005523   0.006651
    10  C    0.370640  -0.043641  -0.053590   5.193144   0.361234   0.364038
    11  H   -0.042652   0.006083  -0.005523   0.361234   0.543841  -0.032200
    12  H   -0.040240  -0.006014   0.006651   0.364038  -0.032200   0.546999
    13  C   -0.043212  -0.002732  -0.001956   0.367954  -0.021824  -0.027985
    14  N   -0.007649  -0.000046   0.008315  -0.074681   0.005405   0.003449
    15  C    0.000072  -0.000003  -0.000061   0.004837   0.000315  -0.000176
    16  H    0.000004   0.000000  -0.000003  -0.000183  -0.000018   0.000002
    17  C   -0.000036  -0.000009  -0.000048   0.000843  -0.000007   0.000006
    18  H    0.000001  -0.000000  -0.000003   0.000009  -0.000001  -0.000000
    19  C    0.000296  -0.000194   0.000063   0.004681  -0.000090   0.000134
    20  H   -0.000003   0.000013   0.000003  -0.000190   0.000003  -0.000000
    21  C   -0.007562   0.006417   0.000714  -0.069788   0.004797  -0.000205
    22  H   -0.001129   0.001286  -0.000025  -0.004528  -0.000086   0.002682
    23  H   -0.022314  -0.002996   0.003284  -0.000351  -0.000625   0.004790
              13         14         15         16         17         18
     1  C   -0.000124   0.000001   0.000000   0.000000   0.000000  -0.000000
     2  H   -0.000003  -0.000005  -0.000000   0.000000   0.000000   0.000000
     3  H    0.000007   0.000000   0.000000   0.000000  -0.000000   0.000000
     4  H    0.000003   0.000000   0.000000  -0.000000  -0.000000   0.000000
     5  N    0.004874   0.000037  -0.000002  -0.000000  -0.000000   0.000000
     6  H   -0.000011  -0.000008   0.000000   0.000000  -0.000000   0.000000
     7  C   -0.043212  -0.007649   0.000072   0.000004  -0.000036   0.000001
     8  H   -0.002732  -0.000046  -0.000003   0.000000  -0.000009  -0.000000
     9  H   -0.001956   0.008315  -0.000061  -0.000003  -0.000048  -0.000003
    10  C    0.367954  -0.074681   0.004837  -0.000183   0.000843   0.000009
    11  H   -0.021824   0.005405   0.000315  -0.000018  -0.000007  -0.000001
    12  H   -0.027985   0.003449  -0.000176   0.000002   0.000006  -0.000000
    13  C    4.671632   0.433555  -0.062681   0.003201  -0.035458   0.000423
    14  N    0.433555   6.888540   0.427693  -0.044483  -0.026139   0.005833
    15  C   -0.062681   0.427693   4.781064   0.376057   0.532352  -0.039300
    16  H    0.003201  -0.044483   0.376057   0.550662  -0.056246  -0.002602
    17  C   -0.035458  -0.026139   0.532352  -0.056246   4.906387   0.354604
    18  H    0.000423   0.005833  -0.039300  -0.002602   0.354604   0.573203
    19  C   -0.029265  -0.061118  -0.031436   0.003727   0.546112  -0.045891
    20  H    0.004658  -0.000162   0.005976  -0.000192  -0.043981  -0.008122
    21  C    0.513290  -0.036391  -0.040287   0.000638  -0.031384   0.007215
    22  H   -0.046359   0.006012   0.000008   0.000027   0.006203  -0.000132
    23  H   -0.000046  -0.000000  -0.000000   0.000000  -0.000000  -0.000000
              19         20         21         22         23
     1  C   -0.000000   0.000000   0.000000   0.000000  -0.020627
     2  H   -0.000000  -0.000000   0.000002   0.000000   0.003628
     3  H   -0.000000  -0.000000  -0.000006  -0.000000  -0.003918
     4  H    0.000000  -0.000000   0.000000  -0.000000  -0.000957
     5  N   -0.000001  -0.000000   0.000131  -0.000027   0.304151
     6  H   -0.000000   0.000000  -0.000005  -0.000000  -0.012258
     7  C    0.000296  -0.000003  -0.007562  -0.001129  -0.022314
     8  H   -0.000194   0.000013   0.006417   0.001286  -0.002996
     9  H    0.000063   0.000003   0.000714  -0.000025   0.003284
    10  C    0.004681  -0.000190  -0.069788  -0.004528  -0.000351
    11  H   -0.000090   0.000003   0.004797  -0.000086  -0.000625
    12  H    0.000134  -0.000000  -0.000205   0.002682   0.004790
    13  C   -0.029265   0.004658   0.513290  -0.046359  -0.000046
    14  N   -0.061118  -0.000162  -0.036391   0.006012  -0.000000
    15  C   -0.031436   0.005976  -0.040287   0.000008  -0.000000
    16  H    0.003727  -0.000192   0.000638   0.000027   0.000000
    17  C    0.546112  -0.043981  -0.031384   0.006203  -0.000000
    18  H   -0.045891  -0.008122   0.007215  -0.000132  -0.000000
    19  C    4.837261   0.367948   0.545832  -0.043262   0.000000
    20  H    0.367948   0.555178  -0.044628  -0.005648   0.000000
    21  C    0.545832  -0.044628   4.954807   0.355251   0.000032
    22  H   -0.043262  -0.005648   0.355251   0.567112   0.000009
    23  H    0.000000   0.000000   0.000032   0.000009   0.277032
 Mulliken charges:
               1
     1  C   -0.337728
     2  H    0.209248
     3  H    0.214980
     4  H    0.213639
     5  N   -0.559695
     6  H    0.469929
     7  C   -0.152954
     8  H    0.215574
     9  H    0.219130
    10  C   -0.365386
    11  H    0.180764
    12  H    0.182801
    13  C    0.272059
    14  N   -0.528156
    15  C    0.045574
    16  H    0.169410
    17  C   -0.153199
    18  H    0.154762
    19  C   -0.094797
    20  H    0.169146
    21  C   -0.158871
    22  H    0.162605
    23  H    0.471164
 Sum of Mulliken charges =   1.00000
 Mulliken charges with hydrogens summed into heavy atoms:
               1
     1  C    0.300139
     5  N    0.381398
     7  C    0.281749
    10  C   -0.001821
    13  C    0.272059
    14  N   -0.528156
    15  C    0.214984
    17  C    0.001563
    19  C    0.074349
    21  C    0.003734
 Electronic spatial extent (au):  <R**2>=           1951.0303
 Charge=              1.0000 electrons
 Dipole moment (field-independent basis, Debye):
    X=            -12.4442    Y=              2.1502    Z=              0.5215  Tot=             12.6394
 Quadrupole moment (field-independent basis, Debye-Ang):
   XX=             -5.0154   YY=            -54.5334   ZZ=            -55.0843
   XY=              3.9123   XZ=             -6.3066   YZ=              1.2944
 Traceless Quadrupole moment (field-independent basis, Debye-Ang):
   XX=             33.1956   YY=            -16.3224   ZZ=            -16.8733
   XY=              3.9123   XZ=             -6.3066   YZ=              1.2944
 Octapole moment (field-independent basis, Debye-Ang**2):
  XXX=           -144.0481  YYY=             10.0352  ZZZ=              2.6751  XYY=            -10.8936
  XXY=             -2.4822  XXZ=             -9.2007  XZZ=            -19.4823  YZZ=             -0.4270
  YYZ=             -1.0478  XYZ=              2.4747
 Hexadecapole moment (field-independent basis, Debye-Ang**3):
 XXXX=          -1346.0165 YYYY=           -300.5740 ZZZZ=           -200.4800 XXXY=             14.2865
 XXXZ=            -56.8867 YYYX=             15.5920 YYYZ=              2.7666 ZZZX=             -5.8634
 ZZZY=              3.4259 XXYY=           -329.2251 XXZZ=           -334.7162 YYZZ=            -82.8837
 XXYZ=             -1.2819 YYXZ=            -14.1216 ZZXY=             -2.5723
 N-N= 5.181240938044D+02 E-N=-2.001809262289D+03  KE= 4.185180785350D+02
 No NMR shielding tensors so no spin-rotation constants.
 Leave Link  601 at Sun Jul 18 13:37:31 2021, MaxMem=   104857600 cpu:               0.3 elap:               0.1
 (Enter /prod/apps/gaussian/g16b1/l701.exe)
 ... and contract with generalized density number  0.
 Compute integral first derivatives.
 D1PCM: PCM CHGder 1st derivatives, ID1Alg=3 FixD1E=F DoIter=F DoCFld=F I1PDM=0.
 GePol: Maximum number of non-zero 1st derivatives   =     182
 Leave Link  701 at Sun Jul 18 13:37:32 2021, MaxMem=   104857600 cpu:               3.9 elap:               1.0
 (Enter /prod/apps/gaussian/g16b1/l702.exe)
 L702 exits ... SP integral derivatives will be done elsewhere.
 Leave Link  702 at Sun Jul 18 13:37:32 2021, MaxMem=   104857600 cpu:               0.1 elap:               0.0
 (Enter /prod/apps/gaussian/g16b1/l703.exe)
 Integral derivatives from FoFJK, PRISM(SPDF).
 Compute integral first derivatives, UseDBF=F ICtDFT=           0.
 Calling FoFJK, ICntrl=      2127 FMM=F ISym2X=0 I1Cent= 0 IOpClX= 0 NMat=1 NMatS=1 NMatT=0.
 FoFJK:  IHMeth= 1 ICntrl=    2127 DoSepK=F KAlg= 0 I1Cent=           0 FoldK=F
 IRaf=         0 NMat=       1 IRICut=       1 DoRegI=T DoRafI=F ISym2E= 0 IDoP0=0 IntGTp=1.
 FoFCou: FMM=F IPFlag=           0 FMFlag=      100000 FMFlg1=         800
         NFxFlg=           0 DoJE=F BraDBF=F KetDBF=F FulRan=T
         wScrn=  0.000000 ICntrl=      2127 IOpCl=  0 I1Cent=           0 NGrid=           0
         NMat0=    1 NMatS0=      1 NMatT0=    0 NMatD0=    1 NMtDS0=    0 NMtDT0=    0
 Symmetry not used in FoFCou.
 Leave Link  703 at Sun Jul 18 13:37:38 2021, MaxMem=   104857600 cpu:              21.5 elap:               5.4
 (Enter /prod/apps/gaussian/g16b1/l716.exe)
 Dipole        =-4.89594407D+00 8.45941209D-01 2.05180367D-01
 ***** Axes restored to original set *****
 -------------------------------------------------------------------
 Center     Atomic                   Forces (Hartrees/Bohr)
 Number     Number              X              Y              Z
 -------------------------------------------------------------------
      1        6          -0.007951150    0.040038924    0.001917024
      2        1           0.002466860    0.002392562   -0.001584660
      3        1          -0.002200470   -0.004269171    0.001007708
      4        1           0.003073906   -0.009802092    0.001078273
      5        7          -0.015125891    0.029783136   -0.007874526
      6        1           0.003692511   -0.010829591    0.026742706
      7        6          -0.014897532    0.024589242   -0.016891476
      8        1          -0.004434619    0.007983320    0.004977573
      9        1           0.002855194    0.017650732    0.000222977
     10        6           0.018001420   -0.095772718   -0.006136335
     11        1          -0.006239845   -0.006508652    0.000957885
     12        1           0.005371827    0.005260774   -0.002972662
     13        6          -0.038306342    0.013756310    0.044593371
     14        7           0.008169347   -0.009719654    0.008137012
     15        6           0.016735905    0.013538273    0.012475793
     16        1           0.007604815   -0.000008028    0.011113349
     17        6          -0.026585075   -0.008531489   -0.040317332
     18        1          -0.003876165   -0.002489385    0.007493376
     19        6          -0.016842978   -0.007482070   -0.030238224
     20        1           0.003784719   -0.000016216    0.001058287
     21        6           0.045628857    0.006552599   -0.004269024
     22        1          -0.004078026    0.001822527   -0.006147365
     23        1           0.023152731   -0.007939332   -0.005343732
 -------------------------------------------------------------------
 Cartesian Forces:  Max     0.095772718 RMS     0.019528470
 Leave Link  716 at Sun Jul 18 13:37:38 2021, MaxMem=   104857600 cpu:               0.1 elap:               0.0
 (Enter /prod/apps/gaussian/g16b1/l103.exe)

 GradGradGradGradGradGradGradGradGradGradGradGradGradGradGradGradGradGrad
 Berny optimization.
 FormGI is forming the generalized inverse of G from B-inverse, IUseBI=4.
 Internal  Forces:  Max     0.089464253 RMS     0.013462537
 Search for a local minimum.
 Step number   1 out of a maximum of  126
 All quantities printed in internal units (Hartrees-Bohrs-Radians)
 RMS Force = .13463D-01 SwitMx=.10000D-02 MixMth= 1
 Mixed Optimization -- RFO/linear search
 Second derivative matrix not updated -- first step.
 ITU=  0
     Eigenvalues ---    0.00442   0.00906   0.01012   0.01815   0.01832
     Eigenvalues ---    0.02293   0.02499   0.02513   0.02577   0.02599
     Eigenvalues ---    0.02632   0.02676   0.04368   0.04791   0.05124
     Eigenvalues ---    0.05406   0.05661   0.05673   0.05975   0.06297
     Eigenvalues ---    0.07862   0.08084   0.09393   0.11529   0.11935
     Eigenvalues ---    0.12801   0.15914   0.15991   0.15993   0.16000
     Eigenvalues ---    0.16000   0.16000   0.16000   0.21777   0.21959
     Eigenvalues ---    0.21989   0.22001   0.22286   0.23792   0.23939
     Eigenvalues ---    0.29936   0.34416   0.34424   0.34458   0.34487
     Eigenvalues ---    0.34502   0.34596   0.34599   0.35075   0.35141
     Eigenvalues ---    0.35143   0.35200   0.37039   0.38063   0.42550
     Eigenvalues ---    0.45735   0.47653   0.47668   0.48018   0.50515
     Eigenvalues ---    0.52126   0.53534   0.55193
 RFO step:  Lambda=-5.61711477D-02 EMin= 4.41647995D-03
 Linear search not attempted -- first point.
 Maximum step size (   0.300) exceeded in Quadratic search.
    -- Step size scaled by   0.812
 Iteration  1 RMS(Cart)=  0.08672819 RMS(Int)=  0.00174351
 Iteration  2 RMS(Cart)=  0.00181883 RMS(Int)=  0.00086562
 Iteration  3 RMS(Cart)=  0.00000907 RMS(Int)=  0.00086561
 Iteration  4 RMS(Cart)=  0.00000005 RMS(Int)=  0.00086561
 ITry= 1 IFail=0 DXMaxC= 3.02D-01 DCOld= 1.00D+10 DXMaxT= 3.00D-01 DXLimC= 3.00D+00 Rises=F
 Variable       Old X    -DE/DX   Delta X   Delta X   Delta X     New X
                                 (Linear)    (Quad)   (Total)
    R1        2.06565  -0.00238   0.00000  -0.00482  -0.00482   2.06082
    R2        2.06621  -0.00293   0.00000  -0.00595  -0.00595   2.06025
    R3        2.06634  -0.00265   0.00000  -0.00537  -0.00537   2.06097
    R4        2.74274   0.02875   0.00000   0.05347   0.05347   2.79621
    R5        1.89010   0.02871   0.00000   0.04378   0.04378   1.93388
    R6        2.75788   0.03149   0.00000   0.05997   0.05997   2.81784
    R7        1.88994   0.02444   0.00000   0.03725   0.03725   1.92720
    R8        2.06517  -0.00233   0.00000  -0.00472  -0.00472   2.06045
    R9        2.06492  -0.00082   0.00000  -0.00166  -0.00166   2.06326
   R10        2.68229   0.08946   0.00000   0.15088   0.15088   2.83317
   R11        2.06336   0.00251   0.00000   0.00508   0.00508   2.06844
   R12        2.06330   0.00463   0.00000   0.00935   0.00935   2.07265
   R13        2.88092  -0.00060   0.00000  -0.00138  -0.00138   2.87954
   R14        2.58710  -0.01833   0.00000  -0.02964  -0.02979   2.55732
   R15        2.58976   0.03488   0.00000   0.04970   0.04965   2.63941
   R16        2.55477  -0.00645   0.00000  -0.01152  -0.01156   2.54321
   R17        2.05553  -0.00101   0.00000  -0.00202  -0.00202   2.05351
   R18        2.56357   0.03670   0.00000   0.05075   0.05080   2.61436
   R19        2.05446  -0.00030   0.00000  -0.00061  -0.00061   2.05386
   R20        2.60105   0.01817   0.00000   0.03011   0.03022   2.63127
   R21        2.05443  -0.00145   0.00000  -0.00290  -0.00290   2.05153
   R22        2.54590   0.04188   0.00000   0.05836   0.05844   2.60434
   R23        2.05351   0.00001   0.00000   0.00002   0.00002   2.05353
    A1        1.91328  -0.00127   0.00000  -0.00167  -0.00166   1.91162
    A2        1.87981   0.00356   0.00000   0.01458   0.01502   1.89483
    A3        1.86939   0.00717   0.00000   0.02917   0.02940   1.89880
    A4        1.86947   0.00778   0.00000   0.02540   0.02476   1.89424
    A5        1.92461  -0.00232   0.00000  -0.00954  -0.00988   1.91473
    A6        2.00591  -0.01463   0.00000  -0.05648  -0.05659   1.94932
    A7        1.90971  -0.00420   0.00000  -0.00923  -0.00951   1.90021
    A8        1.91588   0.01533   0.00000   0.05038   0.05022   1.96611
    A9        1.90987  -0.00320   0.00000  -0.00591  -0.00595   1.90392
   A10        1.90909  -0.00305   0.00000  -0.00425  -0.00446   1.90463
   A11        1.90990  -0.00011   0.00000  -0.01751  -0.01773   1.89217
   A12        1.90934  -0.00480   0.00000  -0.01365  -0.01383   1.89550
   A13        1.90322  -0.00857   0.00000  -0.03406  -0.03682   1.86641
   A14        1.97174  -0.01602   0.00000  -0.07159  -0.07531   1.89643
   A15        1.85528   0.02736   0.00000   0.09107   0.09111   1.94639
   A16        1.97091   0.00129   0.00000  -0.02272  -0.02638   1.94454
   A17        1.92121  -0.00439   0.00000   0.00678   0.00764   1.92885
   A18        1.83676   0.00267   0.00000   0.04259   0.04499   1.88175
   A19        1.90960   0.00411   0.00000   0.01771   0.01778   1.92738
   A20        1.99073  -0.00670   0.00000  -0.02569  -0.02572   1.96502
   A21        1.93197   0.00406   0.00000   0.01043   0.01045   1.94242
   A22        1.82080   0.00252   0.00000   0.01372   0.01398   1.83478
   A23        1.94966  -0.00848   0.00000  -0.03890  -0.03882   1.91084
   A24        1.85875   0.00388   0.00000   0.02066   0.02081   1.87956
   A25        2.01329  -0.00402   0.00000  -0.00070  -0.00200   2.01129
   A26        2.09660   0.00132   0.00000   0.01410   0.01279   2.10939
   A27        2.11331   0.00548   0.00000   0.01664   0.01536   2.12866
   A28        2.08584  -0.00145   0.00000  -0.02145  -0.02150   2.06434
   A29        2.14945  -0.02417   0.00000  -0.07866  -0.07912   2.07034
   A30        2.07247   0.02173   0.00000   0.05907   0.05890   2.13137
   A31        2.05457   0.00302   0.00000   0.02433   0.02405   2.07862
   A32        2.15032  -0.00094   0.00000  -0.01375  -0.01392   2.13639
   A33        2.12700  -0.01618   0.00000  -0.04017  -0.03991   2.08709
   A34        2.00530   0.01714   0.00000   0.05431   0.05416   2.05946
   A35        2.06516   0.00745   0.00000   0.01835   0.01820   2.08336
   A36        2.07844  -0.00797   0.00000  -0.01065  -0.01036   2.06809
   A37        2.13957   0.00052   0.00000  -0.00770  -0.00784   2.13172
   A38        2.07906  -0.00104   0.00000   0.00217   0.00232   2.08138
   A39        2.03327   0.00782   0.00000   0.02637   0.02629   2.05956
   A40        2.17047  -0.00680   0.00000  -0.02862  -0.02869   2.14178
    D1       -1.24269  -0.00185   0.00000  -0.00967  -0.00954  -1.25223
    D2        0.85246   0.00124   0.00000   0.01039   0.01047   0.86293
    D3        2.94802   0.00280   0.00000   0.02098   0.02111   2.96914
    D4        2.95959  -0.00329   0.00000  -0.01969  -0.01950   2.94010
    D5       -1.22843  -0.00021   0.00000   0.00037   0.00051  -1.22793
    D6        0.86713   0.00136   0.00000   0.01096   0.01115   0.87828
    D7        0.84475  -0.00130   0.00000  -0.00545  -0.00572   0.83903
    D8        2.93991   0.00179   0.00000   0.01460   0.01428   2.95419
    D9       -1.24772   0.00335   0.00000   0.02519   0.02493  -1.22279
   D10        1.07275  -0.00757   0.00000  -0.05271  -0.05125   1.02150
   D11       -1.13398   0.00931   0.00000   0.05692   0.05455  -1.07944
   D12       -3.13976  -0.00209   0.00000  -0.01211  -0.01145   3.13198
   D13       -3.11490  -0.00519   0.00000  -0.03571  -0.03415   3.13413
   D14        0.96155   0.01169   0.00000   0.07392   0.07165   1.03320
   D15       -1.04422   0.00029   0.00000   0.00489   0.00566  -1.03856
   D16       -1.02314  -0.01010   0.00000  -0.06799  -0.06639  -1.08953
   D17        3.05332   0.00678   0.00000   0.04164   0.03941   3.09273
   D18        1.04754  -0.00461   0.00000  -0.02739  -0.02658   1.02096
   D19        0.97843  -0.00000   0.00000   0.00360   0.00425   0.98269
   D20       -1.05311  -0.00181   0.00000  -0.00975  -0.00909  -1.06221
   D21        3.13438  -0.00516   0.00000  -0.02635  -0.02563   3.10875
   D22        3.03725   0.00309   0.00000   0.01855   0.01906   3.05630
   D23        1.00570   0.00129   0.00000   0.00520   0.00571   1.01141
   D24       -1.08999  -0.00207   0.00000  -0.01141  -0.01083  -1.10082
   D25       -1.11724   0.00383   0.00000   0.02065   0.01942  -1.09782
   D26        3.13440   0.00203   0.00000   0.00730   0.00607   3.14047
   D27        1.03870  -0.00133   0.00000  -0.00931  -0.01047   1.02824
   D28       -1.56838  -0.00566   0.00000  -0.04023  -0.04000  -1.60838
   D29        1.21208   0.00349   0.00000   0.04992   0.04983   1.26191
   D30        0.56429  -0.00343   0.00000  -0.03725  -0.03703   0.52726
   D31       -2.93843   0.00572   0.00000   0.05290   0.05280  -2.88564
   D32        2.54185  -0.00247   0.00000  -0.02863  -0.02861   2.51324
   D33       -0.96087   0.00669   0.00000   0.06152   0.06122  -0.89965
   D34        2.92938   0.00395   0.00000   0.04502   0.04544   2.97482
   D35        0.15267  -0.00434   0.00000  -0.04544  -0.04485   0.10782
   D36       -2.82025  -0.00625   0.00000  -0.07114  -0.07136  -2.89161
   D37        0.34982  -0.00581   0.00000  -0.06779  -0.06792   0.28189
   D38       -0.06072   0.00139   0.00000   0.02060   0.02094  -0.03978
   D39        3.10935   0.00184   0.00000   0.02395   0.02438   3.13373
   D40        3.12982  -0.00275   0.00000  -0.01161  -0.00972   3.12010
   D41       -0.13875   0.00302   0.00000   0.03540   0.03525  -0.10350
   D42       -3.06468  -0.00232   0.00000  -0.02133  -0.02135  -3.08604
   D43        0.03870  -0.00117   0.00000  -0.00728  -0.00733   0.03137
   D44       -0.04314   0.00104   0.00000   0.01535   0.01631  -0.02682
   D45        3.06025   0.00218   0.00000   0.02940   0.03034   3.09059
   D46       -3.08283  -0.00113   0.00000  -0.01325  -0.01319  -3.09603
   D47        0.05224  -0.00156   0.00000  -0.01399  -0.01377   0.03848
   D48        0.02352  -0.00037   0.00000  -0.00149  -0.00107   0.02244
   D49       -3.12459  -0.00080   0.00000  -0.00223  -0.00165  -3.12624
   D50       -0.04043   0.00095   0.00000   0.00629   0.00633  -0.03409
   D51        3.07029   0.00073   0.00000   0.00367   0.00372   3.07401
   D52        3.09436   0.00052   0.00000   0.00562   0.00585   3.10021
   D53       -0.07811   0.00031   0.00000   0.00300   0.00323  -0.07487
         Item               Value     Threshold  Converged?
 Maximum Force            0.089464     0.000450     NO 
 RMS     Force            0.013463     0.000300     NO 
 Maximum Displacement     0.302000     0.001800     NO 
 RMS     Displacement     0.086777     0.001200     NO 
 Predicted change in Energy=-3.103488D-02
 Lowest energy point so far.  Saving SCF results.
 GradGradGradGradGradGradGradGradGradGradGradGradGradGradGradGradGradGrad

 Leave Link  103 at Sun Jul 18 13:37:38 2021, MaxMem=   104857600 cpu:               0.1 elap:               0.0
 (Enter /prod/apps/gaussian/g16b1/l202.exe)
                          Input orientation:                          
 ---------------------------------------------------------------------
 Center     Atomic      Atomic             Coordinates (Angstroms)
 Number     Number       Type             X           Y           Z
 ---------------------------------------------------------------------
      1          6           0        1.526465    3.123830    1.351843
      2          1           0        0.482618    3.333811    1.587578
      3          1           0        1.765051    3.523854    0.366106
      4          1           0        2.156148    3.622128    2.089843
      5          7           0        1.731195    1.658386    1.358542
      6          1           0        1.693432    1.323267    2.324745
      7          6           0        0.710680    0.932306    0.549317
      8          1           0        0.776344    1.320775   -0.467359
      9          1           0       -0.274277    1.115688    0.983281
     10          6           0        0.949514   -0.547738    0.562706
     11          1           0        0.969324   -0.922278    1.591011
     12          1           0        1.923872   -0.821067    0.139751
     13          6           0       -0.122460   -1.288380   -0.227384
     14          7           0       -1.185610   -1.709054    0.496562
     15          6           0       -2.254271   -2.193555   -0.162541
     16          1           0       -3.102952   -2.551736    0.413917
     17          6           0       -2.343914   -2.161398   -1.542721
     18          1           0       -3.225655   -2.504916   -2.077305
     19          6           0       -1.286321   -1.647404   -2.288449
     20          1           0       -1.377492   -1.584391   -3.368400
     21          6           0       -0.155879   -1.225904   -1.622299
     22          1           0        0.732113   -0.871227   -2.138585
     23          1           0        2.655073    1.449003    0.980838
 ---------------------------------------------------------------------
                    Distance matrix (angstroms):
                    1          2          3          4          5
     1  C    0.000000
     2  H    1.090541   0.000000
     3  H    1.090238   1.781220   0.000000
     4  H    1.090618   1.770904   1.770278   0.000000
     5  N    1.479691   2.102012   2.113302   2.138146   0.000000
     6  H    2.053398   2.460036   2.946858   2.356702   1.023366
     7  C    2.472313   2.626258   2.803816   3.420197   1.491138
     8  H    2.668929   2.891601   2.554557   3.706665   2.087975
     9  H    2.722341   2.420358   3.215435   3.662470   2.111222
    10  C    3.799476   4.041631   4.157116   4.601728   2.472118
    11  H    4.091283   4.283830   4.679921   4.723242   2.700800
    12  H    4.145999   4.629949   4.353710   4.857859   2.769524
    13  C    4.967948   5.002486   5.203126   5.888522   3.825524
    14  N    5.607461   5.422526   6.008888   6.490562   4.537666
    15  C    6.697903   6.411338   7.008793   7.638534   5.747616
    16  H    7.383986   6.990955   7.785404   8.281513   6.479693
    17  C    7.161841   6.927148   7.269753   8.178952   6.294013
    18  H    8.125545   7.827732   8.198992   9.158035   7.328608
    19  C    6.627833   6.554788   6.565017   7.667334   5.773578
    20  H    7.271933   7.225680   7.065145   8.329878   6.521006
    21  C    5.531364   5.612664   5.495810   6.529080   4.556929
    22  H    5.364192   5.623956   5.163058   6.332276   4.430238
    23  H    2.053399   2.939421   2.339880   2.490239   1.019829
                    6          7          8          9         10
     6  H    0.000000
     7  C    2.066591   0.000000
     8  H    2.938860   1.090344   0.000000
     9  H    2.390500   1.091831   1.802837   0.000000
    10  C    2.675604   1.499250   2.140646   2.107495   0.000000
    11  H    2.470865   2.142780   3.050478   2.463572   1.094570
    12  H    3.070092   2.171150   2.504574   3.048675   1.096801
    13  C    4.078177   2.495763   2.770041   2.695979   1.523785
    14  N    4.563562   3.251996   3.736077   3.007755   2.431416
    15  C    5.842858   4.366770   4.650598   4.022981   3.674090
    16  H    6.455402   5.167269   5.551750   4.666431   4.523342
    17  C    6.587894   4.824745   4.797702   4.626379   4.228875
    18  H    7.630888   5.848792   5.765747   5.584496   5.313402
    19  C    6.243827   4.323867   4.047351   4.400356   3.786464
    20  H    7.092034   5.103207   4.636274   5.238763   4.684357
    21  C    5.049493   3.181935   2.947626   3.505157   2.540876
    22  H    5.065693   3.236974   2.756778   3.834931   2.729264
    23  H    1.657301   2.057632   2.375571   2.948252   2.659086
                   11         12         13         14         15
    11  H    0.000000
    12  H    1.739988   0.000000
    13  C    2.152344   2.130879   0.000000
    14  N    2.541766   3.253416   1.353274   0.000000
    15  C    3.883639   4.408172   2.316930   1.345806   0.000000
    16  H    4.541378   5.323471   3.300101   2.095983   1.086672
    17  C    4.725805   4.779246   2.725275   2.388505   1.383462
    18  H    5.793025   5.853915   3.812084   3.379345   2.169529
    19  C    4.545762   4.109055   2.394046   2.787513   2.398894
    20  H    5.526454   4.877375   3.395395   3.871730   3.378958
    21  C    3.418133   2.755736   1.396714   2.404860   2.733220
    22  H    3.737480   2.571696   2.134713   3.365058   3.817302
    23  H    2.972715   2.528893   4.082616   4.995867   6.219099
                   16         17         18         19         20
    16  H    0.000000
    17  C    2.134697   0.000000
    18  H    2.494681   1.086854   0.000000
    19  C    3.379459   1.392409   2.130944   0.000000
    20  H    4.268359   2.144764   2.435159   1.085623   0.000000
    21  C    3.819587   2.380961   3.356550   1.378157   2.160953
    22  H    4.903784   3.388441   4.282128   2.167715   2.543910
    23  H    7.034355   6.662823   7.718074   5.984193   6.661751
                   21         22         23
    21  C    0.000000
[...]
 IMap=  21  22  23  24  25  26  27
 Actual    scratch disk usage=  1358755772 words.
 JobTyp=1 Pass  1:  I=   1 to  27 NPSUse=  4 ParTrn=T ParDer=T DoDerP=F.
 Spin components of T(2) and E(2):
     alpha-alpha T2 =       0.6920351399D-01 E2=     -0.1856753980D+00
     alpha-beta  T2 =       0.3763149502D+00 E2=     -0.1085430308D+01
     beta-beta   T2 =       0.6920351399D-01 E2=     -0.1856753980D+00
 The integrals were generated   1 times.
 ANorm=    0.1230740419D+01
 E2 =    -0.1456781104D+01 EUMP2 =    -0.42070996641554D+03
 Leave Link  906 at Sun Jul 18 13:50:48 2021, MaxMem=   262144000 cpu:             299.7 elap:              75.3
 (Enter /prod/apps/gaussian/g16b1/l601.exe)
 Copying SCF densities to generalized density rwf, IOpCl= 0 IROHF=0.

 **********************************************************************

            Population analysis using the SCF Density.

 **********************************************************************

 Orbital symmetries:
       Occupied  (A) (A) (A) (A) (A) (A) (A) (A) (A) (A) (A) (A)
                 (A) (A) (A) (A) (A) (A) (A) (A) (A) (A) (A) (A)
                 (A) (A) (A) (A) (A) (A) (A) (A) (A) (A) (A) (A)
                 (A)
       Virtual   (A) (A) (A) (A) (A) (A) (A) (A) (A) (A) (A) (A)
                 (A) (A) (A) (A) (A) (A) (A) (A) (A) (A) (A) (A)
                 (A) (A) (A) (A) (A) (A) (A) (A) (A) (A) (A) (A)
                 (A) (A) (A) (A) (A) (A) (A) (A) (A) (A) (A) (A)
                 (A) (A) (A) (A) (A) (A) (A) (A) (A) (A) (A) (A)
                 (A) (A) (A) (A) (A) (A) (A) (A) (A) (A) (A) (A)
                 (A) (A) (A) (A) (A) (A) (A) (A) (A) (A) (A) (A)
                 (A) (A) (A) (A) (A) (A) (A) (A) (A) (A) (A) (A)
                 (A) (A) (A) (A) (A) (A) (A) (A) (A) (A) (A) (A)
                 (A) (A) (A) (A) (A) (A) (A) (A) (A) (A) (A) (A)
                 (A) (A) (A) (A) (A) (A) (A) (A) (A) (A) (A) (A)
                 (A) (A) (A) (A) (A) (A) (A) (A) (A) (A) (A) (A)
                 (A) (A) (A) (A) (A) (A) (A) (A) (A) (A) (A) (A)
                 (A) (A) (A) (A) (A) (A) (A) (A) (A) (A) (A) (A)
                 (A) (A) (A) (A) (A) (A) (A) (A) (A) (A) (A) (A)
                 (A) (A) (A) (A) (A) (A) (A) (A) (A) (A) (A) (A)
                 (A) (A) (A) (A) (A) (A) (A) (A) (A) (A) (A) (A)
                 (A) (A) (A) (A) (A) (A) (A) (A) (A) (A) (A) (A)
                 (A) (A) (A) (A) (A) (A) (A) (A) (A) (A) (A) (A)
                 (A) (A) (A) (A) (A) (A) (A) (A) (A) (A) (A) (A)
                 (A) (A) (A) (A) (A) (A) (A) (A) (A) (A) (A) (A)
                 (A) (A) (A) (A) (A) (A) (A) (A) (A) (A) (A) (A)
                 (A) (A) (A) (A) (A) (A) (A) (A) (A) (A) (A) (A)
                 (A) (A) (A) (A) (A) (A) (A) (A) (A) (A) (A) (A)
                 (A) (A) (A) (A) (A) (A) (A) (A) (A) (A) (A) (A)
                 (A) (A) (A) (A) (A) (A) (A) (A) (A) (A)
 The electronic state is 1-A.
 Alpha  occ. eigenvalues --  -15.88016 -15.68622 -11.46753 -11.46126 -11.40804
 Alpha  occ. eigenvalues --  -11.39846 -11.38823 -11.37038 -11.35842 -11.35042
 Alpha  occ. eigenvalues --   -1.50180  -1.37524  -1.22957  -1.19649  -1.15499
 Alpha  occ. eigenvalues --   -1.11924  -1.04896  -0.97211  -0.96285  -0.94297
 Alpha  occ. eigenvalues --   -0.86068  -0.84156  -0.80830  -0.79815  -0.76171
 Alpha  occ. eigenvalues --   -0.75701  -0.74548  -0.74122  -0.70739  -0.69522
 Alpha  occ. eigenvalues --   -0.68151  -0.66603  -0.63859  -0.62604  -0.53064
 Alpha  occ. eigenvalues --   -0.48863  -0.45247
 Alpha virt. eigenvalues --   -0.09716  -0.07206  -0.06782  -0.05614  -0.04058
 Alpha virt. eigenvalues --   -0.03585  -0.03402  -0.03178  -0.02023  -0.01863
 Alpha virt. eigenvalues --   -0.01482  -0.01274  -0.00572   0.00043   0.00434
 Alpha virt. eigenvalues --    0.00885   0.01188   0.01629   0.02651   0.03722
 Alpha virt. eigenvalues --    0.03857   0.04176   0.04794   0.05548   0.05648
 Alpha virt. eigenvalues --    0.06388   0.06677   0.06879   0.07069   0.07364
 Alpha virt. eigenvalues --    0.07622   0.07842   0.08280   0.08727   0.09064
 Alpha virt. eigenvalues --    0.10025   0.10096   0.10889   0.11337   0.11984
 Alpha virt. eigenvalues --    0.12098   0.12444   0.12875   0.14063   0.14184
 Alpha virt. eigenvalues --    0.14527   0.16157   0.16419   0.16952   0.17281
 Alpha virt. eigenvalues --    0.18371   0.18819   0.19745   0.20254   0.21288
 Alpha virt. eigenvalues --    0.21731   0.22597   0.22814   0.23291   0.23903
 Alpha virt. eigenvalues --    0.24604   0.24867   0.25100   0.26289   0.26520
 Alpha virt. eigenvalues --    0.27605   0.28629   0.29090   0.29588   0.30164
 Alpha virt. eigenvalues --    0.31368   0.31588   0.31732   0.32048   0.32359
 Alpha virt. eigenvalues --    0.32720   0.33354   0.33928   0.34791   0.35205
 Alpha virt. eigenvalues --    0.35697   0.36273   0.36420   0.37717   0.38091
 Alpha virt. eigenvalues --    0.38648   0.38716   0.39657   0.40067   0.40684
 Alpha virt. eigenvalues --    0.41527   0.42818   0.43665   0.44046   0.44466
 Alpha virt. eigenvalues --    0.45196   0.45660   0.46209   0.46639   0.47024
 Alpha virt. eigenvalues --    0.47482   0.48279   0.49031   0.49508   0.50268
 Alpha virt. eigenvalues --    0.50937   0.52494   0.53321   0.53567   0.54046
 Alpha virt. eigenvalues --    0.54904   0.55350   0.55874   0.56899   0.57332
 Alpha virt. eigenvalues --    0.58044   0.58967   0.59503   0.60301   0.60467
 Alpha virt. eigenvalues --    0.60681   0.61206   0.61860   0.62129   0.62734
 Alpha virt. eigenvalues --    0.63749   0.64291   0.65853   0.66156   0.66647
 Alpha virt. eigenvalues --    0.66952   0.67213   0.68228   0.69576   0.71479
 Alpha virt. eigenvalues --    0.72040   0.73288   0.73989   0.74270   0.75114
 Alpha virt. eigenvalues --    0.75860   0.76964   0.77624   0.77778   0.79246
 Alpha virt. eigenvalues --    0.80589   0.81427   0.81685   0.82675   0.83457
 Alpha virt. eigenvalues --    0.83903   0.84473   0.85120   0.86128   0.86517
 Alpha virt. eigenvalues --    0.88455   0.89572   0.90908   0.90989   0.91911
 Alpha virt. eigenvalues --    0.92804   0.94667   0.95102   0.95687   0.96941
 Alpha virt. eigenvalues --    0.97993   0.99493   1.00262   1.01568   1.01830
 Alpha virt. eigenvalues --    1.05402   1.05915   1.08052   1.09877   1.10778
 Alpha virt. eigenvalues --    1.11885   1.13301   1.13980   1.17600   1.20349
 Alpha virt. eigenvalues --    1.22884   1.26111   1.27458   1.28819   1.30718
 Alpha virt. eigenvalues --    1.32110   1.33597   1.34762   1.37088   1.38682
 Alpha virt. eigenvalues --    1.41762   1.43295   1.45405   1.46366   1.47215
 Alpha virt. eigenvalues --    1.48520   1.50609   1.51798   1.52696   1.53659
 Alpha virt. eigenvalues --    1.54816   1.55640   1.58037   1.59876   1.61139
 Alpha virt. eigenvalues --    1.61934   1.62548   1.64125   1.64519   1.66459
 Alpha virt. eigenvalues --    1.68637   1.69105   1.69922   1.71285   1.71962
 Alpha virt. eigenvalues --    1.73265   1.74062   1.75848   1.77302   1.80142
 Alpha virt. eigenvalues --    1.81155   1.83528   1.84396   1.85564   1.86586
 Alpha virt. eigenvalues --    1.87474   1.89217   1.89785   1.90470   1.91700
 Alpha virt. eigenvalues --    1.93843   1.94375   1.95324   1.96968   1.97773
 Alpha virt. eigenvalues --    1.99380   2.01437   2.01696   2.02742   2.06096
 Alpha virt. eigenvalues --    2.07314   2.08202   2.09781   2.10923   2.12344
 Alpha virt. eigenvalues --    2.13197   2.13616   2.13633   2.16620   2.17331
 Alpha virt. eigenvalues --    2.19401   2.20214   2.21486   2.22488   2.23341
 Alpha virt. eigenvalues --    2.24386   2.26748   2.27950   2.28920   2.31818
 Alpha virt. eigenvalues --    2.32622   2.35966   2.36493   2.38245   2.39235
 Alpha virt. eigenvalues --    2.40097   2.43926   2.45163   2.48266   2.49774
 Alpha virt. eigenvalues --    2.52279   2.54631   2.56234   2.58213   2.59361
 Alpha virt. eigenvalues --    2.60348   2.64123   2.66172   2.67751   2.69614
 Alpha virt. eigenvalues --    2.71655   2.72047   2.73241   2.74343   2.75043
 Alpha virt. eigenvalues --    2.78180   2.81402   2.83438   2.84855   2.87960
 Alpha virt. eigenvalues --    2.89117   2.90344   2.91791   2.93470   2.96493
 Alpha virt. eigenvalues --    3.01806   3.02687   3.04278   3.08160   3.10653
 Alpha virt. eigenvalues --    3.16274   3.24666   3.25768   3.33675   3.42241
 Alpha virt. eigenvalues --    3.45048   3.52438   3.60372   3.86196   4.38767
          Condensed to atoms (all electrons):
               1          2          3          4          5          6
     1  C    3.988129   0.362533   0.355450   0.440631   0.221439  -0.041761
     2  H    0.362533   1.034136  -0.100672  -0.191879  -0.015218  -0.031001
     3  H    0.355450  -0.100672   1.033192  -0.193256  -0.002405   0.019090
     4  H    0.440631  -0.191879  -0.193256   1.149445  -0.120610   0.000338
     5  N    0.221439  -0.015218  -0.002405  -0.120610   7.120986   0.428860
     6  H   -0.041761  -0.031001   0.019090   0.000338   0.428860   0.570354
     7  C   -0.034977  -0.026956  -0.033971   0.068053  -0.075687  -0.052722
     8  H   -0.021526  -0.010658  -0.000043   0.001945  -0.149465   0.032849
     9  H   -0.009844  -0.001293  -0.005778   0.000620  -0.116784  -0.049543
    10  C   -0.013280   0.026461   0.020976  -0.028720  -0.116504  -0.028705
    11  H   -0.003318   0.001382   0.001366  -0.002002  -0.031656   0.012753
    12  H    0.002309   0.002810   0.003005  -0.002528  -0.046623  -0.014385
    13  C    0.030624  -0.002480   0.002593   0.000855   0.136698  -0.001225
    14  N   -0.001168   0.000422  -0.000000  -0.000308   0.024013   0.002140
    15  C    0.002649  -0.000751   0.000655   0.000420   0.004783  -0.001748
    16  H    0.000134  -0.000012  -0.000007   0.000023  -0.000340   0.000105
    17  C   -0.000333   0.001068  -0.000680  -0.000233   0.007969   0.001317
    18  H   -0.000023   0.000031  -0.000026  -0.000004   0.000185  -0.000030
    19  C    0.001144  -0.001448   0.000984   0.000405  -0.010879  -0.002237
    20  H   -0.000005  -0.000042   0.000060   0.000007  -0.000363  -0.000034
    21  C   -0.008524   0.002727  -0.002092  -0.001604   0.022313   0.008157
    22  H    0.000155  -0.000224  -0.000454   0.000165   0.002448  -0.000289
    23  H   -0.035612   0.018740  -0.031452   0.002941   0.435429  -0.071105
               7          8          9         10         11         12
     1  C   -0.034977  -0.021526  -0.009844  -0.013280  -0.003318   0.002309
     2  H   -0.026956  -0.010658  -0.001293   0.026461   0.001382   0.002810
     3  H   -0.033971  -0.000043  -0.005778   0.020976   0.001366   0.003005
     4  H    0.068053   0.001945   0.000620  -0.028720  -0.002002  -0.002528
     5  N   -0.075687  -0.149465  -0.116784  -0.116504  -0.031656  -0.046623
     6  H   -0.052722   0.032849  -0.049543  -0.028705   0.012753  -0.014385
     7  C    4.730635   0.146894   0.209572   0.405036  -0.115786   0.014942
     8  H    0.146894   1.480606  -0.106114  -0.041512   0.076970  -0.089672
     9  H    0.209572  -0.106114   1.327505  -0.126946  -0.038750   0.085404
    10  C    0.405036  -0.041512  -0.126946   6.105309   0.295670   0.012052
    11  H   -0.115786   0.076970  -0.038750   0.295670   1.040925  -0.122645
    12  H    0.014942  -0.089672   0.085404   0.012052  -0.122645   1.350526
    13  C   -0.073152  -0.148776   0.006918  -0.518852  -0.187831   0.191378
    14  N   -0.015347  -0.005167  -0.011777   0.005881   0.012345  -0.026794
    15  C   -0.025536  -0.017423  -0.001147  -0.280023  -0.016563   0.001921
    16  H    0.011365   0.001350  -0.001104   0.016858  -0.001792  -0.000441
    17  C    0.013884   0.009311  -0.015232   0.223867   0.014029  -0.018512
    18  H   -0.002350   0.000231  -0.000332  -0.013530   0.000568   0.000167
    19  C    0.009405   0.000525   0.023111  -0.381429  -0.018394   0.044097
    20  H   -0.004928  -0.001224   0.000808   0.056379   0.001474   0.003522
    21  C   -0.155080   0.104715  -0.004446   0.088086   0.141242  -0.174845
    22  H    0.029288   0.006542   0.000041  -0.133026   0.007889  -0.048608
    23  H   -0.044612  -0.049523   0.021090  -0.030563  -0.012360   0.007209
              13         14         15         16         17         18
     1  C    0.030624  -0.001168   0.002649   0.000134  -0.000333  -0.000023
     2  H   -0.002480   0.000422  -0.000751  -0.000012   0.001068   0.000031
     3  H    0.002593  -0.000000   0.000655  -0.000007  -0.000680  -0.000026
     4  H    0.000855  -0.000308   0.000420   0.000023  -0.000233  -0.000004
     5  N    0.136698   0.024013   0.004783  -0.000340   0.007969   0.000185
     6  H   -0.001225   0.002140  -0.001748   0.000105   0.001317  -0.000030
     7  C   -0.073152  -0.015347  -0.025536   0.011365   0.013884  -0.002350
     8  H   -0.148776  -0.005167  -0.017423   0.001350   0.009311   0.000231
     9  H    0.006918  -0.011777  -0.001147  -0.001104  -0.015232  -0.000332
    10  C   -0.518852   0.005881  -0.280023   0.016858   0.223867  -0.013530
    11  H   -0.187831   0.012345  -0.016563  -0.001792   0.014029   0.000568
    12  H    0.191378  -0.026794   0.001921  -0.000441  -0.018512   0.000167
    13  C    7.738969  -0.054265   0.338188   0.171165  -0.914884  -0.025079
    14  N   -0.054265   7.629703   0.266024  -0.164561   0.171227  -0.034171
    15  C    0.338188   0.266024   6.227262   0.071404  -0.891398   0.099979
    16  H    0.171165  -0.164561   0.071404   1.349620  -0.010249  -0.047315
    17  C   -0.914884   0.171227  -0.891398  -0.010249   6.464689  -0.287948
    18  H   -0.025079  -0.034171   0.099979  -0.047315  -0.287948   1.495134
    19  C    1.132559  -0.368452   1.030210   0.039195  -1.042644   0.317410
    20  H   -0.135693   0.029693  -0.144363  -0.007563   0.247854  -0.059634
    21  C   -2.258634   0.300759  -1.154682  -0.076345   1.159176  -0.038575
    22  H    0.293277  -0.012209   0.039268   0.000121  -0.056563  -0.007435
    23  H    0.006601   0.001516  -0.000249   0.000024   0.000897  -0.000022
              19         20         21         22         23
     1  C    0.001144  -0.000005  -0.008524   0.000155  -0.035612
     2  H   -0.001448  -0.000042   0.002727  -0.000224   0.018740
     3  H    0.000984   0.000060  -0.002092  -0.000454  -0.031452
     4  H    0.000405   0.000007  -0.001604   0.000165   0.002941
     5  N   -0.010879  -0.000363   0.022313   0.002448   0.435429
     6  H   -0.002237  -0.000034   0.008157  -0.000289  -0.071105
     7  C    0.009405  -0.004928  -0.155080   0.029288  -0.044612
     8  H    0.000525  -0.001224   0.104715   0.006542  -0.049523
     9  H    0.023111   0.000808  -0.004446   0.000041   0.021090
    10  C   -0.381429   0.056379   0.088086  -0.133026  -0.030563
    11  H   -0.018394   0.001474   0.141242   0.007889  -0.012360
    12  H    0.044097   0.003522  -0.174845  -0.048608   0.007209
    13  C    1.132559  -0.135693  -2.258634   0.293277   0.006601
    14  N   -0.368452   0.029693   0.300759  -0.012209   0.001516
    15  C    1.030210  -0.144363  -1.154682   0.039268  -0.000249
    16  H    0.039195  -0.007563  -0.076345   0.000121   0.000024
    17  C   -1.042644   0.247854   1.159176  -0.056563   0.000897
    18  H    0.317410  -0.059634  -0.038575  -0.007435  -0.000022
    19  C    7.604772  -0.445117  -2.064050   0.329172  -0.001026
    20  H   -0.445117   1.552984   0.380542  -0.086138   0.000025
    21  C   -2.064050   0.380542   9.498414  -0.708883   0.001167
    22  H    0.329172  -0.086138  -0.708883   1.905626  -0.000312
    23  H   -0.001026   0.000025   0.001167  -0.000312   0.571856
 Mulliken charges:
               1
     1  C    0.765173
     2  H   -0.067675
     3  H   -0.066535
     4  H   -0.124704
     5  N   -0.718591
     6  H    0.218824
     7  C    1.022030
     8  H   -0.220834
     9  H   -0.185979
    10  C    0.456514
    11  H   -0.055517
    12  H   -0.174290
    13  C    0.271045
    14  N   -0.749501
    15  C    0.451120
    16  H   -0.351635
    17  C    0.923388
    18  H   -0.397229
    19  C   -0.197311
    20  H   -0.388243
    21  C    0.940461
    22  H   -0.559851
    23  H    0.209342
 Sum of Mulliken charges =   1.00000
 Mulliken charges with hydrogens summed into heavy atoms:
               1
     1  C    0.506258
     5  N   -0.290426
     7  C    0.615216
    10  C    0.226707
    13  C    0.271045
    14  N   -0.749501
    15  C    0.099485
    17  C    0.526159
    19  C   -0.585554
    21  C    0.380610
 Electronic spatial extent (au):  <R**2>=           2123.7669
 Charge=              1.0000 electrons
 Dipole moment (field-independent basis, Debye):
    X=            -10.7075    Y=              1.8087    Z=             -0.3945  Tot=             10.8663
 Quadrupole moment (field-independent basis, Debye-Ang):
   XX=              2.9286   YY=            -52.7375   ZZ=            -57.9835
   XY=             -0.8706   XZ=             -4.0317   YZ=              0.6902
 Traceless Quadrupole moment (field-independent basis, Debye-Ang):
   XX=             38.8594   YY=            -16.8067   ZZ=            -22.0527
   XY=             -0.8706   XZ=             -4.0317   YZ=              0.6902
 Octapole moment (field-independent basis, Debye-Ang**2):
  XXX=           -153.9161  YYY=              4.1581  ZZZ=              2.7294  XYY=             -5.3318
  XXY=             -4.5382  XXZ=            -14.6211  XZZ=            -26.6067  YZZ=              0.6889
  YYZ=             -2.8251  XYZ=             -4.3631
 Hexadecapole moment (field-independent basis, Debye-Ang**3):
 XXXX=          -1367.3510 YYYY=           -297.0645 ZZZZ=           -165.4471 XXXY=             -6.7696
 XXXZ=            -40.3072 YYYX=            -10.3430 YYYZ=              2.0378 ZZZX=              2.4965
 ZZZY=             -2.2387 XXYY=           -361.0646 XXZZ=           -378.5448 YYZZ=            -88.0780
 XXYZ=             -1.5660 YYXZ=             -7.2055 ZZXY=              3.3474
 N-N= 5.050974408242D+02 E-N=-1.975211918504D+03  KE= 4.186586592046D+02
 Leave Link  601 at Sun Jul 18 13:50:49 2021, MaxMem=   262144000 cpu:               0.3 elap:               0.1
 (Enter /prod/apps/gaussian/g16b1/l9999.exe)
 1\1\GINC-PIRINEUS28\SP\RMP2-FC\Aug-CC-pVDZ\C8H13N2(1+)\UBATOR02\18-Jul
 -2021\0\\#p mp2/aug-cc-pVDZ scf=tight maxdisk=180GB geom=allcheck\\SET
 _328_BBB256_conf1.geo_180_180_270 geometry\\1,1\C,0,1.5320077464,3.148
 5370589,1.634100413\H,0,0.623597298,3.2435092946,2.2259256042\H,0,1.42
 35574905,3.6704666026,0.6852150993\H,0,2.385578482,3.5377963555,2.1852
 282999\N,0,1.7684745785,1.6998200349,1.3568542541\H,0,1.904559676,1.20
 33706186,2.2493191613\C,0,0.6610145686,1.0398297606,0.5886658886\H,0,0
 .5567441004,1.5888055089,-0.3475680121\H,0,-0.2510654101,1.1619857456,
 1.1746972456\C,0,0.9579959551,-0.4411803595,0.3412443267\H,0,1.1237632
 76,-0.9421814008,1.3004491266\H,0,1.865941524,-0.5440361582,-0.2581157
 96\C,0,-0.2044998517,-1.1045688747,-0.3678149368\N,0,-1.324699601,-1.2
 788594372,0.356683193\C,0,-2.3761111085,-1.8537510126,-0.2417718578\H,
 0,-3.2641709051,-1.9817840817,0.3721725911\C,0,-2.3722195817,-2.281171
 7857,-1.5693127853\H,0,-3.2531033518,-2.7437578339,-1.997582982\C,0,-1
 .2102395584,-2.0965410888,-2.3158163087\H,0,-1.159153935,-2.4135532346
 ,-3.3518870607\C,0,-0.1093612682,-1.4973713956,-1.7058472477\H,0,0.812
 5745748,-1.3360926285,-2.2526390981\H,0,2.6518153012,1.5947283117,0.83
 88008818\\Version=ES64L-G16RevB.01\State=1-A\HF=-419.2531853\MP2=-420.
 7099664\RMSD=7.590e-09\PG=C01 [X(C8H13N2)]\\@


 ... THIS SEEMS PLAINLY ABSURD; BUT WHOEVER WISHES TO BECOME A 
 PHILOSOPHER MUST LEARN NOT TO BE FRIGHTENED BY ABSURDITIES.

                          -- BERTRAND RUSSELL
 Job cpu time:       0 days  0 hours 13 minutes 48.8 seconds.
 Elapsed time:       0 days  0 hours  3 minutes 27.8 seconds.
 File lengths (MBytes):  RWF=  10434 Int=      0 D2E=      0 Chk=     11 Scr=      1
 Normal termination of Gaussian 16 at Sun Jul 18 13:50:50 2021.
