 Entering Gaussian System, Link 0=g16
 Initial command:
 /prod/apps/gaussian/g16b1/l1.exe "/tmp/ubator02/1839526/Gau-182723.inp" -scrdir="/tmp/ubator02/1839526/"
 Entering Link 1 = /prod/apps/gaussian/g16b1/l1.exe PID=    182724.
  
 Copyright (c) 1988-2017, Gaussian, Inc.  All Rights Reserved.
  
 This is part of the Gaussian(R) 16 program.  It is based on
 the Gaussian(R) 09 system (copyright 2009, Gaussian, Inc.),
 the Gaussian(R) 03 system (copyright 2003, Gaussian, Inc.),
 the Gaussian(R) 98 system (copyright 1998, Gaussian, Inc.),
 the Gaussian(R) 94 system (copyright 1995, Gaussian, Inc.),
 the Gaussian 92(TM) system (copyright 1992, Gaussian, Inc.),
 the Gaussian 90(TM) system (copyright 1990, Gaussian, Inc.),
 the Gaussian 88(TM) system (copyright 1988, Gaussian, Inc.),
 the Gaussian 86(TM) system (copyright 1986, Carnegie Mellon
 University), and the Gaussian 82(TM) system (copyright 1983,
 Carnegie Mellon University). Gaussian is a federally registered
 trademark of Gaussian, Inc.
  
 This software contains proprietary and confidential information,
 including trade secrets, belonging to Gaussian, Inc.
  
 This software is provided under written license and may be
 used, copied, transmitted, or stored only in accord with that
 written license.
  
 The following legend is applicable only to US Government
 contracts under FAR:
  
                    RESTRICTED RIGHTS LEGEND
  
 Use, reproduction and disclosure by the US Government is
 subject to restrictions as set forth in subparagraphs (a)
 and (c) of the Commercial Computer Software - Restricted
 Rights clause in FAR 52.227-19.
  
 Gaussian, Inc.
 340 Quinnipiac St., Bldg. 40, Wallingford CT 06492
  
  
 ---------------------------------------------------------------
 Warning -- This program may not be used in any manner that
 competes with the business of Gaussian, Inc. or will provide
 assistance to any competitor of Gaussian, Inc.  The licensee
 of this program is prohibited from giving any competitor of
 Gaussian, Inc. access to this program.  By using this program,
 the user acknowledges that Gaussian, Inc. is engaged in the
 business of creating and licensing software in the field of
 computational chemistry and represents and warrants to the
 licensee that it is not a competitor of Gaussian, Inc. and that
 it will not use this program in any manner prohibited above.
 ---------------------------------------------------------------
  

 Cite this work as:
 Gaussian 16, Revision B.01,
 M. J. Frisch, G. W. Trucks, H. B. Schlegel, G. E. Scuseria, 
 M. A. Robb, J. R. Cheeseman, G. Scalmani, V. Barone, 
 G. A. Petersson, H. Nakatsuji, X. Li, M. Caricato, A. V. Marenich, 
 J. Bloino, B. G. Janesko, R. Gomperts, B. Mennucci, H. P. Hratchian, 
 J. V. Ortiz, A. F. Izmaylov, J. L. Sonnenberg, D. Williams-Young, 
 F. Ding, F. Lipparini, F. Egidi, J. Goings, B. Peng, A. Petrone, 
 T. Henderson, D. Ranasinghe, V. G. Zakrzewski, J. Gao, N. Rega, 
 G. Zheng, W. Liang, M. Hada, M. Ehara, K. Toyota, R. Fukuda, 
 J. Hasegawa, M. Ishida, T. Nakajima, Y. Honda, O. Kitao, H. Nakai, 
 T. Vreven, K. Throssell, J. A. Montgomery, Jr., J. E. Peralta, 
 F. Ogliaro, M. J. Bearpark, J. J. Heyd, E. N. Brothers, K. N. Kudin, 
 V. N. Staroverov, T. A. Keith, R. Kobayashi, J. Normand, 
 K. Raghavachari, A. P. Rendell, J. C. Burant, S. S. Iyengar, 
 J. Tomasi, M. Cossi, J. M. Millam, M. Klene, C. Adamo, R. Cammi, 
 J. W. Ochterski, R. L. Martin, K. Morokuma, O. Farkas, 
 J. B. Foresman, and D. J. Fox, Gaussian, Inc., Wallingford CT, 2016.
 
 ******************************************
 Gaussian 16:  ES64L-G16RevB.01 20-Dec-2017
                18-Jul-2021 
 ******************************************
 %mem=800MB
 %nproc=4
 Will use up to    4 processors via shared memory.
 %chk=SET_328_BBB256_conf1.geo_075_180_255.chk
 -----------------------------------------------------------
 #p b3lyp/6-31G(d) opt freq scrf=(iefpcm,read,solvent=water)
 -----------------------------------------------------------
 1/18=20,19=15,26=3,38=1,40=2/1,3;
 2/9=110,12=2,17=6,18=5,40=1/2;
 3/5=1,6=6,7=1,11=2,25=1,30=1,70=2203,71=1,72=1,74=-5/1,2,3;
 4//1;
 5/5=2,38=5,53=1/2;
 6/7=2,8=2,9=2,10=2,28=1/1;
 7//1,2,3,16;
 1/18=20,19=15,26=3/3(2);
 2/9=110/2;
 99//99;
 2/9=110/2;
 3/5=1,6=6,7=1,11=2,25=1,30=1,70=2205,71=1,72=1,74=-5/1,2,3;
 4/5=5,16=3,69=1/1;
 5/5=2,38=5,53=1/2;
 7//1,2,3,16;
 1/18=20,19=15,26=3/3(-5);
 2/9=110/2;
 6/7=2,8=2,9=2,10=2,19=2,28=1/1;
 99/9=1/99;
 Leave Link    1 at Sun Jul 18 13:37:02 2021, MaxMem=   104857600 cpu:               0.1 elap:               0.0
 (Enter /prod/apps/gaussian/g16b1/l101.exe)
 ---------------------------------------------
 SET_328_BBB256_conf1.geo_075_180_255 geometry
 ---------------------------------------------
 Symbolic Z-matrix:
 Charge =  1 Multiplicity = 1
 C                    -1.483     0.793     2.952 
 H                    -2.283     0.318     2.379 
 H                    -2.026     1.422     3.662 
 H                    -0.865     0.016     3.408 
 N                    -0.724     1.736     2.082 
 H                    -0.1       2.272     2.651 
 C                     0.054     1.037     1.052 
 H                     0.598     0.213     1.519 
 H                     0.79      1.723     0.624 
 C                    -0.795     0.531    -0.009 
 H                    -1.465     1.284    -0.43 
 H                    -1.554    -0.21      0.252 
 C                    -0.001    -0.174    -1.024 
 N                     0.221     0.518    -2.168 
 C                     1.007    -0.171    -3.034 
 H                     1.09      0.372    -3.973 
 C                     1.568    -1.396    -2.795 
 H                     2.241    -1.855    -3.516 
 C                     1.296    -2.069    -1.589 
 H                     1.854    -2.975    -1.368 
 C                     0.375    -1.476    -0.762 
 H                     0.127    -1.946     0.187 
 H                    -1.369     2.356     1.636 
 
 ITRead=  0  0  0  0  0  0  0  0  0  0  0  0  0  0  0  0  0  0  0  0
 ITRead=  0  0  0
 MicOpt= -1 -1 -1 -1 -1 -1 -1 -1 -1 -1 -1 -1 -1 -1 -1 -1 -1 -1 -1 -1
 MicOpt= -1 -1 -1
 NAtoms=     23 NQM=       23 NQMF=       0 NMMI=      0 NMMIF=      0
                NMic=       0 NMicF=      0.
                    Isotopes and Nuclear Properties:
 (Nuclear quadrupole moments (NQMom) in fm**2, nuclear magnetic moments (NMagM)
  in nuclear magnetons)

  Atom         1           2           3           4           5           6           7           8           9          10
 IAtWgt=          12           1           1           1          14           1          12           1           1          12
 AtmWgt=  12.0000000   1.0078250   1.0078250   1.0078250  14.0030740   1.0078250  12.0000000   1.0078250   1.0078250  12.0000000
 NucSpn=           0           1           1           1           2           1           0           1           1           0
 AtZEff=  -0.0000000  -0.0000000  -0.0000000  -0.0000000  -0.0000000  -0.0000000  -0.0000000  -0.0000000  -0.0000000  -0.0000000
 NQMom=    0.0000000   0.0000000   0.0000000   0.0000000   2.0440000   0.0000000   0.0000000   0.0000000   0.0000000   0.0000000
 NMagM=    0.0000000   2.7928460   2.7928460   2.7928460   0.4037610   2.7928460   0.0000000   2.7928460   2.7928460   0.0000000
 AtZNuc=   6.0000000   1.0000000   1.0000000   1.0000000   7.0000000   1.0000000   6.0000000   1.0000000   1.0000000   6.0000000

  Atom        11          12          13          14          15          16          17          18          19          20
 IAtWgt=           1           1          12          14          12           1          12           1          12           1
 AtmWgt=   1.0078250   1.0078250  12.0000000  14.0030740  12.0000000   1.0078250  12.0000000   1.0078250  12.0000000   1.0078250
 NucSpn=           1           1           0           2           0           1           0           1           0           1
 AtZEff=  -0.0000000  -0.0000000  -0.0000000  -0.0000000  -0.0000000  -0.0000000  -0.0000000  -0.0000000  -0.0000000  -0.0000000
 NQMom=    0.0000000   0.0000000   0.0000000   2.0440000   0.0000000   0.0000000   0.0000000   0.0000000   0.0000000   0.0000000
 NMagM=    2.7928460   2.7928460   0.0000000   0.4037610   0.0000000   2.7928460   0.0000000   2.7928460   0.0000000   2.7928460
 AtZNuc=   1.0000000   1.0000000   6.0000000   7.0000000   6.0000000   1.0000000   6.0000000   1.0000000   6.0000000   1.0000000

  Atom        21          22          23
 IAtWgt=          12           1           1
 AtmWgt=  12.0000000   1.0078250   1.0078250
 NucSpn=           0           1           1
 AtZEff=  -0.0000000  -0.0000000  -0.0000000
 NQMom=    0.0000000   0.0000000   0.0000000
 NMagM=    0.0000000   2.7928460   2.7928460
 AtZNuc=   6.0000000   1.0000000   1.0000000
 Leave Link  101 at Sun Jul 18 13:37:02 2021, MaxMem=   104857600 cpu:               0.5 elap:               0.1
 (Enter /prod/apps/gaussian/g16b1/l103.exe)

 GradGradGradGradGradGradGradGradGradGradGradGradGradGradGradGradGradGrad
 Berny optimization.
 Initialization pass.
                           ----------------------------
                           !    Initial Parameters    !
                           ! (Angstroms and Degrees)  !
 --------------------------                            --------------------------
 ! Name  Definition              Value          Derivative Info.                !
 --------------------------------------------------------------------------------
 ! R1    R(1,2)                  1.0927         estimate D2E/DX2                !
 ! R2    R(1,3)                  1.093          estimate D2E/DX2                !
 ! R3    R(1,4)                  1.0925         estimate D2E/DX2                !
 ! R4    R(1,5)                  1.4907         estimate D2E/DX2                !
 ! R5    R(5,6)                  1.0002         estimate D2E/DX2                !
 ! R6    R(5,7)                  1.4679         estimate D2E/DX2                !
 ! R7    R(5,23)                 0.9997         estimate D2E/DX2                !
 ! R8    R(7,8)                  1.0922         estimate D2E/DX2                !
 ! R9    R(7,9)                  1.0934         estimate D2E/DX2                !
 ! R10   R(7,10)                 1.45           estimate D2E/DX2                !
 ! R11   R(10,11)                1.0923         estimate D2E/DX2                !
 ! R12   R(10,12)                1.0924         estimate D2E/DX2                !
 ! R13   R(10,13)                1.4689         estimate D2E/DX2                !
 ! R14   R(13,14)                1.3553         estimate D2E/DX2                !
 ! R15   R(13,21)                1.3803         estimate D2E/DX2                !
 ! R16   R(14,15)                1.3574         estimate D2E/DX2                !
 ! R17   R(15,16)                1.0879         estimate D2E/DX2                !
 ! R18   R(15,17)                1.3684         estimate D2E/DX2                !
 ! R19   R(17,18)                1.0879         estimate D2E/DX2                !
 ! R20   R(17,19)                1.4076         estimate D2E/DX2                !
 ! R21   R(19,20)                1.0868         estimate D2E/DX2                !
 ! R22   R(19,21)                1.3725         estimate D2E/DX2                !
 ! R23   R(21,22)                1.0877         estimate D2E/DX2                !
 ! A1    A(2,1,3)              103.1257         estimate D2E/DX2                !
 ! A2    A(2,1,4)              108.8964         estimate D2E/DX2                !
 ! A3    A(2,1,5)              109.9815         estimate D2E/DX2                !
 ! A4    A(3,1,4)              114.7833         estimate D2E/DX2                !
 ! A5    A(3,1,5)              105.5466         estimate D2E/DX2                !
 ! A6    A(4,1,5)              113.9209         estimate D2E/DX2                !
 ! A7    A(1,5,6)              108.9431         estimate D2E/DX2                !
 ! A8    A(1,5,7)              112.218          estimate D2E/DX2                !
 ! A9    A(1,5,23)             108.9169         estimate D2E/DX2                !
 ! A10   A(6,5,7)              108.8866         estimate D2E/DX2                !
 ! A11   A(6,5,23)             108.9032         estimate D2E/DX2                !
 ! A12   A(7,5,23)             108.9199         estimate D2E/DX2                !
 ! A13   A(5,7,8)              108.8566         estimate D2E/DX2                !
 ! A14   A(5,7,9)              109.431          estimate D2E/DX2                !
 ! A15   A(5,7,10)             111.6708         estimate D2E/DX2                !
 ! A16   A(8,7,9)              107.784          estimate D2E/DX2                !
 ! A17   A(8,7,10)             109.9505         estimate D2E/DX2                !
 ! A18   A(9,7,10)             109.0654         estimate D2E/DX2                !
 ! A19   A(7,10,11)            113.6154         estimate D2E/DX2                !
 ! A20   A(7,10,12)            117.9504         estimate D2E/DX2                !
 ! A21   A(7,10,13)            110.8916         estimate D2E/DX2                !
 ! A22   A(11,10,12)            97.6733         estimate D2E/DX2                !
 ! A23   A(11,10,13)           113.334          estimate D2E/DX2                !
 ! A24   A(12,10,13)           102.4217         estimate D2E/DX2                !
 ! A25   A(10,13,14)           115.2608         estimate D2E/DX2                !
 ! A26   A(10,13,21)           117.957          estimate D2E/DX2                !
 ! A27   A(14,13,21)           126.6709         estimate D2E/DX2                !
 ! A28   A(13,14,15)           111.9749         estimate D2E/DX2                !
 ! A29   A(14,15,16)           109.9687         estimate D2E/DX2                !
 ! A30   A(14,15,17)           125.477          estimate D2E/DX2                !
 ! A31   A(16,15,17)           124.4939         estimate D2E/DX2                !
 ! A32   A(15,17,18)           121.0366         estimate D2E/DX2                !
 ! A33   A(15,17,19)           119.8969         estimate D2E/DX2                !
 ! A34   A(18,17,19)           119.0554         estimate D2E/DX2                !
 ! A35   A(17,19,20)           118.2687         estimate D2E/DX2                !
 ! A36   A(17,19,21)           116.0616         estimate D2E/DX2                !
 ! A37   A(20,19,21)           125.6054         estimate D2E/DX2                !
 ! A38   A(13,21,19)           118.4221         estimate D2E/DX2                !
 ! A39   A(13,21,22)           120.7379         estimate D2E/DX2                !
 ! A40   A(19,21,22)           119.4741         estimate D2E/DX2                !
 ! D1    D(2,1,5,6)            170.6518         estimate D2E/DX2                !
 ! D2    D(2,1,5,7)            -68.6931         estimate D2E/DX2                !
 ! D3    D(2,1,5,23)            51.986          estimate D2E/DX2                !
 ! D4    D(3,1,5,6)             60.0443         estimate D2E/DX2                !
 ! D5    D(3,1,5,7)           -179.3007         estimate D2E/DX2                !
 ! D6    D(3,1,5,23)           -58.6215         estimate D2E/DX2                !
 ! D7    D(4,1,5,6)            -66.7823         estimate D2E/DX2                !
 ! D8    D(4,1,5,7)             53.8728         estimate D2E/DX2                !
 ! D9    D(4,1,5,23)           174.552          estimate D2E/DX2                !
 ! D10   D(1,5,7,8)            -47.1871         estimate D2E/DX2                !
 ! D11   D(1,5,7,9)           -164.7502         estimate D2E/DX2                !
 ! D12   D(1,5,7,10)            74.3932         estimate D2E/DX2                !
 ! D13   D(6,5,7,8)             73.5007         estimate D2E/DX2                !
 ! D14   D(6,5,7,9)            -44.0624         estimate D2E/DX2                !
 ! D15   D(6,5,7,10)          -164.9191         estimate D2E/DX2                !
 ! D16   D(23,5,7,8)          -167.8645         estimate D2E/DX2                !
 ! D17   D(23,5,7,9)            74.5724         estimate D2E/DX2                !
 ! D18   D(23,5,7,10)          -46.2842         estimate D2E/DX2                !
 ! D19   D(5,7,10,11)           51.4333         estimate D2E/DX2                !
 ! D20   D(5,7,10,12)          -61.9547         estimate D2E/DX2                !
 ! D21   D(5,7,10,13)         -179.5466         estimate D2E/DX2                !
 ! D22   D(8,7,10,11)          172.3789         estimate D2E/DX2                !
 ! D23   D(8,7,10,12)           58.9909         estimate D2E/DX2                !
 ! D24   D(8,7,10,13)          -58.601          estimate D2E/DX2                !
 ! D25   D(9,7,10,11)          -69.6362         estimate D2E/DX2                !
 ! D26   D(9,7,10,12)          176.9759         estimate D2E/DX2                !
 ! D27   D(9,7,10,13)           59.3839         estimate D2E/DX2                !
 ! D28   D(7,10,13,14)        -103.091          estimate D2E/DX2                !
 ! D29   D(7,10,13,21)          80.4863         estimate D2E/DX2                !
 ! D30   D(11,10,13,14)         26.0795         estimate D2E/DX2                !
 ! D31   D(11,10,13,21)       -150.3432         estimate D2E/DX2                !
 ! D32   D(12,10,13,14)        130.1974         estimate D2E/DX2                !
 ! D33   D(12,10,13,21)        -46.2253         estimate D2E/DX2                !
 ! D34   D(10,13,14,15)        177.3687         estimate D2E/DX2                !
 ! D35   D(21,13,14,15)         -6.5714         estimate D2E/DX2                !
 ! D36   D(10,13,21,19)       -169.287          estimate D2E/DX2                !
 ! D37   D(10,13,21,22)         -2.6981         estimate D2E/DX2                !
 ! D38   D(14,13,21,19)         14.7472         estimate D2E/DX2                !
 ! D39   D(14,13,21,22)       -178.6638         estimate D2E/DX2                !
 ! D40   D(13,14,15,16)        174.891          estimate D2E/DX2                !
 ! D41   D(13,14,15,17)         -2.3798         estimate D2E/DX2                !
 ! D42   D(14,15,17,18)       -175.9316         estimate D2E/DX2                !
 ! D43   D(14,15,17,19)          2.8472         estimate D2E/DX2                !
 ! D44   D(16,15,17,18)          7.181          estimate D2E/DX2                !
 ! D45   D(16,15,17,19)       -174.0402         estimate D2E/DX2                !
 ! D46   D(15,17,19,20)       -172.0947         estimate D2E/DX2                !
 ! D47   D(15,17,19,21)          5.1541         estimate D2E/DX2                !
 ! D48   D(18,17,19,20)          6.7084         estimate D2E/DX2                !
 ! D49   D(18,17,19,21)       -176.0429         estimate D2E/DX2                !
 ! D50   D(17,19,21,13)        -12.9033         estimate D2E/DX2                !
 ! D51   D(17,19,21,22)       -179.6658         estimate D2E/DX2                !
 ! D52   D(20,19,21,13)        164.1162         estimate D2E/DX2                !
 ! D53   D(20,19,21,22)         -2.6463         estimate D2E/DX2                !
 --------------------------------------------------------------------------------
 Trust Radius=3.00D-01 FncErr=1.00D-07 GrdErr=1.00D-06 EigMax=2.50D+02 EigMin=1.00D-04
 Number of steps in this run=    126 maximum allowed number of steps=    138.
 GradGradGradGradGradGradGradGradGradGradGradGradGradGradGradGradGradGrad

 Leave Link  103 at Sun Jul 18 13:37:02 2021, MaxMem=   104857600 cpu:               0.1 elap:               0.0
 (Enter /prod/apps/gaussian/g16b1/l202.exe)
                          Input orientation:                          
 ---------------------------------------------------------------------
 Center     Atomic      Atomic             Coordinates (Angstroms)
 Number     Number       Type             X           Y           Z
 ---------------------------------------------------------------------
      1          6           0       -1.483000    0.793000    2.952000
      2          1           0       -2.283000    0.318000    2.379000
      3          1           0       -2.026000    1.422000    3.662000
      4          1           0       -0.865000    0.016000    3.408000
      5          7           0       -0.724000    1.736000    2.082000
      6          1           0       -0.100000    2.272000    2.651000
      7          6           0        0.054000    1.037000    1.052000
      8          1           0        0.598000    0.213000    1.519000
      9          1           0        0.790000    1.723000    0.624000
     10          6           0       -0.795000    0.531000   -0.009000
     11          1           0       -1.465000    1.284000   -0.430000
     12          1           0       -1.554000   -0.210000    0.252000
     13          6           0       -0.001000   -0.174000   -1.024000
     14          7           0        0.221000    0.518000   -2.168000
     15          6           0        1.007000   -0.171000   -3.034000
     16          1           0        1.090000    0.372000   -3.973000
     17          6           0        1.568000   -1.396000   -2.795000
     18          1           0        2.241000   -1.855000   -3.516000
     19          6           0        1.296000   -2.069000   -1.589000
     20          1           0        1.854000   -2.975000   -1.368000
     21          6           0        0.375000   -1.476000   -0.762000
     22          1           0        0.127000   -1.946000    0.187000
     23          1           0       -1.369000    2.356000    1.636000
 ---------------------------------------------------------------------
                    Distance matrix (angstroms):
                    1          2          3          4          5
     1  C    0.000000
     2  H    1.092682   0.000000
     3  H    1.092973   1.712003   0.000000
     4  H    1.092515   1.777855   1.840998   0.000000
     5  N    1.490715   2.128242   2.071280   2.176363   0.000000
     6  H    2.047127   2.942378   2.335401   2.499562   1.000216
     7  C    2.455994   2.781988   3.359572   2.727222   1.467919
     8  H    2.592383   3.008452   3.597152   2.397394   2.093844
     9  H    3.383935   3.807542   4.153300   3.661083   2.101935
    10  C    3.051149   2.821712   3.973095   3.456301   2.414404
    11  H    3.417503   3.081032   4.132581   4.086327   2.657730
    12  H    2.881154   2.309622   3.809765   3.238230   2.797269
    13  C    4.352010   4.126742   5.348499   4.519427   3.717266
    14  N    5.403114   5.194731   6.313092   5.702909   4.520957
    15  C    6.554509   6.353250   7.521513   6.711089   5.727693
    16  H    7.399540   7.192214   8.312953   7.643816   6.466384
    17  C    6.865008   6.673700   7.908907   6.811053   6.232802
    18  H    7.919287   7.742062   8.970491   7.815987   7.281766
    19  C    6.044383   5.852524   7.127115   5.829850   5.659917
    20  H    6.632932   6.480635   7.725860   6.256934   6.382954
    21  C    4.732264   4.488795   5.808182   4.599192   4.428666
    22  H    4.211822   3.967198   5.296646   3.899788   4.227570
    23  H    2.046417   2.353909   2.325657   2.978187   0.999670
                    6          7          8          9         10
     6  H    0.000000
     7  C    2.026263   0.000000
     8  H    2.451144   1.092246   0.000000
     9  H    2.280840   1.093378   1.765783   0.000000
    10  C    3.254183   1.450020   2.091974   2.081773   0.000000
    11  H    3.511685   2.136514   3.033416   2.527580   1.092314
    12  H    3.745616   2.186475   2.532849   3.060916   1.092375
    13  C    4.415693   2.404022   2.641102   2.634425   1.468906
    14  N    5.138319   3.265831   3.718753   3.093711   2.386149
    15  C    6.285931   4.366105   4.587433   4.124959   3.590353
    16  H    6.993102   5.173601   5.516286   4.800793   4.392243
    17  C    6.774612   4.796988   4.705356   4.692868   4.130241
    18  H    7.781022   5.832089   5.685710   5.661014   5.216257
    19  C    6.226612   4.262004   3.918468   4.419578   3.691704
    20  H    6.892132   5.019217   4.480586   5.212616   4.599578
    21  C    5.091336   3.115896   2.847000   3.510957   2.442122
    22  H    4.890230   3.106742   2.580183   3.753944   2.650288
    23  H    1.627158   2.026264   2.911224   2.467005   2.523118
                   11         12         13         14         15
    11  H    0.000000
    12  H    1.644713   0.000000
    13  C    2.149860   2.010294   0.000000
    14  N    2.539684   3.088205   1.355317   0.000000
    15  C    3.874097   4.166298   2.248594   1.357377   0.000000
    16  H    4.462356   5.017976   3.191394   2.008607   1.087869
    17  C    4.687719   4.520806   2.662984   2.423001   1.368381
    18  H    5.754229   5.595165   3.749985   3.395384   2.142647
    19  C    4.495443   3.868806   2.364838   2.860670   2.402904
    20  H    5.480391   4.678043   3.377123   3.937987   3.369775
    21  C    3.333680   2.520316   1.380299   2.444706   2.695261
    22  H    3.653499   2.417371   2.150090   3.409715   3.781516
    23  H    2.329540   2.921307   3.917643   4.514062   5.817216
                   16         17         18         19         20
    16  H    0.000000
    17  C    2.177612   0.000000
    18  H    2.548172   1.087865   0.000000
    19  C    3.418241   1.407604   2.156884   0.000000
    20  H    4.309539   2.147409   2.453176   1.086757   0.000000
    21  C    3.773175   2.358546   3.348151   1.372523   2.191273
    22  H    4.858610   3.357276   4.264913   2.129757   2.541534
    23  H    6.437687   6.506707   7.570187   6.089620   6.916018
                   21         22         23
    21  C    0.000000
    22  H    1.087660   0.000000
    23  H    4.845221   4.779626   0.000000
 Stoichiometry    C8H13N2(1+)
 Framework group  C1[X(C8H13N2)]
 Deg. of freedom    63
 Full point group                 C1      NOp   1
 Largest Abelian subgroup         C1      NOp   1
 Largest concise Abelian subgroup C1      NOp   1
                         Standard orientation:                         
 ---------------------------------------------------------------------
 Center     Atomic      Atomic             Coordinates (Angstroms)
 Number     Number       Type             X           Y           Z
 ---------------------------------------------------------------------
      1          6           0        3.641110    0.690023   -0.275217
      2          1           0        3.279150    0.734846   -1.305232
      3          1           0        4.691582    0.412195   -0.393154
      4          1           0        3.474366    1.659095    0.200897
      5          7           0        3.003529   -0.452285    0.439522
      6          1           0        3.453750   -0.573645    1.324399
      7          6           0        1.568701   -0.236563    0.662047
      8          1           0        1.420580    0.769683    1.060204
      9          1           0        1.205411   -0.947953    1.408654
     10          6           0        0.806433   -0.402157   -0.560280
     11          1           0        1.012597   -1.340042   -1.080874
     12          1           0        1.017358    0.275169   -1.390957
     13          6           0       -0.624405   -0.172138   -0.320531
     14          7           0       -1.385641   -1.291037   -0.246578
     15          6           0       -2.682873   -1.005269    0.032701
     16          1           0       -3.279813   -1.913967   -0.004565
     17          6           0       -3.187833    0.244523    0.268296
     18          1           0       -4.229119    0.384763    0.550264
     19          6           0       -2.348247    1.370169    0.171522
     20          1           0       -2.739483    2.332931    0.489428
     21          6           0       -1.070359    1.133144   -0.269658
     22          1           0       -0.372893    1.962825   -0.360083
     23          1           0        3.126126   -1.283023   -0.102867
 ---------------------------------------------------------------------
 Rotational constants (GHZ):           3.7398425           0.6494463           0.5887204
 Leave Link  202 at Sun Jul 18 13:37:02 2021, MaxMem=   104857600 cpu:               0.0 elap:               0.0
 (Enter /prod/apps/gaussian/g16b1/l301.exe)
 Standard basis: 6-31G(d) (6D, 7F)
 Ernie: Thresh=  0.10000D-02 Tol=  0.10000D-05 Strict=F.
 There are   176 symmetry adapted cartesian basis functions of A   symmetry.
 There are   176 symmetry adapted basis functions of A   symmetry.
   176 basis functions,   332 primitive gaussians,   176 cartesian basis functions
    37 alpha electrons       37 beta electrons
       nuclear repulsion energy       518.0498459210 Hartrees.
 IExCor=  402 DFT=T Ex+Corr=B3LYP ExCW=0 ScaHFX=  0.200000
 ScaDFX=  0.800000  0.720000  1.000000  0.810000 ScalE2=  1.000000  1.000000
 IRadAn=      5 IRanWt=     -1 IRanGd=            0 ICorTp=0 IEmpDi=  4
 NAtoms=   23 NActive=   23 NUniq=   23 SFac= 1.00D+00 NAtFMM=   60 NAOKFM=F Big=F
 Integral buffers will be    131072 words long.
 Raffenetti 2 integral format.
 Two-electron integral symmetry is turned on.
 Using the following non-standard input for PCM:
 MSTModel=DFT cav MSTCharged
 --- end of non-standard input.
 MST model for solvation energy: B3LYP parametrization.
 MST cavity parameters:
 ISph   IAn     Re0     Alpha   Atom Type   QCorr
 ------------------------------------------------
   1      6     1.50     1.25      CH3        F
   2      1     1.20     1.25      CH3        F
   3      1     1.20     1.25      CH3        F
   4      1     1.20     1.25      CH3        F
   5      7     1.55     1.15      NH         T
   6      1     0.90     1.15      NH         T
   7      6     1.50     1.25      CH2        F
   8      1     1.20     1.25      CH2        F
   9      1     1.20     1.25      CH2        F
  10      6     1.50     1.25      CH2        F
  11      1     1.20     1.25      CH2        F
  12      1     1.20     1.25      CH2        F
  13      6     1.50     1.25      C          F
  14      7     1.40     1.25      N          F
  15      6     1.50     1.25      CH         F
  16      1     1.20     1.25      CH         F
  17      6     1.50     1.25      CH         F
  18      1     1.20     1.25      CH         F
  19      6     1.50     1.25      CH         F
  20      1     1.20     1.25      CH         F
  21      6     1.50     1.25      CH         F
  22      1     1.20     1.25      CH         F
  23      1     0.90     1.15      NH         T
 ------------------------------------------------------------------------------
 Polarizable Continuum Model (PCM)
 =================================
 Model                : PCM.
 Atomic radii         : MST.
 Polarization charges : Total charges.
 Charge compensation  : None.
 Solution method      : On-the-fly selection.
 Cavity type          : Scaled VdW (van der Waals Surface) (Alpha=1.250).
 Cavity algorithm     : GePol (No added spheres)
                        Default sphere list used, NSphG=   23.
                        Lebedev-Laikov grids with approx.  5.0 points / Ang**2.
                        Smoothing algorithm: York/Karplus (Gamma=1.0000).
                        Polarization charges: spherical gaussians, with
                                              point-specific exponents (IZeta= 3).
                        Self-potential: point-specific (ISelfS= 7).
                        Self-field    : sphere-specific E.n sum rule (ISelfD= 2).
 1st derivatives      : Analytical E(r).r(x)/FMM algorithm (CHGder, D1EAlg=3).
                        Cavity 1st derivative terms included.
 Solvent              : Water, Eps=  78.355300 Eps(inf)=   1.777849
 ------------------------------------------------------------------------------
 GePol: Number of generator spheres                  =      23
 GePol: Total number of spheres                      =      23
 GePol: Number of exposed spheres                    =      23 (100.00%)
 GePol: Number of points                             =    1661
 GePol: Average weight of points                     =       0.13
 GePol: Minimum weight of points                     =   0.66D-09
 GePol: Maximum weight of points                     =    0.22001
 GePol: Number of points with low weight             =     120
 GePol: Fraction of low-weight points (<1% of avg)   =       7.22%
 GePol: Cavity surface area                          =    208.696 Ang**2
 GePol: Cavity volume                                =    186.648 Ang**3
 PCM non-electrostatic energy =         0.0013257450 Hartrees.
 Nuclear repulsion after PCM non-electrostatic terms =      518.0511716660 Hartrees.
 Leave Link  301 at Sun Jul 18 13:37:02 2021, MaxMem=   104857600 cpu:               0.3 elap:               0.1
 (Enter /prod/apps/gaussian/g16b1/l302.exe)
 NPDir=0 NMtPBC=     1 NCelOv=     1 NCel=       1 NClECP=     1 NCelD=      1
         NCelK=      1 NCelE2=     1 NClLst=     1 CellRange=     0.0.
 One-electron integrals computed using PRISM.
 One-electron integral symmetry used in STVInt
 NBasis=   176 RedAO= T EigKep=  9.44D-04  NBF=   176
 NBsUse=   176 1.00D-06 EigRej= -1.00D+00 NBFU=   176
 Precomputing XC quadrature grid using
 IXCGrd= 4 IRadAn=           5 IRanWt=          -1 IRanGd=           0 AccXCQ= 0.00D+00.
 Generated NRdTot=       0 NPtTot=           0 NUsed=           0 NTot=          32
 NSgBfM=   176   176   176   176   176 MxSgAt=    23 MxSgA2=    23.
 Leave Link  302 at Sun Jul 18 13:37:02 2021, MaxMem=   104857600 cpu:               0.9 elap:               0.2
 (Enter /prod/apps/gaussian/g16b1/l303.exe)
 DipDrv:  MaxL=1.
 Leave Link  303 at Sun Jul 18 13:37:03 2021, MaxMem=   104857600 cpu:               0.1 elap:               0.0
 (Enter /prod/apps/gaussian/g16b1/l401.exe)
 ExpMin= 1.61D-01 ExpMax= 4.17D+03 ExpMxC= 6.27D+02 IAcc=3 IRadAn=         5 AccDes= 0.00D+00
 Harris functional with IExCor=  402 and IRadAn=       5 diagonalized for initial guess.
 HarFok:  IExCor=  402 AccDes= 0.00D+00 IRadAn=         5 IDoV= 1 UseB2=F ITyADJ=14
 ICtDFT=  3500011 ScaDFX=  1.000000  1.000000  1.000000  1.000000
 FoFCou: FMM=F IPFlag=           0 FMFlag=      100000 FMFlg1=           0
         NFxFlg=           0 DoJE=T BraDBF=F KetDBF=T FulRan=T
         wScrn=  0.000000 ICntrl=       500 IOpCl=  0 I1Cent=   200000004 NGrid=           0
         NMat0=    1 NMatS0=      1 NMatT0=    0 NMatD0=    1 NMtDS0=    0 NMtDT0=    0
 Petite list used in FoFCou.
 Harris En= -421.949746048944    
 JPrj=0 DoOrth=F DoCkMO=F.
 Leave Link  401 at Sun Jul 18 13:37:04 2021, MaxMem=   104857600 cpu:               4.0 elap:               1.0
 (Enter /prod/apps/gaussian/g16b1/l502.exe)
 Integral symmetry usage will be decided dynamically.
 Closed shell SCF:
 Using DIIS extrapolation, IDIIS=  1040.
 NGot=   104857600 LenX=   104792415 LenY=   104760998
 Requested convergence on RMS density matrix=1.00D-08 within 128 cycles.
 Requested convergence on MAX density matrix=1.00D-06.
 Requested convergence on             energy=1.00D-06.
 No special actions if energy rises.
 Fock matrices will be formed incrementally for  20 cycles.

 Cycle   1  Pass 1  IDiag  1:
 FoFJK:  IHMeth= 1 ICntrl=       0 DoSepK=F KAlg= 0 I1Cent=           0 FoldK=F
 IRaf= 910000000 NMat=       1 IRICut=       1 DoRegI=T DoRafI=F ISym2E= 0 IDoP0=0 IntGTp=1.
 FoFCou: FMM=F IPFlag=           0 FMFlag=      100000 FMFlg1=           0
         NFxFlg=           0 DoJE=F BraDBF=F KetDBF=F FulRan=T
         wScrn=  0.000000 ICntrl=         0 IOpCl=  0 I1Cent=           0 NGrid=           0
         NMat0=    1 NMatS0=      1 NMatT0=    0 NMatD0=    1 NMtDS0=    0 NMtDT0=    0
 Symmetry not used in FoFCou.
 Inv3:  Mode=1 IEnd=     8276763.
 Iteration    1 A*A^-1 deviation from unit magnitude is 3.77D-15 for    588.
 Iteration    1 A*A^-1 deviation from orthogonality  is 2.37D-15 for    985     37.
 Iteration    1 A^-1*A deviation from unit magnitude is 3.11D-15 for    768.
 Iteration    1 A^-1*A deviation from orthogonality  is 2.99D-14 for   1434   1426.
 E= -421.833528650293    
 DIIS: error= 2.83D-02 at cycle   1 NSaved=   1.
 NSaved= 1 IEnMin= 1 EnMin= -421.833528650293     IErMin= 1 ErrMin= 2.83D-02
 ErrMax= 2.83D-02  0.00D+00 EMaxC= 1.00D-01 BMatC= 1.85D-01 BMatP= 1.85D-01
 IDIUse=3 WtCom= 7.17D-01 WtEn= 2.83D-01
 Coeff-Com:  0.100D+01
 Coeff-En:   0.100D+01
 Coeff:      0.100D+01
 Gap=     0.224 Goal=   None    Shift=    0.000
 GapD=    0.224 DampG=1.000 DampE=0.500 DampFc=0.5000 IDamp=-1.
 Damping current iteration by 5.00D-01
 RMSDP=5.09D-03 MaxDP=1.22D-01              OVMax= 1.46D-01

 Cycle   2  Pass 1  IDiag  1:
 RMSU=  2.47D-03    CP:  9.75D-01
 E= -421.929736029896     Delta-E=       -0.096207379603 Rises=F Damp=T
 DIIS: error= 6.08D-03 at cycle   2 NSaved=   2.
 NSaved= 2 IEnMin= 2 EnMin= -421.929736029896     IErMin= 2 ErrMin= 6.08D-03
 ErrMax= 6.08D-03  0.00D+00 EMaxC= 1.00D-01 BMatC= 1.08D-02 BMatP= 1.85D-01
 IDIUse=3 WtCom= 9.39D-01 WtEn= 6.08D-02
 Coeff-Com: -0.392D-01 0.104D+01
 Coeff-En:   0.000D+00 0.100D+01
 Coeff:     -0.368D-01 0.104D+01
 Gap=     0.228 Goal=   None    Shift=    0.000
 RMSDP=1.10D-03 MaxDP=2.55D-02 DE=-9.62D-02 OVMax= 8.64D-02

 Cycle   3  Pass 1  IDiag  1:
 RMSU=  1.07D-03    CP:  9.69D-01  1.07D+00
 E= -422.024186564063     Delta-E=       -0.094450534167 Rises=F Damp=F
 DIIS: error= 3.22D-03 at cycle   3 NSaved=   3.
 NSaved= 3 IEnMin= 3 EnMin= -422.024186564063     IErMin= 3 ErrMin= 3.22D-03
 ErrMax= 3.22D-03  0.00D+00 EMaxC= 1.00D-01 BMatC= 3.06D-03 BMatP= 1.08D-02
 IDIUse=3 WtCom= 9.68D-01 WtEn= 3.22D-02
 Coeff-Com: -0.535D-01 0.340D+00 0.714D+00
 Coeff-En:   0.000D+00 0.000D+00 0.100D+01
 Coeff:     -0.518D-01 0.329D+00 0.723D+00
 Gap=     0.226 Goal=   None    Shift=    0.000
 RMSDP=4.85D-04 MaxDP=1.35D-02 DE=-9.45D-02 OVMax= 3.32D-02

 Cycle   4  Pass 1  IDiag  1:
 RMSU=  4.11D-04    CP:  9.70D-01  1.07D+00  7.60D-01
 E= -422.025777789093     Delta-E=       -0.001591225030 Rises=F Damp=F
 DIIS: error= 2.74D-03 at cycle   4 NSaved=   4.
 NSaved= 4 IEnMin= 4 EnMin= -422.025777789093     IErMin= 4 ErrMin= 2.74D-03
 ErrMax= 2.74D-03  0.00D+00 EMaxC= 1.00D-01 BMatC= 1.37D-03 BMatP= 3.06D-03
 IDIUse=3 WtCom= 9.73D-01 WtEn= 2.74D-02
 Coeff-Com: -0.260D-01 0.101D+00 0.431D+00 0.495D+00
 Coeff-En:   0.000D+00 0.000D+00 0.325D+00 0.675D+00
 Coeff:     -0.253D-01 0.978D-01 0.428D+00 0.500D+00
 Gap=     0.227 Goal=   None    Shift=    0.000
 RMSDP=2.56D-04 MaxDP=9.53D-03 DE=-1.59D-03 OVMax= 1.62D-02

 Cycle   5  Pass 1  IDiag  1:
 RMSU=  1.05D-04    CP:  9.69D-01  1.09D+00  8.42D-01  4.85D-01
 E= -422.027078950450     Delta-E=       -0.001301161357 Rises=F Damp=F
 DIIS: error= 6.12D-04 at cycle   5 NSaved=   5.
 NSaved= 5 IEnMin= 5 EnMin= -422.027078950450     IErMin= 5 ErrMin= 6.12D-04
 ErrMax= 6.12D-04  0.00D+00 EMaxC= 1.00D-01 BMatC= 7.96D-05 BMatP= 1.37D-03
 IDIUse=3 WtCom= 9.94D-01 WtEn= 6.12D-03
 Coeff-Com: -0.828D-02 0.218D-01 0.162D+00 0.264D+00 0.561D+00
 Coeff-En:   0.000D+00 0.000D+00 0.000D+00 0.000D+00 0.100D+01
 Coeff:     -0.823D-02 0.216D-01 0.161D+00 0.262D+00 0.564D+00
 Gap=     0.226 Goal=   None    Shift=    0.000
 RMSDP=5.35D-05 MaxDP=2.36D-03 DE=-1.30D-03 OVMax= 4.13D-03

 Cycle   6  Pass 1  IDiag  1:
 RMSU=  2.97D-05    CP:  9.69D-01  1.09D+00  8.38D-01  5.44D-01  6.44D-01
 E= -422.027146638907     Delta-E=       -0.000067688456 Rises=F Damp=F
 DIIS: error= 1.15D-04 at cycle   6 NSaved=   6.
 NSaved= 6 IEnMin= 6 EnMin= -422.027146638907     IErMin= 6 ErrMin= 1.15D-04
 ErrMax= 1.15D-04  0.00D+00 EMaxC= 1.00D-01 BMatC= 7.50D-06 BMatP= 7.96D-05
 IDIUse=3 WtCom= 9.99D-01 WtEn= 1.15D-03
 Coeff-Com: -0.260D-02 0.443D-02 0.548D-01 0.105D+00 0.310D+00 0.528D+00
 Coeff-En:   0.000D+00 0.000D+00 0.000D+00 0.000D+00 0.000D+00 0.100D+01
 Coeff:     -0.260D-02 0.443D-02 0.547D-01 0.104D+00 0.310D+00 0.529D+00
 Gap=     0.226 Goal=   None    Shift=    0.000
 RMSDP=1.36D-05 MaxDP=5.01D-04 DE=-6.77D-05 OVMax= 7.43D-04

 Cycle   7  Pass 1  IDiag  1:
 RMSU=  6.00D-06    CP:  9.69D-01  1.09D+00  8.42D-01  5.46D-01  6.79D-01
                    CP:  6.31D-01
 E= -422.027153082872     Delta-E=       -0.000006443966 Rises=F Damp=F
 DIIS: error= 1.80D-05 at cycle   7 NSaved=   7.
 NSaved= 7 IEnMin= 7 EnMin= -422.027153082872     IErMin= 7 ErrMin= 1.80D-05
 ErrMax= 1.80D-05  0.00D+00 EMaxC= 1.00D-01 BMatC= 1.53D-07 BMatP= 7.50D-06
 IDIUse=1 WtCom= 1.00D+00 WtEn= 0.00D+00
 Coeff-Com: -0.803D-03 0.107D-02 0.175D-01 0.346D-01 0.111D+00 0.225D+00
 Coeff-Com:  0.612D+00
 Coeff:     -0.803D-03 0.107D-02 0.175D-01 0.346D-01 0.111D+00 0.225D+00
 Coeff:      0.612D+00
 Gap=     0.226 Goal=   None    Shift=    0.000
 RMSDP=2.77D-06 MaxDP=7.83D-05 DE=-6.44D-06 OVMax= 1.40D-04

 Cycle   8  Pass 1  IDiag  1:
 RMSU=  2.01D-06    CP:  9.69D-01  1.08D+00  8.42D-01  5.47D-01  6.84D-01
                    CP:  6.33D-01  7.13D-01
 E= -422.027153207222     Delta-E=       -0.000000124350 Rises=F Damp=F
 DIIS: error= 5.38D-06 at cycle   8 NSaved=   8.
 NSaved= 8 IEnMin= 8 EnMin= -422.027153207222     IErMin= 8 ErrMin= 5.38D-06
 ErrMax= 5.38D-06  0.00D+00 EMaxC= 1.00D-01 BMatC= 2.02D-08 BMatP= 1.53D-07
 IDIUse=1 WtCom= 1.00D+00 WtEn= 0.00D+00
 Coeff-Com: -0.581D-04-0.850D-04 0.155D-02 0.347D-02 0.144D-01 0.442D-01
 Coeff-Com:  0.296D+00 0.640D+00
 Coeff:     -0.581D-04-0.850D-04 0.155D-02 0.347D-02 0.144D-01 0.442D-01
 Coeff:      0.296D+00 0.640D+00
 Gap=     0.226 Goal=   None    Shift=    0.000
 RMSDP=8.68D-07 MaxDP=1.97D-05 DE=-1.24D-07 OVMax= 4.49D-05

 Cycle   9  Pass 1  IDiag  1:
 RMSU=  4.30D-07    CP:  9.69D-01  1.09D+00  8.42D-01  5.47D-01  6.85D-01
                    CP:  6.40D-01  7.71D-01  6.92D-01
 E= -422.027153226409     Delta-E=       -0.000000019187 Rises=F Damp=F
 DIIS: error= 1.31D-06 at cycle   9 NSaved=   9.
 NSaved= 9 IEnMin= 9 EnMin= -422.027153226409     IErMin= 9 ErrMin= 1.31D-06
 ErrMax= 1.31D-06  0.00D+00 EMaxC= 1.00D-01 BMatC= 6.87D-10 BMatP= 2.02D-08
 IDIUse=1 WtCom= 1.00D+00 WtEn= 0.00D+00
 Coeff-Com:  0.158D-04-0.803D-04-0.229D-03-0.369D-03 0.104D-03 0.661D-02
 Coeff-Com:  0.809D-01 0.240D+00 0.673D+00
 Coeff:      0.158D-04-0.803D-04-0.229D-03-0.369D-03 0.104D-03 0.661D-02
 Coeff:      0.809D-01 0.240D+00 0.673D+00
 Gap=     0.226 Goal=   None    Shift=    0.000
 RMSDP=1.85D-07 MaxDP=4.53D-06 DE=-1.92D-08 OVMax= 8.19D-06

 Cycle  10  Pass 1  IDiag  1:
 RMSU=  1.35D-07    CP:  9.69D-01  1.09D+00  8.42D-01  5.46D-01  6.85D-01
                    CP:  6.42D-01  7.76D-01  7.24D-01  8.17D-01
 E= -422.027153226933     Delta-E=       -0.000000000524 Rises=F Damp=F
 DIIS: error= 5.37D-07 at cycle  10 NSaved=  10.
 NSaved=10 IEnMin=10 EnMin= -422.027153226933     IErMin=10 ErrMin= 5.37D-07
 ErrMax= 5.37D-07  0.00D+00 EMaxC= 1.00D-01 BMatC= 1.54D-10 BMatP= 6.87D-10
 IDIUse=1 WtCom= 1.00D+00 WtEn= 0.00D+00
 Coeff-Com:  0.145D-04-0.336D-04-0.288D-03-0.588D-03-0.154D-02-0.986D-03
 Coeff-Com:  0.115D-01 0.620D-01 0.364D+00 0.566D+00
 Coeff:      0.145D-04-0.336D-04-0.288D-03-0.588D-03-0.154D-02-0.986D-03
 Coeff:      0.115D-01 0.620D-01 0.364D+00 0.566D+00
 Gap=     0.226 Goal=   None    Shift=    0.000
 RMSDP=6.39D-08 MaxDP=1.68D-06 DE=-5.24D-10 OVMax= 2.78D-06

 Cycle  11  Pass 1  IDiag  1:
 RMSU=  2.79D-08    CP:  9.69D-01  1.09D+00  8.42D-01  5.46D-01  6.85D-01
                    CP:  6.41D-01  7.77D-01  7.28D-01  8.66D-01  6.38D-01
 E= -422.027153227073     Delta-E=       -0.000000000140 Rises=F Damp=F
 DIIS: error= 6.41D-08 at cycle  11 NSaved=  11.
 NSaved=11 IEnMin=11 EnMin= -422.027153227073     IErMin=11 ErrMin= 6.41D-08
 ErrMax= 6.41D-08  0.00D+00 EMaxC= 1.00D-01 BMatC= 1.68D-12 BMatP= 1.54D-10
 IDIUse=1 WtCom= 1.00D+00 WtEn= 0.00D+00
 Coeff-Com:  0.319D-05-0.543D-05-0.639D-04-0.138D-03-0.401D-03-0.371D-03
 Coeff-Com: -0.318D-03 0.776D-02 0.665D-01 0.144D+00 0.783D+00
 Coeff:      0.319D-05-0.543D-05-0.639D-04-0.138D-03-0.401D-03-0.371D-03
 Coeff:     -0.318D-03 0.776D-02 0.665D-01 0.144D+00 0.783D+00
 Gap=     0.226 Goal=   None    Shift=    0.000
 RMSDP=9.34D-09 MaxDP=2.22D-07 DE=-1.40D-10 OVMax= 3.38D-07

 Error on total polarization charges =  0.01624
 SCF Done:  E(RB3LYP) =  -422.027153227     A.U. after   11 cycles
            NFock= 11  Conv=0.93D-08     -V/T= 2.0089
 KE= 4.183192780530D+02 PE=-2.001662958414D+03 EE= 6.432653554679D+02
 Leave Link  502 at Sun Jul 18 13:37:23 2021, MaxMem=   104857600 cpu:              79.1 elap:              19.8
 (Enter /prod/apps/gaussian/g16b1/l601.exe)
 Copying SCF densities to generalized density rwf, IOpCl= 0 IROHF=0.

 **********************************************************************

            Population analysis using the SCF Density.

 **********************************************************************

 Orbital symmetries:
       Occupied  (A) (A) (A) (A) (A) (A) (A) (A) (A) (A) (A) (A)
                 (A) (A) (A) (A) (A) (A) (A) (A) (A) (A) (A) (A)
                 (A) (A) (A) (A) (A) (A) (A) (A) (A) (A) (A) (A)
                 (A)
       Virtual   (A) (A) (A) (A) (A) (A) (A) (A) (A) (A) (A) (A)
                 (A) (A) (A) (A) (A) (A) (A) (A) (A) (A) (A) (A)
                 (A) (A) (A) (A) (A) (A) (A) (A) (A) (A) (A) (A)
                 (A) (A) (A) (A) (A) (A) (A) (A) (A) (A) (A) (A)
                 (A) (A) (A) (A) (A) (A) (A) (A) (A) (A) (A) (A)
                 (A) (A) (A) (A) (A) (A) (A) (A) (A) (A) (A) (A)
                 (A) (A) (A) (A) (A) (A) (A) (A) (A) (A) (A) (A)
                 (A) (A) (A) (A) (A) (A) (A) (A) (A) (A) (A) (A)
                 (A) (A) (A) (A) (A) (A) (A) (A) (A) (A) (A) (A)
                 (A) (A) (A) (A) (A) (A) (A) (A) (A) (A) (A) (A)
                 (A) (A) (A) (A) (A) (A) (A) (A) (A) (A) (A) (A)
                 (A) (A) (A) (A) (A) (A) (A)
 The electronic state is 1-A.
 Alpha  occ. eigenvalues --  -14.44904 -14.33998 -10.24455 -10.24125 -10.23240
 Alpha  occ. eigenvalues --  -10.22331 -10.21140 -10.19841 -10.19726 -10.19187
 Alpha  occ. eigenvalues --   -1.01823  -0.94920  -0.82537  -0.81163  -0.75606
 Alpha  occ. eigenvalues --   -0.72252  -0.66735  -0.63661  -0.61569  -0.58253
 Alpha  occ. eigenvalues --   -0.54821  -0.51920  -0.50780  -0.49203  -0.46245
 Alpha  occ. eigenvalues --   -0.44661  -0.43770  -0.42097  -0.41600  -0.40887
 Alpha  occ. eigenvalues --   -0.39775  -0.38784  -0.35976  -0.34160  -0.29117
 Alpha  occ. eigenvalues --   -0.28035  -0.26084
 Alpha virt. eigenvalues --   -0.03442  -0.01159   0.06128   0.08832   0.10146
 Alpha virt. eigenvalues --    0.10900   0.11967   0.12906   0.13593   0.14940
 Alpha virt. eigenvalues --    0.15030   0.15604   0.17031   0.17476   0.18319
 Alpha virt. eigenvalues --    0.18898   0.20288   0.21527   0.23837   0.26949
 Alpha virt. eigenvalues --    0.27658   0.32009   0.32786   0.34184   0.44477
 Alpha virt. eigenvalues --    0.48053   0.48937   0.49335   0.51566   0.51965
 Alpha virt. eigenvalues --    0.52351   0.53676   0.56869   0.58059   0.58660
 Alpha virt. eigenvalues --    0.58987   0.60311   0.61544   0.63232   0.63969
 Alpha virt. eigenvalues --    0.66067   0.68168   0.69297   0.70427   0.73759
 Alpha virt. eigenvalues --    0.74477   0.76781   0.79445   0.81910   0.82072
 Alpha virt. eigenvalues --    0.83981   0.84394   0.85446   0.85663   0.86534
 Alpha virt. eigenvalues --    0.86941   0.88390   0.89419   0.89898   0.91897
 Alpha virt. eigenvalues --    0.92851   0.95402   0.95720   0.97619   0.97851
 Alpha virt. eigenvalues --    0.99834   1.03865   1.07168   1.09093   1.14255
 Alpha virt. eigenvalues --    1.17204   1.23672   1.24572   1.30048   1.33057
 Alpha virt. eigenvalues --    1.36772   1.38481   1.42439   1.46409   1.47817
 Alpha virt. eigenvalues --    1.48144   1.50404   1.54344   1.56983   1.65121
 Alpha virt. eigenvalues --    1.68905   1.73142   1.74275   1.80780   1.82446
 Alpha virt. eigenvalues --    1.84871   1.88138   1.90956   1.91566   1.93527
 Alpha virt. eigenvalues --    1.96326   1.97795   1.98967   2.03405   2.05762
 Alpha virt. eigenvalues --    2.08390   2.08846   2.14672   2.17141   2.18680
 Alpha virt. eigenvalues --    2.21850   2.25041   2.25416   2.28325   2.32560
 Alpha virt. eigenvalues --    2.33712   2.36347   2.38100   2.44073   2.48555
 Alpha virt. eigenvalues --    2.50332   2.54398   2.57064   2.61517   2.62860
 Alpha virt. eigenvalues --    2.65441   2.70409   2.71793   2.76337   2.78930
 Alpha virt. eigenvalues --    2.85855   2.92173   3.10689   3.36252   3.90156
 Alpha virt. eigenvalues --    4.05229   4.11415   4.14962   4.22479   4.23644
 Alpha virt. eigenvalues --    4.26708   4.38217   4.49456   4.60559
          Condensed to atoms (all electrons):
               1          2          3          4          5          6
     1  C    5.034827   0.382685   0.379067   0.382820   0.254632  -0.019851
     2  H    0.382685   0.481664  -0.029789  -0.025656  -0.030035   0.003017
     3  H    0.379067  -0.029789   0.486057  -0.017597  -0.030707  -0.003052
     4  H    0.382820  -0.025656  -0.017597   0.460961  -0.028024  -0.001781
     5  N    0.254632  -0.030035  -0.030707  -0.028024   6.676563   0.307203
     6  H   -0.019851   0.003017  -0.003052  -0.001781   0.307203   0.275352
     7  C   -0.046143  -0.004882   0.004460  -0.001435   0.229010  -0.020004
     8  H   -0.004612  -0.000243   0.000100   0.004408  -0.033891  -0.001153
     9  H    0.004089  -0.000022  -0.000167   0.000073  -0.030394  -0.003190
    10  C   -0.002109   0.004051  -0.000017  -0.000738  -0.049471   0.004136
    11  H   -0.000170   0.000395  -0.000038   0.000030  -0.003635   0.000039
    12  H    0.001982   0.001620  -0.000036   0.000119  -0.002589  -0.000031
    13  C   -0.000060  -0.000006   0.000000   0.000001   0.003454  -0.000075
    14  N   -0.000005  -0.000001   0.000000   0.000000  -0.000010   0.000000
    15  C   -0.000000  -0.000000  -0.000000  -0.000000   0.000001  -0.000000
    16  H    0.000000   0.000000   0.000000   0.000000  -0.000000   0.000000
    17  C    0.000000   0.000000  -0.000000  -0.000000  -0.000000   0.000000
    18  H   -0.000000  -0.000000  -0.000000  -0.000000   0.000000  -0.000000
    19  C   -0.000000  -0.000000   0.000000   0.000000   0.000001  -0.000000
    20  H   -0.000000   0.000000  -0.000000  -0.000000  -0.000000   0.000000
    21  C    0.000009   0.000031  -0.000000  -0.000019   0.000030   0.000005
    22  H    0.000069   0.000030  -0.000000   0.000028  -0.000072   0.000002
    23  H   -0.019865  -0.003032  -0.001375   0.002657   0.302701  -0.011843
               7          8          9         10         11         12
     1  C   -0.046143  -0.004612   0.004089  -0.002109  -0.000170   0.001982
     2  H   -0.004882  -0.000243  -0.000022   0.004051   0.000395   0.001620
     3  H    0.004460   0.000100  -0.000167  -0.000017  -0.000038  -0.000036
     4  H   -0.001435   0.004408   0.000073  -0.000738   0.000030   0.000119
     5  N    0.229010  -0.033891  -0.030394  -0.049471  -0.003635  -0.002589
     6  H   -0.020004  -0.001153  -0.003190   0.004136   0.000039  -0.000031
     7  C    5.007731   0.385773   0.382862   0.362165  -0.034849  -0.031842
     8  H    0.385773   0.503462  -0.027404  -0.045770   0.005337  -0.005605
     9  H    0.382862  -0.027404   0.502313  -0.043876  -0.004054   0.005300
    10  C    0.362165  -0.045770  -0.043876   5.208571   0.358932   0.366541
    11  H   -0.034849   0.005337  -0.004054   0.358932   0.544994  -0.042646
    12  H   -0.031842  -0.005605   0.005300   0.366541  -0.042646   0.551755
    13  C   -0.037128  -0.000567  -0.001054   0.357113  -0.022290  -0.041189
    14  N   -0.003498   0.000093   0.003290  -0.075547   0.003523   0.002953
    15  C   -0.000101   0.000012  -0.000130   0.007400   0.000555  -0.000350
    16  H    0.000002   0.000000   0.000004  -0.000514  -0.000027   0.000012
    17  C    0.000008  -0.000010  -0.000038   0.001825  -0.000004  -0.000028
    18  H    0.000001  -0.000000  -0.000001   0.000009  -0.000001  -0.000001
    19  C    0.000040  -0.000301   0.000053   0.005157  -0.000153   0.000664
    20  H   -0.000005   0.000011   0.000001  -0.000188   0.000003  -0.000004
    21  C   -0.006525   0.004497   0.001054  -0.081064   0.004967   0.001647
    22  H   -0.000465   0.001829  -0.000024  -0.005418   0.000019   0.001972
    23  H   -0.021499   0.003886  -0.001185  -0.003191   0.005650  -0.000609
              13         14         15         16         17         18
     1  C   -0.000060  -0.000005  -0.000000   0.000000   0.000000  -0.000000
     2  H   -0.000006  -0.000001  -0.000000   0.000000   0.000000  -0.000000
     3  H    0.000000   0.000000  -0.000000   0.000000  -0.000000  -0.000000
     4  H    0.000001   0.000000  -0.000000   0.000000  -0.000000  -0.000000
     5  N    0.003454  -0.000010   0.000001  -0.000000  -0.000000   0.000000
     6  H   -0.000075   0.000000  -0.000000   0.000000   0.000000  -0.000000
     7  C   -0.037128  -0.003498  -0.000101   0.000002   0.000008   0.000001
     8  H   -0.000567   0.000093   0.000012   0.000000  -0.000010  -0.000000
     9  H   -0.001054   0.003290  -0.000130   0.000004  -0.000038  -0.000001
    10  C    0.357113  -0.075547   0.007400  -0.000514   0.001825   0.000009
    11  H   -0.022290   0.003523   0.000555  -0.000027  -0.000004  -0.000001
    12  H   -0.041189   0.002953  -0.000350   0.000012  -0.000028  -0.000001
    13  C    4.656493   0.454641  -0.066181   0.006447  -0.039372   0.000212
    14  N    0.454641   6.846130   0.439689  -0.057846  -0.030915   0.004527
    15  C   -0.066181   0.439689   4.791582   0.374018   0.530487  -0.037825
    16  H    0.006447  -0.057846   0.374018   0.577923  -0.054798  -0.003307
    17  C   -0.039372  -0.030915   0.530487  -0.054798   4.932290   0.360240
    18  H    0.000212   0.004527  -0.037825  -0.003307   0.360240   0.556978
    19  C   -0.023932  -0.039642  -0.030812   0.003720   0.529502  -0.043043
    20  H    0.003986  -0.000103   0.005124  -0.000137  -0.042291  -0.005685
    21  C    0.507334  -0.042103  -0.044632   0.000929  -0.040183   0.005985
    22  H   -0.042781   0.004330   0.000259   0.000028   0.005358  -0.000140
    23  H    0.000008  -0.000008   0.000001  -0.000000  -0.000000   0.000000
              19         20         21         22         23
     1  C   -0.000000  -0.000000   0.000009   0.000069  -0.019865
     2  H   -0.000000   0.000000   0.000031   0.000030  -0.003032
     3  H    0.000000  -0.000000  -0.000000  -0.000000  -0.001375
     4  H    0.000000  -0.000000  -0.000019   0.000028   0.002657
     5  N    0.000001  -0.000000   0.000030  -0.000072   0.302701
     6  H   -0.000000   0.000000   0.000005   0.000002  -0.011843
     7  C    0.000040  -0.000005  -0.006525  -0.000465  -0.021499
     8  H   -0.000301   0.000011   0.004497   0.001829   0.003886
     9  H    0.000053   0.000001   0.001054  -0.000024  -0.001185
    10  C    0.005157  -0.000188  -0.081064  -0.005418  -0.003191
    11  H   -0.000153   0.000003   0.004967   0.000019   0.005650
    12  H    0.000664  -0.000004   0.001647   0.001972  -0.000609
    13  C   -0.023932   0.003986   0.507334  -0.042781   0.000008
    14  N   -0.039642  -0.000103  -0.042103   0.004330  -0.000008
    15  C   -0.030812   0.005124  -0.044632   0.000259   0.000001
    16  H    0.003720  -0.000137   0.000929   0.000028  -0.000000
    17  C    0.529502  -0.042291  -0.040183   0.005358  -0.000000
    18  H   -0.043043  -0.005685   0.005985  -0.000140   0.000000
    19  C    4.846370   0.366402   0.527521  -0.041751  -0.000000
    20  H    0.366402   0.538939  -0.038974  -0.004693   0.000000
    21  C    0.527521  -0.038974   5.001382   0.361478  -0.000007
    22  H   -0.041751  -0.004693   0.361478   0.553230   0.000000
    23  H   -0.000000   0.000000  -0.000007   0.000000   0.280020
 Mulliken charges:
               1
     1  C   -0.347365
     2  H    0.220174
     3  H    0.213094
     4  H    0.224151
     5  N   -0.564768
     6  H    0.471226
     7  C   -0.163677
     8  H    0.210147
     9  H    0.212499
    10  C   -0.367996
    11  H    0.183424
    12  H    0.190363
    13  C    0.284945
    14  N   -0.509500
    15  C    0.030902
    16  H    0.153547
    17  C   -0.152073
    18  H    0.162052
    19  C   -0.099798
    20  H    0.177613
    21  C   -0.163362
    22  H    0.166712
    23  H    0.467690
 Sum of Mulliken charges =   1.00000
 Mulliken charges with hydrogens summed into heavy atoms:
               1
     1  C    0.310055
     5  N    0.374147
     7  C    0.258969
    10  C    0.005790
    13  C    0.284945
    14  N   -0.509500
    15  C    0.184448
    17  C    0.009978
    19  C    0.077816
    21  C    0.003350
 Electronic spatial extent (au):  <R**2>=           1916.8870
 Charge=              1.0000 electrons
 Dipole moment (field-independent basis, Debye):
    X=             13.0408    Y=              1.1008    Z=              2.1757  Tot=             13.2668
 Quadrupole moment (field-independent basis, Debye-Ang):
   XX=             -3.6722   YY=            -53.5660   ZZ=            -55.4995
   XY=             -8.6139   XZ=              2.5868   YZ=             -0.9970
 Traceless Quadrupole moment (field-independent basis, Debye-Ang):
   XX=             33.9070   YY=            -15.9867   ZZ=            -17.9203
   XY=             -8.6139   XZ=              2.5868   YZ=             -0.9970
 Octapole moment (field-independent basis, Debye-Ang**2):
  XXX=            146.6636  YYY=              9.6294  ZZZ=              5.5863  XYY=             15.9077
  XXY=            -13.3934  XXZ=             23.2915  XZZ=             24.9425  YZZ=             -2.9093
  YYZ=              4.2950  XYZ=             -5.5864
 Hexadecapole moment (field-independent basis, Debye-Ang**3):
 XXXX=          -1287.9748 YYYY=           -336.2582 ZZZZ=           -130.4894 XXXY=            -65.2957
 XXXZ=             24.6664 YYYX=            -27.9423 YYYZ=              1.8157 ZZZX=             19.1597
 ZZZY=             -5.0897 XXYY=           -321.2804 XXZZ=           -325.7169 YYZZ=            -81.5402
 XXYZ=             -5.0222 YYXZ=             -2.9592 ZZXY=             -8.0821
 N-N= 5.180511716660D+02 E-N=-2.001662958052D+03  KE= 4.183192780530D+02
 No NMR shielding tensors so no spin-rotation constants.
 Leave Link  601 at Sun Jul 18 13:37:23 2021, MaxMem=   104857600 cpu:               0.3 elap:               0.1
 (Enter /prod/apps/gaussian/g16b1/l701.exe)
 ... and contract with generalized density number  0.
 Compute integral first derivatives.
 D1PCM: PCM CHGder 1st derivatives, ID1Alg=3 FixD1E=F DoIter=F DoCFld=F I1PDM=0.
 GePol: Maximum number of non-zero 1st derivatives   =     192
 Leave Link  701 at Sun Jul 18 13:37:24 2021, MaxMem=   104857600 cpu:               3.9 elap:               1.0
 (Enter /prod/apps/gaussian/g16b1/l702.exe)
 L702 exits ... SP integral derivatives will be done elsewhere.
 Leave Link  702 at Sun Jul 18 13:37:25 2021, MaxMem=   104857600 cpu:               0.1 elap:               0.0
 (Enter /prod/apps/gaussian/g16b1/l703.exe)
 Integral derivatives from FoFJK, PRISM(SPDF).
 Compute integral first derivatives, UseDBF=F ICtDFT=           0.
 Calling FoFJK, ICntrl=      2127 FMM=F ISym2X=0 I1Cent= 0 IOpClX= 0 NMat=1 NMatS=1 NMatT=0.
 FoFJK:  IHMeth= 1 ICntrl=    2127 DoSepK=F KAlg= 0 I1Cent=           0 FoldK=F
 IRaf=         0 NMat=       1 IRICut=       1 DoRegI=T DoRafI=F ISym2E= 0 IDoP0=0 IntGTp=1.
 FoFCou: FMM=F IPFlag=           0 FMFlag=      100000 FMFlg1=         800
         NFxFlg=           0 DoJE=F BraDBF=F KetDBF=F FulRan=T
         wScrn=  0.000000 ICntrl=      2127 IOpCl=  0 I1Cent=           0 NGrid=           0
         NMat0=    1 NMatS0=      1 NMatT0=    0 NMatD0=    1 NMtDS0=    0 NMtDT0=    0
 Symmetry not used in FoFCou.
 Leave Link  703 at Sun Jul 18 13:37:29 2021, MaxMem=   104857600 cpu:              17.0 elap:               4.3
 (Enter /prod/apps/gaussian/g16b1/l716.exe)
 Dipole        = 5.13065632D+00 4.33076126D-01 8.55983840D-01
 ***** Axes restored to original set *****
 -------------------------------------------------------------------
 Center     Atomic                   Forces (Hartrees/Bohr)
 Number     Number              X              Y              Z
 -------------------------------------------------------------------
      1        6          -0.027322351    0.005734699    0.003571028
      2        1           0.006954050   -0.001128257   -0.005567063
      3        1           0.007868035   -0.004926450    0.007392450
      4        1           0.003802787    0.009635075   -0.000890964
      5        7           0.001856104   -0.037798555    0.007334186
      6        1           0.014571442    0.017804456    0.015912942
      7        6           0.027740866    0.002603247    0.012401905
      8        1           0.001293900    0.003974269    0.004624666
      9        1          -0.001031570    0.002699760    0.004153488
     10        6          -0.056244345   -0.016894273   -0.023426527
     11        1           0.011863079    0.009919933   -0.007307156
     12        1           0.002478670   -0.003011930    0.021359974
     13        6          -0.017992999    0.024314577   -0.024791993
     14        7           0.018677106   -0.032385276    0.012194468
     15        6          -0.021069864    0.032535015   -0.013916972
     16        1           0.010105058   -0.007562763   -0.003242777
     17        6           0.015520278   -0.021984034    0.002388416
     18        1          -0.001805105    0.003715052    0.000112238
     19        6           0.011325081    0.003632832   -0.025970894
     20        1          -0.008989610   -0.002501981    0.002023028
     21        6           0.018912577   -0.010649349    0.020172920
     22        1          -0.003770672    0.002596165   -0.001183960
     23        1          -0.014742518    0.019677786   -0.007343400
 -------------------------------------------------------------------
 Cartesian Forces:  Max     0.056244345 RMS     0.015834879
 Leave Link  716 at Sun Jul 18 13:37:29 2021, MaxMem=   104857600 cpu:               0.1 elap:               0.0
 (Enter /prod/apps/gaussian/g16b1/l103.exe)

 GradGradGradGradGradGradGradGradGradGradGradGradGradGradGradGradGradGrad
 Berny optimization.
 FormGI is forming the generalized inverse of G from B-inverse, IUseBI=4.
 Internal  Forces:  Max     0.049052796 RMS     0.009783677
 Search for a local minimum.
 Step number   1 out of a maximum of  126
 All quantities printed in internal units (Hartrees-Bohrs-Radians)
 RMS Force = .97837D-02 SwitMx=.10000D-02 MixMth= 1
 Mixed Optimization -- RFO/linear search
 Second derivative matrix not updated -- first step.
 ITU=  0
     Eigenvalues ---    0.00492   0.00793   0.01177   0.01427   0.01856
     Eigenvalues ---    0.02162   0.02267   0.02277   0.02346   0.02439
     Eigenvalues ---    0.02450   0.02506   0.03881   0.04253   0.04443
     Eigenvalues ---    0.05109   0.05239   0.05420   0.05527   0.06272
     Eigenvalues ---    0.08319   0.08516   0.09994   0.12157   0.12244
     Eigenvalues ---    0.13066   0.15588   0.15979   0.15989   0.15997
     Eigenvalues ---    0.16000   0.16000   0.16000   0.21484   0.21897
     Eigenvalues ---    0.21938   0.21995   0.22348   0.24195   0.24968
     Eigenvalues ---    0.33371   0.34425   0.34471   0.34505   0.34524
     Eigenvalues ---    0.34540   0.34547   0.34554   0.35060   0.35060
     Eigenvalues ---    0.35084   0.35190   0.35871   0.35990   0.38242
     Eigenvalues ---    0.42485   0.45447   0.47650   0.47746   0.48931
     Eigenvalues ---    0.50501   0.52300   0.53218
 RFO step:  Lambda=-3.96830769D-02 EMin= 4.91800224D-03
 Linear search not attempted -- first point.
 Maximum step size (   0.300) exceeded in Quadratic search.
    -- Step size scaled by   0.868
 Iteration  1 RMS(Cart)=  0.09933746 RMS(Int)=  0.00162819
 Iteration  2 RMS(Cart)=  0.00205673 RMS(Int)=  0.00056332
 Iteration  3 RMS(Cart)=  0.00000429 RMS(Int)=  0.00056331
 Iteration  4 RMS(Cart)=  0.00000001 RMS(Int)=  0.00056331
 ITry= 1 IFail=0 DXMaxC= 2.96D-01 DCOld= 1.00D+10 DXMaxT= 3.00D-01 DXLimC= 3.00D+00 Rises=F
 Variable       Old X    -DE/DX   Delta X   Delta X   Delta X     New X
                                 (Linear)    (Quad)   (Total)
    R1        2.06487  -0.00167   0.00000  -0.00376  -0.00376   2.06111
    R2        2.06542  -0.00194   0.00000  -0.00438  -0.00438   2.06104
    R3        2.06455  -0.00508   0.00000  -0.01146  -0.01146   2.05310
    R4        2.81704   0.00119   0.00000   0.00276   0.00276   2.81980
    R5        1.89014   0.02768   0.00000   0.04654   0.04654   1.93668
    R6        2.77396   0.02233   0.00000   0.04850   0.04850   2.82246
    R7        1.88910   0.02499   0.00000   0.04193   0.04193   1.93104
    R8        2.06405  -0.00037   0.00000  -0.00083  -0.00083   2.06321
    R9        2.06619  -0.00063   0.00000  -0.00143  -0.00143   2.06476
   R10        2.74014   0.04905   0.00000   0.10085   0.10085   2.84099
   R11        2.06417   0.00238   0.00000   0.00536   0.00536   2.06954
   R12        2.06429   0.00542   0.00000   0.01221   0.01221   2.07650
   R13        2.77583   0.03755   0.00000   0.08180   0.08180   2.85763
   R14        2.56118  -0.00394   0.00000  -0.00594  -0.00567   2.55551
   R15        2.60839   0.01826   0.00000   0.03022   0.03028   2.63867
   R16        2.56507   0.00214   0.00000   0.00276   0.00294   2.56801
   R17        2.05577  -0.00020   0.00000  -0.00046  -0.00046   2.05532
   R18        2.58587   0.01436   0.00000   0.02210   0.02200   2.60787
   R19        2.05577  -0.00276   0.00000  -0.00613  -0.00613   2.04964
   R20        2.65999  -0.00324   0.00000  -0.00575  -0.00602   2.65396
   R21        2.05367  -0.00212   0.00000  -0.00470  -0.00470   2.04898
   R22        2.59369   0.02073   0.00000   0.03363   0.03349   2.62719
   R23        2.05538  -0.00130   0.00000  -0.00288  -0.00288   2.05250
    A1        1.79988   0.00605   0.00000   0.05479   0.05444   1.85432
    A2        1.90060   0.00730   0.00000   0.02373   0.02234   1.92294
    A3        1.91954  -0.00559   0.00000  -0.01815  -0.01902   1.90052
    A4        2.00335  -0.00321   0.00000  -0.02800  -0.02788   1.97547
    A5        1.84213   0.00916   0.00000   0.04373   0.04364   1.88578
    A6        1.98830  -0.01233   0.00000  -0.06538  -0.06601   1.92229
    A7        1.90142  -0.00233   0.00000  -0.00805  -0.00829   1.89313
    A8        1.95857   0.00750   0.00000   0.03035   0.03021   1.98878
    A9        1.90096  -0.00267   0.00000  -0.00955  -0.00983   1.89113
   A10        1.90043  -0.00100   0.00000   0.00236   0.00236   1.90279
   A11        1.90072  -0.00116   0.00000  -0.02185  -0.02197   1.87875
   A12        1.90101  -0.00053   0.00000   0.00524   0.00524   1.90625
   A13        1.89991  -0.00595   0.00000  -0.02934  -0.02995   1.86995
   A14        1.90993  -0.00578   0.00000  -0.03112  -0.03153   1.87840
   A15        1.94902   0.00903   0.00000   0.03213   0.03223   1.98125
   A16        1.88119   0.00124   0.00000  -0.00241  -0.00332   1.87787
   A17        1.91900   0.00116   0.00000   0.01902   0.01929   1.93829
   A18        1.90355   0.00001   0.00000   0.01028   0.01062   1.91417
   A19        1.98296  -0.00279   0.00000  -0.02593  -0.02683   1.95614
   A20        2.05862  -0.01741   0.00000  -0.08578  -0.08637   1.97226
   A21        1.93542   0.00798   0.00000   0.02030   0.02031   1.95574
   A22        1.70472   0.01072   0.00000   0.07225   0.07230   1.77702
   A23        1.97805  -0.00890   0.00000  -0.04777  -0.04788   1.93017
   A24        1.78760   0.01032   0.00000   0.07397   0.07536   1.86295
   A25        2.01168   0.01216   0.00000   0.03616   0.03598   2.04766
   A26        2.05874   0.01077   0.00000   0.03213   0.03196   2.09070
   A27        2.21082  -0.02276   0.00000  -0.06607  -0.06636   2.14446
   A28        1.95433   0.02721   0.00000   0.08217   0.08245   2.03679
   A29        1.91932   0.01703   0.00000   0.07009   0.07013   1.98944
   A30        2.18999  -0.00840   0.00000  -0.02807  -0.02829   2.16170
   A31        2.17283  -0.00859   0.00000  -0.04123  -0.04119   2.13164
   A32        2.11249  -0.00001   0.00000  -0.00368  -0.00340   2.10909
   A33        2.09260  -0.00613   0.00000  -0.01937  -0.01997   2.07263
   A34        2.07791   0.00616   0.00000   0.02318   0.02346   2.10137
   A35        2.06418   0.00188   0.00000   0.01097   0.01117   2.07535
   A36        2.02566   0.00921   0.00000   0.03456   0.03398   2.05964
   A37        2.19223  -0.01103   0.00000  -0.04483  -0.04458   2.14765
   A38        2.06686   0.00204   0.00000   0.01419   0.01268   2.07953
   A39        2.10727  -0.00436   0.00000  -0.01461  -0.01568   2.09160
   A40        2.08522   0.00370   0.00000   0.01931   0.01812   2.10334
    D1        2.97844   0.00228   0.00000   0.02106   0.02086   2.99929
    D2       -1.19892   0.00425   0.00000   0.03802   0.03775  -1.16117
    D3        0.90733   0.00658   0.00000   0.05757   0.05721   0.96454
    D4        1.04797  -0.00677   0.00000  -0.05558  -0.05564   0.99233
    D5       -3.12939  -0.00480   0.00000  -0.03862  -0.03875   3.11505
    D6       -1.02314  -0.00247   0.00000  -0.01908  -0.01929  -1.04243
    D7       -1.16557  -0.00124   0.00000  -0.00843  -0.00794  -1.17351
    D8        0.94026   0.00073   0.00000   0.00853   0.00895   0.94921
    D9        3.04651   0.00306   0.00000   0.02808   0.02841   3.07492
   D10       -0.82357  -0.00327   0.00000  -0.02811  -0.02768  -0.85125
   D11       -2.87543   0.00196   0.00000   0.00942   0.00903  -2.86640
   D12        1.29841  -0.00002   0.00000  -0.00337  -0.00336   1.29504
   D13        1.28283  -0.00207   0.00000  -0.01719  -0.01671   1.26612
   D14       -0.76903   0.00316   0.00000   0.02033   0.02000  -0.74903
   D15       -2.87838   0.00118   0.00000   0.00755   0.00761  -2.87078
   D16       -2.92979  -0.00436   0.00000  -0.03912  -0.03879  -2.96858
   D17        1.30153   0.00087   0.00000  -0.00159  -0.00208   1.29946
   D18       -0.80781  -0.00110   0.00000  -0.01437  -0.01448  -0.82229
   D19        0.89768   0.00242   0.00000   0.02793   0.02802   0.92570
   D20       -1.08131   0.00255   0.00000   0.01198   0.01130  -1.07001
   D21       -3.13368  -0.00526   0.00000  -0.04225  -0.04184   3.10766
   D22        3.00858   0.00167   0.00000   0.02507   0.02536   3.03394
   D23        1.02959   0.00180   0.00000   0.00912   0.00864   1.03823
   D24       -1.02278  -0.00601   0.00000  -0.04511  -0.04450  -1.06728
   D25       -1.21538   0.00385   0.00000   0.03937   0.03944  -1.17594
   D26        3.08881   0.00398   0.00000   0.02342   0.02272   3.11153
   D27        1.03644  -0.00383   0.00000  -0.03081  -0.03043   1.00602
   D28       -1.79928  -0.00047   0.00000   0.02828   0.02905  -1.77023
   D29        1.40475  -0.00237   0.00000  -0.00496  -0.00513   1.39962
   D30        0.45517  -0.00490   0.00000  -0.03015  -0.02919   0.42599
   D31       -2.62398  -0.00680   0.00000  -0.06340  -0.06336  -2.68735
   D32        2.27237   0.00949   0.00000   0.07316   0.07283   2.34520
   D33       -0.80678   0.00759   0.00000   0.03991   0.03865  -0.76813
   D34        3.09567   0.00011   0.00000   0.01014   0.01128   3.10695
   D35       -0.11469   0.00376   0.00000   0.05133   0.05085  -0.06385
   D36       -2.95462  -0.00438   0.00000  -0.05416  -0.05392  -3.00854
   D37       -0.04709   0.00283   0.00000   0.03984   0.03941  -0.00768
   D38        0.25739  -0.00812   0.00000  -0.09634  -0.09444   0.16294
   D39       -3.11827  -0.00091   0.00000  -0.00234  -0.00110  -3.11938
   D40        3.05242   0.00155   0.00000   0.01945   0.01927   3.07170
   D41       -0.04154   0.00079   0.00000   0.00251   0.00150  -0.04003
   D42       -3.07059  -0.00137   0.00000  -0.01439  -0.01427  -3.08486
   D43        0.04969  -0.00033   0.00000  -0.00703  -0.00759   0.04211
   D44        0.12533  -0.00289   0.00000  -0.03663  -0.03638   0.08896
   D45       -3.03757  -0.00185   0.00000  -0.02927  -0.02969  -3.06727
   D46       -3.00362  -0.00402   0.00000  -0.04663  -0.04579  -3.04941
   D47        0.08996  -0.00288   0.00000  -0.03308  -0.03241   0.05755
   D48        0.11708  -0.00307   0.00000  -0.03973  -0.03946   0.07762
   D49       -3.07253  -0.00193   0.00000  -0.02618  -0.02608  -3.09861
   D50       -0.22521   0.00390   0.00000   0.06953   0.07148  -0.15373
   D51       -3.13576  -0.00211   0.00000  -0.01860  -0.01786   3.12957
   D52        2.86437   0.00560   0.00000   0.08619   0.08733   2.95169
   D53       -0.04619  -0.00041   0.00000  -0.00193  -0.00201  -0.04820
         Item               Value     Threshold  Converged?
 Maximum Force            0.049053     0.000450     NO 
 RMS     Force            0.009784     0.000300     NO 
 Maximum Displacement     0.295874     0.001800     NO 
 RMS     Displacement     0.098405     0.001200     NO 
 Predicted change in Energy=-2.267300D-02
 Lowest energy point so far.  Saving SCF results.
 GradGradGradGradGradGradGradGradGradGradGradGradGradGradGradGradGradGrad

 Leave Link  103 at Sun Jul 18 13:37:29 2021, MaxMem=   104857600 cpu:               0.1 elap:               0.0
 (Enter /prod/apps/gaussian/g16b1/l202.exe)
                          Input orientation:                          
 ---------------------------------------------------------------------
 Center     Atomic      Atomic             Coordinates (Angstroms)
 Number     Number       Type             X           Y           Z
 ---------------------------------------------------------------------
      1          6           0       -1.556635    0.889971    3.050211
      2          1           0       -2.339545    0.399030    2.470868
      3          1           0       -2.066600    1.524168    3.776336
      4          1           0       -0.909657    0.148107    3.510035
      5          7           0       -0.764496    1.770793    2.142881
      6          1           0       -0.122496    2.330517    2.712840
      7          6           0        0.020806    1.029098    1.111389
      8          1           0        0.560440    0.233254    1.628560
      9          1           0        0.762548    1.718624    0.701271
     10          6           0       -0.824086    0.474075   -0.001394
     11          1           0       -1.454969    1.241953   -0.461515
     12          1           0       -1.571580   -0.251610    0.347996
     13          6           0        0.008391   -0.228811   -1.050038
     14          7           0        0.264532    0.445627   -2.193843
     15          6           0        1.048247   -0.181434   -3.109968
     16          1           0        1.169451    0.369992   -4.039577
     17          6           0        1.618296   -1.422710   -2.913133
     18          1           0        2.278761   -1.855512   -3.656687
     19          6           0        1.341994   -2.111629   -1.720895
     20          1           0        1.855337   -3.046284   -1.524570
     21          6           0        0.448059   -1.535001   -0.825815
     22          1           0        0.196464   -2.037899    0.103421
     23          1           0       -1.407262    2.414681    1.677627
 ---------------------------------------------------------------------
                    Distance matrix (angstroms):
                    1          2          3          4          5
     1  C    0.000000
     2  H    1.090692   0.000000
     3  H    1.090654   1.744901   0.000000
     4  H    1.086453   1.785332   1.817409   0.000000
     5  N    1.492173   2.114259   2.103443   2.126803   0.000000
     6  H    2.060522   2.950339   2.358127   2.453173   1.024845
     7  C    2.503340   2.795788   3.421155   2.719450   1.493582
     8  H    2.633321   3.024381   3.630529   2.389223   2.093802
     9  H    3.403352   3.807333   4.183051   3.626562   2.100673
    10  C    3.165737   2.900746   4.113122   3.527564   2.506579
    11  H    3.530786   3.176769   4.291050   4.155366   2.745779
    12  H    2.933496   2.349402   3.892550   3.255213   2.821899
    13  C    4.529131   4.278291   5.538268   4.666814   3.845842
    14  N    5.569039   5.342557   6.499266   5.831077   4.649961
    15  C    6.773561   6.554373   7.748066   6.911326   5.889792
    16  H    7.613608   7.395931   8.537719   7.833809   6.627608
    17  C    7.140740   6.926090   8.186058   7.079203   6.437347
    18  H    8.199417   7.997415   9.249553   8.095827   7.486421
    19  C    6.338384   6.117844   7.420045   6.126905   5.868498
    20  H    6.932840   6.740233   8.023105   6.572410   6.596813
    21  C    4.992281   4.730680   6.071393   4.845188   4.605618
    22  H    4.508809   4.239667   5.594648   4.196088   4.425944
    23  H    2.056950   2.358227   2.373251   2.956804   1.021861
                    6          7          8          9         10
     6  H    0.000000
     7  C    2.068544   0.000000
     8  H    2.457759   1.091805   0.000000
     9  H    2.281256   1.092623   1.762679   0.000000
    10  C    3.362390   1.503388   2.152128   2.135426   0.000000
    11  H    3.610676   2.167313   3.073720   2.548856   1.095153
    12  H    3.789421   2.181439   2.533861   3.074863   1.098836
    13  C    4.552641   2.500851   2.773653   2.725498   1.512191
    14  N    5.270497   3.365174   3.839717   3.201597   2.448006
    15  C    6.448692   4.510086   4.781587   4.268183   3.687622
    16  H    7.148980   5.318482   5.702400   4.945707   4.504659
    17  C    6.983455   4.975953   4.948561   4.864587   4.247500
    18  H    7.991230   6.012810   5.937121   5.836536   5.330648
    19  C    6.444796   4.430748   4.162710   4.568751   3.786087
    20  H    7.125830   5.188691   4.730154   5.371490   4.678921
    21  C    5.271607   3.241898   3.027096   3.607904   2.516825
    22  H    5.098418   3.233160   2.759831   3.845692   2.713397
    23  H    1.652081   2.068779   2.938177   2.479081   2.631569
                   11         12         13         14         15
    11  H    0.000000
    12  H    1.702832   0.000000
    13  C    2.156601   2.109817   0.000000
    14  N    2.567446   3.212225   1.352318   0.000000
    15  C    3.912343   4.338886   2.307998   1.358934   0.000000
    16  H    4.522215   5.210608   3.262510   2.057021   1.087628
    17  C    4.749297   4.709751   2.736478   2.416763   1.380024
    18  H    5.808972   5.782311   3.820387   3.390026   2.148396
    19  C    4.544838   4.028510   2.402821   2.814989   2.396135
    20  H    5.520614   4.802131   3.402138   3.895129   3.372276
    21  C    3.386104   2.665308   1.396322   2.414139   2.722080
    22  H    3.715348   2.525198   2.153750   3.383778   3.807606
    23  H    2.439979   2.983962   4.053675   4.654068   5.974145
                   16         17         18         19         20
    16  H    0.000000
    17  C    2.164282   0.000000
    18  H    2.515958   1.084621   0.000000
    19  C    3.400662   1.404416   2.165738   0.000000
    20  H    4.297283   2.149486   2.478538   1.084271   0.000000
    21  C    3.804953   2.395613   3.386449   1.390247   2.180061
    22  H    4.889691   3.391116   4.302050   2.155412   2.533584
    23  H    6.595956   6.704823   7.763777   6.292523   7.121850
                   21         22         23
    21  C    0.000000
    22  H    1.086134   0.000000
    23  H    5.030847   4.987538   0.000000
 Stoichiometry    C8H13N2(1+)
 Framework group  C1[X(C8H13N2)]
 Deg. of freedom    63
 Full point group                 C1      NOp   1
 RotChk:  IX=0 Diff= 1.49D-02
 Largest Abelian subgroup         C1      NOp   1
 Largest concise Abelian subgroup C1      NOp   1
                         Standard orientation:                         
 ---------------------------------------------------------------------
 Center     Atomic      Atomic             Coordinates (Angstroms)
 Number     Number       Type             X           Y           Z
 ---------------------------------------------------------------------
      1          6           0        3.807463    0.652979   -0.271046
      2          1           0        3.429121    0.719406   -1.291857
      3          1           0        4.861936    0.386776   -0.353199
[...]
 Spin components of T(2) and E(2):
     alpha-alpha T2 =       0.6927653603D-01 E2=     -0.1859340605D+00
     alpha-beta  T2 =       0.3763156725D+00 E2=     -0.1085948794D+01
     beta-beta   T2 =       0.6927653603D-01 E2=     -0.1859340605D+00
 The integrals were generated   1 times.
 ANorm=    0.1230800042D+01
 E2 =    -0.1457816915D+01 EUMP2 =    -0.42070897965149D+03
 Leave Link  906 at Sun Jul 18 13:52:22 2021, MaxMem=   262144000 cpu:             265.2 elap:              66.4
 (Enter /prod/apps/gaussian/g16b1/l601.exe)
 Copying SCF densities to generalized density rwf, IOpCl= 0 IROHF=0.

 **********************************************************************

            Population analysis using the SCF Density.

 **********************************************************************

 Orbital symmetries:
       Occupied  (A) (A) (A) (A) (A) (A) (A) (A) (A) (A) (A) (A)
                 (A) (A) (A) (A) (A) (A) (A) (A) (A) (A) (A) (A)
                 (A) (A) (A) (A) (A) (A) (A) (A) (A) (A) (A) (A)
                 (A)
       Virtual   (A) (A) (A) (A) (A) (A) (A) (A) (A) (A) (A) (A)
                 (A) (A) (A) (A) (A) (A) (A) (A) (A) (A) (A) (A)
                 (A) (A) (A) (A) (A) (A) (A) (A) (A) (A) (A) (A)
                 (A) (A) (A) (A) (A) (A) (A) (A) (A) (A) (A) (A)
                 (A) (A) (A) (A) (A) (A) (A) (A) (A) (A) (A) (A)
                 (A) (A) (A) (A) (A) (A) (A) (A) (A) (A) (A) (A)
                 (A) (A) (A) (A) (A) (A) (A) (A) (A) (A) (A) (A)
                 (A) (A) (A) (A) (A) (A) (A) (A) (A) (A) (A) (A)
                 (A) (A) (A) (A) (A) (A) (A) (A) (A) (A) (A) (A)
                 (A) (A) (A) (A) (A) (A) (A) (A) (A) (A) (A) (A)
                 (A) (A) (A) (A) (A) (A) (A) (A) (A) (A) (A) (A)
                 (A) (A) (A) (A) (A) (A) (A) (A) (A) (A) (A) (A)
                 (A) (A) (A) (A) (A) (A) (A) (A) (A) (A) (A) (A)
                 (A) (A) (A) (A) (A) (A) (A) (A) (A) (A) (A) (A)
                 (A) (A) (A) (A) (A) (A) (A) (A) (A) (A) (A) (A)
                 (A) (A) (A) (A) (A) (A) (A) (A) (A) (A) (A) (A)
                 (A) (A) (A) (A) (A) (A) (A) (A) (A) (A) (A) (A)
                 (A) (A) (A) (A) (A) (A) (A) (A) (A) (A) (A) (A)
                 (A) (A) (A) (A) (A) (A) (A) (A) (A) (A) (A) (A)
                 (A) (A) (A) (A) (A) (A) (A) (A) (A) (A) (A) (A)
                 (A) (A) (A) (A) (A) (A) (A) (A) (A) (A) (A) (A)
                 (A) (A) (A) (A) (A) (A) (A) (A) (A) (A) (A) (A)
                 (A) (A) (A) (A) (A) (A) (A) (A) (A) (A) (A) (A)
                 (A) (A) (A) (A) (A) (A) (A) (A) (A) (A) (A) (A)
                 (A) (A) (A) (A) (A) (A) (A) (A) (A) (A) (A) (A)
                 (A) (A) (A) (A) (A) (A) (A) (A) (A) (A)
 The electronic state is 1-A.
 Alpha  occ. eigenvalues --  -15.88026 -15.68672 -11.46774 -11.46024 -11.40829
 Alpha  occ. eigenvalues --  -11.39810 -11.38884 -11.37084 -11.35885 -11.35084
 Alpha  occ. eigenvalues --   -1.50195  -1.37604  -1.22858  -1.19702  -1.16019
 Alpha  occ. eigenvalues --   -1.12394  -1.04157  -0.97183  -0.96460  -0.92824
 Alpha  occ. eigenvalues --   -0.88994  -0.83329  -0.81196  -0.79628  -0.76000
 Alpha  occ. eigenvalues --   -0.75597  -0.75228  -0.73721  -0.70766  -0.69661
 Alpha  occ. eigenvalues --   -0.67955  -0.66561  -0.63919  -0.62694  -0.53145
 Alpha  occ. eigenvalues --   -0.48921  -0.45289
 Alpha virt. eigenvalues --   -0.09699  -0.07183  -0.07001  -0.05508  -0.03845
 Alpha virt. eigenvalues --   -0.03647  -0.03468  -0.03148  -0.02577  -0.01759
 Alpha virt. eigenvalues --   -0.01473  -0.01433  -0.00549   0.00184   0.00426
 Alpha virt. eigenvalues --    0.01015   0.01690   0.02047   0.02662   0.03051
 Alpha virt. eigenvalues --    0.03580   0.04123   0.04662   0.05039   0.05451
 Alpha virt. eigenvalues --    0.06300   0.06558   0.06710   0.06909   0.07350
 Alpha virt. eigenvalues --    0.07649   0.08058   0.08199   0.08545   0.09065
 Alpha virt. eigenvalues --    0.10105   0.10247   0.10421   0.10862   0.10974
 Alpha virt. eigenvalues --    0.11716   0.12406   0.13330   0.13665   0.13994
 Alpha virt. eigenvalues --    0.14702   0.15797   0.16673   0.17429   0.18435
 Alpha virt. eigenvalues --    0.19168   0.19355   0.20129   0.20868   0.21266
 Alpha virt. eigenvalues --    0.21394   0.22166   0.22905   0.23606   0.23937
 Alpha virt. eigenvalues --    0.24591   0.25166   0.25619   0.26069   0.27046
 Alpha virt. eigenvalues --    0.27505   0.28796   0.29385   0.29731   0.30248
 Alpha virt. eigenvalues --    0.30542   0.30949   0.31358   0.31504   0.32243
 Alpha virt. eigenvalues --    0.32617   0.33471   0.33806   0.34701   0.34938
 Alpha virt. eigenvalues --    0.35515   0.35949   0.36430   0.37195   0.38092
 Alpha virt. eigenvalues --    0.38622   0.39349   0.39726   0.41039   0.41559
 Alpha virt. eigenvalues --    0.42505   0.42617   0.43657   0.44369   0.45309
 Alpha virt. eigenvalues --    0.45558   0.46055   0.46907   0.47195   0.47387
 Alpha virt. eigenvalues --    0.48546   0.48831   0.49607   0.50159   0.50930
 Alpha virt. eigenvalues --    0.50998   0.52200   0.53329   0.54011   0.54874
 Alpha virt. eigenvalues --    0.55063   0.55356   0.55914   0.56744   0.57373
 Alpha virt. eigenvalues --    0.58774   0.59227   0.59868   0.60497   0.60886
 Alpha virt. eigenvalues --    0.61181   0.62014   0.62146   0.62506   0.63479
 Alpha virt. eigenvalues --    0.64230   0.65224   0.65561   0.66779   0.66878
 Alpha virt. eigenvalues --    0.67492   0.67677   0.69372   0.70217   0.71420
 Alpha virt. eigenvalues --    0.72480   0.74259   0.74773   0.75456   0.75637
 Alpha virt. eigenvalues --    0.75865   0.76750   0.78355   0.78860   0.79173
 Alpha virt. eigenvalues --    0.80562   0.81089   0.82331   0.83494   0.83619
 Alpha virt. eigenvalues --    0.84228   0.84853   0.86224   0.86545   0.87441
 Alpha virt. eigenvalues --    0.88686   0.89458   0.90072   0.91306   0.92269
 Alpha virt. eigenvalues --    0.92911   0.93838   0.96042   0.96269   0.97619
 Alpha virt. eigenvalues --    0.99013   0.99873   1.01009   1.02534   1.03107
 Alpha virt. eigenvalues --    1.05269   1.06294   1.07721   1.10061   1.10638
 Alpha virt. eigenvalues --    1.12935   1.14816   1.15963   1.18299   1.19952
 Alpha virt. eigenvalues --    1.23856   1.25542   1.28722   1.31265   1.31992
 Alpha virt. eigenvalues --    1.33394   1.34146   1.35424   1.37593   1.39150
 Alpha virt. eigenvalues --    1.42451   1.43405   1.45419   1.47311   1.48121
 Alpha virt. eigenvalues --    1.50049   1.50796   1.51464   1.52962   1.53945
 Alpha virt. eigenvalues --    1.54985   1.55536   1.57672   1.59535   1.60634
 Alpha virt. eigenvalues --    1.61433   1.62834   1.64529   1.65778   1.66832
 Alpha virt. eigenvalues --    1.67714   1.69414   1.70675   1.72610   1.72968
 Alpha virt. eigenvalues --    1.75532   1.76599   1.77622   1.78309   1.78966
 Alpha virt. eigenvalues --    1.80772   1.81374   1.83045   1.83339   1.84928
 Alpha virt. eigenvalues --    1.85484   1.89349   1.90231   1.91741   1.91762
 Alpha virt. eigenvalues --    1.92815   1.94534   1.96151   1.97646   1.99924
 Alpha virt. eigenvalues --    2.00097   2.01396   2.02443   2.03308   2.06595
 Alpha virt. eigenvalues --    2.07256   2.08516   2.09775   2.10366   2.10639
 Alpha virt. eigenvalues --    2.11856   2.13085   2.16221   2.16961   2.18351
 Alpha virt. eigenvalues --    2.19453   2.20615   2.21727   2.22166   2.24357
 Alpha virt. eigenvalues --    2.25307   2.26933   2.28280   2.30458   2.32743
 Alpha virt. eigenvalues --    2.34865   2.36476   2.37324   2.38130   2.40982
 Alpha virt. eigenvalues --    2.43040   2.44779   2.46673   2.46966   2.49919
 Alpha virt. eigenvalues --    2.53640   2.54961   2.56274   2.58738   2.59657
 Alpha virt. eigenvalues --    2.61989   2.64714   2.65454   2.68852   2.69030
 Alpha virt. eigenvalues --    2.71006   2.72919   2.73175   2.74052   2.75759
 Alpha virt. eigenvalues --    2.78566   2.80240   2.80734   2.82813   2.88251
 Alpha virt. eigenvalues --    2.90902   2.91831   2.94490   2.94960   2.96748
 Alpha virt. eigenvalues --    3.02553   3.03726   3.05567   3.09239   3.13833
 Alpha virt. eigenvalues --    3.19067   3.25434   3.26001   3.34397   3.42675
 Alpha virt. eigenvalues --    3.46570   3.52921   3.70295   3.90130   4.39495
          Condensed to atoms (all electrons):
               1          2          3          4          5          6
     1  C    3.951303   0.376507   0.436043   0.334527   0.122023  -0.041673
     2  H    0.376507   1.022569  -0.188714  -0.079104  -0.011522   0.015161
     3  H    0.436043  -0.188714   1.162128  -0.201053  -0.121918  -0.004769
     4  H    0.334527  -0.079104  -0.201053   1.013831   0.022194  -0.027868
     5  N    0.122023  -0.011522  -0.121918   0.022194   7.015450   0.516182
     6  H   -0.041673   0.015161  -0.004769  -0.027868   0.516182   0.587852
     7  C    0.016854   0.007477   0.045846  -0.044951  -0.178423  -0.085895
     8  H    0.019317  -0.016722   0.004027   0.010099  -0.108453  -0.057146
     9  H   -0.009089   0.001860   0.003230  -0.005609  -0.114905  -0.026804
    10  C    0.023511  -0.023130  -0.006958   0.038844  -0.048825   0.039066
    11  H    0.009079  -0.008594   0.000495  -0.002389   0.007576  -0.004642
    12  H   -0.000861  -0.018292  -0.005212   0.004530  -0.003069   0.006444
    13  C   -0.042076   0.013740  -0.011227  -0.005677   0.032324  -0.003178
    14  N    0.003258   0.002936   0.000141  -0.001054   0.023102   0.001457
    15  C   -0.004255  -0.000781  -0.000031  -0.000393  -0.011221   0.000751
    16  H   -0.000193  -0.000042   0.000006  -0.000045  -0.000618   0.000035
    17  C    0.002500   0.001367  -0.000177   0.000209   0.010292   0.000174
    18  H   -0.000004  -0.000022  -0.000002   0.000002   0.000141  -0.000015
    19  C   -0.003120  -0.002859   0.000582  -0.000889  -0.010067  -0.000167
    20  H    0.000008  -0.000053  -0.000001   0.000071   0.000011  -0.000006
    21  C    0.008049   0.000351   0.002809  -0.003944   0.044399  -0.003906
    22  H    0.001828  -0.001831   0.001092  -0.001390  -0.003825  -0.000492
    23  H   -0.030360  -0.009963  -0.005490   0.017211   0.425809  -0.081943
               7          8          9         10         11         12
     1  C    0.016854   0.019317  -0.009089   0.023511   0.009079  -0.000861
     2  H    0.007477  -0.016722   0.001860  -0.023130  -0.008594  -0.018292
     3  H    0.045846   0.004027   0.003230  -0.006958   0.000495  -0.005212
     4  H   -0.044951   0.010099  -0.005609   0.038844  -0.002389   0.004530
     5  N   -0.178423  -0.108453  -0.114905  -0.048825   0.007576  -0.003069
     6  H   -0.085895  -0.057146  -0.026804   0.039066  -0.004642   0.006444
     7  C    4.756493   0.149187   0.344821   0.373682  -0.123799  -0.049697
     8  H    0.149187   1.475450  -0.216641   0.015718   0.078079  -0.116555
     9  H    0.344821  -0.216641   1.278744  -0.186012  -0.059405   0.089872
    10  C    0.373682   0.015718  -0.186012   6.287273   0.281973  -0.132268
    11  H   -0.123799   0.078079  -0.059405   0.281973   1.049930  -0.111849
    12  H   -0.049697  -0.116555   0.089872  -0.132268  -0.111849   1.571360
    13  C    0.043353  -0.160471   0.086548  -0.649515  -0.258060   0.337903
    14  N   -0.042389   0.017358  -0.030690   0.075801   0.033185  -0.047823
    15  C    0.010686  -0.009602   0.003795  -0.340092  -0.016786   0.013101
    16  H    0.010264   0.000722  -0.000646   0.012563  -0.001149  -0.000070
    17  C   -0.012410   0.005705  -0.016113   0.289097   0.015808  -0.027168
    18  H   -0.002373   0.000421  -0.000084  -0.014183   0.000201   0.000472
    19  C    0.049356  -0.001106   0.022241  -0.462216  -0.018502   0.055821
    20  H   -0.003198  -0.001558   0.000419   0.056687   0.001712   0.005754
    21  C   -0.191437   0.101794  -0.021870   0.113350   0.158240  -0.269563
    22  H    0.028837   0.014204  -0.001695  -0.090529   0.008322  -0.064485
    23  H   -0.038089   0.028832  -0.012476  -0.050455   0.009991  -0.014772
              13         14         15         16         17         18
     1  C   -0.042076   0.003258  -0.004255  -0.000193   0.002500  -0.000004
     2  H    0.013740   0.002936  -0.000781  -0.000042   0.001367  -0.000022
     3  H   -0.011227   0.000141  -0.000031   0.000006  -0.000177  -0.000002
     4  H   -0.005677  -0.001054  -0.000393  -0.000045   0.000209   0.000002
     5  N    0.032324   0.023102  -0.011221  -0.000618   0.010292   0.000141
     6  H   -0.003178   0.001457   0.000751   0.000035   0.000174  -0.000015
     7  C    0.043353  -0.042389   0.010686   0.010264  -0.012410  -0.002373
     8  H   -0.160471   0.017358  -0.009602   0.000722   0.005705   0.000421
     9  H    0.086548  -0.030690   0.003795  -0.000646  -0.016113  -0.000084
    10  C   -0.649515   0.075801  -0.340092   0.012563   0.289097  -0.014183
    11  H   -0.258060   0.033185  -0.016786  -0.001149   0.015808   0.000201
    12  H    0.337903  -0.047823   0.013101  -0.000070  -0.027168   0.000472
    13  C    8.120278  -0.204834   0.394198   0.180782  -0.974621  -0.024519
    14  N   -0.204834   7.705011   0.232936  -0.174002   0.192627  -0.033323
    15  C    0.394198   0.232936   6.183693   0.086706  -0.884681   0.101385
    16  H    0.180782  -0.174002   0.086706   1.347787  -0.017909  -0.047254
    17  C   -0.974621   0.192627  -0.884681  -0.017909   6.472799  -0.297524
    18  H   -0.024519  -0.033323   0.101385  -0.047254  -0.297524   1.497812
    19  C    1.124114  -0.374879   1.031361   0.042427  -1.052952   0.320455
    20  H   -0.134062   0.032142  -0.149628  -0.007799   0.249610  -0.059923
    21  C   -2.449216   0.364384  -1.116207  -0.080988   1.156569  -0.035553
    22  H    0.275306  -0.015597   0.030098   0.000310  -0.051223  -0.008422
    23  H    0.007740   0.001467  -0.001071   0.000109   0.001020  -0.000013
              19         20         21         22         23
     1  C   -0.003120   0.000008   0.008049   0.001828  -0.030360
     2  H   -0.002859  -0.000053   0.000351  -0.001831  -0.009963
     3  H    0.000582  -0.000001   0.002809   0.001092  -0.005490
     4  H   -0.000889   0.000071  -0.003944  -0.001390   0.017211
     5  N   -0.010067   0.000011   0.044399  -0.003825   0.425809
     6  H   -0.000167  -0.000006  -0.003906  -0.000492  -0.081943
     7  C    0.049356  -0.003198  -0.191437   0.028837  -0.038089
     8  H   -0.001106  -0.001558   0.101794   0.014204   0.028832
     9  H    0.022241   0.000419  -0.021870  -0.001695  -0.012476
    10  C   -0.462216   0.056687   0.113350  -0.090529  -0.050455
    11  H   -0.018502   0.001712   0.158240   0.008322   0.009991
    12  H    0.055821   0.005754  -0.269563  -0.064485  -0.014772
    13  C    1.124114  -0.134062  -2.449216   0.275306   0.007740
    14  N   -0.374879   0.032142   0.364384  -0.015597   0.001467
    15  C    1.031361  -0.149628  -1.116207   0.030098  -0.001071
    16  H    0.042427  -0.007799  -0.080988   0.000310   0.000109
    17  C   -1.052952   0.249610   1.156569  -0.051223   0.001020
    18  H    0.320455  -0.059923  -0.035553  -0.008422  -0.000013
    19  C    7.661206  -0.453503  -2.032618   0.294694  -0.001259
    20  H   -0.453503   1.558110   0.389153  -0.091278  -0.000013
    21  C   -2.032618   0.389153   9.612588  -0.711647   0.009692
    22  H    0.294694  -0.091278  -0.711647   1.950676   0.000020
    23  H   -0.001259  -0.000013   0.009692   0.000020   0.560681
 Mulliken charges:
               1
     1  C    0.826826
     2  H   -0.080337
     3  H   -0.110846
     4  H   -0.067153
     5  N   -0.606657
     6  H    0.171383
     7  C    0.935804
     8  H   -0.232657
     9  H   -0.129490
    10  C    0.396619
    11  H   -0.049413
    12  H   -0.223569
    13  C    0.301169
    14  N   -0.761213
    15  C    0.446039
    16  H   -0.350996
    17  C    0.937004
    18  H   -0.397672
    19  C   -0.188119
    20  H   -0.392654
    21  C    0.955572
    22  H   -0.562973
    23  H    0.183333
 Sum of Mulliken charges =   1.00000
 Mulliken charges with hydrogens summed into heavy atoms:
               1
     1  C    0.568490
     5  N   -0.251941
     7  C    0.573658
    10  C    0.123637
    13  C    0.301169
    14  N   -0.761213
    15  C    0.095043
    17  C    0.539331
    19  C   -0.580773
    21  C    0.392598
 Electronic spatial extent (au):  <R**2>=           2030.6907
 Charge=              1.0000 electrons
 Dipole moment (field-independent basis, Debye):
    X=             10.7311    Y=              0.1382    Z=              1.0818  Tot=             10.7863
 Quadrupole moment (field-independent basis, Debye-Ang):
   XX=              1.6296   YY=            -51.4883   ZZ=            -58.9109
   XY=             -5.5691   XZ=             -0.4267   YZ=             -0.7872
 Traceless Quadrupole moment (field-independent basis, Debye-Ang):
   XX=             37.8861   YY=            -15.2318   ZZ=            -22.6544
   XY=             -5.5691   XZ=             -0.4267   YZ=             -0.7872
 Octapole moment (field-independent basis, Debye-Ang**2):
  XXX=            140.1677  YYY=              1.8777  ZZZ=              1.1926  XYY=             12.5621
  XXY=            -15.7313  XXZ=             16.1457  XZZ=             24.9630  YZZ=             -3.2389
  YYZ=              3.5159  XYZ=             -1.9221
 Hexadecapole moment (field-independent basis, Debye-Ang**3):
 XXXX=          -1304.8416 YYYY=           -335.3583 ZZZZ=           -127.0965 XXXY=            -39.8723
 XXXZ=            -12.5567 YYYX=            -17.4791 YYYZ=             -3.9170 ZZZX=              9.2961
 ZZZY=              1.7026 XXYY=           -322.5395 XXZZ=           -373.2175 YYZZ=            -83.2744
 XXYZ=              2.0671 YYXZ=             -2.0308 ZZXY=             -6.4660
 N-N= 5.092665246833D+02 E-N=-1.983539354663D+03  KE= 4.186854021566D+02
 Leave Link  601 at Sun Jul 18 13:52:22 2021, MaxMem=   262144000 cpu:               0.3 elap:               0.1
 (Enter /prod/apps/gaussian/g16b1/l9999.exe)
 1\1\GINC-PIRINEUS22\SP\RMP2-FC\Aug-CC-pVDZ\C8H13N2(1+)\UBATOR02\18-Jul
 -2021\0\\#p mp2/aug-cc-pVDZ scf=tight maxdisk=180GB geom=allcheck\\SET
 _328_BBB256_conf1.geo_075_180_255 geometry\\1,1\C,0,-1.4567447792,0.98
 44561409,3.0899569325\H,0,-2.0941653037,0.2390727895,2.6205227347\H,0,
 -2.0386549953,1.6019385324,3.7710110296\H,0,-0.6368077032,0.5042744886
 ,3.6198093761\N,0,-0.8802111591,1.8672940329,2.0343431819\H,0,-0.30626
 74991,2.5935840913,2.4894498424\C,0,-0.0340659211,1.1671997385,1.01183
 93306\H,0,0.7382614686,0.6262739397,1.560131321\H,0,0.4396552971,1.944
 4202993,0.4129854942\C,0,-0.8505282811,0.2363045152,0.1191673919\H,0,-
 1.6523378431,0.8081845433,-0.3598228788\H,0,-1.309761308,-0.5585495627
 ,0.7090556722\C,0,0.0332127654,-0.3726254696,-0.9473084774\N,0,0.54770
 87543,0.4767849465,-1.8546695785\C,0,1.3426557878,-0.028916,-2.8069921
 508\H,0,1.7406825306,0.6836456046,-3.524561579\C,0,1.6631340628,-1.382
 5521884,-2.9090131155\H,0,2.3111816041,-1.7335734665,-3.7030194702\C,0
 ,1.1273608275,-2.2573240726,-1.9661524002\H,0,1.3480339056,-3.31866296
 55,-2.0051439166\C,0,0.3004478139,-1.744157221,-0.9684265852\H,0,-0.13
 60072879,-2.3915013375,-0.2157032982\H,0,-1.6407827369,2.3734286209,1.
 5585411432\\Version=ES64L-G16RevB.01\State=1-A\HF=-419.2511627\MP2=-42
 0.7089797\RMSD=9.253e-09\PG=C01 [X(C8H13N2)]\\@


 THE MORE PROGRESS PHYSICAL SCIENCES MAKE, THE MORE THEY TEND TO ENTER
 THE DOMAIN OF MATHEMATICS, WHICH IS A KIND OF CENTRE TO WHICH THEY ALL
 CONVERGE.  WE MAY EVEN JUDGE THE DEGREE OF PERFECTION TO WHICH A 
 SCIENCE HAS ARRIVED BY THE FACILITY WITH WHICH IT MAY BE SUBMITTED
 TO CALCULATION.

                               -- ADOLPHE QUETELET, 1796-1874
 Job cpu time:       0 days  0 hours 12 minutes 35.3 seconds.
 Elapsed time:       0 days  0 hours  3 minutes  9.1 seconds.
 File lengths (MBytes):  RWF=  10477 Int=      0 D2E=      0 Chk=     11 Scr=      1
 Normal termination of Gaussian 16 at Sun Jul 18 13:52:35 2021.
