 Entering Gaussian System, Link 0=g16
 Initial command:
 /prod/apps/gaussian/g16b1/l1.exe "/tmp/ubator02/1839616/Gau-96545.inp" -scrdir="/tmp/ubator02/1839616/"
 Entering Link 1 = /prod/apps/gaussian/g16b1/l1.exe PID=     96553.
  
 Copyright (c) 1988-2017, Gaussian, Inc.  All Rights Reserved.
  
 This is part of the Gaussian(R) 16 program.  It is based on
 the Gaussian(R) 09 system (copyright 2009, Gaussian, Inc.),
 the Gaussian(R) 03 system (copyright 2003, Gaussian, Inc.),
 the Gaussian(R) 98 system (copyright 1998, Gaussian, Inc.),
 the Gaussian(R) 94 system (copyright 1995, Gaussian, Inc.),
 the Gaussian 92(TM) system (copyright 1992, Gaussian, Inc.),
 the Gaussian 90(TM) system (copyright 1990, Gaussian, Inc.),
 the Gaussian 88(TM) system (copyright 1988, Gaussian, Inc.),
 the Gaussian 86(TM) system (copyright 1986, Carnegie Mellon
 University), and the Gaussian 82(TM) system (copyright 1983,
 Carnegie Mellon University). Gaussian is a federally registered
 trademark of Gaussian, Inc.
  
 This software contains proprietary and confidential information,
 including trade secrets, belonging to Gaussian, Inc.
  
 This software is provided under written license and may be
 used, copied, transmitted, or stored only in accord with that
 written license.
  
 The following legend is applicable only to US Government
 contracts under FAR:
  
                    RESTRICTED RIGHTS LEGEND
  
 Use, reproduction and disclosure by the US Government is
 subject to restrictions as set forth in subparagraphs (a)
 and (c) of the Commercial Computer Software - Restricted
 Rights clause in FAR 52.227-19.
  
 Gaussian, Inc.
 340 Quinnipiac St., Bldg. 40, Wallingford CT 06492
  
  
 ---------------------------------------------------------------
 Warning -- This program may not be used in any manner that
 competes with the business of Gaussian, Inc. or will provide
 assistance to any competitor of Gaussian, Inc.  The licensee
 of this program is prohibited from giving any competitor of
 Gaussian, Inc. access to this program.  By using this program,
 the user acknowledges that Gaussian, Inc. is engaged in the
 business of creating and licensing software in the field of
 computational chemistry and represents and warrants to the
 licensee that it is not a competitor of Gaussian, Inc. and that
 it will not use this program in any manner prohibited above.
 ---------------------------------------------------------------
  

 Cite this work as:
 Gaussian 16, Revision B.01,
 M. J. Frisch, G. W. Trucks, H. B. Schlegel, G. E. Scuseria, 
 M. A. Robb, J. R. Cheeseman, G. Scalmani, V. Barone, 
 G. A. Petersson, H. Nakatsuji, X. Li, M. Caricato, A. V. Marenich, 
 J. Bloino, B. G. Janesko, R. Gomperts, B. Mennucci, H. P. Hratchian, 
 J. V. Ortiz, A. F. Izmaylov, J. L. Sonnenberg, D. Williams-Young, 
 F. Ding, F. Lipparini, F. Egidi, J. Goings, B. Peng, A. Petrone, 
 T. Henderson, D. Ranasinghe, V. G. Zakrzewski, J. Gao, N. Rega, 
 G. Zheng, W. Liang, M. Hada, M. Ehara, K. Toyota, R. Fukuda, 
 J. Hasegawa, M. Ishida, T. Nakajima, Y. Honda, O. Kitao, H. Nakai, 
 T. Vreven, K. Throssell, J. A. Montgomery, Jr., J. E. Peralta, 
 F. Ogliaro, M. J. Bearpark, J. J. Heyd, E. N. Brothers, K. N. Kudin, 
 V. N. Staroverov, T. A. Keith, R. Kobayashi, J. Normand, 
 K. Raghavachari, A. P. Rendell, J. C. Burant, S. S. Iyengar, 
 J. Tomasi, M. Cossi, J. M. Millam, M. Klene, C. Adamo, R. Cammi, 
 J. W. Ochterski, R. L. Martin, K. Morokuma, O. Farkas, 
 J. B. Foresman, and D. J. Fox, Gaussian, Inc., Wallingford CT, 2016.
 
 ******************************************
 Gaussian 16:  ES64L-G16RevB.01 20-Dec-2017
                18-Jul-2021 
 ******************************************
 %mem=800MB
 %nproc=4
 Will use up to    4 processors via shared memory.
 %chk=SET_328_BBB30_conf1.geo_105_180_285.chk
 -----------------------------------------------------------
 #p b3lyp/6-31G(d) opt freq scrf=(iefpcm,read,solvent=water)
 -----------------------------------------------------------
 1/18=20,19=15,26=3,38=1,40=2/1,3;
 2/9=110,12=2,17=6,18=5,40=1/2;
 3/5=1,6=6,7=1,11=2,25=1,30=1,70=2203,71=1,72=1,74=-5/1,2,3;
 4//1;
 5/5=2,38=5,53=1/2;
 6/7=2,8=2,9=2,10=2,28=1/1;
 7//1,2,3,16;
 1/18=20,19=15,26=3/3(2);
 2/9=110/2;
 99//99;
 2/9=110/2;
 3/5=1,6=6,7=1,11=2,25=1,30=1,70=2205,71=1,72=1,74=-5/1,2,3;
 4/5=5,16=3,69=1/1;
 5/5=2,38=5,53=1/2;
 7//1,2,3,16;
 1/18=20,19=15,26=3/3(-5);
 2/9=110/2;
 6/7=2,8=2,9=2,10=2,19=2,28=1/1;
 99/9=1/99;
 Leave Link    1 at Sun Jul 18 14:19:37 2021, MaxMem=   104857600 cpu:               0.1 elap:               0.0
 (Enter /prod/apps/gaussian/g16b1/l101.exe)
 --------------------------------------------
 SET_328_BBB30_conf1.geo_105_180_285 geometry
 --------------------------------------------
 Symbolic Z-matrix:
 Charge =  1 Multiplicity = 1
 C                    -1.672    -1.38     -2.798 
 H                    -2.351    -1.557    -1.96 
 H                    -1.302    -2.385    -3.021 
 H                    -2.207    -1.003    -3.674 
 N                    -0.595    -0.292    -2.618 
 H                    -1.052     0.597    -2.639 
 C                     0.18     -0.347    -1.46 
 C                     1.289     0.731    -1.646 
 H                     0.835     1.722    -1.711 
 H                     1.896     0.536    -2.532 
 H                     1.923     0.781    -0.758 
 H                     0.506    -1.353    -1.183 
 C                    -0.768     0.146    -0.372 
 H                    -1.578    -0.565    -0.197 
 H                    -1.063     1.148    -0.692 
 C                    -0.153     0.206     1.012 
 C                     0.199     1.456     1.539 
 H                    -0.035     2.369     0.997 
 C                     0.824     1.514     2.75 
 H                     1.154     2.475     3.135 
 C                     1.036     0.353     3.472 
 H                     1.313     0.424     4.521 
 C                     0.745    -0.913     3.015 
 H                     0.982    -1.777     3.629 
 C                     0.051    -1.001     1.774 
 H                    -0.261    -1.951     1.349 
 H                     0.023    -0.34     -3.403 
 
 ITRead=  0  0  0  0  0  0  0  0  0  0  0  0  0  0  0  0  0  0  0  0
 ITRead=  0  0  0  0  0  0  0
 MicOpt= -1 -1 -1 -1 -1 -1 -1 -1 -1 -1 -1 -1 -1 -1 -1 -1 -1 -1 -1 -1
 MicOpt= -1 -1 -1 -1 -1 -1 -1
 NAtoms=     27 NQM=       27 NQMF=       0 NMMI=      0 NMMIF=      0
                NMic=       0 NMicF=      0.
                    Isotopes and Nuclear Properties:
 (Nuclear quadrupole moments (NQMom) in fm**2, nuclear magnetic moments (NMagM)
  in nuclear magnetons)

  Atom         1           2           3           4           5           6           7           8           9          10
 IAtWgt=          12           1           1           1          14           1          12          12           1           1
 AtmWgt=  12.0000000   1.0078250   1.0078250   1.0078250  14.0030740   1.0078250  12.0000000  12.0000000   1.0078250   1.0078250
 NucSpn=           0           1           1           1           2           1           0           0           1           1
 AtZEff=  -0.0000000  -0.0000000  -0.0000000  -0.0000000  -0.0000000  -0.0000000  -0.0000000  -0.0000000  -0.0000000  -0.0000000
 NQMom=    0.0000000   0.0000000   0.0000000   0.0000000   2.0440000   0.0000000   0.0000000   0.0000000   0.0000000   0.0000000
 NMagM=    0.0000000   2.7928460   2.7928460   2.7928460   0.4037610   2.7928460   0.0000000   0.0000000   2.7928460   2.7928460
 AtZNuc=   6.0000000   1.0000000   1.0000000   1.0000000   7.0000000   1.0000000   6.0000000   6.0000000   1.0000000   1.0000000

  Atom        11          12          13          14          15          16          17          18          19          20
 IAtWgt=           1           1          12           1           1          12          12           1          12           1
 AtmWgt=   1.0078250   1.0078250  12.0000000   1.0078250   1.0078250  12.0000000  12.0000000   1.0078250  12.0000000   1.0078250
 NucSpn=           1           1           0           1           1           0           0           1           0           1
 AtZEff=  -0.0000000  -0.0000000  -0.0000000  -0.0000000  -0.0000000  -0.0000000  -0.0000000  -0.0000000  -0.0000000  -0.0000000
 NQMom=    0.0000000   0.0000000   0.0000000   0.0000000   0.0000000   0.0000000   0.0000000   0.0000000   0.0000000   0.0000000
 NMagM=    2.7928460   2.7928460   0.0000000   2.7928460   2.7928460   0.0000000   0.0000000   2.7928460   0.0000000   2.7928460
 AtZNuc=   1.0000000   1.0000000   6.0000000   1.0000000   1.0000000   6.0000000   6.0000000   1.0000000   6.0000000   1.0000000

  Atom        21          22          23          24          25          26          27
 IAtWgt=          12           1          12           1          12           1           1
 AtmWgt=  12.0000000   1.0078250  12.0000000   1.0078250  12.0000000   1.0078250   1.0078250
 NucSpn=           0           1           0           1           0           1           1
 AtZEff=  -0.0000000  -0.0000000  -0.0000000  -0.0000000  -0.0000000  -0.0000000  -0.0000000
 NQMom=    0.0000000   0.0000000   0.0000000   0.0000000   0.0000000   0.0000000   0.0000000
 NMagM=    0.0000000   2.7928460   0.0000000   2.7928460   0.0000000   2.7928460   2.7928460
 AtZNuc=   6.0000000   1.0000000   6.0000000   1.0000000   6.0000000   1.0000000   1.0000000
 Leave Link  101 at Sun Jul 18 14:19:38 2021, MaxMem=   104857600 cpu:               0.5 elap:               0.1
 (Enter /prod/apps/gaussian/g16b1/l103.exe)

 GradGradGradGradGradGradGradGradGradGradGradGradGradGradGradGradGradGrad
 Berny optimization.
 Initialization pass.
                           ----------------------------
                           !    Initial Parameters    !
                           ! (Angstroms and Degrees)  !
 --------------------------                            --------------------------
 ! Name  Definition              Value          Derivative Info.                !
 --------------------------------------------------------------------------------
 ! R1    R(1,2)                  1.093          estimate D2E/DX2                !
 ! R2    R(1,3)                  1.0939         estimate D2E/DX2                !
 ! R3    R(1,4)                  1.0935         estimate D2E/DX2                !
 ! R4    R(1,5)                  1.5415         estimate D2E/DX2                !
 ! R5    R(5,6)                  0.9998         estimate D2E/DX2                !
 ! R6    R(5,7)                  1.3945         estimate D2E/DX2                !
 ! R7    R(5,27)                 1.0002         estimate D2E/DX2                !
 ! R8    R(7,8)                  1.5577         estimate D2E/DX2                !
 ! R9    R(7,12)                 1.0932         estimate D2E/DX2                !
 ! R10   R(7,13)                 1.525          estimate D2E/DX2                !
 ! R11   R(8,9)                  1.092          estimate D2E/DX2                !
 ! R12   R(8,10)                 1.0915         estimate D2E/DX2                !
 ! R13   R(8,11)                 1.0922         estimate D2E/DX2                !
 ! R14   R(13,14)                1.0919         estimate D2E/DX2                !
 ! R15   R(13,15)                1.0924         estimate D2E/DX2                !
 ! R16   R(13,16)                1.5157         estimate D2E/DX2                !
 ! R17   R(16,17)                1.4015         estimate D2E/DX2                !
 ! R18   R(16,25)                1.4419         estimate D2E/DX2                !
 ! R19   R(17,18)                1.0872         estimate D2E/DX2                !
 ! R20   R(17,19)                1.364          estimate D2E/DX2                !
 ! R21   R(19,20)                1.0866         estimate D2E/DX2                !
 ! R22   R(19,21)                1.3835         estimate D2E/DX2                !
 ! R23   R(21,22)                1.0873         estimate D2E/DX2                !
 ! R24   R(21,23)                1.3771         estimate D2E/DX2                !
 ! R25   R(23,24)                1.0861         estimate D2E/DX2                !
 ! R26   R(23,25)                1.4246         estimate D2E/DX2                !
 ! R27   R(25,26)                1.0865         estimate D2E/DX2                !
 ! A1    A(2,1,3)              102.5705         estimate D2E/DX2                !
 ! A2    A(2,1,4)              111.4753         estimate D2E/DX2                !
 ! A3    A(2,1,5)              117.3113         estimate D2E/DX2                !
 ! A4    A(3,1,4)              108.5975         estimate D2E/DX2                !
 ! A5    A(3,1,5)              115.8451         estimate D2E/DX2                !
 ! A6    A(4,1,5)              101.0719         estimate D2E/DX2                !
 ! A7    A(1,5,6)              107.8055         estimate D2E/DX2                !
 ! A8    A(1,5,7)              117.2216         estimate D2E/DX2                !
 ! A9    A(1,5,27)             107.8289         estimate D2E/DX2                !
 ! A10   A(6,5,7)              107.851          estimate D2E/DX2                !
 ! A11   A(6,5,27)             107.9751         estimate D2E/DX2                !
 ! A12   A(7,5,27)             107.8454         estimate D2E/DX2                !
 ! A13   A(5,7,8)              105.6173         estimate D2E/DX2                !
 ! A14   A(5,7,12)             114.3586         estimate D2E/DX2                !
 ! A15   A(5,7,13)             103.5459         estimate D2E/DX2                !
 ! A16   A(8,7,12)             117.0513         estimate D2E/DX2                !
 ! A17   A(8,7,13)             107.7005         estimate D2E/DX2                !
 ! A18   A(12,7,13)            107.5843         estimate D2E/DX2                !
 ! A19   A(7,8,9)              109.8251         estimate D2E/DX2                !
 ! A20   A(7,8,10)             111.6656         estimate D2E/DX2                !
 ! A21   A(7,8,11)             110.3556         estimate D2E/DX2                !
 ! A22   A(9,8,10)             110.1824         estimate D2E/DX2                !
 ! A23   A(9,8,11)             104.3698         estimate D2E/DX2                !
 ! A24   A(10,8,11)            110.2002         estimate D2E/DX2                !
 ! A25   A(7,13,14)            111.4074         estimate D2E/DX2                !
 ! A26   A(7,13,15)            104.7976         estimate D2E/DX2                !
 ! A27   A(7,13,16)            114.3326         estimate D2E/DX2                !
 ! A28   A(14,13,15)           116.3515         estimate D2E/DX2                !
 ! A29   A(14,13,16)           100.3949         estimate D2E/DX2                !
 ! A30   A(15,13,16)           109.9216         estimate D2E/DX2                !
 ! A31   A(13,16,17)           118.7235         estimate D2E/DX2                !
 ! A32   A(13,16,25)           120.4524         estimate D2E/DX2                !
 ! A33   A(17,16,25)           120.8208         estimate D2E/DX2                !
 ! A34   A(16,17,18)           120.4953         estimate D2E/DX2                !
 ! A35   A(16,17,19)           119.1346         estimate D2E/DX2                !
 ! A36   A(18,17,19)           120.3646         estimate D2E/DX2                !
 ! A37   A(17,19,20)           119.4292         estimate D2E/DX2                !
 ! A38   A(17,19,21)           119.8576         estimate D2E/DX2                !
 ! A39   A(20,19,21)           120.7128         estimate D2E/DX2                !
 ! A40   A(19,21,22)           119.191          estimate D2E/DX2                !
 ! A41   A(19,21,23)           124.4659         estimate D2E/DX2                !
 ! A42   A(22,21,23)           115.7252         estimate D2E/DX2                !
 ! A43   A(21,23,24)           119.8423         estimate D2E/DX2                !
 ! A44   A(21,23,25)           116.669          estimate D2E/DX2                !
 ! A45   A(24,23,25)           123.3411         estimate D2E/DX2                !
 ! A46   A(16,25,23)           118.5271         estimate D2E/DX2                !
 ! A47   A(16,25,26)           118.9848         estimate D2E/DX2                !
 ! A48   A(23,25,26)           122.3209         estimate D2E/DX2                !
 ! D1    D(2,1,5,6)            -71.8044         estimate D2E/DX2                !
 ! D2    D(2,1,5,7)             50.0173         estimate D2E/DX2                !
 ! D3    D(2,1,5,27)           171.8506         estimate D2E/DX2                !
 ! D4    D(3,1,5,6)            166.7088         estimate D2E/DX2                !
 ! D5    D(3,1,5,7)            -71.4695         estimate D2E/DX2                !
 ! D6    D(3,1,5,27)            50.3637         estimate D2E/DX2                !
 ! D7    D(4,1,5,6)             49.5878         estimate D2E/DX2                !
 ! D8    D(4,1,5,7)            171.4095         estimate D2E/DX2                !
 ! D9    D(4,1,5,27)           -66.7572         estimate D2E/DX2                !
 ! D10   D(1,5,7,8)            172.3448         estimate D2E/DX2                !
 ! D11   D(1,5,7,12)            42.1849         estimate D2E/DX2                !
 ! D12   D(1,5,7,13)           -74.5715         estimate D2E/DX2                !
 ! D13   D(6,5,7,8)            -65.8571         estimate D2E/DX2                !
 ! D14   D(6,5,7,12)           163.983          estimate D2E/DX2                !
 ! D15   D(6,5,7,13)            47.2266         estimate D2E/DX2                !
 ! D16   D(27,5,7,8)            50.5201         estimate D2E/DX2                !
 ! D17   D(27,5,7,12)          -79.6398         estimate D2E/DX2                !
 ! D18   D(27,5,7,13)          163.6038         estimate D2E/DX2                !
 ! D19   D(5,7,8,9)             63.2644         estimate D2E/DX2                !
 ! D20   D(5,7,8,10)           -59.2724         estimate D2E/DX2                !
 ! D21   D(5,7,8,11)           177.7928         estimate D2E/DX2                !
 ! D22   D(12,7,8,9)          -168.1556         estimate D2E/DX2                !
 ! D23   D(12,7,8,10)           69.3076         estimate D2E/DX2                !
 ! D24   D(12,7,8,11)          -53.6272         estimate D2E/DX2                !
 ! D25   D(13,7,8,9)           -46.887          estimate D2E/DX2                !
 ! D26   D(13,7,8,10)         -169.4237         estimate D2E/DX2                !
 ! D27   D(13,7,8,11)           67.6414         estimate D2E/DX2                !
 ! D28   D(5,7,13,14)           68.0046         estimate D2E/DX2                !
 ! D29   D(5,7,13,15)          -58.6286         estimate D2E/DX2                !
 ! D30   D(5,7,13,16)         -179.0421         estimate D2E/DX2                !
 ! D31   D(8,7,13,14)          179.5702         estimate D2E/DX2                !
 ! D32   D(8,7,13,15)           52.9371         estimate D2E/DX2                !
 ! D33   D(8,7,13,16)          -67.4765         estimate D2E/DX2                !
 ! D34   D(12,7,13,14)         -53.4214         estimate D2E/DX2                !
 ! D35   D(12,7,13,15)         179.9455         estimate D2E/DX2                !
 ! D36   D(12,7,13,16)          59.5319         estimate D2E/DX2                !
 ! D37   D(7,13,16,17)         104.6786         estimate D2E/DX2                !
 ! D38   D(7,13,16,25)         -75.9748         estimate D2E/DX2                !
 ! D39   D(14,13,16,17)       -135.9664         estimate D2E/DX2                !
 ! D40   D(14,13,16,25)         43.3801         estimate D2E/DX2                !
 ! D41   D(15,13,16,17)        -12.8398         estimate D2E/DX2                !
 ! D42   D(15,13,16,25)        166.5067         estimate D2E/DX2                !
 ! D43   D(13,16,17,18)          4.637          estimate D2E/DX2                !
 ! D44   D(13,16,17,19)       -176.2113         estimate D2E/DX2                !
 ! D45   D(25,16,17,18)       -174.7071         estimate D2E/DX2                !
 ! D46   D(25,16,17,19)          4.4446         estimate D2E/DX2                !
 ! D47   D(13,16,25,23)        174.2008         estimate D2E/DX2                !
 ! D48   D(13,16,25,26)         -1.2095         estimate D2E/DX2                !
 ! D49   D(17,16,25,23)         -6.4665         estimate D2E/DX2                !
 ! D50   D(17,16,25,26)        178.1232         estimate D2E/DX2                !
 ! D51   D(16,17,19,20)        176.2478         estimate D2E/DX2                !
 ! D52   D(16,17,19,21)         -3.5022         estimate D2E/DX2                !
 ! D53   D(18,17,19,20)         -4.5994         estimate D2E/DX2                !
 ! D54   D(18,17,19,21)        175.6506         estimate D2E/DX2                !
 ! D55   D(17,19,21,22)       -165.581          estimate D2E/DX2                !
 ! D56   D(17,19,21,23)          5.0068         estimate D2E/DX2                !
 ! D57   D(20,19,21,22)         14.6722         estimate D2E/DX2                !
 ! D58   D(20,19,21,23)       -174.74           estimate D2E/DX2                !
 ! D59   D(19,21,23,24)        177.3676         estimate D2E/DX2                !
 ! D60   D(19,21,23,25)         -6.9009         estimate D2E/DX2                !
 ! D61   D(22,21,23,24)        -11.7507         estimate D2E/DX2                !
 ! D62   D(22,21,23,25)        163.9808         estimate D2E/DX2                !
 ! D63   D(21,23,25,16)          7.3628         estimate D2E/DX2                !
 ! D64   D(21,23,25,26)       -177.3884         estimate D2E/DX2                !
 ! D65   D(24,23,25,16)       -177.0695         estimate D2E/DX2                !
 ! D66   D(24,23,25,26)         -1.8207         estimate D2E/DX2                !
 --------------------------------------------------------------------------------
 Trust Radius=3.00D-01 FncErr=1.00D-07 GrdErr=1.00D-06 EigMax=2.50D+02 EigMin=1.00D-04
 Number of steps in this run=    151 maximum allowed number of steps=    162.
 GradGradGradGradGradGradGradGradGradGradGradGradGradGradGradGradGradGrad

 Leave Link  103 at Sun Jul 18 14:19:38 2021, MaxMem=   104857600 cpu:               0.1 elap:               0.0
 (Enter /prod/apps/gaussian/g16b1/l202.exe)
                          Input orientation:                          
 ---------------------------------------------------------------------
 Center     Atomic      Atomic             Coordinates (Angstroms)
 Number     Number       Type             X           Y           Z
 ---------------------------------------------------------------------
      1          6           0       -1.672000   -1.380000   -2.798000
      2          1           0       -2.351000   -1.557000   -1.960000
      3          1           0       -1.302000   -2.385000   -3.021000
      4          1           0       -2.207000   -1.003000   -3.674000
      5          7           0       -0.595000   -0.292000   -2.618000
      6          1           0       -1.052000    0.597000   -2.639000
      7          6           0        0.180000   -0.347000   -1.460000
      8          6           0        1.289000    0.731000   -1.646000
      9          1           0        0.835000    1.722000   -1.711000
     10          1           0        1.896000    0.536000   -2.532000
     11          1           0        1.923000    0.781000   -0.758000
     12          1           0        0.506000   -1.353000   -1.183000
     13          6           0       -0.768000    0.146000   -0.372000
     14          1           0       -1.578000   -0.565000   -0.197000
     15          1           0       -1.063000    1.148000   -0.692000
     16          6           0       -0.153000    0.206000    1.012000
     17          6           0        0.199000    1.456000    1.539000
     18          1           0       -0.035000    2.369000    0.997000
     19          6           0        0.824000    1.514000    2.750000
     20          1           0        1.154000    2.475000    3.135000
     21          6           0        1.036000    0.353000    3.472000
     22          1           0        1.313000    0.424000    4.521000
     23          6           0        0.745000   -0.913000    3.015000
     24          1           0        0.982000   -1.777000    3.629000
     25          6           0        0.051000   -1.001000    1.774000
     26          1           0       -0.261000   -1.951000    1.349000
     27          1           0        0.023000   -0.340000   -3.403000
 ---------------------------------------------------------------------
                    Distance matrix (angstroms):
                    1          2          3          4          5
     1  C    0.000000
     2  H    1.092984   0.000000
     3  H    1.093917   1.706372   0.000000
     4  H    1.093494   1.807055   1.776333   0.000000
     5  N    1.541452   2.262018   2.245642   2.054069   0.000000
     6  H    2.078030   2.605409   3.016745   2.228284   0.999805
     7  C    2.507436   2.849572   2.964201   3.321129   1.394494
     8  C    3.814570   4.310817   4.279411   4.397904   2.353884
     9  H    4.133887   4.578694   4.811478   4.531309   2.631301
    10  H    4.058625   4.769155   4.358734   4.528498   2.626416
    11  H    4.664284   5.017781   5.054241   5.361214   3.309268
    12  H    2.711575   2.967793   2.777073   3.699723   2.096938
    13  C    3.005223   2.815642   3.702475   3.780757   2.294840
    14  H    2.727318   2.165586   3.370987   3.560479   2.627177
    15  H    3.346177   3.253274   4.238331   3.850696   2.449918
    16  C    4.397597   4.095382   4.929358   5.257299   3.690565
    17  C    5.509365   5.274815   6.148161   6.245870   4.578929
    18  H    5.580035   5.433340   6.352175   6.156802   4.523577
    19  C    6.736880   6.457226   7.281931   7.535916   5.838717
    20  H    7.618910   7.382484   8.218751   8.351963   6.619086
    21  C    7.046237   6.680306   7.424415   7.963737   6.337530
    22  H    8.107552   7.704065   8.462297   9.032428   7.424179
    23  C    6.312761   5.894962   6.541429   7.311985   5.823395
    24  H    6.964744   6.511084   7.057536   8.006410   6.611896
    25  C    4.900567   4.474539   5.170889   5.897395   4.495516
    26  H    4.417530   3.933550   4.513196   5.469566   4.312879
    27  H    2.078617   3.033021   2.466490   2.342202   1.000226
                    6          7          8          9         10
     6  H    0.000000
     7  C    1.949103   0.000000
     8  C    2.546426   1.557742   0.000000
     9  H    2.384864   2.184671   1.091981   0.000000
    10  H    2.950572   2.207607   1.091545   1.790631   0.000000
    11  H    3.524577   2.191629   1.092245   1.725524   1.791042
    12  H    2.889602   1.093179   2.273876   3.137300   2.705591
    13  C    2.328808   1.524958   2.489287   2.616545   3.451753
    14  H    2.755047   2.175605   3.463944   3.653099   4.328175
    15  H    2.023495   2.090430   2.572141   2.229404   3.537771
    16  C    3.780328   2.554894   3.069194   3.269423   4.106974
    17  C    4.445061   3.499310   3.443537   3.322311   4.505469
    18  H    4.170704   3.668750   3.379566   2.916980   4.420689
    19  C    5.779411   4.647812   4.489335   4.465860   5.477700
    20  H    6.460062   5.479634   5.090945   4.914518   6.035327
    21  C    6.462476   5.054440   5.138173   5.364518   6.068040
    22  H    7.542463   6.136000   6.174683   6.383660   7.077941
    23  C    6.121848   4.545900   4.972282   5.411691   5.847530
    24  H    7.004346   5.346590   5.848926   6.385938   6.644041
    25  C    4.821284   3.301986   4.028507   4.491616   4.930317
    26  H    4.798138   3.264625   4.308787   4.904666   5.089202
    27  H    1.617804   1.949345   2.415957   2.788199   2.243690
                   11         12         13         14         15
    11  H    0.000000
    12  H    2.596627   0.000000
    13  C    2.791720   2.127862   0.000000
    14  H    3.792550   2.436431   1.091900   0.000000
    15  H    3.009193   2.992966   1.092442   1.855968   0.000000
    16  C    2.788064   2.771784   1.515678   2.021570   2.149205
    17  C    2.950256   3.923521   2.510600   3.202478   2.581641
    18  H    3.071731   4.347225   2.711675   3.523470   2.323864
    19  C    3.748487   4.877428   3.762017   4.333204   3.942346
    20  H    4.314678   5.806773   4.627891   5.273296   4.617569
    21  C    4.343139   4.986017   4.251306   4.597530   4.730404
    22  H    5.326105   6.028648   5.324406   5.620990   5.774506
    23  C    4.300331   4.227756   3.857774   3.979243   4.610687
    24  H    5.164747   4.854039   4.771628   4.760338   5.604346
    25  C    3.618139   3.012437   2.567428   2.593950   3.455482
    26  H    4.083274   2.712364   2.759764   2.458780   3.796404
    27  H    3.444222   2.487541   3.169990   3.590580   3.277661
                   16         17         18         19         20
    16  C    0.000000
    17  C    1.401475   0.000000
    18  H    2.166268   1.087239   0.000000
    19  C    2.384541   1.364005   2.131177   0.000000
    20  H    3.371015   2.120755   2.448673   1.086575   0.000000
    21  C    2.736226   2.377744   3.367035   1.383528   2.151831
    22  H    3.809168   3.346393   4.244845   2.136273   2.480500
    23  C    2.463853   2.844091   3.930935   2.442702   3.414707
    24  H    3.474076   3.928547   5.015080   3.410027   4.284055
    25  C    1.441912   2.472646   3.459483   2.806302   3.892494
    26  H    2.185837   3.443160   4.340205   3.891818   4.978102
    27  H    4.452114   5.261174   5.167402   6.475981   7.207554
                   21         22         23         24         25
    21  C    0.000000
    22  H    1.087277   0.000000
    23  C    1.377057   2.092422   0.000000
    24  H    2.136461   2.397838   1.086122   0.000000
    25  C    2.384690   3.342047   1.424592   2.215843   0.000000
    26  H    3.390834   4.263764   2.205683   2.602638   1.086494
    27  H    6.983698   8.064588   6.483852   7.241110   5.219103
                   26         27
    26  H    0.000000
    27  H    5.025682   0.000000
 Stoichiometry    C10H16N(1+)
 Framework group  C1[X(C10H16N)]
 Deg. of freedom    75
 Full point group                 C1      NOp   1
 Largest Abelian subgroup         C1      NOp   1
 Largest concise Abelian subgroup C1      NOp   1
                         Standard orientation:                         
 ---------------------------------------------------------------------
 Center     Atomic      Atomic             Coordinates (Angstroms)
 Number     Number       Type             X           Y           Z
 ---------------------------------------------------------------------
      1          6           0        3.539858   -1.152203   -0.371469
      2          1           0        2.946318   -1.823812   -0.996982
      3          1           0        3.824008   -1.795943    0.466094
      4          1           0        4.448730   -0.826026   -0.884588
      5          7           0        2.910470    0.203270    0.006202
      6          1           0        2.900261    0.774763   -0.814104
      7          6           0        1.617863    0.182806    0.529042
      8          6           0        1.330301    1.641558    0.993707
      9          1           0        1.344246    2.313845    0.133325
     10          1           0        2.049909    1.974831    1.743749
     11          1           0        0.313538    1.722383    1.384423
     12          1           0        1.437546   -0.614756    1.254592
     13          6           0        0.744177   -0.096473   -0.689224
     14          1           0        0.904248   -1.106744   -1.071292
     15          1           0        0.958113    0.722632   -1.379679
     16          6           0       -0.741508   -0.148075   -0.393656
     17          6           0       -1.541571    0.938746   -0.771613
     18          1           0       -1.117212    1.767252   -1.333384
     19          6           0       -2.864816    0.936079   -0.440665
     20          1           0       -3.475998    1.802829   -0.676982
     21          6           0       -3.413626   -0.163433    0.194969
     22          1           0       -4.495268   -0.262794    0.243436
     23          6           0       -2.693233   -1.256241    0.622862
     24          1           0       -3.195049   -2.060579    1.152845
     25          6           0       -1.318687   -1.301328    0.251310
     26          1           0       -0.675890   -2.140089    0.503816
     27          1           0        3.506664    0.640698    0.679747
 ---------------------------------------------------------------------
 Rotational constants (GHZ):           2.4664326           0.5716412           0.5177984
 Leave Link  202 at Sun Jul 18 14:19:38 2021, MaxMem=   104857600 cpu:               0.0 elap:               0.0
 (Enter /prod/apps/gaussian/g16b1/l301.exe)
 Standard basis: 6-31G(d) (6D, 7F)
 Ernie: Thresh=  0.10000D-02 Tol=  0.10000D-05 Strict=F.
 There are   197 symmetry adapted cartesian basis functions of A   symmetry.
 There are   197 symmetry adapted basis functions of A   symmetry.
   197 basis functions,   372 primitive gaussians,   197 cartesian basis functions
    41 alpha electrons       41 beta electrons
       nuclear repulsion energy       610.9408033968 Hartrees.
 IExCor=  402 DFT=T Ex+Corr=B3LYP ExCW=0 ScaHFX=  0.200000
 ScaDFX=  0.800000  0.720000  1.000000  0.810000 ScalE2=  1.000000  1.000000
 IRadAn=      5 IRanWt=     -1 IRanGd=            0 ICorTp=0 IEmpDi=  4
 NAtoms=   27 NActive=   27 NUniq=   27 SFac= 1.00D+00 NAtFMM=   60 NAOKFM=F Big=F
 Integral buffers will be    131072 words long.
 Raffenetti 2 integral format.
 Two-electron integral symmetry is turned on.
 Using the following non-standard input for PCM:
 MSTModel=DFT cav MSTCharged
 --- end of non-standard input.
 MST model for solvation energy: B3LYP parametrization.
 MST cavity parameters:
 ISph   IAn     Re0     Alpha   Atom Type   QCorr
 ------------------------------------------------
   1      6     1.50     1.25      CH3        F
   2      1     1.20     1.25      CH3        F
   3      1     1.20     1.25      CH3        F
   4      1     1.20     1.25      CH3        F
   5      7     1.55     1.15      NH         T
   6      1     0.90     1.15      NH         T
   7      6     1.50     1.25      CH         F
   8      6     1.50     1.25      CH3        F
   9      1     1.20     1.25      CH3        F
  10      1     1.20     1.25      CH3        F
  11      1     1.20     1.25      CH3        F
  12      1     1.20     1.25      CH         F
  13      6     1.50     1.25      CH2        F
  14      1     1.20     1.25      CH2        F
  15      1     1.20     1.25      CH2        F
  16      6     1.50     1.25      C          F
  17      6     1.50     1.25      CH         F
  18      1     1.20     1.25      CH         F
  19      6     1.50     1.25      CH         F
  20      1     1.20     1.25      CH         F
  21      6     1.50     1.25      CH         F
  22      1     1.20     1.25      CH         F
  23      6     1.50     1.25      CH         F
  24      1     1.20     1.25      CH         F
  25      6     1.50     1.25      CH         F
  26      1     1.20     1.25      CH         F
  27      1     0.90     1.15      NH         T
 ------------------------------------------------------------------------------
 Polarizable Continuum Model (PCM)
 =================================
 Model                : PCM.
 Atomic radii         : MST.
 Polarization charges : Total charges.
 Charge compensation  : None.
 Solution method      : On-the-fly selection.
 Cavity type          : Scaled VdW (van der Waals Surface) (Alpha=1.250).
 Cavity algorithm     : GePol (No added spheres)
                        Default sphere list used, NSphG=   27.
                        Lebedev-Laikov grids with approx.  5.0 points / Ang**2.
                        Smoothing algorithm: York/Karplus (Gamma=1.0000).
                        Polarization charges: spherical gaussians, with
                                              point-specific exponents (IZeta= 3).
                        Self-potential: point-specific (ISelfS= 7).
                        Self-field    : sphere-specific E.n sum rule (ISelfD= 2).
 1st derivatives      : Analytical E(r).r(x)/FMM algorithm (CHGder, D1EAlg=3).
                        Cavity 1st derivative terms included.
 Solvent              : Water, Eps=  78.355300 Eps(inf)=   1.777849
 ------------------------------------------------------------------------------
 GePol: Number of generator spheres                  =      27
 GePol: Total number of spheres                      =      27
 GePol: Number of exposed spheres                    =      27 (100.00%)
 GePol: Number of points                             =    1890
 GePol: Average weight of points                     =       0.12
 GePol: Minimum weight of points                     =   0.34D-11
 GePol: Maximum weight of points                     =    0.21416
 GePol: Number of points with low weight             =     145
 GePol: Fraction of low-weight points (<1% of avg)   =       7.67%
 GePol: Cavity surface area                          =    235.915 Ang**2
 GePol: Cavity volume                                =    216.765 Ang**3
 PCM non-electrostatic energy =         0.0009985948 Hartrees.
 Nuclear repulsion after PCM non-electrostatic terms =      610.9418019915 Hartrees.
 Leave Link  301 at Sun Jul 18 14:19:38 2021, MaxMem=   104857600 cpu:               0.3 elap:               0.1
 (Enter /prod/apps/gaussian/g16b1/l302.exe)
 NPDir=0 NMtPBC=     1 NCelOv=     1 NCel=       1 NClECP=     1 NCelD=      1
         NCelK=      1 NCelE2=     1 NClLst=     1 CellRange=     0.0.
 One-electron integrals computed using PRISM.
 One-electron integral symmetry used in STVInt
 NBasis=   197 RedAO= T EigKep=  5.41D-04  NBF=   197
 NBsUse=   197 1.00D-06 EigRej= -1.00D+00 NBFU=   197
 Precomputing XC quadrature grid using
 IXCGrd= 4 IRadAn=           5 IRanWt=          -1 IRanGd=           0 AccXCQ= 0.00D+00.
 Generated NRdTot=       0 NPtTot=           0 NUsed=           0 NTot=          32
 NSgBfM=   197   197   197   197   197 MxSgAt=    27 MxSgA2=    27.
 Leave Link  302 at Sun Jul 18 14:19:38 2021, MaxMem=   104857600 cpu:               1.1 elap:               0.3
 (Enter /prod/apps/gaussian/g16b1/l303.exe)
 DipDrv:  MaxL=1.
 Leave Link  303 at Sun Jul 18 14:19:38 2021, MaxMem=   104857600 cpu:               0.1 elap:               0.0
 (Enter /prod/apps/gaussian/g16b1/l401.exe)
 ExpMin= 1.61D-01 ExpMax= 4.17D+03 ExpMxC= 6.27D+02 IAcc=3 IRadAn=         5 AccDes= 0.00D+00
 Harris functional with IExCor=  402 and IRadAn=       5 diagonalized for initial guess.
 HarFok:  IExCor=  402 AccDes= 0.00D+00 IRadAn=         5 IDoV= 1 UseB2=F ITyADJ=14
 ICtDFT=  3500011 ScaDFX=  1.000000  1.000000  1.000000  1.000000
 FoFCou: FMM=F IPFlag=           0 FMFlag=      100000 FMFlg1=           0
         NFxFlg=           0 DoJE=T BraDBF=F KetDBF=T FulRan=T
         wScrn=  0.000000 ICntrl=       500 IOpCl=  0 I1Cent=   200000004 NGrid=           0
         NMat0=    1 NMatS0=      1 NMatT0=    0 NMatD0=    1 NMtDS0=    0 NMtDT0=    0
 Petite list used in FoFCou.
 Harris En= -445.243469265831    
 JPrj=0 DoOrth=F DoCkMO=F.
 Leave Link  401 at Sun Jul 18 14:19:39 2021, MaxMem=   104857600 cpu:               5.6 elap:               1.4
 (Enter /prod/apps/gaussian/g16b1/l502.exe)
 Integral symmetry usage will be decided dynamically.
 Closed shell SCF:
 Using DIIS extrapolation, IDIIS=  1040.
 NGot=   104857600 LenX=   104776342 LenY=   104737092
 Requested convergence on RMS density matrix=1.00D-08 within 128 cycles.
 Requested convergence on MAX density matrix=1.00D-06.
 Requested convergence on             energy=1.00D-06.
 No special actions if energy rises.
 Fock matrices will be formed incrementally for  20 cycles.

 Cycle   1  Pass 1  IDiag  1:
 FoFJK:  IHMeth= 1 ICntrl=       0 DoSepK=F KAlg= 0 I1Cent=           0 FoldK=F
 IRaf= 910000000 NMat=       1 IRICut=       1 DoRegI=T DoRafI=F ISym2E= 0 IDoP0=0 IntGTp=1.
 FoFCou: FMM=F IPFlag=           0 FMFlag=      100000 FMFlg1=           0
         NFxFlg=           0 DoJE=F BraDBF=F KetDBF=F FulRan=T
         wScrn=  0.000000 ICntrl=         0 IOpCl=  0 I1Cent=           0 NGrid=           0
         NMat0=    1 NMatS0=      1 NMatT0=    0 NMatD0=    1 NMtDS0=    0 NMtDT0=    0
 Symmetry not used in FoFCou.
 Inv3:  Mode=1 IEnd=    10716300.
 Iteration    1 A*A^-1 deviation from unit magnitude is 2.89D-15 for   1631.
 Iteration    1 A*A^-1 deviation from orthogonality  is 2.44D-15 for   1790    218.
 Iteration    1 A^-1*A deviation from unit magnitude is 2.89D-15 for   1631.
 Iteration    1 A^-1*A deviation from orthogonality  is 1.66D-15 for   1562    490.
 E= -445.028531262246    
 DIIS: error= 2.46D-02 at cycle   1 NSaved=   1.
 NSaved= 1 IEnMin= 1 EnMin= -445.028531262246     IErMin= 1 ErrMin= 2.46D-02
 ErrMax= 2.46D-02  0.00D+00 EMaxC= 1.00D-01 BMatC= 2.38D-01 BMatP= 2.38D-01
 IDIUse=3 WtCom= 7.54D-01 WtEn= 2.46D-01
 Coeff-Com:  0.100D+01
 Coeff-En:   0.100D+01
 Coeff:      0.100D+01
 Gap=     0.233 Goal=   None    Shift=    0.000
 GapD=    0.233 DampG=1.000 DampE=0.500 DampFc=0.5000 IDamp=-1.
 Damping current iteration by 5.00D-01
 RMSDP=5.07D-03 MaxDP=1.24D-01              OVMax= 1.43D-01

 Cycle   2  Pass 1  IDiag  1:
 RMSU=  2.47D-03    CP:  9.76D-01
 E= -445.156059869954     Delta-E=       -0.127528607708 Rises=F Damp=T
 DIIS: error= 5.21D-03 at cycle   2 NSaved=   2.
 NSaved= 2 IEnMin= 2 EnMin= -445.156059869954     IErMin= 2 ErrMin= 5.21D-03
 ErrMax= 5.21D-03  0.00D+00 EMaxC= 1.00D-01 BMatC= 1.17D-02 BMatP= 2.38D-01
 IDIUse=3 WtCom= 9.48D-01 WtEn= 5.21D-02
 Coeff-Com: -0.250D-01 0.103D+01
 Coeff-En:   0.000D+00 0.100D+01
 Coeff:     -0.237D-01 0.102D+01
 Gap=     0.244 Goal=   None    Shift=    0.000
 RMSDP=1.07D-03 MaxDP=1.48D-02 DE=-1.28D-01 OVMax= 7.43D-02

 Cycle   3  Pass 1  IDiag  1:
 RMSU=  1.06D-03    CP:  9.70D-01  9.97D-01
 E= -445.284523232859     Delta-E=       -0.128463362905 Rises=F Damp=F
 DIIS: error= 2.15D-03 at cycle   3 NSaved=   3.
 NSaved= 3 IEnMin= 3 EnMin= -445.284523232859     IErMin= 3 ErrMin= 2.15D-03
 ErrMax= 2.15D-03  0.00D+00 EMaxC= 1.00D-01 BMatC= 2.18D-03 BMatP= 1.17D-02
 IDIUse=3 WtCom= 9.79D-01 WtEn= 2.15D-02
 Coeff-Com: -0.418D-01 0.269D+00 0.773D+00
 Coeff-En:   0.000D+00 0.000D+00 0.100D+01
 Coeff:     -0.409D-01 0.263D+00 0.778D+00
 Gap=     0.229 Goal=   None    Shift=    0.000
 RMSDP=3.54D-04 MaxDP=1.17D-02 DE=-1.28D-01 OVMax= 2.44D-02

 Cycle   4  Pass 1  IDiag  1:
 RMSU=  3.10D-04    CP:  9.70D-01  1.03D+00  8.53D-01
 E= -445.285651191659     Delta-E=       -0.001127958800 Rises=F Damp=F
 DIIS: error= 1.42D-03 at cycle   4 NSaved=   4.
 NSaved= 4 IEnMin= 4 EnMin= -445.285651191659     IErMin= 4 ErrMin= 1.42D-03
 ErrMax= 1.42D-03  0.00D+00 EMaxC= 1.00D-01 BMatC= 9.56D-04 BMatP= 2.18D-03
 IDIUse=3 WtCom= 9.86D-01 WtEn= 1.42D-02
 Coeff-Com: -0.203D-01 0.790D-01 0.436D+00 0.506D+00
 Coeff-En:   0.000D+00 0.000D+00 0.319D+00 0.681D+00
 Coeff:     -0.200D-01 0.778D-01 0.434D+00 0.508D+00
 Gap=     0.230 Goal=   None    Shift=    0.000
 RMSDP=1.83D-04 MaxDP=7.48D-03 DE=-1.13D-03 OVMax= 1.45D-02

 Cycle   5  Pass 1  IDiag  1:
 RMSU=  9.50D-05    CP:  9.69D-01  1.03D+00  8.83D-01  5.08D-01
 E= -445.286625478078     Delta-E=       -0.000974286419 Rises=F Damp=F
 DIIS: error= 3.44D-04 at cycle   5 NSaved=   5.
 NSaved= 5 IEnMin= 5 EnMin= -445.286625478078     IErMin= 5 ErrMin= 3.44D-04
 ErrMax= 3.44D-04  0.00D+00 EMaxC= 1.00D-01 BMatC= 4.64D-05 BMatP= 9.56D-04
 IDIUse=3 WtCom= 9.97D-01 WtEn= 3.44D-03
 Coeff-Com: -0.546D-02 0.121D-01 0.130D+00 0.240D+00 0.624D+00
 Coeff-En:   0.000D+00 0.000D+00 0.000D+00 0.000D+00 0.100D+01
 Coeff:     -0.544D-02 0.120D-01 0.129D+00 0.239D+00 0.625D+00
 Gap=     0.230 Goal=   None    Shift=    0.000
 RMSDP=4.11D-05 MaxDP=1.29D-03 DE=-9.74D-04 OVMax= 3.20D-03

 Cycle   6  Pass 1  IDiag  1:
 RMSU=  1.98D-05    CP:  9.69D-01  1.03D+00  8.88D-01  5.77D-01  6.99D-01
 E= -445.286672833930     Delta-E=       -0.000047355852 Rises=F Damp=F
 DIIS: error= 8.94D-05 at cycle   6 NSaved=   6.
 NSaved= 6 IEnMin= 6 EnMin= -445.286672833930     IErMin= 6 ErrMin= 8.94D-05
 ErrMax= 8.94D-05  0.00D+00 EMaxC= 1.00D-01 BMatC= 3.67D-06 BMatP= 4.64D-05
 IDIUse=1 WtCom= 1.00D+00 WtEn= 0.00D+00
 Coeff-Com: -0.213D-02 0.346D-02 0.515D-01 0.107D+00 0.336D+00 0.504D+00
 Coeff:     -0.213D-02 0.346D-02 0.515D-01 0.107D+00 0.336D+00 0.504D+00
 Gap=     0.230 Goal=   None    Shift=    0.000
 RMSDP=9.56D-06 MaxDP=2.89D-04 DE=-4.74D-05 OVMax= 5.23D-04

 Cycle   7  Pass 1  IDiag  1:
 RMSU=  4.68D-06    CP:  9.69D-01  1.03D+00  8.90D-01  5.72D-01  7.27D-01
                    CP:  6.24D-01
 E= -445.286676426238     Delta-E=       -0.000003592309 Rises=F Damp=F
 DIIS: error= 1.16D-05 at cycle   7 NSaved=   7.
 NSaved= 7 IEnMin= 7 EnMin= -445.286676426238     IErMin= 7 ErrMin= 1.16D-05
 ErrMax= 1.16D-05  0.00D+00 EMaxC= 1.00D-01 BMatC= 6.45D-08 BMatP= 3.67D-06
 IDIUse=1 WtCom= 1.00D+00 WtEn= 0.00D+00
 Coeff-Com: -0.413D-03 0.397D-03 0.991D-02 0.221D-01 0.783D-01 0.172D+00
 Coeff-Com:  0.718D+00
 Coeff:     -0.413D-03 0.397D-03 0.991D-02 0.221D-01 0.783D-01 0.172D+00
 Coeff:      0.718D+00
 Gap=     0.230 Goal=   None    Shift=    0.000
 RMSDP=1.64D-06 MaxDP=5.06D-05 DE=-3.59D-06 OVMax= 7.60D-05

 Cycle   8  Pass 1  IDiag  1:
 RMSU=  1.19D-06    CP:  9.69D-01  1.03D+00  8.90D-01  5.74D-01  7.29D-01
                    CP:  6.35D-01  8.06D-01
 E= -445.286676471640     Delta-E=       -0.000000045402 Rises=F Damp=F
 DIIS: error= 4.59D-06 at cycle   8 NSaved=   8.
 NSaved= 8 IEnMin= 8 EnMin= -445.286676471640     IErMin= 8 ErrMin= 4.59D-06
 ErrMax= 4.59D-06  0.00D+00 EMaxC= 1.00D-01 BMatC= 1.32D-08 BMatP= 6.45D-08
 IDIUse=1 WtCom= 1.00D+00 WtEn= 0.00D+00
 Coeff-Com: -0.430D-04-0.913D-04 0.100D-02 0.293D-02 0.142D-01 0.497D-01
 Coeff-Com:  0.367D+00 0.565D+00
 Coeff:     -0.430D-04-0.913D-04 0.100D-02 0.293D-02 0.142D-01 0.497D-01
 Coeff:      0.367D+00 0.565D+00
 Gap=     0.230 Goal=   None    Shift=    0.000
 RMSDP=6.52D-07 MaxDP=2.35D-05 DE=-4.54D-08 OVMax= 3.30D-05

 Cycle   9  Pass 1  IDiag  1:
 RMSU=  3.63D-07    CP:  9.69D-01  1.03D+00  8.90D-01  5.74D-01  7.30D-01
                    CP:  6.43D-01  8.51D-01  6.41D-01
 E= -445.286676483666     Delta-E=       -0.000000012026 Rises=F Damp=F
 DIIS: error= 9.63D-07 at cycle   9 NSaved=   9.
 NSaved= 9 IEnMin= 9 EnMin= -445.286676483666     IErMin= 9 ErrMin= 9.63D-07
 ErrMax= 9.63D-07  0.00D+00 EMaxC= 1.00D-01 BMatC= 5.80D-10 BMatP= 1.32D-08
 IDIUse=1 WtCom= 1.00D+00 WtEn= 0.00D+00
 Coeff-Com:  0.184D-04-0.645D-04-0.506D-03-0.910D-03-0.152D-02 0.437D-02
 Coeff-Com:  0.794D-01 0.223D+00 0.696D+00
 Coeff:      0.184D-04-0.645D-04-0.506D-03-0.910D-03-0.152D-02 0.437D-02
 Coeff:      0.794D-01 0.223D+00 0.696D+00
 Gap=     0.230 Goal=   None    Shift=    0.000
 RMSDP=1.61D-07 MaxDP=6.95D-06 DE=-1.20D-08 OVMax= 1.55D-05

 Cycle  10  Pass 1  IDiag  1:
 RMSU=  1.07D-07    CP:  9.69D-01  1.03D+00  8.90D-01  5.74D-01  7.30D-01
                    CP:  6.43D-01  8.54D-01  6.98D-01  7.62D-01
 E= -445.286676484139     Delta-E=       -0.000000000473 Rises=F Damp=F
 DIIS: error= 5.93D-07 at cycle  10 NSaved=  10.
 NSaved=10 IEnMin=10 EnMin= -445.286676484139     IErMin=10 ErrMin= 5.93D-07
 ErrMax= 5.93D-07  0.00D+00 EMaxC= 1.00D-01 BMatC= 1.11D-10 BMatP= 5.80D-10
 IDIUse=1 WtCom= 1.00D+00 WtEn= 0.00D+00
 Coeff-Com:  0.121D-04-0.312D-04-0.334D-03-0.663D-03-0.156D-02 0.541D-04
 Coeff-Com:  0.272D-01 0.999D-01 0.409D+00 0.466D+00
 Coeff:      0.121D-04-0.312D-04-0.334D-03-0.663D-03-0.156D-02 0.541D-04
 Coeff:      0.272D-01 0.999D-01 0.409D+00 0.466D+00
 Gap=     0.230 Goal=   None    Shift=    0.000
 RMSDP=5.93D-08 MaxDP=1.90D-06 DE=-4.73D-10 OVMax= 5.49D-06

 Cycle  11  Pass 1  IDiag  1:
 RMSU=  3.01D-08    CP:  9.69D-01  1.03D+00  8.90D-01  5.74D-01  7.30D-01
                    CP:  6.43D-01  8.56D-01  6.99D-01  8.03D-01  5.62D-01
 E= -445.286676484258     Delta-E=       -0.000000000118 Rises=F Damp=F
 DIIS: error= 7.82D-08 at cycle  11 NSaved=  11.
 NSaved=11 IEnMin=11 EnMin= -445.286676484258     IErMin=11 ErrMin= 7.82D-08
 ErrMax= 7.82D-08  0.00D+00 EMaxC= 1.00D-01 BMatC= 2.62D-12 BMatP= 1.11D-10
 IDIUse=1 WtCom= 1.00D+00 WtEn= 0.00D+00
 Coeff-Com:  0.294D-05-0.540D-05-0.838D-04-0.176D-03-0.462D-03-0.402D-03
 Coeff-Com:  0.279D-02 0.164D-01 0.931D-01 0.169D+00 0.720D+00
 Coeff:      0.294D-05-0.540D-05-0.838D-04-0.176D-03-0.462D-03-0.402D-03
 Coeff:      0.279D-02 0.164D-01 0.931D-01 0.169D+00 0.720D+00
 Gap=     0.230 Goal=   None    Shift=    0.000
 RMSDP=1.15D-08 MaxDP=2.86D-07 DE=-1.18D-10 OVMax= 8.52D-07

 Cycle  12  Pass 1  IDiag  1:
 RMSU=  7.14D-09    CP:  9.69D-01  1.03D+00  8.90D-01  5.74D-01  7.30D-01
                    CP:  6.43D-01  8.56D-01  7.00D-01  8.07D-01  6.16D-01
                    CP:  7.95D-01
 E= -445.286676484263     Delta-E=       -0.000000000005 Rises=F Damp=F
 DIIS: error= 3.03D-08 at cycle  12 NSaved=  12.
 NSaved=12 IEnMin=12 EnMin= -445.286676484263     IErMin=12 ErrMin= 3.03D-08
 ErrMax= 3.03D-08  0.00D+00 EMaxC= 1.00D-01 BMatC= 5.17D-13 BMatP= 2.62D-12
 IDIUse=1 WtCom= 1.00D+00 WtEn= 0.00D+00
 Coeff-Com:  0.687D-06-0.723D-06-0.204D-04-0.455D-04-0.129D-03-0.209D-03
 Coeff-Com: -0.377D-03 0.146D-02 0.201D-01 0.484D-01 0.369D+00 0.561D+00
 Coeff:      0.687D-06-0.723D-06-0.204D-04-0.455D-04-0.129D-03-0.209D-03
 Coeff:     -0.377D-03 0.146D-02 0.201D-01 0.484D-01 0.369D+00 0.561D+00
 Gap=     0.230 Goal=   None    Shift=    0.000
 RMSDP=3.93D-09 MaxDP=1.34D-07 DE=-5.23D-12 OVMax= 3.33D-07

 Error on total polarization charges =  0.01736
 SCF Done:  E(RB3LYP) =  -445.286676484     A.U. after   12 cycles
            NFock= 12  Conv=0.39D-08     -V/T= 2.0095
 KE= 4.410933262503D+02 PE=-2.238569293849D+03 EE= 7.412474891231D+02
 Leave Link  502 at Sun Jul 18 14:20:11 2021, MaxMem=   104857600 cpu:             127.3 elap:              31.9
 (Enter /prod/apps/gaussian/g16b1/l601.exe)
 Copying SCF densities to generalized density rwf, IOpCl= 0 IROHF=0.

 **********************************************************************

            Population analysis using the SCF Density.

 **********************************************************************

 Orbital symmetries:
       Occupied  (A) (A) (A) (A) (A) (A) (A) (A) (A) (A) (A) (A)
                 (A) (A) (A) (A) (A) (A) (A) (A) (A) (A) (A) (A)
                 (A) (A) (A) (A) (A) (A) (A) (A) (A) (A) (A) (A)
                 (A) (A) (A) (A) (A)
       Virtual   (A) (A) (A) (A) (A) (A) (A) (A) (A) (A) (A) (A)
                 (A) (A) (A) (A) (A) (A) (A) (A) (A) (A) (A) (A)
                 (A) (A) (A) (A) (A) (A) (A) (A) (A) (A) (A) (A)
                 (A) (A) (A) (A) (A) (A) (A) (A) (A) (A) (A) (A)
                 (A) (A) (A) (A) (A) (A) (A) (A) (A) (A) (A) (A)
                 (A) (A) (A) (A) (A) (A) (A) (A) (A) (A) (A) (A)
                 (A) (A) (A) (A) (A) (A) (A) (A) (A) (A) (A) (A)
                 (A) (A) (A) (A) (A) (A) (A) (A) (A) (A) (A) (A)
                 (A) (A) (A) (A) (A) (A) (A) (A) (A) (A) (A) (A)
                 (A) (A) (A) (A) (A) (A) (A) (A) (A) (A) (A) (A)
                 (A) (A) (A) (A) (A) (A) (A) (A) (A) (A) (A) (A)
                 (A) (A) (A) (A) (A) (A) (A) (A) (A) (A) (A) (A)
                 (A) (A) (A) (A) (A) (A) (A) (A) (A) (A) (A) (A)
 The electronic state is 1-A.
 Alpha  occ. eigenvalues --  -14.44986 -10.24824 -10.24509 -10.20450 -10.19946
 Alpha  occ. eigenvalues --  -10.19870 -10.19513 -10.19188 -10.18834 -10.18736
 Alpha  occ. eigenvalues --  -10.18561  -1.03232  -0.86102  -0.81212  -0.76017
 Alpha  occ. eigenvalues --   -0.74962  -0.71498  -0.69690  -0.64771  -0.60912
 Alpha  occ. eigenvalues --   -0.60776  -0.56698  -0.52515  -0.51411  -0.50675
 Alpha  occ. eigenvalues --   -0.47877  -0.45684  -0.44420  -0.43052  -0.42764
 Alpha  occ. eigenvalues --   -0.40972  -0.40117  -0.39633  -0.39077  -0.37562
 Alpha  occ. eigenvalues --   -0.37101  -0.34879  -0.34580  -0.33429  -0.25688
 Alpha  occ. eigenvalues --   -0.24105
 Alpha virt. eigenvalues --   -0.01145  -0.00352   0.06024   0.08396   0.08939
 Alpha virt. eigenvalues --    0.09213   0.10958   0.11882   0.14214   0.14595
 Alpha virt. eigenvalues --    0.14890   0.15320   0.16271   0.16878   0.17329
 Alpha virt. eigenvalues --    0.17533   0.18130   0.19872   0.19925   0.21184
 Alpha virt. eigenvalues --    0.23202   0.23858   0.25795   0.27419   0.31148
 Alpha virt. eigenvalues --    0.31998   0.33354   0.34384   0.45820   0.47337
 Alpha virt. eigenvalues --    0.48161   0.49479   0.51258   0.52284   0.53880
 Alpha virt. eigenvalues --    0.54829   0.55481   0.56410   0.57422   0.58616
 Alpha virt. eigenvalues --    0.59523   0.60355   0.60571   0.61512   0.61664
 Alpha virt. eigenvalues --    0.64106   0.65534   0.67672   0.68754   0.70728
 Alpha virt. eigenvalues --    0.74001   0.75244   0.76097   0.79440   0.81042
 Alpha virt. eigenvalues --    0.82111   0.82631   0.84018   0.84280   0.85730
 Alpha virt. eigenvalues --    0.86311   0.87452   0.88020   0.88881   0.90055
 Alpha virt. eigenvalues --    0.91204   0.91913   0.92228   0.94036   0.94955
 Alpha virt. eigenvalues --    0.97056   0.98276   0.99062   0.99998   1.01764
 Alpha virt. eigenvalues --    1.03588   1.08591   1.10186   1.11447   1.16737
 Alpha virt. eigenvalues --    1.16859   1.21937   1.25583   1.28067   1.29490
 Alpha virt. eigenvalues --    1.32307   1.37823   1.38864   1.45401   1.46126
 Alpha virt. eigenvalues --    1.47586   1.50398   1.55080   1.58017   1.60265
 Alpha virt. eigenvalues --    1.63938   1.67028   1.73109   1.76824   1.80457
 Alpha virt. eigenvalues --    1.80925   1.82297   1.84494   1.85510   1.87904
 Alpha virt. eigenvalues --    1.89770   1.91866   1.94833   1.96218   1.98317
 Alpha virt. eigenvalues --    2.02120   2.02965   2.05332   2.07356   2.10530
 Alpha virt. eigenvalues --    2.13552   2.15313   2.17445   2.19250   2.21161
 Alpha virt. eigenvalues --    2.23908   2.24504   2.26596   2.27807   2.30205
 Alpha virt. eigenvalues --    2.32045   2.33502   2.38903   2.39160   2.45144
 Alpha virt. eigenvalues --    2.50514   2.54299   2.58872   2.61533   2.65406
 Alpha virt. eigenvalues --    2.67490   2.69984   2.72716   2.73754   2.74676
 Alpha virt. eigenvalues --    2.76945   2.79204   2.89938   3.04897   3.38785
 Alpha virt. eigenvalues --    3.92923   4.08868   4.12179   4.15369   4.20230
 Alpha virt. eigenvalues --    4.23020   4.32538   4.34262   4.41985   4.55872
 Alpha virt. eigenvalues --    4.67885
          Condensed to atoms (all electrons):
               1          2          3          4          5          6
     1  C    5.028393   0.378648   0.377659   0.378778   0.248598  -0.019392
     2  H    0.378648   0.465411  -0.032701  -0.020409  -0.022209  -0.001241
     3  H    0.377659  -0.032701   0.473953  -0.023528  -0.021408   0.002267
     4  H    0.378778  -0.020409  -0.023528   0.489038  -0.033447  -0.002968
     5  N    0.248598  -0.022209  -0.021408  -0.033447   6.741840   0.300718
     6  H   -0.019392  -0.001241   0.002267  -0.002968   0.300718   0.288869
     7  C   -0.037777  -0.003249  -0.001073   0.004274   0.229579  -0.024939
     8  C    0.005973   0.000038  -0.000016  -0.000281  -0.067697  -0.001997
     9  H   -0.000029  -0.000003  -0.000000   0.000012  -0.003722   0.004275
    10  H   -0.000108  -0.000000  -0.000002  -0.000001  -0.002414  -0.000383
    11  H   -0.000134   0.000002   0.000001   0.000003   0.004135  -0.000069
    12  H   -0.002479  -0.000340   0.002160   0.000065  -0.036816   0.004895
    13  C   -0.005549   0.002976  -0.000090  -0.000013  -0.076229  -0.007820
    14  H    0.001955   0.003340   0.000191  -0.000108  -0.003913  -0.000254
    15  H   -0.000155   0.000152   0.000010  -0.000025  -0.007358   0.010750
    16  C    0.000113  -0.000027  -0.000000  -0.000003   0.003856   0.000105
    17  C   -0.000006  -0.000002   0.000000   0.000000  -0.000001  -0.000011
    18  H    0.000000   0.000000  -0.000000  -0.000000  -0.000022  -0.000008
    19  C    0.000000  -0.000000  -0.000000   0.000000   0.000001   0.000001
    20  H    0.000000   0.000000   0.000000   0.000000  -0.000000  -0.000000
    21  C    0.000000   0.000000   0.000000  -0.000000   0.000000   0.000000
    22  H    0.000000  -0.000000   0.000000  -0.000000  -0.000000   0.000000
    23  C   -0.000000  -0.000000   0.000000   0.000000   0.000001  -0.000000
    24  H   -0.000000  -0.000000   0.000000  -0.000000  -0.000000   0.000000
    25  C    0.000001   0.000017  -0.000003   0.000000   0.000118   0.000005
    26  H    0.000003   0.000055   0.000003  -0.000000  -0.000061  -0.000001
    27  H   -0.017282   0.002033  -0.002360  -0.001341   0.304917  -0.013715
               7          8          9         10         11         12
     1  C   -0.037777   0.005973  -0.000029  -0.000108  -0.000134  -0.002479
     2  H   -0.003249   0.000038  -0.000003  -0.000000   0.000002  -0.000340
     3  H   -0.001073  -0.000016  -0.000000  -0.000002   0.000001   0.002160
     4  H    0.004274  -0.000281   0.000012  -0.000001   0.000003   0.000065
     5  N    0.229579  -0.067697  -0.003722  -0.002414   0.004135  -0.036816
     6  H   -0.024939  -0.001997   0.004275  -0.000383  -0.000069   0.004895
     7  C    4.979418   0.374301  -0.030943  -0.030214  -0.024041   0.388265
     8  C    0.374301   5.157295   0.373764   0.370464   0.369161  -0.028124
     9  H   -0.030943   0.373764   0.533771  -0.026866  -0.028903   0.003510
    10  H   -0.030214   0.370464  -0.026866   0.519423  -0.019576  -0.001407
    11  H   -0.024041   0.369161  -0.028903  -0.019576   0.509851  -0.001547
    12  H    0.388265  -0.028124   0.003510  -0.001407  -0.001547   0.504992
    13  C    0.350995  -0.060609  -0.006874   0.004646  -0.004491  -0.044848
    14  H   -0.038092   0.005738   0.000114  -0.000159   0.000034  -0.003309
    15  H   -0.041477  -0.010597   0.006595   0.000083   0.000234   0.005483
    16  C   -0.040533  -0.004420  -0.001405   0.000244   0.006109  -0.001644
    17  C   -0.004347   0.000335   0.000927   0.000035   0.002773   0.000159
    18  H   -0.000105   0.000071   0.000692   0.000000   0.000137   0.000008
    19  C   -0.000152  -0.000204   0.000015   0.000004   0.000174  -0.000002
    20  H    0.000000  -0.000001  -0.000003   0.000000   0.000002  -0.000000
    21  C    0.000007   0.000011   0.000001  -0.000000  -0.000047   0.000004
    22  H    0.000000  -0.000000   0.000000  -0.000000  -0.000000  -0.000000
    23  C    0.000116  -0.000014  -0.000001  -0.000001  -0.000055  -0.000119
    24  H   -0.000003   0.000000   0.000000   0.000000   0.000000   0.000002
    25  C   -0.004701  -0.000509   0.000024   0.000004   0.000610   0.003994
    26  H   -0.000047   0.000063  -0.000001  -0.000000   0.000003   0.001428
    27  H   -0.028129  -0.003778  -0.000712   0.006265   0.000001  -0.001867
              13         14         15         16         17         18
     1  C   -0.005549   0.001955  -0.000155   0.000113  -0.000006   0.000000
     2  H    0.002976   0.003340   0.000152  -0.000027  -0.000002   0.000000
     3  H   -0.000090   0.000191   0.000010  -0.000000   0.000000  -0.000000
     4  H   -0.000013  -0.000108  -0.000025  -0.000003   0.000000  -0.000000
     5  N   -0.076229  -0.003913  -0.007358   0.003856  -0.000001  -0.000022
     6  H   -0.007820  -0.000254   0.010750   0.000105  -0.000011  -0.000008
     7  C    0.350995  -0.038092  -0.041477  -0.040533  -0.004347  -0.000105
     8  C   -0.060609   0.005738  -0.010597  -0.004420   0.000335   0.000071
     9  H   -0.006874   0.000114   0.006595  -0.001405   0.000927   0.000692
    10  H    0.004646  -0.000159   0.000083   0.000244   0.000035   0.000000
    11  H   -0.004491   0.000034   0.000234   0.006109   0.002773   0.000137
    12  H   -0.044848  -0.003309   0.005483  -0.001644   0.000159   0.000008
    13  C    5.257061   0.357087   0.362348   0.352006  -0.048135  -0.010541
    14  H    0.357087   0.542984  -0.020106  -0.033262   0.002980   0.000221
    15  H    0.362348  -0.020106   0.543275  -0.029335  -0.003689   0.006355
    16  C    0.352006  -0.033262  -0.029335   4.706360   0.549465  -0.042268
    17  C   -0.048135   0.002980  -0.003689   0.549465   4.938491   0.359687
    18  H   -0.010541   0.000221   0.006355  -0.042268   0.359687   0.572156
    19  C    0.008037  -0.000282   0.000267  -0.027529   0.529326  -0.043811
    20  H   -0.000253   0.000005  -0.000010   0.004476  -0.040527  -0.005489
    21  C    0.000427   0.000036   0.000024  -0.039710  -0.039118   0.005300
    22  H    0.000003  -0.000000  -0.000000   0.000700   0.005411  -0.000195
    23  C    0.005430   0.000062  -0.000146  -0.019967  -0.042155   0.000201
    24  H   -0.000133   0.000001   0.000002   0.002881   0.000591   0.000016
    25  C   -0.059657  -0.004034   0.003738   0.527981  -0.035247   0.005082
    26  H   -0.007086   0.004296   0.000034  -0.045416   0.004863  -0.000123
    27  H    0.006961  -0.000129  -0.000025  -0.000102  -0.000002   0.000002
              19         20         21         22         23         24
     1  C    0.000000   0.000000   0.000000   0.000000  -0.000000  -0.000000
     2  H   -0.000000   0.000000   0.000000  -0.000000  -0.000000  -0.000000
     3  H   -0.000000   0.000000   0.000000   0.000000   0.000000   0.000000
     4  H    0.000000   0.000000  -0.000000  -0.000000   0.000000  -0.000000
     5  N    0.000001  -0.000000   0.000000  -0.000000   0.000001  -0.000000
     6  H    0.000001  -0.000000   0.000000   0.000000  -0.000000   0.000000
     7  C   -0.000152   0.000000   0.000007   0.000000   0.000116  -0.000003
     8  C   -0.000204  -0.000001   0.000011  -0.000000  -0.000014   0.000000
     9  H    0.000015  -0.000003   0.000001   0.000000  -0.000001   0.000000
    10  H    0.000004   0.000000  -0.000000  -0.000000  -0.000001   0.000000
    11  H    0.000174   0.000002  -0.000047  -0.000000  -0.000055   0.000000
    12  H   -0.000002  -0.000000   0.000004  -0.000000  -0.000119   0.000002
    13  C    0.008037  -0.000253   0.000427   0.000003   0.005430  -0.000133
    14  H   -0.000282   0.000005   0.000036  -0.000000   0.000062   0.000001
    15  H    0.000267  -0.000010   0.000024  -0.000000  -0.000146   0.000002
    16  C   -0.027529   0.004476  -0.039710   0.000700  -0.019967   0.002881
    17  C    0.529326  -0.040527  -0.039118   0.005411  -0.042155   0.000591
    18  H   -0.043811  -0.005489   0.005300  -0.000195   0.000201   0.000016
    19  C    4.876964   0.360186   0.547291  -0.042711  -0.026496   0.004463
    20  H    0.360186   0.574965  -0.042141  -0.006000   0.004480  -0.000157
    21  C    0.547291  -0.042141   4.883873   0.361818   0.546873  -0.039542
    22  H   -0.042711  -0.006000   0.361818   0.586214  -0.046903  -0.006426
    23  C   -0.026496   0.004480   0.546873  -0.046903   4.893779   0.362624
    24  H    0.004463  -0.000157  -0.039542  -0.006426   0.362624   0.558434
    25  C   -0.046722   0.000696  -0.038612   0.005540   0.506425  -0.037582
    26  H    0.000319   0.000017   0.004699  -0.000201  -0.040340  -0.003370
    27  H   -0.000000   0.000000   0.000000  -0.000000  -0.000000   0.000000
              25         26         27
     1  C    0.000001   0.000003  -0.017282
     2  H    0.000017   0.000055   0.002033
     3  H   -0.000003   0.000003  -0.002360
     4  H    0.000000  -0.000000  -0.001341
     5  N    0.000118  -0.000061   0.304917
     6  H    0.000005  -0.000001  -0.013715
     7  C   -0.004701  -0.000047  -0.028129
     8  C   -0.000509   0.000063  -0.003778
     9  H    0.000024  -0.000001  -0.000712
    10  H    0.000004  -0.000000   0.006265
    11  H    0.000610   0.000003   0.000001
    12  H    0.003994   0.001428  -0.001867
    13  C   -0.059657  -0.007086   0.006961
    14  H   -0.004034   0.004296  -0.000129
    15  H    0.003738   0.000034  -0.000025
    16  C    0.527981  -0.045416  -0.000102
    17  C   -0.035247   0.004863  -0.000002
    18  H    0.005082  -0.000123   0.000002
    19  C   -0.046722   0.000319  -0.000000
    20  H    0.000696   0.000017   0.000000
    21  C   -0.038612   0.004699   0.000000
    22  H    0.005540  -0.000201  -0.000000
    23  C    0.506425  -0.040340  -0.000000
    24  H   -0.037582  -0.003370   0.000000
    25  C    5.014553   0.358944   0.000002
    26  H    0.358944   0.570023   0.000003
    27  H    0.000002   0.000003   0.282168
 Mulliken charges:
               1
     1  C   -0.337212
     2  H    0.227508
     3  H    0.224937
     4  H    0.209954
     5  N   -0.558464
     6  H    0.460912
     7  C   -0.017134
     8  C   -0.478965
     9  H    0.175761
    10  H    0.179962
    11  H    0.185630
    12  H    0.207538
    13  C   -0.375647
    14  H    0.184606
    15  H    0.173573
    16  C    0.131322
    17  C   -0.181804
    18  H    0.152633
    19  C   -0.139138
    20  H    0.149751
    21  C   -0.151196
    22  H    0.142750
    23  C   -0.143795
    24  H    0.158200
    25  C   -0.200666
    26  H    0.151892
    27  H    0.467092
 Sum of Mulliken charges =   1.00000
 Mulliken charges with hydrogens summed into heavy atoms:
               1
     1  C    0.325188
     5  N    0.369540
     7  C    0.190403
     8  C    0.062388
    13  C   -0.017468
    16  C    0.131322
    17  C   -0.029171
    19  C    0.010614
    21  C   -0.008446
    23  C    0.014405
    25  C   -0.048774
 Electronic spatial extent (au):  <R**2>=           2252.7865
 Charge=              1.0000 electrons
 Dipole moment (field-independent basis, Debye):
    X=             13.5610    Y=              0.6248    Z=             -0.1094  Tot=             13.5759
 Quadrupole moment (field-independent basis, Debye-Ang):
   XX=            -17.2063   YY=            -56.3359   ZZ=            -64.0451
   XY=              0.7877   XZ=             -1.2144   YZ=             -2.6684
 Traceless Quadrupole moment (field-independent basis, Debye-Ang):
   XX=             28.6562   YY=            -10.4734   ZZ=            -18.1827
   XY=              0.7877   XZ=             -1.2144   YZ=             -2.6684
 Octapole moment (field-independent basis, Debye-Ang**2):
  XXX=            152.1130  YYY=             -2.8389  ZZZ=              1.0480  XYY=             18.4618
  XXY=              0.9805  XXZ=              2.8470  XZZ=             21.8160  YZZ=              2.7154
  YYZ=             -0.0463  XYZ=              8.5872
 Hexadecapole moment (field-independent basis, Debye-Ang**3):
 XXXX=          -1599.8382 YYYY=           -471.3717 ZZZZ=           -238.5853 XXXY=             -0.1892
 XXXZ=            -17.9904 YYYX=            -13.6586 YYYZ=            -12.0330 ZZZX=             -0.0923
 ZZZY=             -1.1381 XXYY=           -384.6254 XXZZ=           -395.3520 YYZZ=           -111.6573
 XXYZ=            -15.2242 YYXZ=             -4.9700 ZZXY=              5.7049
 N-N= 6.109418019915D+02 E-N=-2.238569291960D+03  KE= 4.410933262503D+02
 No NMR shielding tensors so no spin-rotation constants.
 Leave Link  601 at Sun Jul 18 14:20:11 2021, MaxMem=   104857600 cpu:               0.3 elap:               0.1
 (Enter /prod/apps/gaussian/g16b1/l701.exe)
 ... and contract with generalized density number  0.
 Compute integral first derivatives.
 D1PCM: PCM CHGder 1st derivatives, ID1Alg=3 FixD1E=F DoIter=F DoCFld=F I1PDM=0.
 GePol: Maximum number of non-zero 1st derivatives   =     175
 Leave Link  701 at Sun Jul 18 14:20:13 2021, MaxMem=   104857600 cpu:               5.0 elap:               1.3
 (Enter /prod/apps/gaussian/g16b1/l702.exe)
 L702 exits ... SP integral derivatives will be done elsewhere.
 Leave Link  702 at Sun Jul 18 14:20:13 2021, MaxMem=   104857600 cpu:               0.1 elap:               0.0
 (Enter /prod/apps/gaussian/g16b1/l703.exe)
 Integral derivatives from FoFJK, PRISM(SPDF).
 Compute integral first derivatives, UseDBF=F ICtDFT=           0.
 Calling FoFJK, ICntrl=      2127 FMM=F ISym2X=0 I1Cent= 0 IOpClX= 0 NMat=1 NMatS=1 NMatT=0.
 FoFJK:  IHMeth= 1 ICntrl=    2127 DoSepK=F KAlg= 0 I1Cent=           0 FoldK=F
 IRaf=         0 NMat=       1 IRICut=       1 DoRegI=T DoRafI=F ISym2E= 0 IDoP0=0 IntGTp=1.
 FoFCou: FMM=F IPFlag=           0 FMFlag=      100000 FMFlg1=         800
         NFxFlg=           0 DoJE=F BraDBF=F KetDBF=F FulRan=T
         wScrn=  0.000000 ICntrl=      2127 IOpCl=  0 I1Cent=           0 NGrid=           0
         NMat0=    1 NMatS0=      1 NMatT0=    0 NMatD0=    1 NMtDS0=    0 NMtDT0=    0
 Symmetry not used in FoFCou.
 Leave Link  703 at Sun Jul 18 14:20:20 2021, MaxMem=   104857600 cpu:              27.2 elap:               6.8
 (Enter /prod/apps/gaussian/g16b1/l716.exe)
 Dipole        = 5.33532693D+00 2.45803862D-01-4.30431475D-02
 ***** Axes restored to original set *****
 -------------------------------------------------------------------
 Center     Atomic                   Forces (Hartrees/Bohr)
 Number     Number              X              Y              Z
 -------------------------------------------------------------------
      1        6          -0.006401699    0.003281506   -0.018774481
      2        1           0.005706394    0.018418863    0.002889959
      3        1           0.016359746    0.009626068   -0.002552311
      4        1          -0.005779358   -0.007195909    0.004349343
      5        7          -0.040550957   -0.062437664   -0.032094660
      6        1          -0.013928457    0.022783284   -0.010224413
      7        6           0.030201626    0.029298973    0.064274990
      8        6           0.004025407   -0.013863922    0.011072191
      9        1          -0.002927593   -0.000701560   -0.005543744
     10        1           0.001285320    0.000894931    0.001162545
     11        1           0.002463407   -0.004513723   -0.002354320
     12        1           0.006596929    0.001466082   -0.012402395
     13        6           0.007219704   -0.010799702    0.036409801
     14        1          -0.010389538    0.005826581   -0.016341329
     15        1          -0.012471139   -0.001452820    0.007550155
     16        6           0.000719267   -0.014605192    0.006792955
     17        6          -0.004299987   -0.008799005   -0.018486904
     18        1           0.002364225   -0.002117859   -0.002764678
     19        6           0.005931435    0.012179708    0.016087956
     20        1          -0.003667876   -0.001227107    0.004368996
     21        6           0.009171237    0.001953570    0.032681082
     22        1           0.012122069    0.003525017   -0.002420072
     23        6          -0.026561711   -0.004815130   -0.029751750
     24        1          -0.004501588   -0.000681144   -0.002515511
     25        6           0.017763709    0.025556006   -0.004418669
     26        1           0.001306478    0.000535053    0.001371941
     27        1           0.008242950   -0.002134908   -0.028366676
 -------------------------------------------------------------------
 Cartesian Forces:  Max     0.064274990 RMS     0.016958523
 Leave Link  716 at Sun Jul 18 14:20:20 2021, MaxMem=   104857600 cpu:               0.1 elap:               0.0
 (Enter /prod/apps/gaussian/g16b1/l103.exe)

 GradGradGradGradGradGradGradGradGradGradGradGradGradGradGradGradGradGrad
 Berny optimization.
 FormGI is forming the generalized inverse of G from B-inverse, IUseBI=4.
 Internal  Forces:  Max     0.089954554 RMS     0.011811729
 Search for a local minimum.
 Step number   1 out of a maximum of  151
 All quantities printed in internal units (Hartrees-Bohrs-Radians)
 RMS Force = .11812D-01 SwitMx=.10000D-02 MixMth= 1
 Mixed Optimization -- RFO/linear search
 Second derivative matrix not updated -- first step.
 ITU=  0
     Eigenvalues ---    0.00230   0.00230   0.00436   0.00559   0.01328
     Eigenvalues ---    0.01655   0.01765   0.01777   0.02063   0.02186
     Eigenvalues ---    0.02296   0.02364   0.02420   0.02461   0.03699
     Eigenvalues ---    0.04084   0.04312   0.04591   0.05203   0.05259
     Eigenvalues ---    0.05287   0.05504   0.05720   0.05816   0.05952
     Eigenvalues ---    0.09349   0.09413   0.12763   0.12833   0.14640
     Eigenvalues ---    0.15094   0.15830   0.15936   0.15965   0.15998
     Eigenvalues ---    0.16000   0.16000   0.16000   0.16000   0.16000
     Eigenvalues ---    0.16000   0.16000   0.21897   0.21967   0.22074
     Eigenvalues ---    0.22328   0.23388   0.24998   0.27003   0.28391
     Eigenvalues ---    0.29894   0.30787   0.34364   0.34412   0.34448
     Eigenvalues ---    0.34470   0.34532   0.34554   0.34585   0.34594
     Eigenvalues ---    0.34635   0.35129   0.35134   0.35211   0.35221
     Eigenvalues ---    0.35265   0.37824   0.40229   0.43646   0.46545
     Eigenvalues ---    0.47046   0.47649   0.47723   0.48612   0.51009
 RFO step:  Lambda=-6.14588702D-02 EMin= 2.30000000D-03
 Linear search not attempted -- first point.
 Maximum step size (   0.300) exceeded in Quadratic search.
    -- Step size scaled by   0.747
 Iteration  1 RMS(Cart)=  0.08205912 RMS(Int)=  0.00274536
 Iteration  2 RMS(Cart)=  0.00378796 RMS(Int)=  0.00068679
 Iteration  3 RMS(Cart)=  0.00000790 RMS(Int)=  0.00068678
 Iteration  4 RMS(Cart)=  0.00000001 RMS(Int)=  0.00068678
 ITry= 1 IFail=0 DXMaxC= 3.46D-01 DCOld= 1.00D+10 DXMaxT= 3.00D-01 DXLimC= 3.00D+00 Rises=F
 Variable       Old X    -DE/DX   Delta X   Delta X   Delta X     New X
                                 (Linear)    (Quad)   (Total)
    R1        2.06544  -0.00429   0.00000  -0.00788  -0.00788   2.05756
    R2        2.06720  -0.00281   0.00000  -0.00519  -0.00519   2.06201
    R3        2.06640  -0.00313   0.00000  -0.00576  -0.00576   2.06064
    R4        2.91292  -0.02225   0.00000  -0.04814  -0.04814   2.86478
    R5        1.88936   0.02685   0.00000   0.03724   0.03724   1.92660
    R6        2.63521   0.08995   0.00000   0.12755   0.12755   2.76276
    R7        1.89015   0.02744   0.00000   0.03811   0.03811   1.92827
    R8        2.94371  -0.00969   0.00000  -0.02184  -0.02184   2.92187
    R9        2.06581  -0.00253   0.00000  -0.00465  -0.00465   2.06116
   R10        2.88175   0.02515   0.00000   0.05214   0.05214   2.93389
   R11        2.06354   0.00090   0.00000   0.00166   0.00166   2.06520
   R12        2.06272  -0.00038   0.00000  -0.00070  -0.00070   2.06202
   R13        2.06404  -0.00070   0.00000  -0.00129  -0.00129   2.06276
   R14        2.06339   0.00129   0.00000   0.00237   0.00237   2.06576
   R15        2.06442  -0.00017   0.00000  -0.00032  -0.00032   2.06410
   R16        2.86422   0.00557   0.00000   0.01127   0.01127   2.87548
   R17        2.64840   0.00275   0.00000   0.00340   0.00323   2.65164
   R18        2.72482  -0.03093   0.00000  -0.05430  -0.05444   2.67038
   R19        2.05458  -0.00091   0.00000  -0.00166  -0.00166   2.05293
   R20        2.57760   0.03071   0.00000   0.04160   0.04156   2.61916
   R21        2.05333  -0.00065   0.00000  -0.00117  -0.00117   2.05216
   R22        2.61449   0.00780   0.00000   0.01357   0.01371   2.62819
   R23        2.05466   0.00098   0.00000   0.00178   0.00178   2.05644
   R24        2.60226   0.01738   0.00000   0.02401   0.02417   2.62643
   R25        2.05247  -0.00186   0.00000  -0.00335  -0.00335   2.04912
   R26        2.69209  -0.01752   0.00000  -0.02997  -0.02994   2.66215
   R27        2.05318  -0.00138   0.00000  -0.00249  -0.00249   2.05068
    A1        1.79019   0.02438   0.00000   0.07523   0.07174   1.86194
    A2        1.94561  -0.00160   0.00000  -0.00427  -0.00285   1.94277
    A3        2.04747  -0.02133   0.00000  -0.07580  -0.07701   1.97045
    A4        1.89538   0.00151   0.00000   0.01290   0.01464   1.91002
    A5        2.02188  -0.02236   0.00000  -0.07683  -0.07800   1.94388
    A6        1.76404   0.01929   0.00000   0.06990   0.07153   1.83557
    A7        1.88156  -0.00322   0.00000  -0.01518  -0.01543   1.86613
    A8        2.04590   0.00022   0.00000   0.00353   0.00363   2.04953
    A9        1.88197  -0.00600   0.00000  -0.02913  -0.02928   1.85269
   A10        1.88235   0.00515   0.00000   0.02797   0.02792   1.91027
   A11        1.88452  -0.00255   0.00000  -0.01754  -0.01844   1.86608
   A12        1.88226   0.00608   0.00000   0.02812   0.02811   1.91037
   A13        1.84337   0.00432   0.00000   0.02944   0.02688   1.87025
   A14        1.99593  -0.01091   0.00000  -0.06029  -0.06035   1.93558
   A15        1.80722   0.01644   0.00000   0.08339   0.08253   1.88975
   A16        2.04293  -0.00403   0.00000  -0.04046  -0.04064   2.00229
   A17        1.87973  -0.00135   0.00000   0.01335   0.01047   1.89020
   A18        1.87770  -0.00149   0.00000  -0.00650  -0.00490   1.87280
   A19        1.91681  -0.00297   0.00000  -0.00822  -0.00822   1.90859
   A20        1.94893   0.00179   0.00000   0.00240   0.00238   1.95131
   A21        1.92607  -0.00073   0.00000  -0.00078  -0.00077   1.92529
   A22        1.92305  -0.00081   0.00000  -0.00608  -0.00610   1.91694
   A23        1.82160   0.00494   0.00000   0.02432   0.02433   1.84593
   A24        1.92336  -0.00209   0.00000  -0.01050  -0.01051   1.91285
   A25        1.94443  -0.00649   0.00000  -0.02664  -0.02651   1.91792
   A26        1.82906   0.01248   0.00000   0.04269   0.04276   1.87182
   A27        1.99548  -0.00888   0.00000  -0.01533  -0.01526   1.98022
   A28        2.03072  -0.00951   0.00000  -0.05042  -0.05014   1.98058
   A29        1.75222   0.01479   0.00000   0.06132   0.06146   1.81368
   A30        1.91849  -0.00404   0.00000  -0.01668  -0.01652   1.90198
   A31        2.07212   0.01092   0.00000   0.02930   0.02952   2.10163
   A32        2.10229  -0.00537   0.00000  -0.00977  -0.00956   2.09273
   A33        2.10872  -0.00554   0.00000  -0.01949  -0.01993   2.08879
   A34        2.10304  -0.00507   0.00000  -0.01700  -0.01688   2.08616
   A35        2.07929   0.00567   0.00000   0.01887   0.01861   2.09790
   A36        2.10076  -0.00060   0.00000  -0.00187  -0.00174   2.09902
   A37        2.08443   0.00551   0.00000   0.01155   0.01153   2.09596
   A38        2.09191  -0.00523   0.00000  -0.00355  -0.00352   2.08839
   A39        2.10684  -0.00028   0.00000  -0.00802  -0.00805   2.09878
   A40        2.08028   0.00627   0.00000   0.01120   0.01109   2.09137
   A41        2.17234  -0.02091   0.00000  -0.04840  -0.04826   2.12408
   A42        2.01979   0.01474   0.00000   0.03998   0.03988   2.05967
   A43        2.09164  -0.00347   0.00000  -0.00422  -0.00435   2.08729
   A44        2.03626   0.01489   0.00000   0.03656   0.03666   2.07291
   A45        2.15271  -0.01125   0.00000  -0.03076  -0.03096   2.12175
   A46        2.06869   0.01168   0.00000   0.02091   0.02069   2.08937
   A47        2.07668  -0.00450   0.00000  -0.00526  -0.00522   2.07145
   A48        2.13490  -0.00701   0.00000  -0.01403  -0.01406   2.12084
    D1       -1.25322  -0.00527   0.00000  -0.03121  -0.02971  -1.28293
    D2        0.87297  -0.00089   0.00000  -0.00396  -0.00268   0.87028
    D3        2.99936   0.00249   0.00000   0.01227   0.01335   3.01271
    D4        2.90962  -0.00113   0.00000  -0.00253  -0.00370   2.90592
    D5       -1.24738   0.00326   0.00000   0.02472   0.02333  -1.22405
    D6        0.87901   0.00663   0.00000   0.04095   0.03936   0.91838
    D7        0.86547  -0.00491   0.00000  -0.02718  -0.02687   0.83860
    D8        2.99166  -0.00052   0.00000   0.00007   0.00016   2.99182
    D9       -1.16513   0.00285   0.00000   0.01630   0.01620  -1.14894
   D10        3.00798  -0.00597   0.00000  -0.04522  -0.04580   2.96219
   D11        0.73626   0.00397   0.00000   0.02922   0.02847   0.76473
   D12       -1.30152   0.00087   0.00000   0.01466   0.01588  -1.28563
   D13       -1.14942  -0.00593   0.00000  -0.04034  -0.04093  -1.19036
   D14        2.86204   0.00401   0.00000   0.03410   0.03333   2.89537
   D15        0.82426   0.00091   0.00000   0.01955   0.02075   0.84501
   D16        0.88174  -0.00308   0.00000  -0.03177  -0.03222   0.84952
[...]
 Alpha virt. eigenvalues --   -0.01391  -0.00620  -0.00544  -0.00162   0.00088
 Alpha virt. eigenvalues --    0.00649   0.00879   0.01089   0.01502   0.02078
 Alpha virt. eigenvalues --    0.02673   0.03280   0.03515   0.04336   0.05013
 Alpha virt. eigenvalues --    0.05195   0.05413   0.06071   0.06397   0.06852
 Alpha virt. eigenvalues --    0.06887   0.07467   0.07839   0.07869   0.08135
 Alpha virt. eigenvalues --    0.08393   0.08699   0.09193   0.09449   0.09628
 Alpha virt. eigenvalues --    0.10167   0.11019   0.11175   0.11438   0.11815
 Alpha virt. eigenvalues --    0.11867   0.12515   0.12903   0.13676   0.13867
 Alpha virt. eigenvalues --    0.14463   0.15018   0.15221   0.16553   0.16943
 Alpha virt. eigenvalues --    0.18109   0.18504   0.19172   0.19536   0.20311
 Alpha virt. eigenvalues --    0.20812   0.21407   0.21493   0.22248   0.22919
 Alpha virt. eigenvalues --    0.23007   0.23636   0.24176   0.24626   0.24964
 Alpha virt. eigenvalues --    0.25262   0.26041   0.26242   0.27674   0.27845
 Alpha virt. eigenvalues --    0.28567   0.28946   0.29258   0.29828   0.30058
 Alpha virt. eigenvalues --    0.31193   0.31366   0.32039   0.32353   0.32752
 Alpha virt. eigenvalues --    0.33171   0.33315   0.34002   0.34385   0.35600
 Alpha virt. eigenvalues --    0.35714   0.35831   0.36345   0.36508   0.37683
 Alpha virt. eigenvalues --    0.37806   0.38226   0.38450   0.39302   0.39742
 Alpha virt. eigenvalues --    0.39901   0.41440   0.41730   0.42886   0.43768
 Alpha virt. eigenvalues --    0.44119   0.44389   0.45250   0.46178   0.46705
 Alpha virt. eigenvalues --    0.46969   0.47841   0.48524   0.49400   0.49909
 Alpha virt. eigenvalues --    0.50261   0.50707   0.51263   0.51821   0.52017
 Alpha virt. eigenvalues --    0.52462   0.52792   0.53497   0.53739   0.55421
 Alpha virt. eigenvalues --    0.56029   0.56515   0.56671   0.57151   0.57733
 Alpha virt. eigenvalues --    0.58331   0.59124   0.59356   0.59597   0.60064
 Alpha virt. eigenvalues --    0.60741   0.60811   0.61540   0.62149   0.62580
 Alpha virt. eigenvalues --    0.62654   0.63651   0.64123   0.65214   0.65896
 Alpha virt. eigenvalues --    0.66331   0.67116   0.67949   0.68397   0.68737
 Alpha virt. eigenvalues --    0.69686   0.70173   0.70364   0.71462   0.71801
 Alpha virt. eigenvalues --    0.72663   0.73471   0.73783   0.74771   0.75605
 Alpha virt. eigenvalues --    0.76077   0.76521   0.77798   0.78286   0.79214
 Alpha virt. eigenvalues --    0.80654   0.81217   0.81544   0.82531   0.83233
 Alpha virt. eigenvalues --    0.84336   0.84747   0.85589   0.85939   0.86644
 Alpha virt. eigenvalues --    0.86854   0.87182   0.89059   0.89514   0.90088
 Alpha virt. eigenvalues --    0.90702   0.91946   0.92015   0.93064   0.93604
 Alpha virt. eigenvalues --    0.94615   0.96066   0.96582   0.98161   0.99150
 Alpha virt. eigenvalues --    0.99726   1.00945   1.01482   1.03026   1.04397
 Alpha virt. eigenvalues --    1.05540   1.06121   1.07353   1.09080   1.09678
 Alpha virt. eigenvalues --    1.12063   1.13400   1.15367   1.18017   1.18634
 Alpha virt. eigenvalues --    1.21923   1.22412   1.24888   1.26567   1.27542
 Alpha virt. eigenvalues --    1.29070   1.30351   1.33899   1.37247   1.38769
 Alpha virt. eigenvalues --    1.41018   1.42054   1.43307   1.44042   1.45914
 Alpha virt. eigenvalues --    1.47796   1.48156   1.48486   1.49534   1.51232
 Alpha virt. eigenvalues --    1.52415   1.52951   1.53310   1.53559   1.55396
 Alpha virt. eigenvalues --    1.55827   1.57653   1.58228   1.58762   1.60812
 Alpha virt. eigenvalues --    1.63048   1.63502   1.64277   1.65792   1.67048
 Alpha virt. eigenvalues --    1.68132   1.69443   1.70106   1.71044   1.72240
 Alpha virt. eigenvalues --    1.73660   1.75114   1.75941   1.76303   1.78370
 Alpha virt. eigenvalues --    1.79935   1.80779   1.81711   1.82669   1.83757
 Alpha virt. eigenvalues --    1.84303   1.85885   1.86159   1.86970   1.88234
 Alpha virt. eigenvalues --    1.88521   1.90429   1.91322   1.91493   1.92348
 Alpha virt. eigenvalues --    1.92968   1.94584   1.96242   1.97990   1.99249
 Alpha virt. eigenvalues --    2.00187   2.01387   2.01756   2.02855   2.03699
 Alpha virt. eigenvalues --    2.05307   2.06864   2.08582   2.09242   2.09875
 Alpha virt. eigenvalues --    2.11383   2.12557   2.12934   2.15148   2.16119
 Alpha virt. eigenvalues --    2.17486   2.18557   2.19228   2.20026   2.21425
 Alpha virt. eigenvalues --    2.23317   2.24204   2.24999   2.25858   2.26540
 Alpha virt. eigenvalues --    2.26993   2.29275   2.30283   2.32000   2.32152
 Alpha virt. eigenvalues --    2.32828   2.34097   2.35426   2.36112   2.38887
 Alpha virt. eigenvalues --    2.39325   2.41899   2.43867   2.45253   2.47138
 Alpha virt. eigenvalues --    2.51075   2.52451   2.53226   2.54725   2.56879
 Alpha virt. eigenvalues --    2.59068   2.60188   2.61796   2.63387   2.64478
 Alpha virt. eigenvalues --    2.67456   2.68408   2.71214   2.71886   2.72562
 Alpha virt. eigenvalues --    2.73195   2.74431   2.75594   2.76802   2.78879
 Alpha virt. eigenvalues --    2.81953   2.84246   2.86653   2.87367   2.90729
 Alpha virt. eigenvalues --    2.92693   2.95221   2.96798   2.99508   3.00486
 Alpha virt. eigenvalues --    3.02216   3.05830   3.07360   3.17532   3.19347
 Alpha virt. eigenvalues --    3.22468   3.28895   3.29380   3.29630   3.44123
 Alpha virt. eigenvalues --    3.50631   3.56881   3.64672   3.76625   4.00558
 Alpha virt. eigenvalues --    4.77216
          Condensed to atoms (all electrons):
               1          2          3          4          5          6
     1  C    3.951132   0.339356   0.319693   0.439505   0.200196  -0.043311
     2  H    0.339356   1.044448  -0.048581  -0.249378   0.062063  -0.010237
     3  H    0.319693  -0.048581   0.996076  -0.206564   0.030237   0.011605
     4  H    0.439505  -0.249378  -0.206564   1.268420  -0.194769  -0.000376
     5  N    0.200196   0.062063   0.030237  -0.194769   7.546824   0.444350
     6  H   -0.043311  -0.010237   0.011605  -0.000376   0.444350   0.552411
     7  C   -0.035229  -0.046404  -0.051072   0.106991  -1.226152  -0.079946
     8  C   -0.007515   0.047050   0.004297  -0.024336   0.097953   0.013546
     9  H   -0.006015   0.001481   0.000624  -0.000860  -0.035498   0.010806
    10  H    0.002871   0.003026   0.001081  -0.001823  -0.000602  -0.012839
    11  H    0.002104  -0.001044  -0.000802   0.000670  -0.013625   0.003081
    12  H   -0.029613  -0.016251   0.018072   0.003700  -0.163055   0.018952
    13  C    0.050576  -0.056275   0.026897   0.004165   0.140745  -0.038505
    14  H    0.055382  -0.051805  -0.007060   0.010008   0.030514  -0.011282
    15  H   -0.027304   0.008266   0.000671  -0.001225  -0.133129  -0.002919
    16  C   -0.022718   0.022793  -0.020654  -0.003187   0.184588   0.004274
    17  C   -0.005363   0.000590  -0.007032   0.007487  -0.069694  -0.001833
    18  H    0.000630   0.000082  -0.000130   0.000119   0.005626   0.001807
    19  C   -0.001204  -0.000063  -0.001579   0.000418   0.000008  -0.001496
    20  H   -0.000095  -0.000018  -0.000039  -0.000006   0.000227   0.000029
    21  C   -0.000785   0.000616   0.000529   0.000044  -0.006071   0.000587
    22  H   -0.000030  -0.000022  -0.000002   0.000012  -0.000107  -0.000022
    23  C    0.012149   0.003354   0.009264  -0.003242   0.051895   0.001912
    24  H    0.000445   0.000116   0.000013  -0.000060   0.001076   0.000038
    25  C    0.002258   0.001034   0.017521  -0.012145   0.065878   0.006411
    26  H    0.003419   0.002656   0.001576  -0.000413   0.014645   0.000077
    27  H   -0.032410   0.010261  -0.029502   0.005396   0.458182  -0.064774
               7          8          9         10         11         12
     1  C   -0.035229  -0.007515  -0.006015   0.002871   0.002104  -0.029613
     2  H   -0.046404   0.047050   0.001481   0.003026  -0.001044  -0.016251
     3  H   -0.051072   0.004297   0.000624   0.001081  -0.000802   0.018072
     4  H    0.106991  -0.024336  -0.000860  -0.001823   0.000670   0.003700
     5  N   -1.226152   0.097953  -0.035498  -0.000602  -0.013625  -0.163055
     6  H   -0.079946   0.013546   0.010806  -0.012839   0.003081   0.018952
     7  C    9.112440  -0.340450  -0.048991   0.009602   0.205784  -0.152806
     8  C   -0.340450   4.603332   0.391809   0.244199   0.210320   0.001394
     9  H   -0.048991   0.391809   1.083503  -0.249062  -0.124358   0.096916
    10  H    0.009602   0.244199  -0.249062   1.269693  -0.210260  -0.036729
    11  H    0.205784   0.210320  -0.124358  -0.210260   1.041387  -0.072588
    12  H   -0.152806   0.001394   0.096916  -0.036729  -0.072588   1.965454
    13  C    0.104562  -0.310237  -0.151445   0.068756  -0.047754  -0.083444
    14  H   -0.147875  -0.027167   0.003048  -0.001363   0.013604  -0.022959
    15  H    0.212787   0.028087   0.023303   0.011764  -0.025092   0.088462
    16  C   -0.552858   0.206213  -0.057289   0.022563   0.037825  -0.117447
    17  C   -0.114487   0.124929   0.088171  -0.040214  -0.039523   0.035993
    18  H   -0.001092   0.006877  -0.002340   0.000984  -0.008726  -0.001144
    19  C    0.120396   0.020426  -0.006345   0.000804   0.001654  -0.013998
    20  H   -0.000327  -0.001450  -0.000537  -0.000188   0.000699   0.000593
    21  C   -0.093404   0.019190   0.006377  -0.000738  -0.003717   0.009756
    22  H   -0.003013   0.001615   0.000442   0.000027  -0.001561   0.000592
    23  C   -0.007783  -0.063122  -0.010659   0.001568   0.025478  -0.009284
    24  H    0.000235  -0.000049  -0.000122   0.000133   0.000485  -0.000730
    25  C   -0.631034   0.041080   0.006119   0.007507  -0.020792   0.030167
    26  H   -0.022478   0.015332  -0.001498  -0.000239   0.005971  -0.042811
    27  H   -0.026565  -0.053767  -0.016044  -0.000975   0.007487  -0.049861
              13         14         15         16         17         18
     1  C    0.050576   0.055382  -0.027304  -0.022718  -0.005363   0.000630
     2  H   -0.056275  -0.051805   0.008266   0.022793   0.000590   0.000082
     3  H    0.026897  -0.007060   0.000671  -0.020654  -0.007032  -0.000130
     4  H    0.004165   0.010008  -0.001225  -0.003187   0.007487   0.000119
     5  N    0.140745   0.030514  -0.133129   0.184588  -0.069694   0.005626
     6  H   -0.038505  -0.011282  -0.002919   0.004274  -0.001833   0.001807
     7  C    0.104562  -0.147875   0.212787  -0.552858  -0.114487  -0.001092
     8  C   -0.310237  -0.027167   0.028087   0.206213   0.124929   0.006877
     9  H   -0.151445   0.003048   0.023303  -0.057289   0.088171  -0.002340
    10  H    0.068756  -0.001363   0.011764   0.022563  -0.040214   0.000984
    11  H   -0.047754   0.013604  -0.025092   0.037825  -0.039523  -0.008726
    12  H   -0.083444  -0.022959   0.088462  -0.117447   0.035993  -0.001144
    13  C    7.222140  -0.012055  -0.191940  -0.098403  -0.834343   0.055170
    14  H   -0.012055   1.720703  -0.339443  -0.024967  -0.122108   0.017815
    15  H   -0.191940  -0.339443   1.659166  -0.103378   0.205943  -0.049704
    16  C   -0.098403  -0.024967  -0.103378  13.527807  -5.697899   0.725326
    17  C   -0.834343  -0.122108   0.205943  -5.697899  16.121142  -1.241474
    18  H    0.055170   0.017815  -0.049704   0.725326  -1.241474   2.084112
    19  C   -0.200692  -0.051230   0.112391   2.953187  -3.893645   0.270726
    20  H    0.014700   0.000312   0.002016  -0.162393   0.568528  -0.089331
    21  C    0.075745   0.004263   0.001552  -3.540057   3.294427  -0.158942
    22  H   -0.003913   0.000809   0.000254   0.101905  -0.130427  -0.015524
    23  C    0.038245   0.087779  -0.067447   2.682031  -3.829898   0.107266
    24  H    0.022092   0.000854  -0.001783  -0.165815   0.121384   0.010100
    25  C   -0.586706   0.168109  -0.214204  -5.723425   1.188721  -0.020694
    26  H   -0.067304  -0.021266   0.005432   0.655011  -0.110724  -0.021724
    27  H    0.015767   0.001987  -0.000681   0.000308   0.004075  -0.000146
              19         20         21         22         23         24
     1  C   -0.001204  -0.000095  -0.000785  -0.000030   0.012149   0.000445
     2  H   -0.000063  -0.000018   0.000616  -0.000022   0.003354   0.000116
     3  H   -0.001579  -0.000039   0.000529  -0.000002   0.009264   0.000013
     4  H    0.000418  -0.000006   0.000044   0.000012  -0.003242  -0.000060
     5  N    0.000008   0.000227  -0.006071  -0.000107   0.051895   0.001076
     6  H   -0.001496   0.000029   0.000587  -0.000022   0.001912   0.000038
     7  C    0.120396  -0.000327  -0.093404  -0.003013  -0.007783   0.000235
     8  C    0.020426  -0.001450   0.019190   0.001615  -0.063122  -0.000049
     9  H   -0.006345  -0.000537   0.006377   0.000442  -0.010659  -0.000122
    10  H    0.000804  -0.000188  -0.000738   0.000027   0.001568   0.000133
    11  H    0.001654   0.000699  -0.003717  -0.001561   0.025478   0.000485
    12  H   -0.013998   0.000593   0.009756   0.000592  -0.009284  -0.000730
    13  C   -0.200692   0.014700   0.075745  -0.003913   0.038245   0.022092
    14  H   -0.051230   0.000312   0.004263   0.000809   0.087779   0.000854
    15  H    0.112391   0.002016   0.001552   0.000254  -0.067447  -0.001783
    16  C    2.953187  -0.162393  -3.540057   0.101905   2.682031  -0.165815
    17  C   -3.893645   0.568528   3.294427  -0.130427  -3.829898   0.121384
    18  H    0.270726  -0.089331  -0.158942  -0.015524   0.107266   0.010100
    19  C   10.283971  -0.693933  -3.126361   0.358336   3.408503  -0.242101
    20  H   -0.693933   1.638454   0.318146  -0.053060  -0.210343  -0.018017
    21  C   -3.126361   0.318146   8.778332  -0.564486  -3.023246   0.303190
    22  H    0.358336  -0.053060  -0.564486   1.578301   0.356854  -0.055493
    23  C    3.408503  -0.210343  -3.023246   0.356854  11.240234  -0.760527
    24  H   -0.242101  -0.018017   0.303190  -0.055493  -0.760527   1.650738
    25  C   -3.669877   0.117036   3.217529  -0.136916  -4.520018   0.682471
    26  H    0.119731   0.009115  -0.161158  -0.016079   0.462778  -0.090634
    27  H    0.001409  -0.000017  -0.000700  -0.000022  -0.000245   0.000003
              25         26         27
     1  C    0.002258   0.003419  -0.032410
     2  H    0.001034   0.002656   0.010261
     3  H    0.017521   0.001576  -0.029502
     4  H   -0.012145  -0.000413   0.005396
     5  N    0.065878   0.014645   0.458182
     6  H    0.006411   0.000077  -0.064774
     7  C   -0.631034  -0.022478  -0.026565
     8  C    0.041080   0.015332  -0.053767
     9  H    0.006119  -0.001498  -0.016044
    10  H    0.007507  -0.000239  -0.000975
    11  H   -0.020792   0.005971   0.007487
    12  H    0.030167  -0.042811  -0.049861
    13  C   -0.586706  -0.067304   0.015767
    14  H    0.168109  -0.021266   0.001987
    15  H   -0.214204   0.005432  -0.000681
    16  C   -5.723425   0.655011   0.000308
    17  C    1.188721  -0.110724   0.004075
    18  H   -0.020694  -0.021724  -0.000146
    19  C   -3.669877   0.119731   0.001409
    20  H    0.117036   0.009115  -0.000017
    21  C    3.217529  -0.161158  -0.000700
    22  H   -0.136916  -0.016079  -0.000022
    23  C   -4.520018   0.462778  -0.000245
    24  H    0.682471  -0.090634   0.000003
    25  C   16.720702  -1.240843  -0.008949
    26  H   -1.240843   2.212449   0.000386
    27  H   -0.008949   0.000386   0.597075
 Mulliken charges:
               1
     1  C    0.831875
     2  H   -0.067116
     3  H   -0.065141
     4  H   -0.148553
     5  N   -0.492305
     6  H    0.197658
     7  C   -0.290831
     8  C    0.750443
     9  H   -0.001538
    10  H   -0.089544
    11  H    0.013293
    12  H   -0.457330
    13  C    0.843459
    14  H   -0.274608
    15  H   -0.201844
    16  C    1.166658
    17  C    0.377271
    18  H   -0.675667
    19  C    0.250563
    20  H   -0.440101
    21  C    0.649382
    22  H   -0.418468
    23  C    0.016502
    24  H   -0.458039
    25  C    0.513062
    26  H   -0.711406
    27  H    0.182325
 Sum of Mulliken charges =   1.00000
 Mulliken charges with hydrogens summed into heavy atoms:
               1
     1  C    0.551065
     5  N   -0.112323
     7  C   -0.748161
     8  C    0.672654
    13  C    0.367006
    16  C    1.166658
    17  C   -0.298395
    19  C   -0.189537
    21  C    0.230914
    23  C   -0.441537
    25  C   -0.198344
 Electronic spatial extent (au):  <R**2>=           2306.4994
 Charge=              1.0000 electrons
 Dipole moment (field-independent basis, Debye):
    X=             11.0087    Y=              0.2641    Z=              0.2653  Tot=             11.0150
 Quadrupole moment (field-independent basis, Debye-Ang):
   XX=            -13.6872   YY=            -57.3079   ZZ=            -65.0385
   XY=             -1.5876   XZ=             -1.9271   YZ=             -2.4712
 Traceless Quadrupole moment (field-independent basis, Debye-Ang):
   XX=             31.6574   YY=            -11.9634   ZZ=            -19.6940
   XY=             -1.5876   XZ=             -1.9271   YZ=             -2.4712
 Octapole moment (field-independent basis, Debye-Ang**2):
  XXX=            132.2527  YYY=             -2.1525  ZZZ=              1.5832  XYY=             17.1637
  XXY=             -4.4048  XXZ=              6.8448  XZZ=             24.9930  YZZ=              2.7600
  YYZ=              1.4618  XYZ=             10.7765
 Hexadecapole moment (field-independent basis, Debye-Ang**3):
 XXXX=          -1543.7952 YYYY=           -486.2998 ZZZZ=           -245.8888 XXXY=            -43.2817
 XXXZ=            -42.5905 YYYX=            -13.5247 YYYZ=            -14.5353 ZZZX=              0.1319
 ZZZY=              2.9005 XXYY=           -399.5955 XXZZ=           -412.6364 YYZZ=           -114.5961
 XXYZ=            -20.1311 YYXZ=             -7.1191 ZZXY=              2.8776
 N-N= 6.047899325449D+02 E-N=-2.225908410835D+03  KE= 4.417617002569D+02
 Leave Link  601 at Sun Jul 18 14:38:20 2021, MaxMem=   262144000 cpu:               1.9 elap:               0.7
 (Enter /prod/apps/gaussian/g16b1/l9999.exe)
 1\1\GINC-PIRINEUS30\SP\RMP2-FC\Aug-CC-pVDZ\C10H16N1(1+)\UBATOR02\18-Ju
 l-2021\0\\#p mp2/aug-cc-pVDZ scf=tight maxdisk=180GB geom=allcheck\\SE
 T_328_BBB30_conf1.geo_105_180_285 geometry\\1,1\C,0,-1.6118469467,-1.5
 133760546,-2.7519143397\H,0,-2.3935472326,-1.3543250816,-2.0138084951\
 H,0,-1.0549202702,-2.420683217,-2.5258602597\H,0,-2.0473171151,-1.5754
 756079,-3.7468366282\N,0,-0.664597427,-0.3590834944,-2.7303416175\H,0,
 -1.1775386108,0.5081143196,-2.9562383308\C,0,0.1102610765,-0.160229177
 1,-1.4393406377\C,0,1.2631149142,0.8011711667,-1.7061211481\H,0,0.8949
 029489,1.7796213482,-2.0278788774\H,0,1.9376965616,0.408262267,-2.4697
 826283\H,0,1.8354653912,0.9397602377,-0.787100723\H,0,0.4984414727,-1.
 1517217888,-1.1941944095\C,0,-0.8375765157,0.3145964467,-0.3238697308\
 H,0,-1.7223412888,-0.3282190205,-0.3010378346\H,0,-1.1788942574,1.3294
 458287,-0.5542508183\C,0,-0.1742015419,0.2917175949,1.0369711863\C,0,0
 .2381724674,1.4777189627,1.6558267922\H,0,0.0670515391,2.4266689775,1.
 1554162491\C,0,0.8594314759,1.4537361301,2.9060517551\H,0,1.1700747954
 ,2.3838996674,3.3706268993\C,0,1.0775556182,0.2383681093,3.5562489965\
 H,0,1.559843822,0.2175073423,4.5281690238\C,0,0.6664970031,-0.95138483
 51,2.9501767644\H,0,0.8257888367,-1.9008449866,3.4506775838\C,0,0.0444
 078456,-0.922966827,1.7021795909\H,0,-0.2792942567,-1.8520119789,1.243
 3833925\H,0,0.0123696945,-0.4862663292,-3.4981517551\\Version=ES64L-G1
 6RevB.01\State=1-A\HF=-442.2917555\MP2=-443.8773751\RMSD=5.023e-09\PG=
 C01 [X(C10H16N1)]\\@


 Experience is what you get when you don't get what you want.
 -- Dan Stanford
 Job cpu time:       0 days  0 hours 26 minutes 38.9 seconds.
 Elapsed time:       0 days  0 hours  6 minutes 51.9 seconds.
 File lengths (MBytes):  RWF=  17445 Int=      0 D2E=      0 Chk=     14 Scr=      1
 Normal termination of Gaussian 16 at Sun Jul 18 14:38:40 2021.
