 Entering Gaussian System, Link 0=g16
 Initial command:
 /prod/apps/gaussian/g16b1/l1.exe "/tmp/ubator02/1839594/Gau-185775.inp" -scrdir="/tmp/ubator02/1839594/"
 Entering Link 1 = /prod/apps/gaussian/g16b1/l1.exe PID=    185776.
  
 Copyright (c) 1988-2017, Gaussian, Inc.  All Rights Reserved.
  
 This is part of the Gaussian(R) 16 program.  It is based on
 the Gaussian(R) 09 system (copyright 2009, Gaussian, Inc.),
 the Gaussian(R) 03 system (copyright 2003, Gaussian, Inc.),
 the Gaussian(R) 98 system (copyright 1998, Gaussian, Inc.),
 the Gaussian(R) 94 system (copyright 1995, Gaussian, Inc.),
 the Gaussian 92(TM) system (copyright 1992, Gaussian, Inc.),
 the Gaussian 90(TM) system (copyright 1990, Gaussian, Inc.),
 the Gaussian 88(TM) system (copyright 1988, Gaussian, Inc.),
 the Gaussian 86(TM) system (copyright 1986, Carnegie Mellon
 University), and the Gaussian 82(TM) system (copyright 1983,
 Carnegie Mellon University). Gaussian is a federally registered
 trademark of Gaussian, Inc.
  
 This software contains proprietary and confidential information,
 including trade secrets, belonging to Gaussian, Inc.
  
 This software is provided under written license and may be
 used, copied, transmitted, or stored only in accord with that
 written license.
  
 The following legend is applicable only to US Government
 contracts under FAR:
  
                    RESTRICTED RIGHTS LEGEND
  
 Use, reproduction and disclosure by the US Government is
 subject to restrictions as set forth in subparagraphs (a)
 and (c) of the Commercial Computer Software - Restricted
 Rights clause in FAR 52.227-19.
  
 Gaussian, Inc.
 340 Quinnipiac St., Bldg. 40, Wallingford CT 06492
  
  
 ---------------------------------------------------------------
 Warning -- This program may not be used in any manner that
 competes with the business of Gaussian, Inc. or will provide
 assistance to any competitor of Gaussian, Inc.  The licensee
 of this program is prohibited from giving any competitor of
 Gaussian, Inc. access to this program.  By using this program,
 the user acknowledges that Gaussian, Inc. is engaged in the
 business of creating and licensing software in the field of
 computational chemistry and represents and warrants to the
 licensee that it is not a competitor of Gaussian, Inc. and that
 it will not use this program in any manner prohibited above.
 ---------------------------------------------------------------
  

 Cite this work as:
 Gaussian 16, Revision B.01,
 M. J. Frisch, G. W. Trucks, H. B. Schlegel, G. E. Scuseria, 
 M. A. Robb, J. R. Cheeseman, G. Scalmani, V. Barone, 
 G. A. Petersson, H. Nakatsuji, X. Li, M. Caricato, A. V. Marenich, 
 J. Bloino, B. G. Janesko, R. Gomperts, B. Mennucci, H. P. Hratchian, 
 J. V. Ortiz, A. F. Izmaylov, J. L. Sonnenberg, D. Williams-Young, 
 F. Ding, F. Lipparini, F. Egidi, J. Goings, B. Peng, A. Petrone, 
 T. Henderson, D. Ranasinghe, V. G. Zakrzewski, J. Gao, N. Rega, 
 G. Zheng, W. Liang, M. Hada, M. Ehara, K. Toyota, R. Fukuda, 
 J. Hasegawa, M. Ishida, T. Nakajima, Y. Honda, O. Kitao, H. Nakai, 
 T. Vreven, K. Throssell, J. A. Montgomery, Jr., J. E. Peralta, 
 F. Ogliaro, M. J. Bearpark, J. J. Heyd, E. N. Brothers, K. N. Kudin, 
 V. N. Staroverov, T. A. Keith, R. Kobayashi, J. Normand, 
 K. Raghavachari, A. P. Rendell, J. C. Burant, S. S. Iyengar, 
 J. Tomasi, M. Cossi, J. M. Millam, M. Klene, C. Adamo, R. Cammi, 
 J. W. Ochterski, R. L. Martin, K. Morokuma, O. Farkas, 
 J. B. Foresman, and D. J. Fox, Gaussian, Inc., Wallingford CT, 2016.
 
 ******************************************
 Gaussian 16:  ES64L-G16RevB.01 20-Dec-2017
                18-Jul-2021 
 ******************************************
 %mem=800MB
 %nproc=4
 Will use up to    4 processors via shared memory.
 %chk=SET_328_BBB29_conf1.geo_105_180_075.chk
 -----------------------------------------------------------
 #p b3lyp/6-31G(d) opt freq scrf=(iefpcm,read,solvent=water)
 -----------------------------------------------------------
 1/18=20,19=15,26=3,38=1,40=2/1,3;
 2/9=110,12=2,17=6,18=5,40=1/2;
 3/5=1,6=6,7=1,11=2,25=1,30=1,70=2203,71=1,72=1,74=-5/1,2,3;
 4//1;
 5/5=2,38=5,53=1/2;
 6/7=2,8=2,9=2,10=2,28=1/1;
 7//1,2,3,16;
 1/18=20,19=15,26=3/3(2);
 2/9=110/2;
 99//99;
 2/9=110/2;
 3/5=1,6=6,7=1,11=2,25=1,30=1,70=2205,71=1,72=1,74=-5/1,2,3;
 4/5=5,16=3,69=1/1;
 5/5=2,38=5,53=1/2;
 7//1,2,3,16;
 1/18=20,19=15,26=3/3(-5);
 2/9=110/2;
 6/7=2,8=2,9=2,10=2,19=2,28=1/1;
 99/9=1/99;
 Leave Link    1 at Sun Jul 18 13:49:17 2021, MaxMem=   104857600 cpu:               0.1 elap:               0.0
 (Enter /prod/apps/gaussian/g16b1/l101.exe)
 --------------------------------------------
 SET_328_BBB29_conf1.geo_105_180_075 geometry
 --------------------------------------------
 Symbolic Z-matrix:
 Charge =  1 Multiplicity = 1
 N                    -2.874     0.591     3.152 
 H                    -2.705    -0.357     3.42 
 H                    -3.317     0.61      2.255 
 C                    -1.619     1.304     3.085 
 H                    -1.18      1.266     4.086 
 H                    -1.741     2.319     2.699 
 C                    -0.665     0.612     2.132 
 H                    -0.684    -0.448     2.395 
 H                     0.368     0.937     2.269 
 C                    -1.016     0.863     0.603 
 H                    -0.877     1.921     0.365 
 H                    -2.058     0.556     0.484 
 N                    -0.083     0.193    -0.328 
 C                    -0.17     -1.174    -0.535 
 C                    -1.315    -1.632    -1.123 
 H                    -2.197    -1.018    -1.285 
 C                    -1.432    -2.996    -1.327 
 Cl                   -2.883    -3.569    -2.103 
 C                    -0.291    -3.826    -1.208 
 H                    -0.346    -4.89     -1.423 
 C                     0.902    -3.265    -0.641 
 H                     1.801    -3.852    -0.474 
 C                     0.964    -1.913    -0.297 
 S                     2.496    -1.141     0.132 
 C                     2.189     0.346    -0.776 
 C                     0.865     0.833    -0.935 
 C                     0.593     2.043    -1.605 
 H                    -0.424     2.403    -1.739 
 C                     1.709     2.786    -1.969 
 H                     1.642     3.825    -2.28 
 C                     2.999     2.306    -1.913 
 H                     3.882     2.916    -2.087 
 C                     3.212     1.032    -1.388 
 H                     4.169     0.535    -1.527 
 H                    -3.469     1.027     3.827 
 
 ITRead=  0  0  0  0  0  0  0  0  0  0  0  0  0  0  0  0  0  0  0  0
 ITRead=  0  0  0  0  0  0  0  0  0  0  0  0  0  0  0
 MicOpt= -1 -1 -1 -1 -1 -1 -1 -1 -1 -1 -1 -1 -1 -1 -1 -1 -1 -1 -1 -1
 MicOpt= -1 -1 -1 -1 -1 -1 -1 -1 -1 -1 -1 -1 -1 -1 -1
 NAtoms=     35 NQM=       35 NQMF=       0 NMMI=      0 NMMIF=      0
                NMic=       0 NMicF=      0.
                    Isotopes and Nuclear Properties:
 (Nuclear quadrupole moments (NQMom) in fm**2, nuclear magnetic moments (NMagM)
  in nuclear magnetons)

  Atom         1           2           3           4           5           6           7           8           9          10
 IAtWgt=          14           1           1          12           1           1          12           1           1          12
 AtmWgt=  14.0030740   1.0078250   1.0078250  12.0000000   1.0078250   1.0078250  12.0000000   1.0078250   1.0078250  12.0000000
 NucSpn=           2           1           1           0           1           1           0           1           1           0
 AtZEff=  -0.0000000  -0.0000000  -0.0000000  -0.0000000  -0.0000000  -0.0000000  -0.0000000  -0.0000000  -0.0000000  -0.0000000
 NQMom=    2.0440000   0.0000000   0.0000000   0.0000000   0.0000000   0.0000000   0.0000000   0.0000000   0.0000000   0.0000000
 NMagM=    0.4037610   2.7928460   2.7928460   0.0000000   2.7928460   2.7928460   0.0000000   2.7928460   2.7928460   0.0000000
 AtZNuc=   7.0000000   1.0000000   1.0000000   6.0000000   1.0000000   1.0000000   6.0000000   1.0000000   1.0000000   6.0000000

  Atom        11          12          13          14          15          16          17          18          19          20
 IAtWgt=           1           1          14          12          12           1          12          35          12           1
 AtmWgt=   1.0078250   1.0078250  14.0030740  12.0000000  12.0000000   1.0078250  12.0000000  34.9688527  12.0000000   1.0078250
 NucSpn=           1           1           2           0           0           1           0           3           0           1
 AtZEff=  -0.0000000  -0.0000000  -0.0000000  -0.0000000  -0.0000000  -0.0000000  -0.0000000  -0.0000000  -0.0000000  -0.0000000
 NQMom=    0.0000000   0.0000000   2.0440000   0.0000000   0.0000000   0.0000000   0.0000000  -8.1650000   0.0000000   0.0000000
 NMagM=    2.7928460   2.7928460   0.4037610   0.0000000   0.0000000   2.7928460   0.0000000   0.8218740   0.0000000   2.7928460
 AtZNuc=   1.0000000   1.0000000   7.0000000   6.0000000   6.0000000   1.0000000   6.0000000  17.0000000   6.0000000   1.0000000

  Atom        21          22          23          24          25          26          27          28          29          30
 IAtWgt=          12           1          12          32          12          12          12           1          12           1
 AtmWgt=  12.0000000   1.0078250  12.0000000  31.9720718  12.0000000  12.0000000  12.0000000   1.0078250  12.0000000   1.0078250
 NucSpn=           0           1           0           0           0           0           0           1           0           1
 AtZEff=  -0.0000000  -0.0000000  -0.0000000  -0.0000000  -0.0000000  -0.0000000  -0.0000000  -0.0000000  -0.0000000  -0.0000000
 NQMom=    0.0000000   0.0000000   0.0000000   0.0000000   0.0000000   0.0000000   0.0000000   0.0000000   0.0000000   0.0000000
 NMagM=    0.0000000   2.7928460   0.0000000   0.0000000   0.0000000   0.0000000   0.0000000   2.7928460   0.0000000   2.7928460
 AtZNuc=   6.0000000   1.0000000   6.0000000  16.0000000   6.0000000   6.0000000   6.0000000   1.0000000   6.0000000   1.0000000

  Atom        31          32          33          34          35
 IAtWgt=          12           1          12           1           1
 AtmWgt=  12.0000000   1.0078250  12.0000000   1.0078250   1.0078250
 NucSpn=           0           1           0           1           1
 AtZEff=  -0.0000000  -0.0000000  -0.0000000  -0.0000000  -0.0000000
 NQMom=    0.0000000   0.0000000   0.0000000   0.0000000   0.0000000
 NMagM=    0.0000000   2.7928460   0.0000000   2.7928460   2.7928460
 AtZNuc=   6.0000000   1.0000000   6.0000000   1.0000000   1.0000000
 Leave Link  101 at Sun Jul 18 13:49:17 2021, MaxMem=   104857600 cpu:               0.5 elap:               0.1
 (Enter /prod/apps/gaussian/g16b1/l103.exe)

 GradGradGradGradGradGradGradGradGradGradGradGradGradGradGradGradGradGrad
 Berny optimization.
 Initialization pass.
                           ----------------------------
                           !    Initial Parameters    !
                           ! (Angstroms and Degrees)  !
 --------------------------                            --------------------------
 ! Name  Definition              Value          Derivative Info.                !
 --------------------------------------------------------------------------------
 ! R1    R(1,2)                  0.9995         estimate D2E/DX2                !
 ! R2    R(1,3)                  1.0006         estimate D2E/DX2                !
 ! R3    R(1,4)                  1.445          estimate D2E/DX2                !
 ! R4    R(1,35)                 0.9999         estimate D2E/DX2                !
 ! R5    R(4,5)                  1.0937         estimate D2E/DX2                !
 ! R6    R(4,6)                  1.0928         estimate D2E/DX2                !
 ! R7    R(4,7)                  1.5156         estimate D2E/DX2                !
 ! R8    R(7,8)                  1.0923         estimate D2E/DX2                !
 ! R9    R(7,9)                  1.0916         estimate D2E/DX2                !
 ! R10   R(7,10)                 1.5887         estimate D2E/DX2                !
 ! R11   R(10,11)                1.0933         estimate D2E/DX2                !
 ! R12   R(10,12)                1.0928         estimate D2E/DX2                !
 ! R13   R(10,13)                1.4786         estimate D2E/DX2                !
 ! R14   R(13,14)                1.3853         estimate D2E/DX2                !
 ! R15   R(13,26)                1.2949         estimate D2E/DX2                !
 ! R16   R(14,15)                1.3662         estimate D2E/DX2                !
 ! R17   R(14,23)                1.3743         estimate D2E/DX2                !
 ! R18   R(15,16)                1.0868         estimate D2E/DX2                !
 ! R19   R(15,17)                1.3841         estimate D2E/DX2                !
 ! R20   R(17,18)                1.7424         estimate D2E/DX2                !
 ! R21   R(17,19)                1.416          estimate D2E/DX2                !
 ! R22   R(19,20)                1.0869         estimate D2E/DX2                !
 ! R23   R(19,21)                1.4351         estimate D2E/DX2                !
 ! R24   R(21,22)                1.0866         estimate D2E/DX2                !
 ! R25   R(21,23)                1.3965         estimate D2E/DX2                !
 ! R26   R(23,24)                1.7683         estimate D2E/DX2                !
 ! R27   R(24,25)                1.7691         estimate D2E/DX2                !
 ! R28   R(25,26)                1.4197         estimate D2E/DX2                !
 ! R29   R(25,33)                1.3754         estimate D2E/DX2                !
 ! R30   R(26,27)                1.4096         estimate D2E/DX2                !
 ! R31   R(27,28)                1.0871         estimate D2E/DX2                !
 ! R32   R(27,29)                1.3892         estimate D2E/DX2                !
 ! R33   R(29,30)                1.0866         estimate D2E/DX2                !
 ! R34   R(29,31)                1.3775         estimate D2E/DX2                !
 ! R35   R(31,32)                1.0872         estimate D2E/DX2                !
 ! R36   R(31,33)                1.3943         estimate D2E/DX2                !
 ! R37   R(33,34)                1.0873         estimate D2E/DX2                !
 ! A1    A(2,1,3)              109.4646         estimate D2E/DX2                !
 ! A2    A(2,1,4)              109.4861         estimate D2E/DX2                !
 ! A3    A(2,1,35)             109.4617         estimate D2E/DX2                !
 ! A4    A(3,1,4)              109.487          estimate D2E/DX2                !
 ! A5    A(3,1,35)             109.478          estimate D2E/DX2                !
 ! A6    A(4,1,35)             109.4499         estimate D2E/DX2                !
 ! A7    A(1,4,5)              106.8007         estimate D2E/DX2                !
 ! A8    A(1,4,6)              112.194          estimate D2E/DX2                !
 ! A9    A(1,4,7)              110.5212         estimate D2E/DX2                !
 ! A10   A(5,4,6)              113.6022         estimate D2E/DX2                !
 ! A11   A(5,4,7)              107.8767         estimate D2E/DX2                !
 ! A12   A(6,4,7)              105.7983         estimate D2E/DX2                !
 ! A13   A(4,7,8)              106.3035         estimate D2E/DX2                !
 ! A14   A(4,7,9)              112.3841         estimate D2E/DX2                !
 ! A15   A(4,7,10)             113.2            estimate D2E/DX2                !
 ! A16   A(8,7,9)              105.9726         estimate D2E/DX2                !
 ! A17   A(8,7,10)             112.4078         estimate D2E/DX2                !
 ! A18   A(9,7,10)             106.4294         estimate D2E/DX2                !
 ! A19   A(7,10,11)            109.5301         estimate D2E/DX2                !
 ! A20   A(7,10,12)            105.7287         estimate D2E/DX2                !
 ! A21   A(7,10,13)            113.2654         estimate D2E/DX2                !
 ! A22   A(11,10,12)           111.6776         estimate D2E/DX2                !
 ! A23   A(11,10,13)           102.7802         estimate D2E/DX2                !
 ! A24   A(12,10,13)           113.9427         estimate D2E/DX2                !
 ! A25   A(10,13,14)           120.1065         estimate D2E/DX2                !
 ! A26   A(10,13,26)           122.22           estimate D2E/DX2                !
 ! A27   A(14,13,26)           117.6226         estimate D2E/DX2                !
 ! A28   A(13,14,15)           116.599          estimate D2E/DX2                !
 ! A29   A(13,14,23)           116.931          estimate D2E/DX2                !
 ! A30   A(15,14,23)           125.8602         estimate D2E/DX2                !
 ! A31   A(14,15,16)           123.7042         estimate D2E/DX2                !
 ! A32   A(14,15,17)           117.6866         estimate D2E/DX2                !
 ! A33   A(16,15,17)           117.786          estimate D2E/DX2                !
 ! A34   A(15,17,18)           117.3944         estimate D2E/DX2                !
 ! A35   A(15,17,19)           119.8116         estimate D2E/DX2                !
 ! A36   A(18,17,19)           121.0453         estimate D2E/DX2                !
 ! A37   A(17,19,20)           121.0928         estimate D2E/DX2                !
 ! A38   A(17,19,21)           118.2904         estimate D2E/DX2                !
 ! A39   A(20,19,21)           120.1924         estimate D2E/DX2                !
 ! A40   A(19,21,22)           122.5026         estimate D2E/DX2                !
 ! A41   A(19,21,23)           120.8446         estimate D2E/DX2                !
 ! A42   A(22,21,23)           116.6433         estimate D2E/DX2                !
 ! A43   A(14,23,21)           116.1877         estimate D2E/DX2                !
 ! A44   A(14,23,24)           121.4745         estimate D2E/DX2                !
 ! A45   A(21,23,24)           121.3923         estimate D2E/DX2                !
 ! A46   A(23,24,25)            95.284          estimate D2E/DX2                !
 ! A47   A(24,25,26)           120.5075         estimate D2E/DX2                !
 ! A48   A(24,25,33)           121.2338         estimate D2E/DX2                !
 ! A49   A(26,25,33)           118.2125         estimate D2E/DX2                !
 ! A50   A(13,26,25)           117.4341         estimate D2E/DX2                !
 ! A51   A(13,26,27)           120.3846         estimate D2E/DX2                !
 ! A52   A(25,26,27)           121.8474         estimate D2E/DX2                !
 ! A53   A(26,27,28)           121.5578         estimate D2E/DX2                !
 ! A54   A(26,27,29)           115.3799         estimate D2E/DX2                !
 ! A55   A(28,27,29)           122.8263         estimate D2E/DX2                !
 ! A56   A(27,29,30)           122.4692         estimate D2E/DX2                !
 ! A57   A(27,29,31)           123.7282         estimate D2E/DX2                !
 ! A58   A(30,29,31)           113.7379         estimate D2E/DX2                !
 ! A59   A(29,31,32)           123.9547         estimate D2E/DX2                !
 ! A60   A(29,31,33)           118.473          estimate D2E/DX2                !
 ! A61   A(32,31,33)           116.6695         estimate D2E/DX2                !
 ! A62   A(25,33,31)           120.641          estimate D2E/DX2                !
 ! A63   A(25,33,34)           118.9186         estimate D2E/DX2                !
 ! A64   A(31,33,34)           120.2642         estimate D2E/DX2                !
 ! D1    D(2,1,4,5)            -60.6289         estimate D2E/DX2                !
 ! D2    D(2,1,4,6)            174.2797         estimate D2E/DX2                !
 ! D3    D(2,1,4,7)             56.4617         estimate D2E/DX2                !
 ! D4    D(3,1,4,5)            179.3604         estimate D2E/DX2                !
 ! D5    D(3,1,4,6)             54.2691         estimate D2E/DX2                !
 ! D6    D(3,1,4,7)            -63.549          estimate D2E/DX2                !
 ! D7    D(35,1,4,5)            59.3555         estimate D2E/DX2                !
 ! D8    D(35,1,4,6)           -65.7359         estimate D2E/DX2                !
 ! D9    D(35,1,4,7)           176.4461         estimate D2E/DX2                !
 ! D10   D(1,4,7,8)            -47.823          estimate D2E/DX2                !
 ! D11   D(1,4,7,9)           -163.3242         estimate D2E/DX2                !
 ! D12   D(1,4,7,10)            76.058          estimate D2E/DX2                !
 ! D13   D(5,4,7,8)             68.6012         estimate D2E/DX2                !
 ! D14   D(5,4,7,9)            -46.9            estimate D2E/DX2                !
 ! D15   D(5,4,7,10)          -167.5178         estimate D2E/DX2                !
 ! D16   D(6,4,7,8)           -169.4965         estimate D2E/DX2                !
 ! D17   D(6,4,7,9)             75.0023         estimate D2E/DX2                !
 ! D18   D(6,4,7,10)           -45.6155         estimate D2E/DX2                !
 ! D19   D(4,7,10,11)           65.6896         estimate D2E/DX2                !
 ! D20   D(4,7,10,12)          -54.7797         estimate D2E/DX2                !
 ! D21   D(4,7,10,13)          179.7688         estimate D2E/DX2                !
 ! D22   D(8,7,10,11)         -173.84           estimate D2E/DX2                !
 ! D23   D(8,7,10,12)           65.6907         estimate D2E/DX2                !
 ! D24   D(8,7,10,13)          -59.7608         estimate D2E/DX2                !
 ! D25   D(9,7,10,11)          -58.2513         estimate D2E/DX2                !
 ! D26   D(9,7,10,12)         -178.7206         estimate D2E/DX2                !
 ! D27   D(9,7,10,13)           55.8279         estimate D2E/DX2                !
 ! D28   D(7,10,13,14)          75.6965         estimate D2E/DX2                !
 ! D29   D(7,10,13,26)        -101.6454         estimate D2E/DX2                !
 ! D30   D(11,10,13,14)       -166.2262         estimate D2E/DX2                !
 ! D31   D(11,10,13,26)         16.4319         estimate D2E/DX2                !
 ! D32   D(12,10,13,14)        -45.2188         estimate D2E/DX2                !
 ! D33   D(12,10,13,26)        137.4392         estimate D2E/DX2                !
 ! D34   D(10,13,14,15)         64.7038         estimate D2E/DX2                !
 ! D35   D(10,13,14,23)       -123.7157         estimate D2E/DX2                !
 ! D36   D(26,13,14,15)       -117.8341         estimate D2E/DX2                !
 ! D37   D(26,13,14,23)         53.7464         estimate D2E/DX2                !
 ! D38   D(10,13,26,25)        124.7301         estimate D2E/DX2                !
 ! D39   D(10,13,26,27)        -48.7568         estimate D2E/DX2                !
 ! D40   D(14,13,26,25)        -52.6747         estimate D2E/DX2                !
 ! D41   D(14,13,26,27)        133.8384         estimate D2E/DX2                !
 ! D42   D(13,14,15,16)         -9.9394         estimate D2E/DX2                !
 ! D43   D(13,14,15,17)       -179.3014         estimate D2E/DX2                !
 ! D44   D(23,14,15,16)        179.3297         estimate D2E/DX2                !
 ! D45   D(23,14,15,17)          9.9677         estimate D2E/DX2                !
 ! D46   D(13,14,23,21)       -173.6202         estimate D2E/DX2                !
 ! D47   D(13,14,23,24)         -4.6023         estimate D2E/DX2                !
 ! D48   D(15,14,23,21)         -2.9167         estimate D2E/DX2                !
 ! D49   D(15,14,23,24)        166.1012         estimate D2E/DX2                !
 ! D50   D(14,15,17,18)       -178.9436         estimate D2E/DX2                !
 ! D51   D(14,15,17,19)        -13.8443         estimate D2E/DX2                !
 ! D52   D(16,15,17,18)         11.0529         estimate D2E/DX2                !
 ! D53   D(16,15,17,19)        176.1522         estimate D2E/DX2                !
 ! D54   D(15,17,19,20)       -176.2179         estimate D2E/DX2                !
 ! D55   D(15,17,19,21)         11.2462         estimate D2E/DX2                !
 ! D56   D(18,17,19,20)        -11.6728         estimate D2E/DX2                !
 ! D57   D(18,17,19,21)        175.7913         estimate D2E/DX2                !
 ! D58   D(17,19,21,22)        177.008          estimate D2E/DX2                !
 ! D59   D(17,19,21,23)         -4.1495         estimate D2E/DX2                !
 ! D60   D(20,19,21,22)          4.4025         estimate D2E/DX2                !
 ! D61   D(20,19,21,23)       -176.755          estimate D2E/DX2                !
 ! D62   D(19,21,23,14)         -0.0659         estimate D2E/DX2                !
 ! D63   D(19,21,23,24)       -169.0935         estimate D2E/DX2                !
 ! D64   D(22,21,23,14)        178.842          estimate D2E/DX2                !
 ! D65   D(22,21,23,24)          9.8144         estimate D2E/DX2                !
 ! D66   D(14,23,24,25)        -30.449          estimate D2E/DX2                !
 ! D67   D(21,23,24,25)        137.9987         estimate D2E/DX2                !
 ! D68   D(23,24,25,26)         31.4165         estimate D2E/DX2                !
 ! D69   D(23,24,25,33)       -146.0681         estimate D2E/DX2                !
 ! D70   D(24,25,26,13)          3.9446         estimate D2E/DX2                !
 ! D71   D(24,25,26,27)        177.3299         estimate D2E/DX2                !
 ! D72   D(33,25,26,13)       -178.4962         estimate D2E/DX2                !
 ! D73   D(33,25,26,27)         -5.1108         estimate D2E/DX2                !
 ! D74   D(24,25,33,31)       -169.557          estimate D2E/DX2                !
 ! D75   D(24,25,33,34)         15.2536         estimate D2E/DX2                !
 ! D76   D(26,25,33,31)         12.9023         estimate D2E/DX2                !
 ! D77   D(26,25,33,34)       -162.2871         estimate D2E/DX2                !
 ! D78   D(13,26,27,28)         -7.8733         estimate D2E/DX2                !
 ! D79   D(13,26,27,29)        166.6952         estimate D2E/DX2                !
 ! D80   D(25,26,27,28)        178.9331         estimate D2E/DX2                !
 ! D81   D(25,26,27,29)         -6.4983         estimate D2E/DX2                !
 ! D82   D(26,27,29,30)       -165.6946         estimate D2E/DX2                !
 ! D83   D(26,27,29,31)         11.1937         estimate D2E/DX2                !
 ! D84   D(28,27,29,30)          8.7975         estimate D2E/DX2                !
 ! D85   D(28,27,29,31)       -174.3143         estimate D2E/DX2                !
 ! D86   D(27,29,31,32)       -172.7111         estimate D2E/DX2                !
 ! D87   D(27,29,31,33)         -3.9665         estimate D2E/DX2                !
 ! D88   D(30,29,31,32)          4.4211         estimate D2E/DX2                !
 ! D89   D(30,29,31,33)        173.1657         estimate D2E/DX2                !
 ! D90   D(29,31,33,25)         -8.694          estimate D2E/DX2                !
 ! D91   D(29,31,33,34)        166.4306         estimate D2E/DX2                !
 ! D92   D(32,31,33,25)        160.8678         estimate D2E/DX2                !
 ! D93   D(32,31,33,34)        -24.0076         estimate D2E/DX2                !
 --------------------------------------------------------------------------------
 Trust Radius=3.00D-01 FncErr=1.00D-07 GrdErr=1.00D-06 EigMax=2.50D+02 EigMin=1.00D-04
 Number of steps in this run=    204 maximum allowed number of steps=    210.
 GradGradGradGradGradGradGradGradGradGradGradGradGradGradGradGradGradGrad

 Leave Link  103 at Sun Jul 18 13:49:17 2021, MaxMem=   104857600 cpu:               0.1 elap:               0.0
 (Enter /prod/apps/gaussian/g16b1/l202.exe)
                          Input orientation:                          
 ---------------------------------------------------------------------
 Center     Atomic      Atomic             Coordinates (Angstroms)
 Number     Number       Type             X           Y           Z
 ---------------------------------------------------------------------
      1          7           0       -2.874000    0.591000    3.152000
      2          1           0       -2.705000   -0.357000    3.420000
      3          1           0       -3.317000    0.610000    2.255000
      4          6           0       -1.619000    1.304000    3.085000
      5          1           0       -1.180000    1.266000    4.086000
      6          1           0       -1.741000    2.319000    2.699000
      7          6           0       -0.665000    0.612000    2.132000
      8          1           0       -0.684000   -0.448000    2.395000
      9          1           0        0.368000    0.937000    2.269000
     10          6           0       -1.016000    0.863000    0.603000
     11          1           0       -0.877000    1.921000    0.365000
     12          1           0       -2.058000    0.556000    0.484000
     13          7           0       -0.083000    0.193000   -0.328000
     14          6           0       -0.170000   -1.174000   -0.535000
     15          6           0       -1.315000   -1.632000   -1.123000
     16          1           0       -2.197000   -1.018000   -1.285000
     17          6           0       -1.432000   -2.996000   -1.327000
     18         17           0       -2.883000   -3.569000   -2.103000
     19          6           0       -0.291000   -3.826000   -1.208000
     20          1           0       -0.346000   -4.890000   -1.423000
     21          6           0        0.902000   -3.265000   -0.641000
     22          1           0        1.801000   -3.852000   -0.474000
     23          6           0        0.964000   -1.913000   -0.297000
     24         16           0        2.496000   -1.141000    0.132000
     25          6           0        2.189000    0.346000   -0.776000
     26          6           0        0.865000    0.833000   -0.935000
     27          6           0        0.593000    2.043000   -1.605000
     28          1           0       -0.424000    2.403000   -1.739000
     29          6           0        1.709000    2.786000   -1.969000
     30          1           0        1.642000    3.825000   -2.280000
     31          6           0        2.999000    2.306000   -1.913000
     32          1           0        3.882000    2.916000   -2.087000
     33          6           0        3.212000    1.032000   -1.388000
     34          1           0        4.169000    0.535000   -1.527000
     35          1           0       -3.469000    1.027000    3.827000
 ---------------------------------------------------------------------
                    Distance matrix (angstroms):
                    1          2          3          4          5
     1  N    0.000000
     2  H    0.999544   0.000000
     3  H    1.000609   1.633052   0.000000
     4  C    1.444951   2.012596   2.013390   0.000000
     5  H    2.048809   2.324502   2.889579   1.093694   0.000000
     6  H    2.115392   2.934299   2.366768   1.092751   1.829563
     7  C    2.433212   2.599905   2.654852   1.515648   2.123925
     8  H    2.539423   2.267895   2.841065   2.102339   2.458311
     9  H    3.377865   3.527402   3.699507   2.179154   2.409571
    10  C    3.165999   3.503799   2.843891   2.591990   3.510070
    11  H    3.677537   4.226570   3.353270   2.886114   3.790340
    12  H    2.790216   3.142018   2.173577   2.741792   3.774836
    13  N    4.478670   4.607048   4.159872   3.904124   4.673129
    14  C    4.901103   4.768201   4.568409   4.620009   5.322344
    15  C    5.064369   4.919001   4.521665   5.140017   5.962408
    16  H    4.768037   4.778285   4.054181   4.982235   5.924406
    17  C    5.916703   5.578428   5.420995   6.163661   6.894107
    18  Cl   6.702291   6.391569   6.053475   7.229050   8.036240
    19  C    6.722453   6.267355   6.389612   6.819848   7.399001
    20  H    7.573821   7.040427   7.252898   7.765837   8.303070
    21  C    6.596496   6.161058   6.418910   6.412042   6.870896
    22  H    7.398902   6.905237   7.317842   7.137732   7.474884
    23  C    5.735491   5.449659   5.586161   5.334689   5.823527
    24  S    6.399775   6.202903   6.431493   5.624185   5.911069
    25  C    6.412736   6.484741   6.290683   5.506900   5.986285
    26  C    5.544570   5.755608   5.264499   4.748947   5.438746
    27  C    6.062792   6.472050   5.678133   5.237859   6.011218
    28  H    5.762614   6.279796   5.247507   5.089872   5.982886
    29  C    7.214330   7.642196   6.916490   6.230154   6.878935
    30  H    7.769146   8.299128   7.449438   6.765559   7.418768
    31  C    7.942769   8.250338   7.755030   6.878222   7.384690
    32  H    8.859813   9.188479   8.717580   7.720695   8.151826
    33  C    7.605621   7.749650   7.488483   6.589406   7.022044
    34  H    8.455769   8.515888   8.387452   7.440622   7.787935
    35  H    0.999873   1.632422   1.633456   2.012410   2.315971
                    6          7          8          9         10
     6  H    0.000000
     7  C    2.095976   0.000000
     8  H    2.977575   1.092305   0.000000
     9  H    2.557871   1.091551   1.743790   0.000000
    10  C    2.653069   1.588724   2.245041   2.167138   0.000000
    11  H    2.520408   2.209234   3.125750   2.478608   1.093311
    12  H    2.848663   2.158585   2.558869   3.035929   1.092783
    13  N    4.053587   2.562398   2.861260   2.738859   1.478563
    14  C    5.012768   3.247724   3.062054   3.550800   2.481961
    15  C    5.513580   4.006627   3.765148   4.575797   3.048525
    16  H    5.216873   4.084093   4.019511   4.799184   2.915041
    17  C    6.674832   5.056741   4.572209   5.624918   4.334725
    18  Cl   7.683223   6.351024   5.899851   7.070178   5.518220
    19  C    7.424835   5.566985   4.954487   5.933800   5.078589
    20  H    8.420605   6.558337   5.867089   6.935026   6.136007
    21  C    7.022970   5.017584   4.434882   5.139072   4.718754
    22  H    7.790695   5.727101   5.098392   5.701935   5.597021
    23  C    5.848322   3.863846   3.479798   3.880989   3.526553
    24  S    6.042620   4.130972   3.964066   3.662409   4.070872
    25  C    5.604753   4.083202   4.351989   3.596852   3.527174
    26  C    4.712259   3.434564   3.889635   3.243985   2.429919
    27  C    4.903891   4.194698   4.882193   4.035063   2.975995
    28  H    4.630053   4.272049   5.028495   4.340563   2.864791
    29  C    5.823299   5.213478   5.935461   4.814325   4.211738
    30  H    6.205092   5.925484   6.747179   5.536878   4.914275
    31  C    6.613495   5.714592   6.301418   5.126933   4.953053
    32  H    7.408126   6.616917   7.228636   5.936276   5.953261
    33  C    6.549210   5.253373   5.628526   4.633682   4.676390
    34  H    7.481299   6.063148   6.316643   5.386912   5.615043
    35  H    2.434673   3.302676   3.461571   4.142226   4.054415
                   11         12         13         14         15
    11  H    0.000000
    12  H    1.808908   0.000000
    13  N    2.024023   2.166042   0.000000
    14  C    3.299829   2.756049   1.385318   0.000000
    15  C    3.876828   2.814577   2.341041   1.366211   0.000000
    16  H    3.619754   2.371952   2.617511   2.166925   1.086814
    17  C    5.229510   4.035877   3.603821   2.353634   1.384125
    18  Cl   6.344695   4.938504   5.014306   3.943985   2.677871
    19  C    5.987131   5.018673   4.119469   2.738736   2.422692
    20  H    7.061772   6.018846   5.206254   3.824680   3.412261
    21  C    5.574179   4.962587   3.609149   2.352169   2.795372
    22  H    6.418967   5.936338   4.464616   3.325695   3.880600
    23  C    4.304310   3.979749   2.352107   1.374307   2.440303
    24  S    4.561498   4.872641   2.939795   2.748369   4.042255
    25  C    3.630821   4.434942   2.320797   2.816622   4.038677
    26  C    2.430701   3.261015   1.294895   2.293311   3.296054
    27  C    2.461033   3.688210   2.347383   3.475077   4.168742
    28  H    2.205527   3.320105   2.644107   3.782732   4.177866
    29  C    3.589314   5.018007   3.553561   4.611789   5.420241
    30  H    4.119054   5.658273   4.469603   5.596282   6.313584
    31  C    4.512304   5.863562   4.059029   4.904268   5.894280
    32  H    5.445219   6.889357   5.121527   5.962844   6.972977
    33  C    4.536877   5.612830   3.561537   4.126981   5.259358
    34  H    5.564421   6.543706   4.431035   4.767774   5.910445
    35  H    4.416236   3.659018   5.424443   5.895324   6.017682
                   16         17         18         19         20
    16  H    0.000000
    17  C    2.121196   0.000000
    18  Cl   2.765379   1.742385   0.000000
    19  C    3.394647   1.415960   2.754186   0.000000
    20  H    4.293906   2.185371   2.940036   1.086897   0.000000
    21  C    3.881694   2.447552   4.068917   1.435082   2.193092
    22  H    4.967221   3.451468   4.967251   2.217182   2.566643
    23  C    3.430611   2.823934   4.561072   2.462624   3.441875
    24  S    4.903801   4.582455   6.310630   4.095387   4.954795
    25  C    4.621317   4.958246   6.543190   4.872639   5.853250
    26  C    3.595072   4.482311   5.898248   4.808029   5.870042
    27  C    4.154061   5.437778   6.620055   5.948464   6.998667
    28  H    3.879805   5.507723   6.468691   6.253007   7.300260
    29  C    5.495008   6.611321   7.841584   6.949652   7.965056
    30  H    6.259600   7.542130   8.670536   7.963886   8.979856
    31  C    6.200143   6.934577   8.315627   6.994466   7.950569
    32  H    7.285177   7.985483   9.371270   7.977539   8.902276
    33  C    5.785360   6.147783   7.670036   5.991959   6.908739
    34  H    6.557159   6.624135   8.179566   6.245933   7.058801
    35  H    5.650890   6.848183   7.525391   7.681310   8.504500
                   21         22         23         24         25
    21  C    0.000000
    22  H    1.086581   0.000000
    23  C    1.396454   2.119344   0.000000
    24  S    2.765817   2.863526   1.768346   0.000000
    25  C    3.835872   4.226695   2.614029   1.769147   0.000000
    26  C    4.108699   4.799775   2.820879   2.774045   1.419657
    27  C    5.403669   6.122863   4.183114   4.095905   2.472704
    28  H    5.923690   6.758393   4.757496   4.958526   3.462136
    29  C    6.247354   6.804890   5.042937   4.522709   2.758124
    30  H    7.314508   7.888171   6.108733   5.586431   3.829447
    31  C    6.086989   6.436372   4.955062   4.039411   2.406339
    32  H    7.012566   7.262104   5.919296   4.827443   3.345126
    33  C    4.935415   5.165247   3.862229   2.746814   1.375380
    34  H    5.089036   5.095292   4.216353   2.891399   2.126058
    35  H    7.582211   8.371149   6.730711   7.344009   7.325594
                   26         27         28         29         30
    26  C    0.000000
    27  C    1.409604   0.000000
    28  H    2.184682   1.087127   0.000000
    29  C    2.365523   1.389245   2.179284   0.000000
    30  H    3.371175   2.175213   2.565759   1.086614   0.000000
    31  C    2.771312   2.439850   3.428792   1.377547   2.069662
    32  H    3.842952   3.436855   4.350392   2.180081   2.425104
    33  C    2.398587   2.815736   3.901710   2.381824   3.325870
    34  H    3.369820   3.881742   4.962864   3.363624   4.216259
    35  H    6.441881   6.858478   6.491976   7.968650   8.440769
                   31         32         33         34         35
    31  C    0.000000
    32  H    1.087228   0.000000
    33  C    1.394299   2.118244   0.000000
    34  H    2.157391   2.462748   1.087281   0.000000
    35  H    8.741766   9.621898   8.475377   9.340579   0.000000
 Stoichiometry    C15H16ClN2S(1+)
 Framework group  C1[X(C15H16ClN2S)]
 Deg. of freedom    99
 Full point group                 C1      NOp   1
 Largest Abelian subgroup         C1      NOp   1
 Largest concise Abelian subgroup C1      NOp   1
                         Standard orientation:                         
 ---------------------------------------------------------------------
 Center     Atomic      Atomic             Coordinates (Angstroms)
 Number     Number       Type             X           Y           Z
 ---------------------------------------------------------------------
      1          7           0       -0.890801    4.569018    0.382895
      2          1           0       -1.488225    4.253999    1.119738
      3          1           0       -1.202366    4.184105   -0.486580
      4          6           0        0.463660    4.138139    0.643015
      5          1           0        0.762585    4.590959    1.592627
      6          1           0        1.137509    4.372415   -0.184722
      7          6           0        0.519922    2.632485    0.807420
      8          1           0       -0.284969    2.369061    1.497267
      9          1           0        1.444333    2.300591    1.283648
     10          6           0        0.417571    1.848192   -0.570424
     11          1           0        1.300091    2.062235   -1.179252
     12          1           0       -0.498296    2.205686   -1.047456
     13          7           0        0.477767    0.379351   -0.412210
     14          6           0       -0.623843   -0.314249    0.061584
     15          6           0       -1.740905   -0.299047   -0.724847
     16          1           0       -1.856255    0.339986   -1.596337
     17          6           0       -2.859640   -0.972637   -0.266031
     18         17           0       -4.270921   -0.972098   -1.287887
     19          6           0       -2.741283   -1.879256    0.815160
     20          1           0       -3.592705   -2.464460    1.152746
     21          6           0       -1.515781   -1.891117    1.561795
     22          1           0       -1.368690   -2.524245    2.432527
     23          6           0       -0.436060   -1.092803    1.178416
     24         16           0        1.164226   -1.298318    1.902223
     25          6           0        2.053574   -1.127809    0.382398
     26          6           0        1.554418   -0.297699   -0.655479
     27          6           0        2.266548   -0.097728   -1.855423
     28          1           0        1.871962    0.525340   -2.654131
     29          6           0        3.540819   -0.649986   -1.890714
     30          1           0        4.271805   -0.382321   -2.648833
     31          6           0        4.018830   -1.531517   -0.946232
     32          1           0        5.048616   -1.877779   -0.904901
     33          6           0        3.213697   -1.829842    0.152327
     34          1           0        3.453914   -2.673483    0.794779
     35          1           0       -0.919165    5.567331    0.334797
 ---------------------------------------------------------------------
 Rotational constants (GHZ):           0.3468667           0.2459672           0.1854967
 Leave Link  202 at Sun Jul 18 13:49:17 2021, MaxMem=   104857600 cpu:               0.1 elap:               0.0
 (Enter /prod/apps/gaussian/g16b1/l301.exe)
 Standard basis: 6-31G(d) (6D, 7F)
 Ernie: Thresh=  0.10000D-02 Tol=  0.10000D-05 Strict=F.
 There are   325 symmetry adapted cartesian basis functions of A   symmetry.
 There are   325 symmetry adapted basis functions of A   symmetry.
   325 basis functions,   644 primitive gaussians,   325 cartesian basis functions
    76 alpha electrons       76 beta electrons
       nuclear repulsion energy      1667.0829058840 Hartrees.
 IExCor=  402 DFT=T Ex+Corr=B3LYP ExCW=0 ScaHFX=  0.200000
 ScaDFX=  0.800000  0.720000  1.000000  0.810000 ScalE2=  1.000000  1.000000
 IRadAn=      5 IRanWt=     -1 IRanGd=            0 ICorTp=0 IEmpDi=  4
 NAtoms=   35 NActive=   35 NUniq=   35 SFac= 1.00D+00 NAtFMM=   60 NAOKFM=F Big=F
 Integral buffers will be    131072 words long.
 Raffenetti 2 integral format.
 Two-electron integral symmetry is turned on.
 Using the following non-standard input for PCM:
 MSTModel=DFT cav MSTCharged
 --- end of non-standard input.
 MST model for solvation energy: B3LYP parametrization.
 MST cavity parameters:
 ISph   IAn     Re0     Alpha   Atom Type   QCorr
 ------------------------------------------------
   1      7     1.70     1.15      NH         T
   2      1     0.90     1.15      NH         T
   3      1     0.90     1.15      NH         T
   4      6     1.50     1.25      CH2        F
   5      1     1.20     1.25      CH2        F
   6      1     1.20     1.25      CH2        F
   7      6     1.50     1.25      CH2        F
   8      1     1.20     1.25      CH2        F
   9      1     1.20     1.25      CH2        F
  10      6     1.50     1.25      CH2        F
  11      1     1.20     1.25      CH2        F
  12      1     1.20     1.25      CH2        F
  13      7     1.40     1.25      N          F
  14      6     1.50     1.25      C          F
  15      6     1.50     1.25      CH         F
  16      1     1.20     1.25      CH         F
  17      6     1.50     1.25      C          F
  18     17     1.80     1.25      Cl         F
  19      6     1.50     1.25      CH         F
  20      1     1.20     1.25      CH         F
  21      6     1.50     1.25      CH         F
  22      1     1.20     1.25      CH         F
  23      6     1.50     1.25      C          F
  24     16     1.75     1.25      S          F
  25      6     1.50     1.25      C          F
  26      6     1.50     1.25      C          F
  27      6     1.50     1.25      CH         F
  28      1     1.20     1.25      CH         F
  29      6     1.50     1.25      CH         F
  30      1     1.20     1.25      CH         F
  31      6     1.50     1.25      CH         F
  32      1     1.20     1.25      CH         F
  33      6     1.50     1.25      CH         F
  34      1     1.20     1.25      CH         F
  35      1     0.90     1.15      NH         T
 ------------------------------------------------------------------------------
 Polarizable Continuum Model (PCM)
 =================================
 Model                : PCM.
 Atomic radii         : MST.
 Polarization charges : Total charges.
 Charge compensation  : None.
 Solution method      : On-the-fly selection.
 Cavity type          : Scaled VdW (van der Waals Surface) (Alpha=1.250).
 Cavity algorithm     : GePol (No added spheres)
                        Default sphere list used, NSphG=   35.
                        Lebedev-Laikov grids with approx.  5.0 points / Ang**2.
                        Smoothing algorithm: York/Karplus (Gamma=1.0000).
                        Polarization charges: spherical gaussians, with
                                              point-specific exponents (IZeta= 3).
                        Self-potential: point-specific (ISelfS= 7).
                        Self-field    : sphere-specific E.n sum rule (ISelfD= 2).
 1st derivatives      : Analytical E(r).r(x)/FMM algorithm (CHGder, D1EAlg=3).
                        Cavity 1st derivative terms included.
 Solvent              : Water, Eps=  78.355300 Eps(inf)=   1.777849
 ------------------------------------------------------------------------------
 GePol: Number of generator spheres                  =      35
 GePol: Total number of spheres                      =      35
 GePol: Number of exposed spheres                    =      35 (100.00%)
 GePol: Number of points                             =    2621
 GePol: Average weight of points                     =       0.13
 GePol: Minimum weight of points                     =   0.81D-11
 GePol: Maximum weight of points                     =    0.21948
 GePol: Number of points with low weight             =     142
 GePol: Fraction of low-weight points (<1% of avg)   =       5.42%
 GePol: Cavity surface area                          =    344.980 Ang**2
 GePol: Cavity volume                                =    340.286 Ang**3
 PCM non-electrostatic energy =         0.0017921384 Hartrees.
 Nuclear repulsion after PCM non-electrostatic terms =     1667.0846980224 Hartrees.
 Leave Link  301 at Sun Jul 18 13:49:17 2021, MaxMem=   104857600 cpu:               0.4 elap:               0.1
 (Enter /prod/apps/gaussian/g16b1/l302.exe)
 NPDir=0 NMtPBC=     1 NCelOv=     1 NCel=       1 NClECP=     1 NCelD=      1
         NCelK=      1 NCelE2=     1 NClLst=     1 CellRange=     0.0.
 One-electron integrals computed using PRISM.
 One-electron integral symmetry used in STVInt
 NBasis=   325 RedAO= T EigKep=  5.55D-04  NBF=   325
 NBsUse=   325 1.00D-06 EigRej= -1.00D+00 NBFU=   325
 Precomputing XC quadrature grid using
 IXCGrd= 4 IRadAn=           5 IRanWt=          -1 IRanGd=           0 AccXCQ= 0.00D+00.
 Generated NRdTot=       0 NPtTot=           0 NUsed=           0 NTot=          32
 NSgBfM=   323   323   323   323   323 MxSgAt=    35 MxSgA2=    35.
 Leave Link  302 at Sun Jul 18 13:49:18 2021, MaxMem=   104857600 cpu:               1.7 elap:               0.4
 (Enter /prod/apps/gaussian/g16b1/l303.exe)
 DipDrv:  MaxL=1.
 Leave Link  303 at Sun Jul 18 13:49:18 2021, MaxMem=   104857600 cpu:               0.1 elap:               0.1
 (Enter /prod/apps/gaussian/g16b1/l401.exe)
 ExpMin= 1.17D-01 ExpMax= 2.52D+04 ExpMxC= 3.78D+03 IAcc=3 IRadAn=         5 AccDes= 0.00D+00
 Harris functional with IExCor=  402 and IRadAn=       5 diagonalized for initial guess.
 HarFok:  IExCor=  402 AccDes= 0.00D+00 IRadAn=         5 IDoV= 1 UseB2=F ITyADJ=14
 ICtDFT=  3500011 ScaDFX=  1.000000  1.000000  1.000000  1.000000
 FoFCou: FMM=F IPFlag=           0 FMFlag=      100000 FMFlg1=           0
         NFxFlg=           0 DoJE=T BraDBF=F KetDBF=T FulRan=T
         wScrn=  0.000000 ICntrl=       500 IOpCl=  0 I1Cent=   200000004 NGrid=           0
         NMat0=    1 NMatS0=      1 NMatT0=    0 NMatD0=    1 NMtDS0=    0 NMtDT0=    0
 Petite list used in FoFCou.
 Harris En= -1548.73989190769    
 JPrj=0 DoOrth=F DoCkMO=F.
 Leave Link  401 at Sun Jul 18 13:49:20 2021, MaxMem=   104857600 cpu:               9.5 elap:               2.4
 (Enter /prod/apps/gaussian/g16b1/l502.exe)
 Integral symmetry usage will be decided dynamically.
 Closed shell SCF:
 Using DIIS extrapolation, IDIIS=  1040.
 NGot=   104857600 LenX=   104640764 LenY=   104534698
 Requested convergence on RMS density matrix=1.00D-08 within 128 cycles.
 Requested convergence on MAX density matrix=1.00D-06.
 Requested convergence on             energy=1.00D-06.
 No special actions if energy rises.
 Fock matrices will be formed incrementally for  20 cycles.

 Cycle   1  Pass 1  IDiag  1:
 FoFJK:  IHMeth= 1 ICntrl=       0 DoSepK=F KAlg= 0 I1Cent=           0 FoldK=F
 IRaf= 830000000 NMat=       1 IRICut=       1 DoRegI=T DoRafI=F ISym2E= 0 IDoP0=0 IntGTp=1.
 FoFCou: FMM=F IPFlag=           0 FMFlag=      100000 FMFlg1=           0
         NFxFlg=           0 DoJE=F BraDBF=F KetDBF=F FulRan=T
         wScrn=  0.000000 ICntrl=         0 IOpCl=  0 I1Cent=           0 NGrid=           0
         NMat0=    1 NMatS0=      1 NMatT0=    0 NMatD0=    1 NMtDS0=    0 NMtDT0=    0
 Symmetry not used in FoFCou.
 Inv3:  Mode=1 IEnd=    20608923.
 Iteration    1 A*A^-1 deviation from unit magnitude is 3.11D-15 for   2405.
 Iteration    1 A*A^-1 deviation from orthogonality  is 3.46D-15 for   1126    380.
 Iteration    1 A^-1*A deviation from unit magnitude is 3.55D-15 for   1622.
 Iteration    1 A^-1*A deviation from orthogonality  is 6.35D-14 for   1627   1622.
 E= -1548.51502865399    
 DIIS: error= 2.78D-02 at cycle   1 NSaved=   1.
 NSaved= 1 IEnMin= 1 EnMin= -1548.51502865399     IErMin= 1 ErrMin= 2.78D-02
 ErrMax= 2.78D-02  0.00D+00 EMaxC= 1.00D-01 BMatC= 3.95D-01 BMatP= 3.95D-01
 IDIUse=3 WtCom= 7.22D-01 WtEn= 2.78D-01
 Coeff-Com:  0.100D+01
 Coeff-En:   0.100D+01
 Coeff:      0.100D+01
 Gap=     0.300 Goal=   None    Shift=    0.000
 GapD=    0.300 DampG=1.000 DampE=0.500 DampFc=0.5000 IDamp=-1.
 Damping current iteration by 5.00D-01
 RMSDP=4.83D-03 MaxDP=1.63D-01              OVMax= 2.25D-01

 Cycle   2  Pass 1  IDiag  1:
 RMSU=  2.39D-03    CP:  9.84D-01
 E= -1548.70490271377     Delta-E=       -0.189874059779 Rises=F Damp=T
 DIIS: error= 8.35D-03 at cycle   2 NSaved=   2.
 NSaved= 2 IEnMin= 2 EnMin= -1548.70490271377     IErMin= 2 ErrMin= 8.35D-03
 ErrMax= 8.35D-03  0.00D+00 EMaxC= 1.00D-01 BMatC= 2.41D-02 BMatP= 3.95D-01
 IDIUse=3 WtCom= 9.16D-01 WtEn= 8.35D-02
 Coeff-Com:  0.342D-01 0.966D+00
 Coeff-En:   0.857D-01 0.914D+00
 Coeff:      0.385D-01 0.962D+00
 Gap=     0.225 Goal=   None    Shift=    0.000
 RMSDP=1.20D-03 MaxDP=7.74D-02 DE=-1.90D-01 OVMax= 1.21D-01

 Cycle   3  Pass 1  IDiag  1:
 RMSU=  1.16D-03    CP:  9.76D-01  8.85D-01
 E= -1548.92576896655     Delta-E=       -0.220866252776 Rises=F Damp=F
 DIIS: error= 2.84D-03 at cycle   3 NSaved=   3.
 NSaved= 3 IEnMin= 3 EnMin= -1548.92576896655     IErMin= 3 ErrMin= 2.84D-03
 ErrMax= 2.84D-03  0.00D+00 EMaxC= 1.00D-01 BMatC= 7.22D-03 BMatP= 2.41D-02
 IDIUse=3 WtCom= 9.72D-01 WtEn= 2.84D-02
 Coeff-Com: -0.354D-01 0.318D+00 0.717D+00
 Coeff-En:   0.000D+00 0.000D+00 0.100D+01
 Coeff:     -0.344D-01 0.309D+00 0.725D+00
 Gap=     0.177 Goal=   None    Shift=    0.000
 RMSDP=5.39D-04 MaxDP=3.66D-02 DE=-2.21D-01 OVMax= 4.62D-02

 Cycle   4  Pass 1  IDiag  1:
 RMSU=  4.65D-04    CP:  9.77D-01  9.44D-01  8.00D-01
 E= -1548.92984492515     Delta-E=       -0.004075958605 Rises=F Damp=F
 DIIS: error= 1.66D-03 at cycle   4 NSaved=   4.
 NSaved= 4 IEnMin= 4 EnMin= -1548.92984492515     IErMin= 4 ErrMin= 1.66D-03
 ErrMax= 1.66D-03  0.00D+00 EMaxC= 1.00D-01 BMatC= 3.55D-03 BMatP= 7.22D-03
 IDIUse=3 WtCom= 9.83D-01 WtEn= 1.66D-02
 Coeff-Com: -0.226D-01 0.899D-01 0.443D+00 0.490D+00
 Coeff-En:   0.000D+00 0.000D+00 0.333D+00 0.667D+00
 Coeff:     -0.222D-01 0.884D-01 0.441D+00 0.493D+00
 Gap=     0.169 Goal=   None    Shift=    0.000
 RMSDP=2.77D-04 MaxDP=1.01D-02 DE=-4.08D-03 OVMax= 2.36D-02

 Cycle   5  Pass 1  IDiag  1:
 RMSU=  1.44D-04    CP:  9.77D-01  9.50D-01  8.47D-01  5.08D-01
 E= -1548.93338494837     Delta-E=       -0.003540023220 Rises=F Damp=F
 DIIS: error= 5.38D-04 at cycle   5 NSaved=   5.
 NSaved= 5 IEnMin= 5 EnMin= -1548.93338494837     IErMin= 5 ErrMin= 5.38D-04
 ErrMax= 5.38D-04  0.00D+00 EMaxC= 1.00D-01 BMatC= 2.37D-04 BMatP= 3.55D-03
 IDIUse=3 WtCom= 9.95D-01 WtEn= 5.38D-03
 Coeff-Com: -0.852D-02 0.218D-01 0.177D+00 0.271D+00 0.539D+00
 Coeff-En:   0.000D+00 0.000D+00 0.000D+00 0.000D+00 0.100D+01
 Coeff:     -0.848D-02 0.217D-01 0.176D+00 0.269D+00 0.541D+00
 Gap=     0.170 Goal=   None    Shift=    0.000
 RMSDP=7.39D-05 MaxDP=4.99D-03 DE=-3.54D-03 OVMax= 6.48D-03

 Cycle   6  Pass 1  IDiag  1:
 RMSU=  3.62D-05    CP:  9.77D-01  9.45D-01  8.65D-01  5.66D-01  6.33D-01
 E= -1548.93362403625     Delta-E=       -0.000239087883 Rises=F Damp=F
 DIIS: error= 1.26D-04 at cycle   6 NSaved=   6.
 NSaved= 6 IEnMin= 6 EnMin= -1548.93362403625     IErMin= 6 ErrMin= 1.26D-04
 ErrMax= 1.26D-04  0.00D+00 EMaxC= 1.00D-01 BMatC= 1.92D-05 BMatP= 2.37D-04
 IDIUse=3 WtCom= 9.99D-01 WtEn= 1.26D-03
 Coeff-Com: -0.280D-02 0.411D-02 0.615D-01 0.107D+00 0.291D+00 0.539D+00
 Coeff-En:   0.000D+00 0.000D+00 0.000D+00 0.000D+00 0.000D+00 0.100D+01
 Coeff:     -0.280D-02 0.411D-02 0.614D-01 0.107D+00 0.291D+00 0.540D+00
 Gap=     0.170 Goal=   None    Shift=    0.000
 RMSDP=1.69D-05 MaxDP=8.22D-04 DE=-2.39D-04 OVMax= 1.24D-03

 Cycle   7  Pass 1  IDiag  1:
 RMSU=  1.10D-05    CP:  9.77D-01  9.45D-01  8.66D-01  5.64D-01  6.79D-01
                    CP:  7.00D-01
 E= -1548.93364203432     Delta-E=       -0.000017998068 Rises=F Damp=F
 DIIS: error= 3.85D-05 at cycle   7 NSaved=   7.
 NSaved= 7 IEnMin= 7 EnMin= -1548.93364203432     IErMin= 7 ErrMin= 3.85D-05
 ErrMax= 3.85D-05  0.00D+00 EMaxC= 1.00D-01 BMatC= 1.43D-06 BMatP= 1.92D-05
 IDIUse=1 WtCom= 1.00D+00 WtEn= 0.00D+00
 Coeff-Com: -0.756D-03 0.359D-03 0.178D-01 0.322D-01 0.104D+00 0.278D+00
 Coeff-Com:  0.569D+00
 Coeff:     -0.756D-03 0.359D-03 0.178D-01 0.322D-01 0.104D+00 0.278D+00
 Coeff:      0.569D+00
 Gap=     0.170 Goal=   None    Shift=    0.000
 RMSDP=5.52D-06 MaxDP=3.22D-04 DE=-1.80D-05 OVMax= 3.95D-04

 Cycle   8  Pass 1  IDiag  1:
 RMSU=  3.57D-06    CP:  9.77D-01  9.45D-01  8.66D-01  5.68D-01  6.83D-01
                    CP:  7.42D-01  6.85D-01
 E= -1548.93364339462     Delta-E=       -0.000001360297 Rises=F Damp=F
 DIIS: error= 1.32D-05 at cycle   8 NSaved=   8.
 NSaved= 8 IEnMin= 8 EnMin= -1548.93364339462     IErMin= 8 ErrMin= 1.32D-05
 ErrMax= 1.32D-05  0.00D+00 EMaxC= 1.00D-01 BMatC= 1.65D-07 BMatP= 1.43D-06
 IDIUse=1 WtCom= 1.00D+00 WtEn= 0.00D+00
 Coeff-Com:  0.185D-04-0.455D-03 0.877D-03 0.118D-02 0.132D-01 0.687D-01
 Coeff-Com:  0.288D+00 0.629D+00
 Coeff:      0.185D-04-0.455D-03 0.877D-03 0.118D-02 0.132D-01 0.687D-01
 Coeff:      0.288D+00 0.629D+00
 Gap=     0.170 Goal=   None    Shift=    0.000
 RMSDP=1.96D-06 MaxDP=6.23D-05 DE=-1.36D-06 OVMax= 1.45D-04

 Cycle   9  Pass 1  IDiag  1:
 RMSU=  1.37D-06    CP:  9.77D-01  9.45D-01  8.66D-01  5.67D-01  6.85D-01
                    CP:  7.47D-01  7.74D-01  7.64D-01
 E= -1548.93364355601     Delta-E=       -0.000000161386 Rises=F Damp=F
 DIIS: error= 4.02D-06 at cycle   9 NSaved=   9.
 NSaved= 9 IEnMin= 9 EnMin= -1548.93364355601     IErMin= 9 ErrMin= 4.02D-06
 ErrMax= 4.02D-06  0.00D+00 EMaxC= 1.00D-01 BMatC= 2.36D-08 BMatP= 1.65D-07
 IDIUse=1 WtCom= 1.00D+00 WtEn= 0.00D+00
 Coeff-Com:  0.116D-03-0.310D-03-0.174D-02-0.374D-02-0.582D-02 0.202D-02
 Coeff-Com:  0.824D-01 0.338D+00 0.589D+00
 Coeff:      0.116D-03-0.310D-03-0.174D-02-0.374D-02-0.582D-02 0.202D-02
 Coeff:      0.824D-01 0.338D+00 0.589D+00
 Gap=     0.170 Goal=   None    Shift=    0.000
 RMSDP=6.96D-07 MaxDP=3.94D-05 DE=-1.61D-07 OVMax= 4.23D-05

 Cycle  10  Pass 1  IDiag  1:
 RMSU=  3.74D-07    CP:  9.77D-01  9.45D-01  8.66D-01  5.67D-01  6.85D-01
                    CP:  7.54D-01  7.82D-01  8.42D-01  7.38D-01
 E= -1548.93364358086     Delta-E=       -0.000000024854 Rises=F Damp=F
 DIIS: error= 1.01D-06 at cycle  10 NSaved=  10.
 NSaved=10 IEnMin=10 EnMin= -1548.93364358086     IErMin=10 ErrMin= 1.01D-06
 ErrMax= 1.01D-06  0.00D+00 EMaxC= 1.00D-01 BMatC= 1.33D-09 BMatP= 2.36D-08
 IDIUse=1 WtCom= 1.00D+00 WtEn= 0.00D+00
 Coeff-Com:  0.528D-04-0.110D-03-0.808D-03-0.182D-02-0.327D-02-0.340D-02
 Coeff-Com:  0.182D-01 0.116D+00 0.274D+00 0.601D+00
 Coeff:      0.528D-04-0.110D-03-0.808D-03-0.182D-02-0.327D-02-0.340D-02
 Coeff:      0.182D-01 0.116D+00 0.274D+00 0.601D+00
 Gap=     0.170 Goal=   None    Shift=    0.000
 RMSDP=1.77D-07 MaxDP=7.17D-06 DE=-2.49D-08 OVMax= 1.29D-05

 Cycle  11  Pass 1  IDiag  1:
 RMSU=  1.37D-07    CP:  9.77D-01  9.45D-01  8.66D-01  5.67D-01  6.86D-01
                    CP:  7.55D-01  7.86D-01  8.47D-01  7.70D-01  7.75D-01
 E= -1548.93364358212     Delta-E=       -0.000000001263 Rises=F Damp=F
 DIIS: error= 4.37D-07 at cycle  11 NSaved=  11.
 NSaved=11 IEnMin=11 EnMin= -1548.93364358212     IErMin=11 ErrMin= 4.37D-07
 ErrMax= 4.37D-07  0.00D+00 EMaxC= 1.00D-01 BMatC= 2.26D-10 BMatP= 1.33D-09
 IDIUse=1 WtCom= 1.00D+00 WtEn= 0.00D+00
 Coeff-Com:  0.119D-04-0.138D-04-0.176D-03-0.453D-03-0.862D-03-0.215D-02
 Coeff-Com: -0.295D-02 0.132D-01 0.613D-01 0.326D+00 0.606D+00
 Coeff:      0.119D-04-0.138D-04-0.176D-03-0.453D-03-0.862D-03-0.215D-02
 Coeff:     -0.295D-02 0.132D-01 0.613D-01 0.326D+00 0.606D+00
 Gap=     0.170 Goal=   None    Shift=    0.000
 RMSDP=7.07D-08 MaxDP=2.54D-06 DE=-1.26D-09 OVMax= 6.34D-06

 Cycle  12  Pass 1  IDiag  1:
 RMSU=  4.21D-08    CP:  9.77D-01  9.45D-01  8.66D-01  5.67D-01  6.86D-01
                    CP:  7.55D-01  7.86D-01  8.54D-01  7.80D-01  8.53D-01
                    CP:  7.30D-01
 E= -1548.93364358234     Delta-E=       -0.000000000221 Rises=F Damp=F
 DIIS: error= 1.11D-07 at cycle  12 NSaved=  12.
 NSaved=12 IEnMin=12 EnMin= -1548.93364358234     IErMin=12 ErrMin= 1.11D-07
 ErrMax= 1.11D-07  0.00D+00 EMaxC= 1.00D-01 BMatC= 1.42D-11 BMatP= 2.26D-10
 IDIUse=1 WtCom= 1.00D+00 WtEn= 0.00D+00
 Coeff-Com:  0.602D-06 0.362D-05 0.128D-05-0.277D-04-0.353D-04-0.543D-03
 Coeff-Com: -0.293D-02-0.448D-02 0.142D-02 0.796D-01 0.259D+00 0.668D+00
 Coeff:      0.602D-06 0.362D-05 0.128D-05-0.277D-04-0.353D-04-0.543D-03
 Coeff:     -0.293D-02-0.448D-02 0.142D-02 0.796D-01 0.259D+00 0.668D+00
 Gap=     0.170 Goal=   None    Shift=    0.000
 RMSDP=2.08D-08 MaxDP=1.04D-06 DE=-2.21D-10 OVMax= 1.73D-06

 Cycle  13  Pass 1  IDiag  1:
 RMSU=  1.40D-08    CP:  9.77D-01  9.45D-01  8.66D-01  5.67D-01  6.86D-01
                    CP:  7.55D-01  7.86D-01  8.54D-01  7.86D-01  8.69D-01
                    CP:  7.84D-01  8.15D-01
 E= -1548.93364358237     Delta-E=       -0.000000000030 Rises=F Damp=F
 DIIS: error= 3.57D-08 at cycle  13 NSaved=  13.
 NSaved=13 IEnMin=13 EnMin= -1548.93364358237     IErMin=13 ErrMin= 3.57D-08
 ErrMax= 3.57D-08  0.00D+00 EMaxC= 1.00D-01 BMatC= 1.91D-12 BMatP= 1.42D-11
 IDIUse=1 WtCom= 1.00D+00 WtEn= 0.00D+00
 Coeff-Com: -0.114D-05 0.334D-05 0.227D-04 0.433D-04 0.898D-04-0.452D-05
 Coeff-Com: -0.118D-02-0.406D-02-0.746D-02-0.343D-02 0.483D-01 0.314D+00
 Coeff-Com:  0.654D+00
 Coeff:     -0.114D-05 0.334D-05 0.227D-04 0.433D-04 0.898D-04-0.452D-05
 Coeff:     -0.118D-02-0.406D-02-0.746D-02-0.343D-02 0.483D-01 0.314D+00
 Coeff:      0.654D+00
 Gap=     0.170 Goal=   None    Shift=    0.000
 RMSDP=7.61D-09 MaxDP=2.52D-07 DE=-3.05D-11 OVMax= 7.73D-07

 Error on total polarization charges =  0.01888
 SCF Done:  E(RB3LYP) =  -1548.93364358     A.U. after   13 cycles
            NFock= 13  Conv=0.76D-08     -V/T= 2.0056
 KE= 1.540249625291D+03 PE=-6.955714938721D+03 EE= 2.199446971825D+03
 Leave Link  502 at Sun Jul 18 13:50:38 2021, MaxMem=   104857600 cpu:             311.7 elap:              78.2
 (Enter /prod/apps/gaussian/g16b1/l601.exe)
 Copying SCF densities to generalized density rwf, IOpCl= 0 IROHF=0.

 **********************************************************************

            Population analysis using the SCF Density.

 **********************************************************************

 Orbital symmetries:
       Occupied  (A) (A) (A) (A) (A) (A) (A) (A) (A) (A) (A) (A)
                 (A) (A) (A) (A) (A) (A) (A) (A) (A) (A) (A) (A)
                 (A) (A) (A) (A) (A) (A) (A) (A) (A) (A) (A) (A)
                 (A) (A) (A) (A) (A) (A) (A) (A) (A) (A) (A) (A)
                 (A) (A) (A) (A) (A) (A) (A) (A) (A) (A) (A) (A)
                 (A) (A) (A) (A) (A) (A) (A) (A) (A) (A) (A) (A)
                 (A) (A) (A) (A)
       Virtual   (A) (A) (A) (A) (A) (A) (A) (A) (A) (A) (A) (A)
                 (A) (A) (A) (A) (A) (A) (A) (A) (A) (A) (A) (A)
                 (A) (A) (A) (A) (A) (A) (A) (A) (A) (A) (A) (A)
                 (A) (A) (A) (A) (A) (A) (A) (A) (A) (A) (A) (A)
                 (A) (A) (A) (A) (A) (A) (A) (A) (A) (A) (A) (A)
                 (A) (A) (A) (A) (A) (A) (A) (A) (A) (A) (A) (A)
                 (A) (A) (A) (A) (A) (A) (A) (A) (A) (A) (A) (A)
                 (A) (A) (A) (A) (A) (A) (A) (A) (A) (A) (A) (A)
                 (A) (A) (A) (A) (A) (A) (A) (A) (A) (A) (A) (A)
                 (A) (A) (A) (A) (A) (A) (A) (A) (A) (A) (A) (A)
                 (A) (A) (A) (A) (A) (A) (A) (A) (A) (A) (A) (A)
                 (A) (A) (A) (A) (A) (A) (A) (A) (A) (A) (A) (A)
                 (A) (A) (A) (A) (A) (A) (A) (A) (A) (A) (A) (A)
                 (A) (A) (A) (A) (A) (A) (A) (A) (A) (A) (A) (A)
                 (A) (A) (A) (A) (A) (A) (A) (A) (A) (A) (A) (A)
                 (A) (A) (A) (A) (A) (A) (A) (A) (A) (A) (A) (A)
                 (A) (A) (A) (A) (A) (A) (A) (A) (A) (A) (A) (A)
                 (A) (A) (A) (A) (A) (A) (A) (A) (A) (A) (A) (A)
                 (A) (A) (A) (A) (A) (A) (A) (A) (A) (A) (A) (A)
                 (A) (A) (A) (A) (A) (A) (A) (A) (A) (A) (A) (A)
                 (A) (A) (A) (A) (A) (A) (A) (A) (A)
 The electronic state is 1-A.
 Alpha  occ. eigenvalues -- -101.55729 -88.90416 -14.45080 -14.34974 -10.25954
 Alpha  occ. eigenvalues --  -10.24906 -10.23547 -10.23477 -10.22948 -10.22807
 Alpha  occ. eigenvalues --  -10.21776 -10.21373 -10.21277 -10.20445 -10.20100
 Alpha  occ. eigenvalues --  -10.19231 -10.19126 -10.18898 -10.18441  -9.47401
 Alpha  occ. eigenvalues --   -7.96465  -7.23781  -7.22836  -7.22797  -5.92965
 Alpha  occ. eigenvalues --   -5.92610  -5.91972  -1.02465  -0.99835  -0.89980
 Alpha  occ. eigenvalues --   -0.86110  -0.85697  -0.80533  -0.79966  -0.77046
 Alpha  occ. eigenvalues --   -0.74877  -0.73869  -0.71531  -0.67828  -0.64660
 Alpha  occ. eigenvalues --   -0.63706  -0.61389  -0.60619  -0.59872  -0.58519
 Alpha  occ. eigenvalues --   -0.56243  -0.54700  -0.51653  -0.51060  -0.49539
 Alpha  occ. eigenvalues --   -0.48768  -0.47470  -0.46489  -0.46070  -0.44402
 Alpha  occ. eigenvalues --   -0.44277  -0.43323  -0.42745  -0.41042  -0.39944
 Alpha  occ. eigenvalues --   -0.39366  -0.39051  -0.38564  -0.37183  -0.36399
 Alpha  occ. eigenvalues --   -0.36233  -0.35509  -0.35110  -0.33415  -0.32137
 Alpha  occ. eigenvalues --   -0.30284  -0.28780  -0.25959  -0.25134  -0.22914
 Alpha  occ. eigenvalues --   -0.19594
 Alpha virt. eigenvalues --   -0.02629  -0.02150  -0.01204  -0.00329   0.01769
 Alpha virt. eigenvalues --    0.03572   0.04883   0.08208   0.09713   0.10691
 Alpha virt. eigenvalues --    0.11279   0.11456   0.12343   0.12798   0.13170
 Alpha virt. eigenvalues --    0.14203   0.14329   0.14879   0.15087   0.16771
 Alpha virt. eigenvalues --    0.17470   0.17737   0.18979   0.19003   0.19465
 Alpha virt. eigenvalues --    0.21146   0.21610   0.22932   0.23427   0.24098
 Alpha virt. eigenvalues --    0.25315   0.26035   0.27656   0.28835   0.30242
 Alpha virt. eigenvalues --    0.31893   0.32391   0.33047   0.35613   0.36330
 Alpha virt. eigenvalues --    0.38084   0.39439   0.40283   0.40594   0.42630
 Alpha virt. eigenvalues --    0.43250   0.43495   0.46977   0.47897   0.49580
 Alpha virt. eigenvalues --    0.50208   0.50427   0.51591   0.52186   0.52751
 Alpha virt. eigenvalues --    0.53308   0.53809   0.54577   0.55604   0.55649
 Alpha virt. eigenvalues --    0.57666   0.58438   0.58626   0.59056   0.59625
 Alpha virt. eigenvalues --    0.59862   0.60639   0.61270   0.61893   0.61978
 Alpha virt. eigenvalues --    0.62120   0.63647   0.64879   0.65759   0.66503
 Alpha virt. eigenvalues --    0.67017   0.68605   0.69369   0.70384   0.72182
 Alpha virt. eigenvalues --    0.72699   0.74459   0.75687   0.77118   0.79153
 Alpha virt. eigenvalues --    0.79974   0.81114   0.81593   0.81961   0.82859
 Alpha virt. eigenvalues --    0.84008   0.84302   0.84667   0.84790   0.85162
 Alpha virt. eigenvalues --    0.85740   0.85901   0.86881   0.87814   0.88879
 Alpha virt. eigenvalues --    0.89238   0.90153   0.90599   0.90856   0.91115
 Alpha virt. eigenvalues --    0.92426   0.93563   0.93999   0.94616   0.95729
 Alpha virt. eigenvalues --    0.96474   0.96864   0.97556   0.98615   1.00568
 Alpha virt. eigenvalues --    1.01423   1.01816   1.03405   1.03927   1.05746
 Alpha virt. eigenvalues --    1.06120   1.08949   1.10263   1.11298   1.12549
 Alpha virt. eigenvalues --    1.14317   1.16326   1.17618   1.20240   1.21450
 Alpha virt. eigenvalues --    1.23922   1.25338   1.27334   1.29289   1.30730
 Alpha virt. eigenvalues --    1.32757   1.33615   1.35274   1.37357   1.38536
 Alpha virt. eigenvalues --    1.40890   1.41438   1.43292   1.45059   1.48457
 Alpha virt. eigenvalues --    1.49620   1.50058   1.51364   1.53419   1.54905
 Alpha virt. eigenvalues --    1.56141   1.58654   1.61807   1.64511   1.67985
 Alpha virt. eigenvalues --    1.70293   1.72677   1.74041   1.75873   1.77547
 Alpha virt. eigenvalues --    1.80107   1.80998   1.81755   1.83615   1.84851
 Alpha virt. eigenvalues --    1.86230   1.88948   1.90522   1.91517   1.93842
 Alpha virt. eigenvalues --    1.94124   1.95402   1.95850   1.97279   1.97968
 Alpha virt. eigenvalues --    1.98123   2.01514   2.03065   2.05980   2.07860
 Alpha virt. eigenvalues --    2.09757   2.10134   2.12476   2.13309   2.14567
 Alpha virt. eigenvalues --    2.15270   2.15676   2.17411   2.18990   2.21812
 Alpha virt. eigenvalues --    2.24052   2.24689   2.27783   2.28995   2.29791
 Alpha virt. eigenvalues --    2.30830   2.31937   2.32911   2.35273   2.36629
 Alpha virt. eigenvalues --    2.38150   2.42447   2.45762   2.46882   2.50592
 Alpha virt. eigenvalues --    2.53276   2.55212   2.56798   2.58621   2.59763
 Alpha virt. eigenvalues --    2.60304   2.61112   2.65652   2.66990   2.67825
 Alpha virt. eigenvalues --    2.69344   2.70101   2.72718   2.72898   2.77659
 Alpha virt. eigenvalues --    2.78669   2.81123   2.84103   2.86503   2.94601
 Alpha virt. eigenvalues --    2.99933   3.12990   3.23174   3.33570   3.38277
 Alpha virt. eigenvalues --    3.78143   3.95957   4.04160   4.06979   4.09786
 Alpha virt. eigenvalues --    4.10498   4.13557   4.15981   4.19638   4.25993
 Alpha virt. eigenvalues --    4.30575   4.34463   4.35937   4.38843   4.39762
 Alpha virt. eigenvalues --    4.43377   4.51652   4.68312   4.71786
          Condensed to atoms (all electrons):
               1          2          3          4          5          6
     1  N    6.679119   0.302604   0.300470   0.246381  -0.039606  -0.034079
     2  H    0.302604   0.271190  -0.010556  -0.020717  -0.002832   0.003695
     3  H    0.300470  -0.010556   0.272477  -0.021263   0.003966  -0.002868
     4  C    0.246381  -0.020717  -0.021263   5.007027   0.388898   0.386320
     5  H   -0.039606  -0.002832   0.003966   0.388898   0.488818  -0.020690
     6  H   -0.034079   0.003695  -0.002868   0.386320  -0.020690   0.492347
     7  C   -0.057225  -0.002460  -0.004384   0.340341  -0.031712  -0.045811
     8  H   -0.005917   0.006684  -0.000239  -0.045145  -0.001776   0.005619
     9  H    0.003652  -0.000019   0.000009  -0.024611  -0.003880  -0.000882
    10  C   -0.002515  -0.000347   0.004124  -0.035130   0.003398  -0.005379
    11  H   -0.000048   0.000030  -0.000016  -0.002695  -0.000024   0.004797
    12  H    0.001847   0.000043   0.004823   0.000242  -0.000124   0.000025
    13  N   -0.000018  -0.000006  -0.000102   0.003745  -0.000088   0.000042
    14  C    0.000001  -0.000002   0.000010  -0.000108   0.000004   0.000014
    15  C    0.000000   0.000000  -0.000003  -0.000028   0.000000  -0.000001
    16  H   -0.000005   0.000001  -0.000013   0.000003  -0.000000   0.000001
    17  C    0.000000   0.000000  -0.000001  -0.000002   0.000000  -0.000000
    18  Cl  -0.000000  -0.000000   0.000000   0.000000  -0.000000   0.000000
    19  C   -0.000000   0.000000   0.000000   0.000000  -0.000000   0.000000
    20  H   -0.000000   0.000000   0.000000   0.000000  -0.000000   0.000000
    21  C   -0.000000  -0.000000   0.000000   0.000001  -0.000000  -0.000000
    22  H    0.000000  -0.000000  -0.000000  -0.000000   0.000000  -0.000000
    23  C    0.000001  -0.000001  -0.000001  -0.000001   0.000000  -0.000001
    24  S   -0.000001   0.000000   0.000000   0.000102  -0.000006   0.000003
    25  C   -0.000000  -0.000000  -0.000000  -0.000019   0.000001  -0.000000
    26  C   -0.000001   0.000000   0.000001  -0.000131   0.000002  -0.000006
    27  C    0.000000  -0.000000   0.000001  -0.000027   0.000001  -0.000023
    28  H    0.000000   0.000000  -0.000000  -0.000001  -0.000000  -0.000001
    29  C    0.000000  -0.000000  -0.000000  -0.000000   0.000000  -0.000001
    30  H   -0.000000   0.000000   0.000000   0.000000  -0.000000   0.000000
    31  C    0.000000   0.000000  -0.000000   0.000000  -0.000000   0.000000
    32  H    0.000000   0.000000  -0.000000   0.000000  -0.000000   0.000000
    33  C   -0.000000   0.000000   0.000000   0.000000  -0.000000   0.000000
    34  H    0.000000  -0.000000  -0.000000  -0.000000   0.000000  -0.000000
    35  H    0.306681  -0.009886  -0.010057  -0.019339  -0.003183  -0.001796
               7          8          9         10         11         12
     1  N   -0.057225  -0.005917   0.003652  -0.002515  -0.000048   0.001847
     2  H   -0.002460   0.006684  -0.000019  -0.000347   0.000030   0.000043
     3  H   -0.004384  -0.000239   0.000009   0.004124  -0.000016   0.004823
     4  C    0.340341  -0.045145  -0.024611  -0.035130  -0.002695   0.000242
     5  H   -0.031712  -0.001776  -0.003880   0.003398  -0.000024  -0.000124
     6  H   -0.045811   0.005619  -0.000882  -0.005379   0.004797   0.000025
     7  C    5.145156   0.373825   0.373841   0.349944  -0.035143  -0.061761
     8  H    0.373825   0.551714  -0.029401  -0.031699   0.003802  -0.003038
     9  H    0.373841  -0.029401   0.524736  -0.032958  -0.004176   0.004895
    10  C    0.349944  -0.031699  -0.032958   4.944502   0.371914   0.371047
    11  H   -0.035143   0.003802  -0.004176   0.371914   0.537354  -0.024548
    12  H   -0.061761  -0.003038   0.004895   0.371047  -0.024548   0.564278
    13  N   -0.057060  -0.002810   0.000356   0.307494  -0.041747  -0.031731
    14  C   -0.001463   0.004770  -0.000745  -0.039648   0.005111  -0.002806
    15  C   -0.000358   0.000283   0.000044  -0.006954   0.000053   0.003243
    16  H   -0.000024   0.000001   0.000002   0.001774  -0.000177   0.003006
    17  C    0.000037  -0.000032   0.000000   0.000267   0.000000  -0.000479
    18  Cl  -0.000001   0.000000  -0.000000  -0.000008  -0.000000   0.000020
    19  C    0.000001  -0.000013   0.000000   0.000004  -0.000000   0.000016
    20  H    0.000000  -0.000000   0.000000  -0.000000  -0.000000   0.000000
    21  C   -0.000022  -0.000007   0.000002  -0.000248   0.000006   0.000004
    22  H   -0.000000  -0.000002  -0.000000   0.000004  -0.000000  -0.000000
    23  C    0.000421   0.000564  -0.000127   0.005660  -0.000268  -0.000206
    24  S   -0.000067   0.000122   0.001681  -0.000569   0.000037   0.000161
    25  C    0.000288   0.000003   0.000023   0.007540  -0.000305  -0.000318
    26  C    0.001143  -0.000194   0.002438  -0.041833  -0.003054   0.002340
    27  C    0.000344  -0.000008   0.000206  -0.016359   0.010185   0.000539
    28  H    0.000111  -0.000001   0.000009   0.000879   0.001528  -0.000171
    29  C    0.000029   0.000000  -0.000019   0.000171  -0.000240  -0.000022
    30  H   -0.000001  -0.000000   0.000000  -0.000009   0.000033   0.000000
    31  C   -0.000001   0.000000  -0.000007   0.000021  -0.000012   0.000000
    32  H   -0.000000   0.000000   0.000000   0.000000  -0.000000   0.000000
    33  C   -0.000022  -0.000000  -0.000007  -0.000135  -0.000024   0.000006
    34  H    0.000000  -0.000000  -0.000001   0.000003  -0.000000  -0.000000
    35  H    0.004149   0.000019  -0.000111  -0.000015  -0.000005  -0.000028
              13         14         15         16         17         18
     1  N   -0.000018   0.000001   0.000000  -0.000005   0.000000  -0.000000
     2  H   -0.000006  -0.000002   0.000000   0.000001   0.000000  -0.000000
     3  H   -0.000102   0.000010  -0.000003  -0.000013  -0.000001   0.000000
     4  C    0.003745  -0.000108  -0.000028   0.000003  -0.000002   0.000000
     5  H   -0.000088   0.000004   0.000000  -0.000000   0.000000  -0.000000
     6  H    0.000042   0.000014  -0.000001   0.000001  -0.000000   0.000000
     7  C   -0.057060  -0.001463  -0.000358  -0.000024   0.000037  -0.000001
     8  H   -0.002810   0.004770   0.000283   0.000001  -0.000032   0.000000
     9  H    0.000356  -0.000745   0.000044   0.000002   0.000000  -0.000000
    10  C    0.307494  -0.039648  -0.006954   0.001774   0.000267  -0.000008
    11  H   -0.041747   0.005111   0.000053  -0.000177   0.000000  -0.000000
    12  H   -0.031731  -0.002806   0.003243   0.003006  -0.000479   0.000020
    13  N    7.077234   0.290758  -0.078913  -0.009648   0.007595  -0.000219
    14  C    0.290758   4.663592   0.490969  -0.031130   0.012655   0.005940
    15  C   -0.078913   0.490969   5.133476   0.361166   0.438885  -0.070515
    16  H   -0.009648  -0.031130   0.361166   0.530724  -0.048410  -0.000807
    17  C    0.007595   0.012655   0.438885  -0.048410   5.057106   0.224208
    18  Cl  -0.000219   0.005940  -0.070515  -0.000807   0.224208  16.935159
    19  C    0.000844  -0.044573  -0.036578   0.004742   0.495989  -0.065266
    20  H    0.000000   0.000067   0.005026  -0.000144  -0.044133  -0.000379
    21  C    0.006372  -0.001667  -0.046920  -0.000003  -0.012289   0.004253
    22  H   -0.000212   0.004591   0.000588   0.000013   0.003925  -0.000104
    23  C   -0.075633   0.492574  -0.070189   0.005775  -0.039698   0.000334
    24  S    0.011462  -0.061646   0.007240  -0.000131  -0.000074   0.000016
    25  C   -0.090743  -0.025478  -0.000097   0.000019   0.000053   0.000001
    26  C    0.301135  -0.028689   0.004380   0.000355  -0.000203   0.000003
    27  C   -0.077179   0.005869   0.000337   0.000103  -0.000031   0.000000
    28  H   -0.006394  -0.000150   0.000094   0.000051   0.000002  -0.000000
    29  C    0.006776  -0.000171  -0.000019   0.000000   0.000001  -0.000000
    30  H   -0.000175   0.000002   0.000000  -0.000000  -0.000000  -0.000000
    31  C    0.001050  -0.000096  -0.000001   0.000000   0.000000  -0.000000
    32  H    0.000001   0.000001   0.000000   0.000000  -0.000000   0.000000
    33  C    0.007522   0.001206   0.000017   0.000001  -0.000003   0.000000
    34  H   -0.000231  -0.000000  -0.000000  -0.000000   0.000000  -0.000000
    35  H    0.000001  -0.000000  -0.000000   0.000000  -0.000000   0.000000
              19         20         21         22         23         24
     1  N   -0.000000  -0.000000  -0.000000   0.000000   0.000001  -0.000001
     2  H    0.000000   0.000000  -0.000000  -0.000000  -0.000001   0.000000
     3  H    0.000000   0.000000   0.000000  -0.000000  -0.000001   0.000000
     4  C    0.000000   0.000000   0.000001  -0.000000  -0.000001   0.000102
     5  H   -0.000000  -0.000000  -0.000000   0.000000   0.000000  -0.000006
     6  H    0.000000   0.000000  -0.000000  -0.000000  -0.000001   0.000003
     7  C    0.000001   0.000000  -0.000022  -0.000000   0.000421  -0.000067
     8  H   -0.000013  -0.000000  -0.000007  -0.000002   0.000564   0.000122
     9  H    0.000000   0.000000   0.000002  -0.000000  -0.000127   0.001681
    10  C    0.000004  -0.000000  -0.000248   0.000004   0.005660  -0.000569
    11  H   -0.000000  -0.000000   0.000006  -0.000000  -0.000268   0.000037
    12  H    0.000016   0.000000   0.000004  -0.000000  -0.000206   0.000161
    13  N    0.000844   0.000000   0.006372  -0.000212  -0.075633   0.011462
    14  C   -0.044573   0.000067  -0.001667   0.004591   0.492574  -0.061646
    15  C   -0.036578   0.005026  -0.046920   0.000588  -0.070189   0.007240
    16  H    0.004742  -0.000144  -0.000003   0.000013   0.005775  -0.000131
    17  C    0.495989  -0.044133  -0.012289   0.003925  -0.039698  -0.000074
    18  Cl  -0.065266  -0.000379   0.004253  -0.000104   0.000334   0.000016
    19  C    4.982417   0.365488   0.503809  -0.036061  -0.034580   0.004256
    20  H    0.365488   0.533312  -0.034571  -0.004450   0.004450  -0.000156
    21  C    0.503809  -0.034571   4.977915   0.357859   0.477024  -0.053898
    22  H   -0.036061  -0.004450   0.357859   0.544047  -0.040158  -0.000149
    23  C   -0.034580   0.004450   0.477024  -0.040158   5.167397   0.238060
    24  S    0.004256  -0.000156  -0.053898  -0.000149   0.238060  15.559492
    25  C   -0.000159   0.000000   0.000062   0.000028   0.002584   0.230648
    26  C   -0.000072   0.000000   0.000940  -0.000007  -0.022496  -0.059149
    27  C   -0.000000   0.000000   0.000015  -0.000000   0.000478   0.006802
    28  H   -0.000000  -0.000000   0.000000   0.000000  -0.000012  -0.000198
    29  C    0.000000  -0.000000  -0.000001   0.000000   0.000022  -0.000181
    30  H    0.000000   0.000000   0.000000  -0.000000   0.000000   0.000027
    31  C   -0.000000   0.000000   0.000001   0.000000  -0.000122   0.004907
    32  H    0.000000  -0.000000   0.000000  -0.000000  -0.000000  -0.000214
    33  C    0.000001   0.000000   0.000005   0.000001   0.000634  -0.052596
    34  H    0.000000  -0.000000  -0.000009   0.000002   0.000125  -0.000433
[...]
 Rotational constants (GHZ):           0.3811348           0.2365765           0.1662054
 Leave Link  202 at Sun Jul 18 15:00:22 2021, MaxMem=   262144000 cpu:               0.1 elap:               0.0
 (Enter /prod/apps/gaussian/g16b1/l301.exe)
 Standard basis: Aug-CC-pVDZ (5D, 7F)
 Ernie: Thresh=  0.10000D-02 Tol=  0.10000D-05 Strict=F.
 Ernie:  54 primitive shells out of 643 were deleted.
 There are   627 symmetry adapted cartesian basis functions of A   symmetry.
 There are   589 symmetry adapted basis functions of A   symmetry.
   589 basis functions,  1069 primitive gaussians,   627 cartesian basis functions
    76 alpha electrons       76 beta electrons
       nuclear repulsion energy      1647.4861264845 Hartrees.
 IExCor=    0 DFT=F Ex=HF Corr=None ExCW=0 ScaHFX=  1.000000
 ScaDFX=  1.000000  1.000000  1.000000  1.000000 ScalE2=  1.000000  1.000000
 IRadAn=      5 IRanWt=     -1 IRanGd=            0 ICorTp=0 IEmpDi=  4
 NAtoms=   35 NActive=   35 NUniq=   35 SFac= 1.00D+00 NAtFMM=   60 NAOKFM=F Big=F
 Integral buffers will be    131072 words long.
 Raffenetti 1 integral format.
 Two-electron integral symmetry is turned on.
 Leave Link  301 at Sun Jul 18 15:00:22 2021, MaxMem=   262144000 cpu:               0.2 elap:               0.1
 (Enter /prod/apps/gaussian/g16b1/l302.exe)
 NPDir=0 NMtPBC=     1 NCelOv=     1 NCel=       1 NClECP=     1 NCelD=      1
         NCelK=      1 NCelE2=     1 NClLst=     1 CellRange=     0.0.
 One-electron integrals computed using PRISM.
 One-electron integral symmetry used in STVInt
 NBasis=   589 RedAO= T EigKep=  1.28D-06  NBF=   589
 NBsUse=   588 1.00D-06 EigRej=  7.26D-07 NBFU=   588
 Leave Link  302 at Sun Jul 18 15:00:23 2021, MaxMem=   262144000 cpu:               1.6 elap:               0.4
 (Enter /prod/apps/gaussian/g16b1/l303.exe)
 DipDrv:  MaxL=1.
 Leave Link  303 at Sun Jul 18 15:00:23 2021, MaxMem=   262144000 cpu:               0.4 elap:               0.1
 (Enter /prod/apps/gaussian/g16b1/l401.exe)
 ExpMin= 2.97D-02 ExpMax= 1.28D+05 ExpMxC= 1.24D+03 IAcc=3 IRadAn=         5 AccDes= 0.00D+00
 Harris functional with IExCor=  205 and IRadAn=       5 diagonalized for initial guess.
 HarFok:  IExCor=  205 AccDes= 0.00D+00 IRadAn=         5 IDoV= 1 UseB2=F ITyADJ=14
 ICtDFT=  3500011 ScaDFX=  1.000000  1.000000  1.000000  1.000000
 FoFCou: FMM=F IPFlag=           0 FMFlag=      100000 FMFlg1=           0
         NFxFlg=           0 DoJE=T BraDBF=F KetDBF=T FulRan=T
         wScrn=  0.000000 ICntrl=       500 IOpCl=  0 I1Cent=   200000004 NGrid=           0
         NMat0=    1 NMatS0=      1 NMatT0=    0 NMatD0=    1 NMtDS0=    0 NMtDT0=    0
 Petite list used in FoFCou.
 Harris En= -1543.28415786958    
 JPrj=0 DoOrth=F DoCkMO=F.
 Leave Link  401 at Sun Jul 18 15:00:27 2021, MaxMem=   262144000 cpu:              14.7 elap:               3.7
 (Enter /prod/apps/gaussian/g16b1/l502.exe)
 Integral symmetry usage will be decided dynamically.
 Closed shell SCF:
 Using DIIS extrapolation, IDIIS=  1040.
 NGot=   262144000 LenX=   261348123 LenY=   260954367
 Requested convergence on RMS density matrix=1.00D-08 within 128 cycles.
 Requested convergence on MAX density matrix=1.00D-06.
 Requested convergence on             energy=1.00D-06.
 No special actions if energy rises.
 Fock matrices will be formed incrementally for  20 cycles.

 Cycle   1  Pass 1  IDiag  1:
 FoFJK:  IHMeth= 1 ICntrl=       0 DoSepK=F KAlg= 0 I1Cent=           0 FoldK=F
 IRaf= 940000000 NMat=       1 IRICut=       1 DoRegI=T DoRafI=F ISym2E= 0 IDoP0=0 IntGTp=1.
 FoFCou: FMM=F IPFlag=           0 FMFlag=      100000 FMFlg1=           0
         NFxFlg=           0 DoJE=F BraDBF=F KetDBF=F FulRan=T
         wScrn=  0.000000 ICntrl=         0 IOpCl=  0 I1Cent=           0 NGrid=           0
         NMat0=    1 NMatS0=      1 NMatT0=    0 NMatD0=    1 NMtDS0=    0 NMtDT0=    0
 Symmetry not used in FoFCou.
 E= -1542.38476794304    
 DIIS: error= 1.70D-02 at cycle   1 NSaved=   1.
 NSaved= 1 IEnMin= 1 EnMin= -1542.38476794304     IErMin= 1 ErrMin= 1.70D-02
 ErrMax= 1.70D-02  0.00D+00 EMaxC= 1.00D-01 BMatC= 9.07D-01 BMatP= 9.07D-01
 IDIUse=3 WtCom= 8.30D-01 WtEn= 1.70D-01
 Coeff-Com:  0.100D+01
 Coeff-En:   0.100D+01
 Coeff:      0.100D+01
 Gap=     0.520 Goal=   None    Shift=    0.000
 GapD=    0.520 DampG=2.000 DampE=0.500 DampFc=1.0000 IDamp=-1.
 RMSDP=5.41D-02 MaxDP=4.09D+00              OVMax= 1.98D-01

 Cycle   2  Pass 1  IDiag  1:
 RMSU=  2.74D-02    CP:  5.39D-01
 E= -1542.95572488872     Delta-E=       -0.570956945679 Rises=F Damp=F
 DIIS: error= 9.15D-03 at cycle   2 NSaved=   2.
 NSaved= 2 IEnMin= 2 EnMin= -1542.95572488872     IErMin= 2 ErrMin= 9.15D-03
 ErrMax= 9.15D-03  0.00D+00 EMaxC= 1.00D-01 BMatC= 1.54D-01 BMatP= 9.07D-01
 IDIUse=3 WtCom= 9.08D-01 WtEn= 9.15D-02
 Coeff-Com:  0.235D+00 0.765D+00
 Coeff-En:   0.000D+00 0.100D+01
 Coeff:      0.213D+00 0.787D+00
 Gap=     0.284 Goal=   None    Shift=    0.000
 RMSDP=6.77D-03 MaxDP=3.32D-01 DE=-5.71D-01 OVMax= 7.20D-02

 Cycle   3  Pass 1  IDiag  1:
 RMSU=  6.43D-03    CP:  5.35D-01  9.24D-01
 E= -1543.10115676976     Delta-E=       -0.145431881045 Rises=F Damp=F
 DIIS: error= 2.43D-03 at cycle   3 NSaved=   3.
 NSaved= 3 IEnMin= 3 EnMin= -1543.10115676976     IErMin= 3 ErrMin= 2.43D-03
 ErrMax= 2.43D-03  0.00D+00 EMaxC= 1.00D-01 BMatC= 1.44D-02 BMatP= 1.54D-01
 IDIUse=3 WtCom= 9.76D-01 WtEn= 2.43D-02
 Coeff-Com: -0.190D-01 0.195D+00 0.824D+00
 Coeff-En:   0.000D+00 0.000D+00 0.100D+01
 Coeff:     -0.186D-01 0.190D+00 0.828D+00
 Gap=     0.267 Goal=   None    Shift=    0.000
 RMSDP=2.10D-03 MaxDP=1.20D-01 DE=-1.45D-01 OVMax= 4.46D-02

 Cycle   4  Pass 1  IDiag  1:
 RMSU=  1.51D-03    CP:  5.26D-01  9.55D-01  8.73D-01
 E= -1543.11660258992     Delta-E=       -0.015445820156 Rises=F Damp=F
 DIIS: error= 6.92D-04 at cycle   4 NSaved=   4.
 NSaved= 4 IEnMin= 4 EnMin= -1543.11660258992     IErMin= 4 ErrMin= 6.92D-04
 ErrMax= 6.92D-04  0.00D+00 EMaxC= 1.00D-01 BMatC= 1.45D-03 BMatP= 1.44D-02
 IDIUse=3 WtCom= 9.93D-01 WtEn= 6.92D-03
 Coeff-Com: -0.166D-01 0.300D-01 0.292D+00 0.695D+00
 Coeff-En:   0.000D+00 0.000D+00 0.000D+00 0.100D+01
 Coeff:     -0.165D-01 0.298D-01 0.290D+00 0.697D+00
 Gap=     0.257 Goal=   None    Shift=    0.000
 RMSDP=5.58D-04 MaxDP=4.29D-02 DE=-1.54D-02 OVMax= 8.87D-03

 Cycle   5  Pass 1  IDiag  1:
 RMSU=  4.63D-04    CP:  5.23D-01  9.55D-01  8.85D-01  9.46D-01
 E= -1543.11821431313     Delta-E=       -0.001611723214 Rises=F Damp=F
 DIIS: error= 2.56D-04 at cycle   5 NSaved=   5.
 NSaved= 5 IEnMin= 5 EnMin= -1543.11821431313     IErMin= 5 ErrMin= 2.56D-04
 ErrMax= 2.56D-04  0.00D+00 EMaxC= 1.00D-01 BMatC= 1.04D-04 BMatP= 1.45D-03
 IDIUse=3 WtCom= 9.97D-01 WtEn= 2.56D-03
 Coeff-Com: -0.434D-03-0.200D-01-0.477D-01 0.106D+00 0.962D+00
 Coeff-En:   0.000D+00 0.000D+00 0.000D+00 0.000D+00 0.100D+01
 Coeff:     -0.433D-03-0.200D-01-0.476D-01 0.106D+00 0.962D+00
 Gap=     0.260 Goal=   None    Shift=    0.000
 RMSDP=2.50D-04 MaxDP=1.44D-02 DE=-1.61D-03 OVMax= 8.16D-03

 Cycle   6  Pass 1  IDiag  1:
 RMSU=  1.45D-04    CP:  5.23D-01  9.55D-01  9.02D-01  1.05D+00  9.86D-01
 E= -1543.11845014393     Delta-E=       -0.000235830804 Rises=F Damp=F
 DIIS: error= 8.26D-05 at cycle   6 NSaved=   6.
 NSaved= 6 IEnMin= 6 EnMin= -1543.11845014393     IErMin= 6 ErrMin= 8.26D-05
 ErrMax= 8.26D-05  0.00D+00 EMaxC= 1.00D-01 BMatC= 1.98D-05 BMatP= 1.04D-04
 IDIUse=1 WtCom= 1.00D+00 WtEn= 0.00D+00
 Coeff-Com:  0.176D-02-0.891D-02-0.417D-01-0.710D-01 0.233D+00 0.887D+00
 Coeff:      0.176D-02-0.891D-02-0.417D-01-0.710D-01 0.233D+00 0.887D+00
 Gap=     0.260 Goal=   None    Shift=    0.000
 RMSDP=8.83D-05 MaxDP=3.49D-03 DE=-2.36D-04 OVMax= 2.73D-03

 Cycle   7  Pass 1  IDiag  1:
 RMSU=  5.82D-05    CP:  5.23D-01  9.55D-01  9.03D-01  1.06D+00  1.11D+00
                    CP:  1.13D+00
 E= -1543.11849226412     Delta-E=       -0.000042120184 Rises=F Damp=F
 DIIS: error= 2.83D-05 at cycle   7 NSaved=   7.
 NSaved= 7 IEnMin= 7 EnMin= -1543.11849226412     IErMin= 7 ErrMin= 2.83D-05
 ErrMax= 2.83D-05  0.00D+00 EMaxC= 1.00D-01 BMatC= 2.25D-06 BMatP= 1.98D-05
 IDIUse=1 WtCom= 1.00D+00 WtEn= 0.00D+00
 Coeff-Com:  0.270D-03 0.992D-03 0.152D-02-0.286D-01-0.780D-01 0.713D-01
 Coeff-Com:  0.103D+01
 Coeff:      0.270D-03 0.992D-03 0.152D-02-0.286D-01-0.780D-01 0.713D-01
 Coeff:      0.103D+01
 Gap=     0.261 Goal=   None    Shift=    0.000
 RMSDP=3.69D-05 MaxDP=1.29D-03 DE=-4.21D-05 OVMax= 1.74D-03

 Cycle   8  Pass 1  IDiag  1:
 RMSU=  2.28D-05    CP:  5.23D-01  9.55D-01  9.05D-01  1.07D+00  1.13D+00
                    CP:  1.25D+00  1.20D+00
 E= -1543.11850025092     Delta-E=       -0.000007986804 Rises=F Damp=F
 DIIS: error= 1.32D-05 at cycle   8 NSaved=   8.
 NSaved= 8 IEnMin= 8 EnMin= -1543.11850025092     IErMin= 8 ErrMin= 1.32D-05
 ErrMax= 1.32D-05  0.00D+00 EMaxC= 1.00D-01 BMatC= 4.56D-07 BMatP= 2.25D-06
 IDIUse=1 WtCom= 1.00D+00 WtEn= 0.00D+00
 Coeff-Com: -0.277D-03 0.141D-02 0.740D-02 0.116D-01-0.253D-01-0.174D+00
 Coeff-Com: -0.105D-01 0.119D+01
 Coeff:     -0.277D-03 0.141D-02 0.740D-02 0.116D-01-0.253D-01-0.174D+00
 Coeff:     -0.105D-01 0.119D+01
 Gap=     0.261 Goal=   None    Shift=    0.000
 RMSDP=1.98D-05 MaxDP=9.59D-04 DE=-7.99D-06 OVMax= 9.20D-04

 Cycle   9  Pass 1  IDiag  1:
 RMSU=  1.12D-05    CP:  5.23D-01  9.55D-01  9.06D-01  1.07D+00  1.14D+00
                    CP:  1.29D+00  1.40D+00  1.32D+00
 E= -1543.11850233647     Delta-E=       -0.000002085552 Rises=F Damp=F
 DIIS: error= 7.07D-06 at cycle   9 NSaved=   9.
 NSaved= 9 IEnMin= 9 EnMin= -1543.11850233647     IErMin= 9 ErrMin= 7.07D-06
 ErrMax= 7.07D-06  0.00D+00 EMaxC= 1.00D-01 BMatC= 9.09D-08 BMatP= 4.56D-07
 IDIUse=1 WtCom= 1.00D+00 WtEn= 0.00D+00
 Coeff-Com: -0.877D-04 0.557D-04 0.973D-03 0.666D-02 0.101D-01-0.440D-01
 Coeff-Com: -0.165D+00 0.185D+00 0.101D+01
 Coeff:     -0.877D-04 0.557D-04 0.973D-03 0.666D-02 0.101D-01-0.440D-01
 Coeff:     -0.165D+00 0.185D+00 0.101D+01
 Gap=     0.261 Goal=   None    Shift=    0.000
 RMSDP=7.94D-06 MaxDP=3.73D-04 DE=-2.09D-06 OVMax= 3.82D-04

 Cycle  10  Pass 1  IDiag  1:
 RMSU=  4.57D-06    CP:  5.23D-01  9.55D-01  9.06D-01  1.07D+00  1.14D+00
                    CP:  1.29D+00  1.44D+00  1.54D+00  1.23D+00
 E= -1543.11850277829     Delta-E=       -0.000000441812 Rises=F Damp=F
 DIIS: error= 3.99D-06 at cycle  10 NSaved=  10.
 NSaved=10 IEnMin=10 EnMin= -1543.11850277829     IErMin=10 ErrMin= 3.99D-06
 ErrMax= 3.99D-06  0.00D+00 EMaxC= 1.00D-01 BMatC= 2.13D-08 BMatP= 9.09D-08
 IDIUse=1 WtCom= 1.00D+00 WtEn= 0.00D+00
 Coeff-Com:  0.716D-04-0.380D-03-0.196D-02-0.294D-02 0.580D-02 0.439D-01
 Coeff-Com:  0.178D-01-0.300D+00-0.129D+00 0.137D+01
 Coeff:      0.716D-04-0.380D-03-0.196D-02-0.294D-02 0.580D-02 0.439D-01
 Coeff:      0.178D-01-0.300D+00-0.129D+00 0.137D+01
 Gap=     0.261 Goal=   None    Shift=    0.000
 RMSDP=5.39D-06 MaxDP=2.25D-04 DE=-4.42D-07 OVMax= 2.51D-04

 Cycle  11  Pass 1  IDiag  1:
 RMSU=  2.38D-06    CP:  5.23D-01  9.55D-01  9.06D-01  1.07D+00  1.15D+00
                    CP:  1.30D+00  1.46D+00  1.63D+00  1.53D+00  1.51D+00
 E= -1543.11850292369     Delta-E=       -0.000000145399 Rises=F Damp=F
 DIIS: error= 1.57D-06 at cycle  11 NSaved=  11.
 NSaved=11 IEnMin=11 EnMin= -1543.11850292369     IErMin=11 ErrMin= 1.57D-06
 ErrMax= 1.57D-06  0.00D+00 EMaxC= 1.00D-01 BMatC= 4.12D-09 BMatP= 2.13D-08
 IDIUse=1 WtCom= 1.00D+00 WtEn= 0.00D+00
 Coeff-Com:  0.293D-04-0.807D-04-0.532D-03-0.162D-02-0.144D-02 0.150D-01
 Coeff-Com:  0.370D-01-0.809D-01-0.254D+00 0.252D+00 0.103D+01
 Coeff:      0.293D-04-0.807D-04-0.532D-03-0.162D-02-0.144D-02 0.150D-01
 Coeff:      0.370D-01-0.809D-01-0.254D+00 0.252D+00 0.103D+01
 Gap=     0.261 Goal=   None    Shift=    0.000
 RMSDP=2.26D-06 MaxDP=1.16D-04 DE=-1.45D-07 OVMax= 9.20D-05

 Cycle  12  Pass 1  IDiag  1:
 RMSU=  1.00D-06    CP:  5.23D-01  9.55D-01  9.06D-01  1.07D+00  1.15D+00
                    CP:  1.30D+00  1.47D+00  1.66D+00  1.61D+00  1.80D+00
                    CP:  1.27D+00
 E= -1543.11850294403     Delta-E=       -0.000000020347 Rises=F Damp=F
 DIIS: error= 5.08D-07 at cycle  12 NSaved=  12.
 NSaved=12 IEnMin=12 EnMin= -1543.11850294403     IErMin=12 ErrMin= 5.08D-07
 ErrMax= 5.08D-07  0.00D+00 EMaxC= 1.00D-01 BMatC= 5.91D-10 BMatP= 4.12D-09
 IDIUse=1 WtCom= 1.00D+00 WtEn= 0.00D+00
 Coeff-Com: -0.440D-05 0.398D-04 0.183D-03 0.232D-03-0.123D-02-0.392D-02
 Coeff-Com:  0.467D-02 0.357D-01-0.377D-01-0.168D+00 0.186D+00 0.984D+00
 Coeff:     -0.440D-05 0.398D-04 0.183D-03 0.232D-03-0.123D-02-0.392D-02
 Coeff:      0.467D-02 0.357D-01-0.377D-01-0.168D+00 0.186D+00 0.984D+00
 Gap=     0.261 Goal=   None    Shift=    0.000
 RMSDP=7.35D-07 MaxDP=4.87D-05 DE=-2.03D-08 OVMax= 2.83D-05

 Cycle  13  Pass 1  IDiag  1:
 RMSU=  4.23D-07    CP:  5.23D-01  9.55D-01  9.06D-01  1.07D+00  1.15D+00
                    CP:  1.30D+00  1.47D+00  1.66D+00  1.62D+00  1.86D+00
                    CP:  1.43D+00  1.20D+00
 E= -1543.11850294612     Delta-E=       -0.000000002087 Rises=F Damp=F
 DIIS: error= 1.86D-07 at cycle  13 NSaved=  13.
 NSaved=13 IEnMin=13 EnMin= -1543.11850294612     IErMin=13 ErrMin= 1.86D-07
 ErrMax= 1.86D-07  0.00D+00 EMaxC= 1.00D-01 BMatC= 7.23D-11 BMatP= 5.91D-10
 IDIUse=1 WtCom= 1.00D+00 WtEn= 0.00D+00
 Coeff-Com: -0.479D-05 0.163D-04 0.953D-04 0.309D-03-0.140D-04-0.257D-02
 Coeff-Com: -0.533D-02 0.157D-01 0.301D-01-0.448D-01-0.132D+00 0.906D-01
 Coeff-Com:  0.105D+01
 Coeff:     -0.479D-05 0.163D-04 0.953D-04 0.309D-03-0.140D-04-0.257D-02
 Coeff:     -0.533D-02 0.157D-01 0.301D-01-0.448D-01-0.132D+00 0.906D-01
 Coeff:      0.105D+01
 Gap=     0.261 Goal=   None    Shift=    0.000
 RMSDP=2.45D-07 MaxDP=1.16D-05 DE=-2.09D-09 OVMax= 8.52D-06

 Cycle  14  Pass 1  IDiag  1:
 RMSU=  1.40D-07    CP:  5.23D-01  9.55D-01  9.06D-01  1.07D+00  1.15D+00
                    CP:  1.30D+00  1.48D+00  1.67D+00  1.62D+00  1.86D+00
                    CP:  1.46D+00  1.31D+00  1.19D+00
 E= -1543.11850294637     Delta-E=       -0.000000000246 Rises=F Damp=F
 DIIS: error= 1.08D-07 at cycle  14 NSaved=  14.
 NSaved=14 IEnMin=14 EnMin= -1543.11850294637     IErMin=14 ErrMin= 1.08D-07
 ErrMax= 1.08D-07  0.00D+00 EMaxC= 1.00D-01 BMatC= 1.06D-11 BMatP= 7.23D-11
 IDIUse=1 WtCom= 1.00D+00 WtEn= 0.00D+00
 Coeff-Com:  0.993D-06-0.645D-05-0.331D-04-0.497D-04 0.112D-03 0.832D-03
 Coeff-Com: -0.642D-04-0.583D-02 0.955D-03 0.277D-01-0.137D-01-0.129D+00
 Coeff-Com: -0.108D+00 0.123D+01
 Coeff:      0.993D-06-0.645D-05-0.331D-04-0.497D-04 0.112D-03 0.832D-03
 Coeff:     -0.642D-04-0.583D-02 0.955D-03 0.277D-01-0.137D-01-0.129D+00
 Coeff:     -0.108D+00 0.123D+01
 Gap=     0.261 Goal=   None    Shift=    0.000
 RMSDP=1.03D-07 MaxDP=5.95D-06 DE=-2.46D-10 OVMax= 4.33D-06

 Cycle  15  Pass 1  IDiag  1:
 RMSU=  6.05D-08    CP:  5.23D-01  9.55D-01  9.06D-01  1.07D+00  1.15D+00
                    CP:  1.30D+00  1.48D+00  1.67D+00  1.62D+00  1.86D+00
                    CP:  1.46D+00  1.33D+00  1.35D+00  1.28D+00
 E= -1543.11850294645     Delta-E=       -0.000000000080 Rises=F Damp=F
 DIIS: error= 4.61D-08 at cycle  15 NSaved=  15.
 NSaved=15 IEnMin=15 EnMin= -1543.11850294645     IErMin=15 ErrMin= 4.61D-08
 ErrMax= 4.61D-08  0.00D+00 EMaxC= 1.00D-01 BMatC= 2.33D-12 BMatP= 1.06D-11
 IDIUse=1 WtCom= 1.00D+00 WtEn= 0.00D+00
 Coeff-Com:  0.769D-06-0.244D-05-0.146D-04-0.503D-04-0.148D-04 0.419D-03
 Coeff-Com:  0.962D-03-0.239D-02-0.604D-02 0.655D-02 0.246D-01-0.572D-02
 Coeff-Com: -0.204D+00-0.406D-01 0.123D+01
 Coeff:      0.769D-06-0.244D-05-0.146D-04-0.503D-04-0.148D-04 0.419D-03
 Coeff:      0.962D-03-0.239D-02-0.604D-02 0.655D-02 0.246D-01-0.572D-02
 Coeff:     -0.204D+00-0.406D-01 0.123D+01
 Gap=     0.261 Goal=   None    Shift=    0.000
 RMSDP=5.18D-08 MaxDP=2.38D-06 DE=-8.00D-11 OVMax= 2.35D-06

 Cycle  16  Pass 1  IDiag  1:
 RMSU=  2.28D-08    CP:  5.23D-01  9.55D-01  9.06D-01  1.07D+00  1.15D+00
                    CP:  1.30D+00  1.48D+00  1.67D+00  1.63D+00  1.87D+00
                    CP:  1.46D+00  1.32D+00  1.39D+00  1.43D+00  1.50D+00
 E= -1543.11850294639     Delta-E=        0.000000000051 Rises=F Damp=F
 DIIS: error= 2.36D-08 at cycle  16 NSaved=  16.
 NSaved=16 IEnMin=15 EnMin= -1543.11850294645     IErMin=16 ErrMin= 2.36D-08
 ErrMax= 2.36D-08  0.00D+00 EMaxC= 1.00D-01 BMatC= 4.15D-13 BMatP= 2.33D-12
 IDIUse=1 WtCom= 1.00D+00 WtEn= 0.00D+00
 Coeff-Com: -0.212D-06 0.141D-05 0.748D-05 0.108D-04-0.260D-04-0.186D-03
 Coeff-Com:  0.439D-04 0.132D-02-0.376D-03-0.596D-02 0.385D-02 0.301D-01
 Coeff-Com:  0.158D-01-0.253D+00 0.886D-03 0.121D+01
 Coeff:     -0.212D-06 0.141D-05 0.748D-05 0.108D-04-0.260D-04-0.186D-03
 Coeff:      0.439D-04 0.132D-02-0.376D-03-0.596D-02 0.385D-02 0.301D-01
 Coeff:      0.158D-01-0.253D+00 0.886D-03 0.121D+01
 Gap=     0.261 Goal=   None    Shift=    0.000
 RMSDP=2.51D-08 MaxDP=1.10D-06 DE= 5.09D-11 OVMax= 1.12D-06

 Cycle  17  Pass 1  IDiag  1:
 RMSU=  1.08D-08    CP:  5.23D-01  9.55D-01  9.06D-01  1.07D+00  1.15D+00
                    CP:  1.30D+00  1.48D+00  1.67D+00  1.62D+00  1.87D+00
                    CP:  1.46D+00  1.32D+00  1.40D+00  1.44D+00  1.74D+00
                    CP:  1.47D+00
 E= -1543.11850294643     Delta-E=       -0.000000000034 Rises=F Damp=F
 DIIS: error= 5.80D-09 at cycle  17 NSaved=  17.
 NSaved=17 IEnMin=15 EnMin= -1543.11850294645     IErMin=17 ErrMin= 5.80D-09
 ErrMax= 5.80D-09  0.00D+00 EMaxC= 1.00D-01 BMatC= 6.58D-14 BMatP= 4.15D-13
 IDIUse=1 WtCom= 1.00D+00 WtEn= 0.00D+00
 Coeff-Com: -0.159D-06 0.662D-06 0.387D-05 0.101D-04-0.180D-05-0.110D-03
 Coeff-Com: -0.145D-03 0.652D-03 0.938D-03-0.237D-02-0.330D-02 0.683D-02
 Coeff-Com:  0.363D-01-0.413D-01-0.206D+00 0.232D+00 0.977D+00
 Coeff:     -0.159D-06 0.662D-06 0.387D-05 0.101D-04-0.180D-05-0.110D-03
 Coeff:     -0.145D-03 0.652D-03 0.938D-03-0.237D-02-0.330D-02 0.683D-02
 Coeff:      0.363D-01-0.413D-01-0.206D+00 0.232D+00 0.977D+00
 Gap=     0.261 Goal=   None    Shift=    0.000
 RMSDP=7.39D-09 MaxDP=2.74D-07 DE=-3.41D-11 OVMax= 3.32D-07

 SCF Done:  E(RHF) =  -1543.11850295     A.U. after   17 cycles
            NFock= 17  Conv=0.74D-08     -V/T= 2.0005
 KE= 1.542365119854D+03 PE=-6.915771842525D+03 EE= 2.182802093239D+03
 Leave Link  502 at Sun Jul 18 15:17:01 2021, MaxMem=   262144000 cpu:            3965.0 elap:             994.1
 (Enter /prod/apps/gaussian/g16b1/l801.exe)
 ExpMin= 2.97D-02 ExpMax= 1.28D+05 ExpMxC= 1.24D+03 IAcc=3 IRadAn=         5 AccDes= 0.00D+00
 HarFok:  IExCor=  205 AccDes= 0.00D+00 IRadAn=         5 IDoV=-2 UseB2=F ITyADJ=14
 ICtDFT= 12500011 ScaDFX=  1.000000  1.000000  1.000000  1.000000
 GSVD:  LWork=        -945 too small for GESVD, short by        4050 words or        4050 for optimal perf.
 Largest valence mixing into a core orbital is  3.28D-04
 Largest core mixing into a valence orbital is  7.01D-05
 Range of M.O.s used for correlation:    28   588
 NBasis=   589 NAE=    76 NBE=    76 NFC=    27 NFV=     0
 NROrb=    561 NOA=    49 NOB=    49 NVA=   512 NVB=   512

 **** Warning!!: The largest alpha MO coefficient is  0.88678537D+02

 Leave Link  801 at Sun Jul 18 15:17:01 2021, MaxMem=   262144000 cpu:               1.3 elap:               0.4
 (Enter /prod/apps/gaussian/g16b1/l906.exe)
 FulOut=F Deriv=F AODrv=F NAtomX=    35
   MMem=           3  MDisk=          49 MDiskD=          49
  W3Min=    15730176 MinDsk=    16236966 NBas6D=         627
 NBas2D=      197721    NTT=      196878    LW2=     2000000
    MDV=   259641382 MDiskM=        5707 NBas2p=      182511
 Disk-based method using OVN memory for 49 occupieds at a time.
 Estimated scratch disk usage= 13995212288 words.
 IMap=   1   2   3   4   5   6   7   8   9  10  11  12  13  14  15  16  17  18  19  20
 IMap=  21  22  23  24  25  26  27  28  29  30  31  32  33  34  35  36  37  38  39  40
 IMap=  41  42  43  44  45  46  47  48  49
 Actual    scratch disk usage= 13772429312 words.
 JobTyp=1 Pass  1:  I=   1 to  49 NPSUse=  4 ParTrn=T ParDer=T DoDerP=F.
Erroneous write. Write -1 instead of 1822832.
fd = 4
orig len = 8384512 left = 1822832
g_write
