 Entering Gaussian System, Link 0=g16
 Initial command:
 /prod/apps/gaussian/g16b1/l1.exe "/tmp/ubator02/1839495/Gau-221375.inp" -scrdir="/tmp/ubator02/1839495/"
 Entering Link 1 = /prod/apps/gaussian/g16b1/l1.exe PID=    221376.
  
 Copyright (c) 1988-2017, Gaussian, Inc.  All Rights Reserved.
  
 This is part of the Gaussian(R) 16 program.  It is based on
 the Gaussian(R) 09 system (copyright 2009, Gaussian, Inc.),
 the Gaussian(R) 03 system (copyright 2003, Gaussian, Inc.),
 the Gaussian(R) 98 system (copyright 1998, Gaussian, Inc.),
 the Gaussian(R) 94 system (copyright 1995, Gaussian, Inc.),
 the Gaussian 92(TM) system (copyright 1992, Gaussian, Inc.),
 the Gaussian 90(TM) system (copyright 1990, Gaussian, Inc.),
 the Gaussian 88(TM) system (copyright 1988, Gaussian, Inc.),
 the Gaussian 86(TM) system (copyright 1986, Carnegie Mellon
 University), and the Gaussian 82(TM) system (copyright 1983,
 Carnegie Mellon University). Gaussian is a federally registered
 trademark of Gaussian, Inc.
  
 This software contains proprietary and confidential information,
 including trade secrets, belonging to Gaussian, Inc.
  
 This software is provided under written license and may be
 used, copied, transmitted, or stored only in accord with that
 written license.
  
 The following legend is applicable only to US Government
 contracts under FAR:
  
                    RESTRICTED RIGHTS LEGEND
  
 Use, reproduction and disclosure by the US Government is
 subject to restrictions as set forth in subparagraphs (a)
 and (c) of the Commercial Computer Software - Restricted
 Rights clause in FAR 52.227-19.
  
 Gaussian, Inc.
 340 Quinnipiac St., Bldg. 40, Wallingford CT 06492
  
  
 ---------------------------------------------------------------
 Warning -- This program may not be used in any manner that
 competes with the business of Gaussian, Inc. or will provide
 assistance to any competitor of Gaussian, Inc.  The licensee
 of this program is prohibited from giving any competitor of
 Gaussian, Inc. access to this program.  By using this program,
 the user acknowledges that Gaussian, Inc. is engaged in the
 business of creating and licensing software in the field of
 computational chemistry and represents and warrants to the
 licensee that it is not a competitor of Gaussian, Inc. and that
 it will not use this program in any manner prohibited above.
 ---------------------------------------------------------------
  

 Cite this work as:
 Gaussian 16, Revision B.01,
 M. J. Frisch, G. W. Trucks, H. B. Schlegel, G. E. Scuseria, 
 M. A. Robb, J. R. Cheeseman, G. Scalmani, V. Barone, 
 G. A. Petersson, H. Nakatsuji, X. Li, M. Caricato, A. V. Marenich, 
 J. Bloino, B. G. Janesko, R. Gomperts, B. Mennucci, H. P. Hratchian, 
 J. V. Ortiz, A. F. Izmaylov, J. L. Sonnenberg, D. Williams-Young, 
 F. Ding, F. Lipparini, F. Egidi, J. Goings, B. Peng, A. Petrone, 
 T. Henderson, D. Ranasinghe, V. G. Zakrzewski, J. Gao, N. Rega, 
 G. Zheng, W. Liang, M. Hada, M. Ehara, K. Toyota, R. Fukuda, 
 J. Hasegawa, M. Ishida, T. Nakajima, Y. Honda, O. Kitao, H. Nakai, 
 T. Vreven, K. Throssell, J. A. Montgomery, Jr., J. E. Peralta, 
 F. Ogliaro, M. J. Bearpark, J. J. Heyd, E. N. Brothers, K. N. Kudin, 
 V. N. Staroverov, T. A. Keith, R. Kobayashi, J. Normand, 
 K. Raghavachari, A. P. Rendell, J. C. Burant, S. S. Iyengar, 
 J. Tomasi, M. Cossi, J. M. Millam, M. Klene, C. Adamo, R. Cammi, 
 J. W. Ochterski, R. L. Martin, K. Morokuma, O. Farkas, 
 J. B. Foresman, and D. J. Fox, Gaussian, Inc., Wallingford CT, 2016.
 
 ******************************************
 Gaussian 16:  ES64L-G16RevB.01 20-Dec-2017
                18-Jul-2021 
 ******************************************
 %mem=800MB
 %nproc=4
 Will use up to    4 processors via shared memory.
 %chk=SET_328_BBB20_conf1.geo_135_300_300.chk
 -----------------------------------------------------------
 #p b3lyp/6-31G(d) opt freq scrf=(iefpcm,read,solvent=water)
 -----------------------------------------------------------
 1/18=20,19=15,26=3,38=1,40=2/1,3;
 2/9=110,12=2,17=6,18=5,40=1/2;
 3/5=1,6=6,7=1,11=2,25=1,30=1,70=2203,71=1,72=1,74=-5/1,2,3;
 4//1;
 5/5=2,38=5,53=1/2;
 6/7=2,8=2,9=2,10=2,28=1/1;
 7//1,2,3,16;
 1/18=20,19=15,26=3/3(2);
 2/9=110/2;
 99//99;
 2/9=110/2;
 3/5=1,6=6,7=1,11=2,25=1,30=1,70=2205,71=1,72=1,74=-5/1,2,3;
 4/5=5,16=3,69=1/1;
 5/5=2,38=5,53=1/2;
 7//1,2,3,16;
 1/18=20,19=15,26=3/3(-5);
 2/9=110/2;
 6/7=2,8=2,9=2,10=2,19=2,28=1/1;
 99/9=1/99;
 Leave Link    1 at Sun Jul 18 13:28:52 2021, MaxMem=   104857600 cpu:               0.1 elap:               0.0
 (Enter /prod/apps/gaussian/g16b1/l101.exe)
 --------------------------------------------
 SET_328_BBB20_conf1.geo_135_300_300 geometry
 --------------------------------------------
 Symbolic Z-matrix:
 Charge =  1 Multiplicity = 1
 N                     1.536    -2.678    -1.996 
 H                     2.051    -1.933    -1.571 
 H                     1.863    -2.819    -2.931 
 C                     0.066    -2.322    -2.024 
 H                    -0.164    -2.374    -0.957 
 H                    -0.394    -3.094    -2.646 
 C                    -0.209    -0.971    -2.623 
 H                    -1.295    -0.902    -2.539 
 H                     0.127    -0.945    -3.662 
 C                     0.494     0.227    -1.855 
 H                     0.28      1.139    -2.418 
 H                     1.581     0.137    -1.916 
 N                     0.083     0.417    -0.415 
 C                     1.146     0.638     0.424 
 C                     2.182     1.473    -0.024 
 H                     2.119     2.09     -0.918 
 C                     3.292     1.585     0.737 
 H                     4.097     2.197     0.338 
 C                     3.394     0.836     1.945 
 H                     4.321     0.915     2.506 
 C                     2.397     0.034     2.377 
 H                     2.61     -0.583     3.246 
 C                     1.218    -0.108     1.608 
 C                     0.221    -1.065     2.019 
 H                     0.635    -1.56      2.901 
 H                     0.075    -1.825     1.249 
 C                    -1.056    -0.276     2.377 
 H                    -0.886     0.432     3.191 
 H                    -1.756    -0.951     2.874 
 C                    -1.859     0.306     1.131 
 C                    -3.139     0.674     1.409 
 H                    -3.539     0.683     2.42 
 C                    -3.947     1.271     0.464 
 H                    -4.932     1.659     0.708 
 C                    -3.439     1.522    -0.795 
 H                    -4.08      2.11     -1.447 
 C                    -2.085     1.368    -1.003 
 H                    -1.588     1.762    -1.886 
 C                    -1.274     0.644    -0.126 
 H                     1.666    -3.517    -1.467 
 
 ITRead=  0  0  0  0  0  0  0  0  0  0  0  0  0  0  0  0  0  0  0  0
 ITRead=  0  0  0  0  0  0  0  0  0  0  0  0  0  0  0  0  0  0  0  0
 MicOpt= -1 -1 -1 -1 -1 -1 -1 -1 -1 -1 -1 -1 -1 -1 -1 -1 -1 -1 -1 -1
 MicOpt= -1 -1 -1 -1 -1 -1 -1 -1 -1 -1 -1 -1 -1 -1 -1 -1 -1 -1 -1 -1
 NAtoms=     40 NQM=       40 NQMF=       0 NMMI=      0 NMMIF=      0
                NMic=       0 NMicF=      0.
                    Isotopes and Nuclear Properties:
 (Nuclear quadrupole moments (NQMom) in fm**2, nuclear magnetic moments (NMagM)
  in nuclear magnetons)

  Atom         1           2           3           4           5           6           7           8           9          10
 IAtWgt=          14           1           1          12           1           1          12           1           1          12
 AtmWgt=  14.0030740   1.0078250   1.0078250  12.0000000   1.0078250   1.0078250  12.0000000   1.0078250   1.0078250  12.0000000
 NucSpn=           2           1           1           0           1           1           0           1           1           0
 AtZEff=  -0.0000000  -0.0000000  -0.0000000  -0.0000000  -0.0000000  -0.0000000  -0.0000000  -0.0000000  -0.0000000  -0.0000000
 NQMom=    2.0440000   0.0000000   0.0000000   0.0000000   0.0000000   0.0000000   0.0000000   0.0000000   0.0000000   0.0000000
 NMagM=    0.4037610   2.7928460   2.7928460   0.0000000   2.7928460   2.7928460   0.0000000   2.7928460   2.7928460   0.0000000
 AtZNuc=   7.0000000   1.0000000   1.0000000   6.0000000   1.0000000   1.0000000   6.0000000   1.0000000   1.0000000   6.0000000

  Atom        11          12          13          14          15          16          17          18          19          20
 IAtWgt=           1           1          14          12          12           1          12           1          12           1
 AtmWgt=   1.0078250   1.0078250  14.0030740  12.0000000  12.0000000   1.0078250  12.0000000   1.0078250  12.0000000   1.0078250
 NucSpn=           1           1           2           0           0           1           0           1           0           1
 AtZEff=  -0.0000000  -0.0000000  -0.0000000  -0.0000000  -0.0000000  -0.0000000  -0.0000000  -0.0000000  -0.0000000  -0.0000000
 NQMom=    0.0000000   0.0000000   2.0440000   0.0000000   0.0000000   0.0000000   0.0000000   0.0000000   0.0000000   0.0000000
 NMagM=    2.7928460   2.7928460   0.4037610   0.0000000   0.0000000   2.7928460   0.0000000   2.7928460   0.0000000   2.7928460
 AtZNuc=   1.0000000   1.0000000   7.0000000   6.0000000   6.0000000   1.0000000   6.0000000   1.0000000   6.0000000   1.0000000

  Atom        21          22          23          24          25          26          27          28          29          30
 IAtWgt=          12           1          12          12           1           1          12           1           1          12
 AtmWgt=  12.0000000   1.0078250  12.0000000  12.0000000   1.0078250   1.0078250  12.0000000   1.0078250   1.0078250  12.0000000
 NucSpn=           0           1           0           0           1           1           0           1           1           0
 AtZEff=  -0.0000000  -0.0000000  -0.0000000  -0.0000000  -0.0000000  -0.0000000  -0.0000000  -0.0000000  -0.0000000  -0.0000000
 NQMom=    0.0000000   0.0000000   0.0000000   0.0000000   0.0000000   0.0000000   0.0000000   0.0000000   0.0000000   0.0000000
 NMagM=    0.0000000   2.7928460   0.0000000   0.0000000   2.7928460   2.7928460   0.0000000   2.7928460   2.7928460   0.0000000
 AtZNuc=   6.0000000   1.0000000   6.0000000   6.0000000   1.0000000   1.0000000   6.0000000   1.0000000   1.0000000   6.0000000

  Atom        31          32          33          34          35          36          37          38          39          40
 IAtWgt=          12           1          12           1          12           1          12           1          12           1
 AtmWgt=  12.0000000   1.0078250  12.0000000   1.0078250  12.0000000   1.0078250  12.0000000   1.0078250  12.0000000   1.0078250
 NucSpn=           0           1           0           1           0           1           0           1           0           1
 AtZEff=  -0.0000000  -0.0000000  -0.0000000  -0.0000000  -0.0000000  -0.0000000  -0.0000000  -0.0000000  -0.0000000  -0.0000000
 NQMom=    0.0000000   0.0000000   0.0000000   0.0000000   0.0000000   0.0000000   0.0000000   0.0000000   0.0000000   0.0000000
 NMagM=    0.0000000   2.7928460   0.0000000   2.7928460   0.0000000   2.7928460   0.0000000   2.7928460   0.0000000   2.7928460
 AtZNuc=   6.0000000   1.0000000   6.0000000   1.0000000   6.0000000   1.0000000   6.0000000   1.0000000   6.0000000   1.0000000
 Leave Link  101 at Sun Jul 18 13:28:52 2021, MaxMem=   104857600 cpu:               0.5 elap:               0.1
 (Enter /prod/apps/gaussian/g16b1/l103.exe)

 GradGradGradGradGradGradGradGradGradGradGradGradGradGradGradGradGradGrad
 Berny optimization.
 Initialization pass.
                           ----------------------------
                           !    Initial Parameters    !
                           ! (Angstroms and Degrees)  !
 --------------------------                            --------------------------
 ! Name  Definition              Value          Derivative Info.                !
 --------------------------------------------------------------------------------
 ! R1    R(1,2)                  1.0004         estimate D2E/DX2                !
 ! R2    R(1,3)                  1.0005         estimate D2E/DX2                !
 ! R3    R(1,4)                  1.5128         estimate D2E/DX2                !
 ! R4    R(1,40)                 1.0003         estimate D2E/DX2                !
 ! R5    R(4,5)                  1.0927         estimate D2E/DX2                !
 ! R6    R(4,6)                  1.0929         estimate D2E/DX2                !
 ! R7    R(4,7)                  1.5032         estimate D2E/DX2                !
 ! R8    R(7,8)                  1.0914         estimate D2E/DX2                !
 ! R9    R(7,9)                  1.0923         estimate D2E/DX2                !
 ! R10   R(7,10)                 1.5872         estimate D2E/DX2                !
 ! R11   R(10,11)                1.0929         estimate D2E/DX2                !
 ! R12   R(10,12)                1.0924         estimate D2E/DX2                !
 ! R13   R(10,13)                1.5095         estimate D2E/DX2                !
 ! R14   R(13,14)                1.3721         estimate D2E/DX2                !
 ! R15   R(13,39)                1.4059         estimate D2E/DX2                !
 ! R16   R(14,15)                1.404          estimate D2E/DX2                !
 ! R17   R(14,23)                1.4013         estimate D2E/DX2                !
 ! R18   R(15,16)                1.0881         estimate D2E/DX2                !
 ! R19   R(15,17)                1.3505         estimate D2E/DX2                !
 ! R20   R(17,18)                1.0871         estimate D2E/DX2                !
 ! R21   R(17,19)                1.425          estimate D2E/DX2                !
 ! R22   R(19,20)                1.0864         estimate D2E/DX2                !
 ! R23   R(19,21)                1.3505         estimate D2E/DX2                !
 ! R24   R(21,22)                1.0868         estimate D2E/DX2                !
 ! R25   R(21,23)                1.4148         estimate D2E/DX2                !
 ! R26   R(23,24)                1.4418         estimate D2E/DX2                !
 ! R27   R(24,25)                1.0929         estimate D2E/DX2                !
 ! R28   R(24,26)                1.0917         estimate D2E/DX2                !
 ! R29   R(24,27)                1.5432         estimate D2E/DX2                !
 ! R30   R(27,28)                1.0921         estimate D2E/DX2                !
 ! R31   R(27,29)                1.0921         estimate D2E/DX2                !
 ! R32   R(27,30)                1.5925         estimate D2E/DX2                !
 ! R33   R(30,31)                1.3606         estimate D2E/DX2                !
 ! R34   R(30,39)                1.4271         estimate D2E/DX2                !
 ! R35   R(31,32)                1.0873         estimate D2E/DX2                !
 ! R36   R(31,33)                1.3792         estimate D2E/DX2                !
 ! R37   R(33,34)                1.0864         estimate D2E/DX2                !
 ! R38   R(33,35)                1.3806         estimate D2E/DX2                !
 ! R39   R(35,36)                1.0871         estimate D2E/DX2                !
 ! R40   R(35,37)                1.3785         estimate D2E/DX2                !
 ! R41   R(37,38)                1.0872         estimate D2E/DX2                !
 ! R42   R(37,39)                1.3968         estimate D2E/DX2                !
 ! A1    A(2,1,3)              109.4933         estimate D2E/DX2                !
 ! A2    A(2,1,4)              109.4415         estimate D2E/DX2                !
 ! A3    A(2,1,40)             109.4524         estimate D2E/DX2                !
 ! A4    A(3,1,4)              109.479          estimate D2E/DX2                !
 ! A5    A(3,1,40)             109.4827         estimate D2E/DX2                !
 ! A6    A(4,1,40)             109.4784         estimate D2E/DX2                !
 ! A7    A(1,4,5)              100.0937         estimate D2E/DX2                !
 ! A8    A(1,4,6)              104.6729         estimate D2E/DX2                !
 ! A9    A(1,4,7)              113.369          estimate D2E/DX2                !
 ! A10   A(5,4,6)              115.6904         estimate D2E/DX2                !
 ! A11   A(5,4,7)              113.1635         estimate D2E/DX2                !
 ! A12   A(6,4,7)              109.3332         estimate D2E/DX2                !
 ! A13   A(4,7,8)              102.0159         estimate D2E/DX2                !
 ! A14   A(4,7,9)              110.1305         estimate D2E/DX2                !
 ! A15   A(4,7,10)             113.8609         estimate D2E/DX2                !
 ! A16   A(8,7,9)              112.1966         estimate D2E/DX2                !
 ! A17   A(8,7,10)             110.8398         estimate D2E/DX2                !
 ! A18   A(9,7,10)             107.8213         estimate D2E/DX2                !
 ! A19   A(7,10,11)            107.0887         estimate D2E/DX2                !
 ! A20   A(7,10,12)            110.58           estimate D2E/DX2                !
 ! A21   A(7,10,13)            115.8487         estimate D2E/DX2                !
 ! A22   A(11,10,12)           103.5806         estimate D2E/DX2                !
 ! A23   A(11,10,13)           109.4548         estimate D2E/DX2                !
 ! A24   A(12,10,13)           109.5458         estimate D2E/DX2                !
 ! A25   A(10,13,14)           113.119          estimate D2E/DX2                !
 ! A26   A(10,13,39)           118.6351         estimate D2E/DX2                !
 ! A27   A(14,13,39)           126.5892         estimate D2E/DX2                !
 ! A28   A(13,14,15)           118.1857         estimate D2E/DX2                !
 ! A29   A(13,14,23)           118.0805         estimate D2E/DX2                !
 ! A30   A(15,14,23)           123.2516         estimate D2E/DX2                !
 ! A31   A(14,15,16)           123.8277         estimate D2E/DX2                !
 ! A32   A(14,15,17)           118.4254         estimate D2E/DX2                !
 ! A33   A(16,15,17)           117.6172         estimate D2E/DX2                !
 ! A34   A(15,17,18)           116.6483         estimate D2E/DX2                !
 ! A35   A(15,17,19)           119.5336         estimate D2E/DX2                !
 ! A36   A(18,17,19)           123.6443         estimate D2E/DX2                !
 ! A37   A(17,19,20)           117.4255         estimate D2E/DX2                !
 ! A38   A(17,19,21)           122.0366         estimate D2E/DX2                !
 ! A39   A(20,19,21)           120.5257         estimate D2E/DX2                !
 ! A40   A(19,21,22)           116.6294         estimate D2E/DX2                !
 ! A41   A(19,21,23)           120.0631         estimate D2E/DX2                !
 ! A42   A(22,21,23)           122.7482         estimate D2E/DX2                !
 ! A43   A(14,23,21)           116.6576         estimate D2E/DX2                !
 ! A44   A(14,23,24)           123.9658         estimate D2E/DX2                !
 ! A45   A(21,23,24)           119.2051         estimate D2E/DX2                !
 ! A46   A(23,24,25)           105.5897         estimate D2E/DX2                !
 ! A47   A(23,24,26)           110.7015         estimate D2E/DX2                !
 ! A48   A(23,24,27)           107.3968         estimate D2E/DX2                !
 ! A49   A(25,24,26)           107.7327         estimate D2E/DX2                !
 ! A50   A(25,24,27)           110.9671         estimate D2E/DX2                !
 ! A51   A(26,24,27)           114.1352         estimate D2E/DX2                !
 ! A52   A(24,27,28)           112.0581         estimate D2E/DX2                !
 ! A53   A(24,27,29)           108.6616         estimate D2E/DX2                !
 ! A54   A(24,27,30)           114.9992         estimate D2E/DX2                !
 ! A55   A(28,27,29)            99.2804         estimate D2E/DX2                !
 ! A56   A(28,27,30)           115.1335         estimate D2E/DX2                !
 ! A57   A(29,27,30)           104.9963         estimate D2E/DX2                !
 ! A58   A(27,30,31)           114.4164         estimate D2E/DX2                !
 ! A59   A(27,30,39)           124.6828         estimate D2E/DX2                !
 ! A60   A(31,30,39)           120.1044         estimate D2E/DX2                !
 ! A61   A(30,31,32)           122.5704         estimate D2E/DX2                !
 ! A62   A(30,31,33)           121.8855         estimate D2E/DX2                !
 ! A63   A(32,31,33)           114.7073         estimate D2E/DX2                !
 ! A64   A(31,33,34)           122.1304         estimate D2E/DX2                !
 ! A65   A(31,33,35)           119.205          estimate D2E/DX2                !
 ! A66   A(34,33,35)           118.2602         estimate D2E/DX2                !
 ! A67   A(33,35,36)           115.3603         estimate D2E/DX2                !
 ! A68   A(33,35,37)           118.5998         estimate D2E/DX2                !
 ! A69   A(36,35,37)           123.3053         estimate D2E/DX2                !
 ! A70   A(35,37,38)           122.0789         estimate D2E/DX2                !
 ! A71   A(35,37,39)           122.2395         estimate D2E/DX2                !
 ! A72   A(38,37,39)           115.6183         estimate D2E/DX2                !
 ! A73   A(13,39,30)           122.5819         estimate D2E/DX2                !
 ! A74   A(13,39,37)           121.001          estimate D2E/DX2                !
 ! A75   A(30,39,37)           115.9634         estimate D2E/DX2                !
 ! D1    D(2,1,4,5)            -69.2213         estimate D2E/DX2                !
 ! D2    D(2,1,4,6)            170.661          estimate D2E/DX2                !
 ! D3    D(2,1,4,7)             51.5866         estimate D2E/DX2                !
 ! D4    D(3,1,4,5)            170.7651         estimate D2E/DX2                !
 ! D5    D(3,1,4,6)             50.6474         estimate D2E/DX2                !
 ! D6    D(3,1,4,7)            -68.4269         estimate D2E/DX2                !
 ! D7    D(40,1,4,5)            50.7418         estimate D2E/DX2                !
 ! D8    D(40,1,4,6)           -69.3759         estimate D2E/DX2                !
 ! D9    D(40,1,4,7)           171.5498         estimate D2E/DX2                !
 ! D10   D(1,4,7,8)           -179.2718         estimate D2E/DX2                !
 ! D11   D(1,4,7,9)             61.4272         estimate D2E/DX2                !
 ! D12   D(1,4,7,10)           -59.8086         estimate D2E/DX2                !
 ! D13   D(5,4,7,8)            -66.1597         estimate D2E/DX2                !
 ! D14   D(5,4,7,9)            174.5393         estimate D2E/DX2                !
 ! D15   D(5,4,7,10)            53.3035         estimate D2E/DX2                !
 ! D16   D(6,4,7,8)             64.3673         estimate D2E/DX2                !
 ! D17   D(6,4,7,9)            -54.9338         estimate D2E/DX2                !
 ! D18   D(6,4,7,10)          -176.1695         estimate D2E/DX2                !
 ! D19   D(4,7,10,11)          176.1474         estimate D2E/DX2                !
 ! D20   D(4,7,10,12)           63.9477         estimate D2E/DX2                !
 ! D21   D(4,7,10,13)          -61.4326         estimate D2E/DX2                !
 ! D22   D(8,7,10,11)          -69.5253         estimate D2E/DX2                !
 ! D23   D(8,7,10,12)          178.275          estimate D2E/DX2                !
 ! D24   D(8,7,10,13)           52.8947         estimate D2E/DX2                !
 ! D25   D(9,7,10,11)           53.6346         estimate D2E/DX2                !
 ! D26   D(9,7,10,12)          -58.5651         estimate D2E/DX2                !
 ! D27   D(9,7,10,13)          176.0546         estimate D2E/DX2                !
 ! D28   D(7,10,13,14)         135.4048         estimate D2E/DX2                !
 ! D29   D(7,10,13,39)         -58.2946         estimate D2E/DX2                !
 ! D30   D(11,10,13,14)       -103.4358         estimate D2E/DX2                !
 ! D31   D(11,10,13,39)         62.8648         estimate D2E/DX2                !
 ! D32   D(12,10,13,14)          9.4977         estimate D2E/DX2                !
 ! D33   D(12,10,13,39)        175.7983         estimate D2E/DX2                !
 ! D34   D(10,13,14,15)         40.5555         estimate D2E/DX2                !
 ! D35   D(10,13,14,23)       -131.7407         estimate D2E/DX2                !
 ! D36   D(39,13,14,15)       -124.4411         estimate D2E/DX2                !
 ! D37   D(39,13,14,23)         63.2628         estimate D2E/DX2                !
 ! D38   D(10,13,39,30)        153.8746         estimate D2E/DX2                !
 ! D39   D(10,13,39,37)        -34.169          estimate D2E/DX2                !
 ! D40   D(14,13,39,30)        -41.865          estimate D2E/DX2                !
 ! D41   D(14,13,39,37)        130.0914         estimate D2E/DX2                !
 ! D42   D(13,14,15,16)         10.9549         estimate D2E/DX2                !
 ! D43   D(13,14,15,17)       -173.2909         estimate D2E/DX2                !
 ! D44   D(23,14,15,16)       -177.1756         estimate D2E/DX2                !
 ! D45   D(23,14,15,17)         -1.4214         estimate D2E/DX2                !
 ! D46   D(13,14,23,21)        173.1926         estimate D2E/DX2                !
 ! D47   D(13,14,23,24)         -1.9972         estimate D2E/DX2                !
 ! D48   D(15,14,23,21)          1.3151         estimate D2E/DX2                !
 ! D49   D(15,14,23,24)       -173.8747         estimate D2E/DX2                !
 ! D50   D(14,15,17,18)        176.8651         estimate D2E/DX2                !
 ! D51   D(14,15,17,19)          1.4811         estimate D2E/DX2                !
 ! D52   D(16,15,17,18)         -7.115          estimate D2E/DX2                !
 ! D53   D(16,15,17,19)        177.5009         estimate D2E/DX2                !
 ! D54   D(15,17,19,20)        177.118          estimate D2E/DX2                !
 ! D55   D(15,17,19,21)         -1.6182         estimate D2E/DX2                !
 ! D56   D(18,17,19,20)          2.0745         estimate D2E/DX2                !
 ! D57   D(18,17,19,21)       -176.6617         estimate D2E/DX2                !
 ! D58   D(17,19,21,22)        173.1985         estimate D2E/DX2                !
 ! D59   D(17,19,21,23)          1.5402         estimate D2E/DX2                !
 ! D60   D(20,19,21,22)         -5.4992         estimate D2E/DX2                !
 ! D61   D(20,19,21,23)       -177.1575         estimate D2E/DX2                !
 ! D62   D(19,21,23,14)         -1.3508         estimate D2E/DX2                !
 ! D63   D(19,21,23,24)        174.0793         estimate D2E/DX2                !
 ! D64   D(22,21,23,14)       -172.4806         estimate D2E/DX2                !
 ! D65   D(22,21,23,24)          2.9495         estimate D2E/DX2                !
 ! D66   D(14,23,24,25)        172.6922         estimate D2E/DX2                !
 ! D67   D(14,23,24,26)         56.3665         estimate D2E/DX2                !
 ! D68   D(14,23,24,27)        -68.8361         estimate D2E/DX2                !
 ! D69   D(21,23,24,25)         -2.3826         estimate D2E/DX2                !
 ! D70   D(21,23,24,26)       -118.7082         estimate D2E/DX2                !
 ! D71   D(21,23,24,27)        116.0892         estimate D2E/DX2                !
 ! D72   D(23,24,27,28)        -60.3326         estimate D2E/DX2                !
 ! D73   D(23,24,27,29)       -169.0265         estimate D2E/DX2                !
 ! D74   D(23,24,27,30)         73.6619         estimate D2E/DX2                !
 ! D75   D(25,24,27,28)         54.6071         estimate D2E/DX2                !
 ! D76   D(25,24,27,29)        -54.0868         estimate D2E/DX2                !
 ! D77   D(25,24,27,30)       -171.3984         estimate D2E/DX2                !
 ! D78   D(26,24,27,28)        176.5528         estimate D2E/DX2                !
 ! D79   D(26,24,27,29)         67.859          estimate D2E/DX2                !
 ! D80   D(26,24,27,30)        -49.4527         estimate D2E/DX2                !
 ! D81   D(24,27,30,31)        163.0761         estimate D2E/DX2                !
 ! D82   D(24,27,30,39)        -27.1858         estimate D2E/DX2                !
 ! D83   D(28,27,30,31)        -64.3562         estimate D2E/DX2                !
 ! D84   D(28,27,30,39)        105.382          estimate D2E/DX2                !
 ! D85   D(29,27,30,31)         43.7084         estimate D2E/DX2                !
 ! D86   D(29,27,30,39)       -146.5535         estimate D2E/DX2                !
 ! D87   D(27,30,31,32)          7.0742         estimate D2E/DX2                !
 ! D88   D(27,30,31,33)        176.0427         estimate D2E/DX2                !
 ! D89   D(39,30,31,32)       -163.1767         estimate D2E/DX2                !
 ! D90   D(39,30,31,33)          5.7918         estimate D2E/DX2                !
 ! D91   D(27,30,39,13)          3.8897         estimate D2E/DX2                !
 ! D92   D(27,30,39,37)       -168.444          estimate D2E/DX2                !
 ! D93   D(31,30,39,13)        173.0824         estimate D2E/DX2                !
 ! D94   D(31,30,39,37)          0.7487         estimate D2E/DX2                !
 ! D95   D(30,31,33,34)       -173.5624         estimate D2E/DX2                !
 ! D96   D(30,31,33,35)         -0.9919         estimate D2E/DX2                !
 ! D97   D(32,31,33,34)         -3.7869         estimate D2E/DX2                !
 ! D98   D(32,31,33,35)        168.7836         estimate D2E/DX2                !
 ! D99   D(31,33,35,36)       -172.231          estimate D2E/DX2                !
 ! D100  D(31,33,35,37)        -10.3284         estimate D2E/DX2                !
 ! D101  D(34,33,35,36)          0.6275         estimate D2E/DX2                !
 ! D102  D(34,33,35,37)        162.5302         estimate D2E/DX2                !
 ! D103  D(33,35,37,38)       -165.5866         estimate D2E/DX2                !
 ! D104  D(33,35,37,39)         17.433          estimate D2E/DX2                !
 ! D105  D(36,35,37,38)         -5.2115         estimate D2E/DX2                !
 ! D106  D(36,35,37,39)        177.8082         estimate D2E/DX2                !
 ! D107  D(35,37,39,13)        175.1062         estimate D2E/DX2                !
 ! D108  D(35,37,39,30)        -12.4294         estimate D2E/DX2                !
 ! D109  D(38,37,39,13)         -2.0565         estimate D2E/DX2                !
 ! D110  D(38,37,39,30)        170.408          estimate D2E/DX2                !
 --------------------------------------------------------------------------------
 Trust Radius=3.00D-01 FncErr=1.00D-07 GrdErr=1.00D-06 EigMax=2.50D+02 EigMin=1.00D-04
 Number of steps in this run=    237 maximum allowed number of steps=    240.
 GradGradGradGradGradGradGradGradGradGradGradGradGradGradGradGradGradGrad

 Leave Link  103 at Sun Jul 18 13:28:52 2021, MaxMem=   104857600 cpu:               0.1 elap:               0.0
 (Enter /prod/apps/gaussian/g16b1/l202.exe)
                          Input orientation:                          
 ---------------------------------------------------------------------
 Center     Atomic      Atomic             Coordinates (Angstroms)
 Number     Number       Type             X           Y           Z
 ---------------------------------------------------------------------
      1          7           0        1.536000   -2.678000   -1.996000
      2          1           0        2.051000   -1.933000   -1.571000
      3          1           0        1.863000   -2.819000   -2.931000
      4          6           0        0.066000   -2.322000   -2.024000
      5          1           0       -0.164000   -2.374000   -0.957000
      6          1           0       -0.394000   -3.094000   -2.646000
      7          6           0       -0.209000   -0.971000   -2.623000
      8          1           0       -1.295000   -0.902000   -2.539000
      9          1           0        0.127000   -0.945000   -3.662000
     10          6           0        0.494000    0.227000   -1.855000
     11          1           0        0.280000    1.139000   -2.418000
     12          1           0        1.581000    0.137000   -1.916000
     13          7           0        0.083000    0.417000   -0.415000
     14          6           0        1.146000    0.638000    0.424000
     15          6           0        2.182000    1.473000   -0.024000
     16          1           0        2.119000    2.090000   -0.918000
     17          6           0        3.292000    1.585000    0.737000
     18          1           0        4.097000    2.197000    0.338000
     19          6           0        3.394000    0.836000    1.945000
     20          1           0        4.321000    0.915000    2.506000
     21          6           0        2.397000    0.034000    2.377000
     22          1           0        2.610000   -0.583000    3.246000
     23          6           0        1.218000   -0.108000    1.608000
     24          6           0        0.221000   -1.065000    2.019000
     25          1           0        0.635000   -1.560000    2.901000
     26          1           0        0.075000   -1.825000    1.249000
     27          6           0       -1.056000   -0.276000    2.377000
     28          1           0       -0.886000    0.432000    3.191000
     29          1           0       -1.756000   -0.951000    2.874000
     30          6           0       -1.859000    0.306000    1.131000
     31          6           0       -3.139000    0.674000    1.409000
     32          1           0       -3.539000    0.683000    2.420000
     33          6           0       -3.947000    1.271000    0.464000
     34          1           0       -4.932000    1.659000    0.708000
     35          6           0       -3.439000    1.522000   -0.795000
     36          1           0       -4.080000    2.110000   -1.447000
     37          6           0       -2.085000    1.368000   -1.003000
     38          1           0       -1.588000    1.762000   -1.886000
     39          6           0       -1.274000    0.644000   -0.126000
     40          1           0        1.666000   -3.517000   -1.467000
 ---------------------------------------------------------------------
                    Distance matrix (angstroms):
                    1          2          3          4          5
     1  N    0.000000
     2  H    1.000437   0.000000
     3  H    1.000517   1.633995   0.000000
     4  C    1.512752   2.072862   2.073371   0.000000
     5  H    2.015425   2.340449   2.864163   1.092746   0.000000
     6  H    2.078571   2.912314   2.291484   1.092917   1.850411
     7  C    2.520318   2.672031   2.793412   1.503206   2.178529
     8  H    3.385792   3.632589   3.715039   2.033211   2.438989
     9  H    2.786418   3.008355   2.657053   2.140769   3.073068
    10  C    3.089445   2.677780   3.508569   2.590202   2.829235
    11  H    4.040434   3.645687   4.293579   3.489922   3.830512
    12  H    2.816496   2.150541   3.138102   2.890254   3.204657
    13  N    3.766934   3.275952   4.468820   3.176679   2.853849
    14  C    4.123634   3.377735   4.870417   3.990076   3.563061
    15  C    4.640787   3.743155   5.193619   4.783250   4.601480
    16  H    4.922987   4.076219   5.311872   4.990370   5.014071
    17  C    5.359664   4.386715   5.906901   5.770169   5.521526
    18  H    5.980962   4.988717   6.390413   6.499951   6.381786
    19  C    5.597485   4.672608   6.283181   6.066425   5.602238
    20  H    6.397959   5.466803   7.038856   7.007431   6.551726
    21  C    5.217221   4.424422   6.049763   5.509365   4.844867
    22  H    5.746396   5.033733   6.611583   6.104831   5.344901
    23  C    4.437887   3.759063   5.326168   4.406850   3.691057
    24  C    4.522302   4.121944   5.502289   4.236735   3.273879
    25  H    5.103169   4.705632   6.091411   5.015977   4.023079
    26  H    3.659529   3.445089   4.653749   3.310532   2.285817
    27  C    5.622384   5.290161   6.569800   4.981345   4.038914
    28  H    6.514841   6.074194   7.456868   5.973863   5.059726
    29  H    6.126720   5.934273   7.091164   5.402752   4.385881
    30  C    5.496218   5.253763   6.333937   4.534979   3.796731
    31  C    6.684725   6.527859   7.487099   5.570775   4.872257
    32  H    7.520173   7.349805   8.371309   6.463373   5.669215
    33  C    7.190931   7.098087   7.874657   5.933293   5.442091
    34  H    8.243556   8.176710   8.914417   6.949258   6.463059
    35  C    6.620651   6.532940   7.177603   5.345260   5.092218
    36  H    7.400392   7.345093   7.862350   6.096300   5.973392
    37  C    5.519765   5.322191   6.069173   4.391508   4.206533
    38  H    5.430016   5.195630   5.829836   4.408380   4.471836
    39  C    4.735893   4.447986   5.449877   3.767646   3.321293
    40  H    1.000331   1.633431   1.633802   2.073228   2.217081
                    6          7          8          9         10
     6  H    0.000000
     7  C    2.131169   0.000000
     8  H    2.372365   1.091427   0.000000
     9  H    2.433495   1.092288   1.812474   0.000000
    10  C    3.527501   1.587210   2.223290   2.184839   0.000000
    11  H    4.292383   2.175602   2.580881   2.431872   1.092936
    12  H    3.856538   2.220724   3.120741   2.516616   1.092424
    13  N    4.187124   2.624323   2.854824   3.521362   1.509510
    14  C    5.071915   3.702582   4.136357   4.498849   2.405798
    15  C    5.862435   4.294743   4.904628   4.827504   2.784676
    16  H    6.014566   4.206701   4.820280   4.550695   2.643740
    17  C    6.850133   5.484500   6.160999   5.980746   4.048633
    18  H    7.554338   6.111087   6.852342   6.452369   4.655294
    19  C    7.132400   6.092084   6.716667   6.729316   4.818805
    20  H    8.052727   7.098207   7.764855   7.687227   5.842739
    21  C    6.542522   5.727239   6.218844   6.525401   4.644188
    22  H    7.074235   6.522459   6.986917   7.349612   5.581555
    23  C    5.441623   4.547797   4.913574   5.446444   3.553698
    24  C    5.124187   4.662821   4.806266   5.683045   4.092880
    25  H    5.846470   5.619060   5.809601   6.611298   5.082596
    26  H    4.123269   3.975218   4.132526   4.989491   3.744473
    27  C    5.797404   5.118636   4.961457   6.190038   4.534902
    28  H    6.837054   6.019081   5.897435   7.062996   5.235317
    29  H    6.076010   5.710571   5.432816   6.801840   5.367832
    30  C    5.288852   4.294851   3.904646   5.336857   3.802505
    31  C    6.178663   5.248614   4.633661   6.245235   4.904304
    32  H    7.058407   6.265498   5.669166   7.285648   5.894799
    33  C    6.430329   5.341234   4.557745   6.207416   5.117634
    34  H    7.377924   6.349739   5.507222   7.174343   6.169365
    35  C    5.831439   4.470966   3.676146   5.198282   4.274238
    36  H    6.488899   5.085290   4.245095   5.651380   4.963228
    37  C    5.046620   3.408034   2.852419   4.160913   2.946019
    38  H    5.058060   3.148666   2.758470   3.663775   2.586873
    39  C    4.593195   3.158712   2.865855   4.122016   2.507819
    40  H    2.410927   3.366612   4.093279   3.715068   3.942292
                   11         12         13         14         15
    11  H    0.000000
    12  H    1.717151   0.000000
    13  N    2.138247   2.139020   0.000000
    14  C    3.012959   2.432247   1.372126   0.000000
    15  C    3.075776   2.392856   2.381978   1.404003   0.000000
    16  H    2.556623   2.258242   2.682766   2.203633   1.088069
    17  C    4.384642   3.473130   3.604027   2.366452   1.350468
    18  H    4.825390   3.956561   4.455065   3.338604   2.079049
    19  C    5.368852   4.322371   4.087528   2.721424   2.398265
    20  H    6.373824   5.259940   5.171159   3.806846   3.359700
    21  C    5.356747   4.371077   3.646443   2.396670   2.807445
    22  H    6.362003   5.312578   4.559457   3.405557   3.886286
    23  C    4.317815   3.551108   2.378314   1.401269   2.468255
    24  C    4.954600   4.333432   2.853020   2.509952   3.802738
    25  H    5.975147   5.194056   3.899883   3.350799   4.488644
    26  H    4.719556   4.016803   2.792047   2.809633   4.115432
    27  C    5.174857   5.055115   3.094000   3.081949   4.394138
    28  H    5.772373   5.679310   3.733955   3.439149   4.564267
    29  H    6.043067   5.938301   4.008848   4.116919   5.457291
    30  C    4.226655   4.598518   2.484713   3.104851   4.361834
    31  C    5.152836   5.798482   3.711376   4.396902   5.568207
    32  H    6.180529   6.731524   4.607262   5.092668   6.271130
    33  C    5.117702   6.124471   4.212227   5.132342   6.151714
    34  H    6.099772   7.184778   5.287146   6.169699   7.153979
    35  C    4.075755   5.326844   3.710783   4.825934   5.673842
    36  H    4.571136   6.013286   4.611056   5.742691   6.453165
    37  C    2.765482   3.973473   2.439338   3.606742   4.379127
    38  H    2.039749   3.561472   2.600982   3.751564   4.214673
    39  C    2.813042   3.407664   1.405880   2.481720   3.555500
    40  H    4.950125   3.682464   4.369090   4.594595   5.220020
                   16         17         18         19         20
    16  H    0.000000
    17  C    2.090449   0.000000
    18  H    2.345521   1.087092   0.000000
    19  C    3.375635   1.425015   2.220130   0.000000
    20  H    4.237122   2.153393   2.528621   1.086412   0.000000
    21  C    3.893770   2.428215   3.424338   1.350495   2.120042
    22  H    4.972415   3.385326   4.289060   2.078658   2.391469
    23  C    3.467518   2.815380   3.900585   2.395763   3.388442
    24  C    4.709819   4.254065   5.337582   3.699622   4.579036
    25  H    5.487214   4.651190   5.715721   3.777146   4.457381
    26  H    4.919456   4.715860   5.760459   4.310580   5.207318
    27  C    5.151272   5.005799   6.068497   4.607132   5.508834
    28  H    5.353772   4.980684   6.007089   4.475950   5.274027
    29  H    6.216315   6.039898   7.113284   5.529820   6.367677
    30  C    4.817213   5.322018   6.299100   5.342051   6.360339
    31  C    5.921702   6.529875   7.471698   6.556953   7.544076
    32  H    6.718248   7.092859   8.058251   6.950937   7.863893
    33  C    6.275113   7.250948   8.098104   7.501524   8.523868
    34  H    7.248878   8.224384   9.052579   8.457528   9.455387
    35  C    5.588302   6.903431   7.650530   7.393787   8.454741
    36  H    6.221563   7.706612   8.370013   8.305987   9.361145
    37  C    4.266395   5.655689   6.379863   6.244451   7.318137
    38  H    3.845316   5.543091   6.120018   6.352508   7.411029
    39  C    3.772351   4.741161   5.610236   5.110394   6.189094
    40  H    5.651996   5.790673   6.466652   5.794509   6.517390
                   21         22         23         24         25
    21  C    0.000000
    22  H    1.086839   0.000000
    23  C    1.414767   2.201439   0.000000
    24  C    2.463928   2.728585   1.441797   0.000000
    25  H    2.433117   2.230287   2.029789   1.092861   0.000000
    26  H    3.181187   3.457860   2.093662   1.091703   1.764349
    27  C    3.466888   3.780075   2.406379   1.543183   2.186941
    28  H    3.405744   3.640778   2.687807   2.200010   2.523015
    29  H    4.297051   4.397245   3.340371   2.156977   2.467487
    30  C    4.442976   5.023495   3.141155   2.644728   3.582582
    31  C    5.656317   6.164870   4.431092   3.832208   4.632483
    32  H    5.971528   6.332080   4.890202   4.165802   4.762844
    33  C    6.740629   7.360101   5.466955   5.024654   5.911705
    34  H    7.690281   8.267392   6.461795   5.974304   6.794314
    35  C    6.806954   7.573051   5.488074   5.292142   6.305285
    36  H    7.802838   8.604220   6.505486   6.371215   7.389535
    37  C    5.769946   6.625966   4.461581   4.513270   5.586842
    38  H    6.085999   7.032756   4.855777   5.149120   6.236408
    39  C    4.484791   5.287851   3.127671   3.123577   4.202931
    40  H    5.283966   5.631329   4.612766   4.500281   4.896145
                   26         27         28         29         30
    26  H    0.000000
    27  C    2.225072   0.000000
    28  H    3.128727   1.092136   0.000000
    29  H    2.599435   1.092078   1.664355   0.000000
    30  C    2.880181   1.592498   2.281711   2.151443   0.000000
    31  C    4.074358   2.485641   2.882724   2.588347   1.360554
    32  H    4.552175   2.662108   2.774140   2.460724   2.150825
    33  C    5.135944   3.796137   4.184516   3.942824   2.394965
    34  H    6.123805   4.642538   4.903156   4.646572   3.384208
    35  C    5.265790   4.355810   4.857376   4.733897   2.772099
    36  H    6.325873   5.427757   5.876084   5.782883   3.851408
    37  C    4.464566   3.896919   4.461315   4.529584   2.394342
    38  H    5.045826   4.754959   5.295057   5.481441   3.360903
    39  C    3.131515   2.675618   3.346338   3.431669   1.427066
    40  H    3.573626   5.717491   6.618479   6.094155   5.812965
                   31         32         33         34         35
    31  C    0.000000
    32  H    1.087291   0.000000
    33  C    1.379238   2.082821   0.000000
    34  H    2.162516   2.413290   1.086418   0.000000
    35  C    2.380487   3.324176   1.380632   2.122929   0.000000
    36  H    3.332313   4.157247   2.091299   2.360790   1.087074
    37  C    2.722186   3.781570   2.372455   3.334308   1.378512
    38  H    3.800838   4.848946   3.365778   4.233412   2.161963
    39  C    2.415647   3.407912   2.808230   3.886740   2.430158
    40  H    6.994561   7.735683   7.626236   8.663441   7.204452
                   36         37         38         39         40
    36  H    0.000000
    37  C    2.174333   0.000000
    38  H    2.554190   1.087168   0.000000
    39  C    3.430428   1.396791   2.108582   0.000000
    40  H    8.042391   6.176449   6.215458   5.268378   0.000000
 Stoichiometry    C17H21N2(1+)
 Framework group  C1[X(C17H21N2)]
 Deg. of freedom   114
 Full point group                 C1      NOp   1
 Largest Abelian subgroup         C1      NOp   1
 Largest concise Abelian subgroup C1      NOp   1
                         Standard orientation:                         
 ---------------------------------------------------------------------
 Center     Atomic      Atomic             Coordinates (Angstroms)
 Number     Number       Type             X           Y           Z
 ---------------------------------------------------------------------
      1          7           0       -1.691745    3.157288    1.272243
      2          1           0       -2.135375    2.467729    0.699028
      3          1           0       -1.928315    4.070644    0.939299
      4          6           0       -0.191577    2.971742    1.213200
      5          1           0       -0.093805    2.028213    1.755683
      6          1           0        0.216265    3.852037    1.716403
      7          6           0        0.346377    2.906145   -0.188916
      8          1           0        1.414105    2.760267   -0.016032
      9          1           0        0.137448    3.839874   -0.715785
     10          6           0       -0.253598    1.716742   -1.051811
     11          1           0        0.155330    1.813824   -2.060702
     12          1           0       -1.328017    1.851229   -1.196473
     13          7           0        0.015728    0.325425   -0.531886
     14          6           0       -1.090685   -0.485451   -0.564474
     15          6           0       -1.934274   -0.411554   -1.684350
     16          1           0       -1.680019    0.117772   -2.600353
     17          6           0       -3.094201   -1.102815   -1.662144
     18          1           0       -3.749398   -0.983545   -2.521365
     19          6           0       -3.441787   -1.854624   -0.502560
     20          1           0       -4.404218   -2.358626   -0.502879
     21          6           0       -2.629821   -1.927204    0.574138
     22          1           0       -3.028627   -2.428538    1.452111
     23          6           0       -1.405642   -1.218143    0.587707
     24          6           0       -0.614263   -1.203818    1.792819
     25          1           0       -1.193948   -1.762950    2.531521
     26          1           0       -0.496435   -0.184315    2.165035
     27          6           0        0.716829   -1.918845    1.479220
     28          1           0        0.562749   -2.954129    1.167442
     29          1           0        1.248465   -2.094546    2.416838
     30          6           0        1.732702   -1.085536    0.579415
     31          6           0        3.013416   -1.544020    0.605371
     32          1           0        3.293572   -2.470348    1.100983
     33          6           0        4.002429   -0.987691   -0.178624
     34          1           0        5.000108   -1.413520   -0.238725
     35          6           0        3.682684    0.051112   -1.029974
     36          1           0        4.473197    0.354543   -1.711698
     37          6           0        2.353059    0.355539   -1.229269
     38          1           0        2.022840    0.993615   -2.045203
     39          6           0        1.349965   -0.083877   -0.362238
     40          1           0       -2.003491    3.055570    2.217299
 ---------------------------------------------------------------------
 Rotational constants (GHZ):           0.4812932           0.3373535           0.2613548
 Leave Link  202 at Sun Jul 18 13:28:52 2021, MaxMem=   104857600 cpu:               0.0 elap:               0.0
 (Enter /prod/apps/gaussian/g16b1/l301.exe)
 Standard basis: 6-31G(d) (6D, 7F)
 Ernie: Thresh=  0.10000D-02 Tol=  0.10000D-05 Strict=F.
 There are   327 symmetry adapted cartesian basis functions of A   symmetry.
 There are   327 symmetry adapted basis functions of A   symmetry.
   327 basis functions,   616 primitive gaussians,   327 cartesian basis functions
    68 alpha electrons       68 beta electrons
       nuclear repulsion energy      1454.3517704532 Hartrees.
 IExCor=  402 DFT=T Ex+Corr=B3LYP ExCW=0 ScaHFX=  0.200000
 ScaDFX=  0.800000  0.720000  1.000000  0.810000 ScalE2=  1.000000  1.000000
 IRadAn=      5 IRanWt=     -1 IRanGd=            0 ICorTp=0 IEmpDi=  4
 NAtoms=   40 NActive=   40 NUniq=   40 SFac= 1.00D+00 NAtFMM=   60 NAOKFM=F Big=F
 Integral buffers will be    131072 words long.
 Raffenetti 2 integral format.
 Two-electron integral symmetry is turned on.
 Using the following non-standard input for PCM:
 MSTModel=DFT cav MSTCharged
 --- end of non-standard input.
 MST model for solvation energy: B3LYP parametrization.
 MST cavity parameters:
 ISph   IAn     Re0     Alpha   Atom Type   QCorr
 ------------------------------------------------
   1      7     1.70     1.15      NH         T
   2      1     0.90     1.15      NH         T
   3      1     0.90     1.15      NH         T
   4      6     1.50     1.25      CH2        F
   5      1     1.20     1.25      CH2        F
   6      1     1.20     1.25      CH2        F
   7      6     1.50     1.25      CH2        F
   8      1     1.20     1.25      CH2        F
   9      1     1.20     1.25      CH2        F
  10      6     1.50     1.25      CH2        F
  11      1     1.20     1.25      CH2        F
  12      1     1.20     1.25      CH2        F
  13      7     1.40     1.25      N          F
  14      6     1.50     1.25      C          F
  15      6     1.50     1.25      CH         F
  16      1     1.20     1.25      CH         F
  17      6     1.50     1.25      CH         F
  18      1     1.20     1.25      CH         F
  19      6     1.50     1.25      CH         F
  20      1     1.20     1.25      CH         F
  21      6     1.50     1.25      CH         F
  22      1     1.20     1.25      CH         F
  23      6     1.50     1.25      C          F
  24      6     1.50     1.25      CH2        F
  25      1     1.20     1.25      CH2        F
  26      1     1.20     1.25      CH2        F
  27      6     1.50     1.25      CH2        F
  28      1     1.20     1.25      CH2        F
  29      1     1.20     1.25      CH2        F
  30      6     1.50     1.25      C          F
  31      6     1.50     1.25      CH         F
  32      1     1.20     1.25      CH         F
  33      6     1.50     1.25      CH         F
  34      1     1.20     1.25      CH         F
  35      6     1.50     1.25      CH         F
  36      1     1.20     1.25      CH         F
  37      6     1.50     1.25      CH         F
  38      1     1.20     1.25      CH         F
  39      6     1.50     1.25      C          F
  40      1     0.90     1.15      NH         T
 ------------------------------------------------------------------------------
 Polarizable Continuum Model (PCM)
 =================================
 Model                : PCM.
 Atomic radii         : MST.
 Polarization charges : Total charges.
 Charge compensation  : None.
 Solution method      : On-the-fly selection.
 Cavity type          : Scaled VdW (van der Waals Surface) (Alpha=1.250).
 Cavity algorithm     : GePol (No added spheres)
                        Default sphere list used, NSphG=   40.
                        Lebedev-Laikov grids with approx.  5.0 points / Ang**2.
                        Smoothing algorithm: York/Karplus (Gamma=1.0000).
                        Polarization charges: spherical gaussians, with
                                              point-specific exponents (IZeta= 3).
                        Self-potential: point-specific (ISelfS= 7).
                        Self-field    : sphere-specific E.n sum rule (ISelfD= 2).
 1st derivatives      : Analytical E(r).r(x)/FMM algorithm (CHGder, D1EAlg=3).
                        Cavity 1st derivative terms included.
 Solvent              : Water, Eps=  78.355300 Eps(inf)=   1.777849
 ------------------------------------------------------------------------------
 GePol: Number of generator spheres                  =      40
 GePol: Total number of spheres                      =      40
 GePol: Number of exposed spheres                    =      40 (100.00%)
 GePol: Number of points                             =    2642
 GePol: Average weight of points                     =       0.12
 GePol: Minimum weight of points                     =   0.75D-11
 GePol: Maximum weight of points                     =    0.21416
 GePol: Number of points with low weight             =     203
 GePol: Fraction of low-weight points (<1% of avg)   =       7.68%
 GePol: Cavity surface area                          =    326.587 Ang**2
 GePol: Cavity volume                                =    326.304 Ang**3
 PCM non-electrostatic energy =         0.0016105711 Hartrees.
 Nuclear repulsion after PCM non-electrostatic terms =     1454.3533810243 Hartrees.
 Leave Link  301 at Sun Jul 18 13:28:53 2021, MaxMem=   104857600 cpu:               0.3 elap:               0.1
 (Enter /prod/apps/gaussian/g16b1/l302.exe)
 NPDir=0 NMtPBC=     1 NCelOv=     1 NCel=       1 NClECP=     1 NCelD=      1
         NCelK=      1 NCelE2=     1 NClLst=     1 CellRange=     0.0.
 One-electron integrals computed using PRISM.
 One-electron integral symmetry used in STVInt
 NBasis=   327 RedAO= T EigKep=  4.16D-04  NBF=   327
 NBsUse=   327 1.00D-06 EigRej= -1.00D+00 NBFU=   327
 Precomputing XC quadrature grid using
 IXCGrd= 4 IRadAn=           5 IRanWt=          -1 IRanGd=           0 AccXCQ= 0.00D+00.
 Generated NRdTot=       0 NPtTot=           0 NUsed=           0 NTot=          32
 NSgBfM=   326   326   326   326   326 MxSgAt=    40 MxSgA2=    40.
 Leave Link  302 at Sun Jul 18 13:28:53 2021, MaxMem=   104857600 cpu:               2.3 elap:               0.6
 (Enter /prod/apps/gaussian/g16b1/l303.exe)
 DipDrv:  MaxL=1.
 Leave Link  303 at Sun Jul 18 13:28:53 2021, MaxMem=   104857600 cpu:               0.2 elap:               0.1
 (Enter /prod/apps/gaussian/g16b1/l401.exe)
 ExpMin= 1.61D-01 ExpMax= 4.17D+03 ExpMxC= 6.27D+02 IAcc=3 IRadAn=         5 AccDes= 0.00D+00
 Harris functional with IExCor=  402 and IRadAn=       5 diagonalized for initial guess.
 HarFok:  IExCor=  402 AccDes= 0.00D+00 IRadAn=         5 IDoV= 1 UseB2=F ITyADJ=14
 ICtDFT=  3500011 ScaDFX=  1.000000  1.000000  1.000000  1.000000
 FoFCou: FMM=F IPFlag=           0 FMFlag=      100000 FMFlg1=           0
         NFxFlg=           0 DoJE=T BraDBF=F KetDBF=T FulRan=T
         wScrn=  0.000000 ICntrl=       500 IOpCl=  0 I1Cent=   200000004 NGrid=           0
         NMat0=    1 NMatS0=      1 NMatT0=    0 NMatD0=    1 NMtDS0=    0 NMtDT0=    0
 Petite list used in FoFCou.
 Harris En= -769.737801378244    
 JPrj=0 DoOrth=F DoCkMO=F.
 Leave Link  401 at Sun Jul 18 13:28:57 2021, MaxMem=   104857600 cpu:              13.2 elap:               3.3
 (Enter /prod/apps/gaussian/g16b1/l502.exe)
 Integral symmetry usage will be decided dynamically.
 Closed shell SCF:
 Using DIIS extrapolation, IDIIS=  1040.
 NGot=   104857600 LenX=   104637967 LenY=   104530597
 Requested convergence on RMS density matrix=1.00D-08 within 128 cycles.
 Requested convergence on MAX density matrix=1.00D-06.
 Requested convergence on             energy=1.00D-06.
 No special actions if energy rises.
 Fock matrices will be formed incrementally for  20 cycles.

 Cycle   1  Pass 1  IDiag  1:
 FoFJK:  IHMeth= 1 ICntrl=       0 DoSepK=F KAlg= 0 I1Cent=           0 FoldK=F
 IRaf= 860000000 NMat=       1 IRICut=       1 DoRegI=T DoRafI=F ISym2E= 0 IDoP0=0 IntGTp=1.
 FoFCou: FMM=F IPFlag=           0 FMFlag=      100000 FMFlg1=           0
         NFxFlg=           0 DoJE=F BraDBF=F KetDBF=F FulRan=T
         wScrn=  0.000000 ICntrl=         0 IOpCl=  0 I1Cent=           0 NGrid=           0
         NMat0=    1 NMatS0=      1 NMatT0=    0 NMatD0=    1 NMtDS0=    0 NMtDT0=    0
 Symmetry not used in FoFCou.
 Inv3:  Mode=1 IEnd=    20940492.
 Iteration    1 A*A^-1 deviation from unit magnitude is 3.00D-15 for   1502.
 Iteration    1 A*A^-1 deviation from orthogonality  is 1.89D-15 for   2414    529.
 Iteration    1 A^-1*A deviation from unit magnitude is 3.00D-15 for   1502.
 Iteration    1 A^-1*A deviation from orthogonality  is 8.38D-15 for   2309   2294.
 E= -769.360765295840    
 DIIS: error= 2.71D-02 at cycle   1 NSaved=   1.
 NSaved= 1 IEnMin= 1 EnMin= -769.360765295840     IErMin= 1 ErrMin= 2.71D-02
 ErrMax= 2.71D-02  0.00D+00 EMaxC= 1.00D-01 BMatC= 3.90D-01 BMatP= 3.90D-01
 IDIUse=3 WtCom= 7.29D-01 WtEn= 2.71D-01
 Coeff-Com:  0.100D+01
 Coeff-En:   0.100D+01
 Coeff:      0.100D+01
 Gap=     0.233 Goal=   None    Shift=    0.000
 GapD=    0.233 DampG=1.000 DampE=0.500 DampFc=0.5000 IDamp=-1.
 Damping current iteration by 5.00D-01
 RMSDP=4.25D-03 MaxDP=1.10D-01              OVMax= 2.04D-01

 Cycle   2  Pass 1  IDiag  1:
 RMSU=  2.07D-03    CP:  9.74D-01
 E= -769.562731478044     Delta-E=       -0.201966182204 Rises=F Damp=T
 DIIS: error= 6.59D-03 at cycle   2 NSaved=   2.
 NSaved= 2 IEnMin= 2 EnMin= -769.562731478044     IErMin= 2 ErrMin= 6.59D-03
 ErrMax= 6.59D-03  0.00D+00 EMaxC= 1.00D-01 BMatC= 2.55D-02 BMatP= 3.90D-01
 IDIUse=3 WtCom= 9.34D-01 WtEn= 6.59D-02
 Coeff-Com: -0.464D-02 0.100D+01
 Coeff-En:   0.000D+00 0.100D+01
 Coeff:     -0.434D-02 0.100D+01
 Gap=     0.219 Goal=   None    Shift=    0.000
 RMSDP=1.20D-03 MaxDP=5.07D-02 DE=-2.02D-01 OVMax= 1.61D-01

 Cycle   3  Pass 1  IDiag  1:
 RMSU=  1.19D-03    CP:  9.63D-01  9.71D-01
 E= -769.759106534667     Delta-E=       -0.196375056622 Rises=F Damp=F
 DIIS: error= 4.87D-03 at cycle   3 NSaved=   3.
 NSaved= 3 IEnMin= 3 EnMin= -769.759106534667     IErMin= 3 ErrMin= 4.87D-03
 ErrMax= 4.87D-03  0.00D+00 EMaxC= 1.00D-01 BMatC= 2.30D-02 BMatP= 2.55D-02
 IDIUse=3 WtCom= 9.51D-01 WtEn= 4.87D-02
 Coeff-Com: -0.521D-01 0.514D+00 0.538D+00
 Coeff-En:   0.000D+00 0.000D+00 0.100D+01
 Coeff:     -0.495D-01 0.489D+00 0.560D+00
 Gap=     0.199 Goal=   None    Shift=    0.000
 RMSDP=7.97D-04 MaxDP=4.37D-02 DE=-1.96D-01 OVMax= 9.27D-02

 Cycle   4  Pass 1  IDiag  1:
 RMSU=  6.09D-04    CP:  9.63D-01  1.05D+00  5.88D-01
 E= -769.776640180955     Delta-E=       -0.017533646288 Rises=F Damp=F
 DIIS: error= 2.60D-03 at cycle   4 NSaved=   4.
 NSaved= 4 IEnMin= 4 EnMin= -769.776640180955     IErMin= 4 ErrMin= 2.60D-03
 ErrMax= 2.60D-03  0.00D+00 EMaxC= 1.00D-01 BMatC= 6.20D-03 BMatP= 2.30D-02
 IDIUse=3 WtCom= 9.74D-01 WtEn= 2.60D-02
 Coeff-Com: -0.243D-01 0.103D+00 0.358D+00 0.563D+00
 Coeff-En:   0.000D+00 0.000D+00 0.249D+00 0.751D+00
 Coeff:     -0.237D-01 0.101D+00 0.355D+00 0.568D+00
 Gap=     0.187 Goal=   None    Shift=    0.000
 RMSDP=3.19D-04 MaxDP=1.67D-02 DE=-1.75D-02 OVMax= 3.26D-02

 Cycle   5  Pass 1  IDiag  1:
 RMSU=  1.04D-04    CP:  9.63D-01  1.03D+00  7.08D-01  5.66D-01
 E= -769.783076140794     Delta-E=       -0.006435959839 Rises=F Damp=F
 DIIS: error= 2.60D-04 at cycle   5 NSaved=   5.
 NSaved= 5 IEnMin= 5 EnMin= -769.783076140794     IErMin= 5 ErrMin= 2.60D-04
 ErrMax= 2.60D-04  0.00D+00 EMaxC= 1.00D-01 BMatC= 1.02D-04 BMatP= 6.20D-03
 IDIUse=3 WtCom= 9.97D-01 WtEn= 2.60D-03
 Coeff-Com: -0.678D-02 0.169D-01 0.117D+00 0.226D+00 0.647D+00
 Coeff-En:   0.000D+00 0.000D+00 0.000D+00 0.000D+00 0.100D+01
 Coeff:     -0.676D-02 0.169D-01 0.116D+00 0.226D+00 0.648D+00
 Gap=     0.187 Goal=   None    Shift=    0.000
 RMSDP=4.28D-05 MaxDP=1.64D-03 DE=-6.44D-03 OVMax= 2.84D-03

 Cycle   6  Pass 1  IDiag  1:
 RMSU=  3.18D-05    CP:  9.63D-01  1.04D+00  7.11D-01  5.91D-01  7.77D-01
 E= -769.783157679947     Delta-E=       -0.000081539152 Rises=F Damp=F
 DIIS: error= 1.38D-04 at cycle   6 NSaved=   6.
 NSaved= 6 IEnMin= 6 EnMin= -769.783157679947     IErMin= 6 ErrMin= 1.38D-04
 ErrMax= 1.38D-04  0.00D+00 EMaxC= 1.00D-01 BMatC= 1.75D-05 BMatP= 1.02D-04
 IDIUse=3 WtCom= 9.99D-01 WtEn= 1.38D-03
 Coeff-Com: -0.202D-02 0.236D-02 0.381D-01 0.812D-01 0.354D+00 0.526D+00
 Coeff-En:   0.000D+00 0.000D+00 0.000D+00 0.000D+00 0.851D-01 0.915D+00
 Coeff:     -0.202D-02 0.235D-02 0.380D-01 0.811D-01 0.354D+00 0.527D+00
 Gap=     0.187 Goal=   None    Shift=    0.000
 RMSDP=1.45D-05 MaxDP=5.63D-04 DE=-8.15D-05 OVMax= 1.06D-03

 Cycle   7  Pass 1  IDiag  1:
 RMSU=  7.07D-06    CP:  9.63D-01  1.04D+00  7.12D-01  5.95D-01  8.03D-01
                    CP:  6.23D-01
 E= -769.783174196394     Delta-E=       -0.000016516447 Rises=F Damp=F
 DIIS: error= 2.31D-05 at cycle   7 NSaved=   7.
 NSaved= 7 IEnMin= 7 EnMin= -769.783174196394     IErMin= 7 ErrMin= 2.31D-05
 ErrMax= 2.31D-05  0.00D+00 EMaxC= 1.00D-01 BMatC= 5.01D-07 BMatP= 1.75D-05
 IDIUse=1 WtCom= 1.00D+00 WtEn= 0.00D+00
 Coeff-Com: -0.492D-03 0.167D-03 0.103D-01 0.217D-01 0.118D+00 0.217D+00
 Coeff-Com:  0.634D+00
 Coeff:     -0.492D-03 0.167D-03 0.103D-01 0.217D-01 0.118D+00 0.217D+00
 Coeff:      0.634D+00
 Gap=     0.187 Goal=   None    Shift=    0.000
 RMSDP=3.40D-06 MaxDP=1.47D-04 DE=-1.65D-05 OVMax= 2.63D-04

 Cycle   8  Pass 1  IDiag  1:
 RMSU=  2.68D-06    CP:  9.63D-01  1.04D+00  7.12D-01  5.96D-01  8.06D-01
                    CP:  6.48D-01  7.42D-01
 E= -769.783174596823     Delta-E=       -0.000000400429 Rises=F Damp=F
 DIIS: error= 1.29D-05 at cycle   8 NSaved=   8.
 NSaved= 8 IEnMin= 8 EnMin= -769.783174596823     IErMin= 8 ErrMin= 1.29D-05
 ErrMax= 1.29D-05  0.00D+00 EMaxC= 1.00D-01 BMatC= 1.28D-07 BMatP= 5.01D-07
 IDIUse=1 WtCom= 1.00D+00 WtEn= 0.00D+00
 Coeff-Com:  0.691D-04-0.344D-03-0.449D-03-0.157D-02 0.879D-02 0.338D-01
 Coeff-Com:  0.357D+00 0.603D+00
 Coeff:      0.691D-04-0.344D-03-0.449D-03-0.157D-02 0.879D-02 0.338D-01
 Coeff:      0.357D+00 0.603D+00
 Gap=     0.187 Goal=   None    Shift=    0.000
 RMSDP=1.36D-06 MaxDP=4.46D-05 DE=-4.00D-07 OVMax= 1.11D-04

 Cycle   9  Pass 1  IDiag  1:
 RMSU=  6.63D-07    CP:  9.63D-01  1.04D+00  7.12D-01  5.95D-01  8.10D-01
                    CP:  6.50D-01  8.41D-01  6.94D-01
 E= -769.783174730195     Delta-E=       -0.000000133372 Rises=F Damp=F
 DIIS: error= 1.75D-06 at cycle   9 NSaved=   9.
 NSaved= 9 IEnMin= 9 EnMin= -769.783174730195     IErMin= 9 ErrMin= 1.75D-06
 ErrMax= 1.75D-06  0.00D+00 EMaxC= 1.00D-01 BMatC= 4.15D-09 BMatP= 1.28D-07
 IDIUse=1 WtCom= 1.00D+00 WtEn= 0.00D+00
 Coeff-Com:  0.548D-04-0.152D-03-0.656D-03-0.185D-02-0.182D-02 0.347D-02
 Coeff-Com:  0.118D+00 0.248D+00 0.635D+00
 Coeff:      0.548D-04-0.152D-03-0.656D-03-0.185D-02-0.182D-02 0.347D-02
 Coeff:      0.118D+00 0.248D+00 0.635D+00
 Gap=     0.187 Goal=   None    Shift=    0.000
 RMSDP=2.69D-07 MaxDP=1.00D-05 DE=-1.33D-07 OVMax= 2.35D-05

 Cycle  10  Pass 1  IDiag  1:
 RMSU=  1.97D-07    CP:  9.63D-01  1.04D+00  7.12D-01  5.95D-01  8.10D-01
                    CP:  6.52D-01  8.47D-01  7.36D-01  8.39D-01
 E= -769.783174733837     Delta-E=       -0.000000003642 Rises=F Damp=F
 DIIS: error= 6.93D-07 at cycle  10 NSaved=  10.
 NSaved=10 IEnMin=10 EnMin= -769.783174733837     IErMin=10 ErrMin= 6.93D-07
 ErrMax= 6.93D-07  0.00D+00 EMaxC= 1.00D-01 BMatC= 6.73D-10 BMatP= 4.15D-09
 IDIUse=1 WtCom= 1.00D+00 WtEn= 0.00D+00
 Coeff-Com:  0.202D-04-0.372D-04-0.254D-03-0.774D-03-0.174D-02-0.195D-02
 Coeff-Com:  0.188D-01 0.556D-01 0.323D+00 0.607D+00
 Coeff:      0.202D-04-0.372D-04-0.254D-03-0.774D-03-0.174D-02-0.195D-02
 Coeff:      0.188D-01 0.556D-01 0.323D+00 0.607D+00
 Gap=     0.187 Goal=   None    Shift=    0.000
 RMSDP=9.07D-08 MaxDP=3.17D-06 DE=-3.64D-09 OVMax= 7.52D-06

 Cycle  11  Pass 1  IDiag  1:
 RMSU=  5.41D-08    CP:  9.63D-01  1.04D+00  7.12D-01  5.95D-01  8.10D-01
                    CP:  6.52D-01  8.51D-01  7.41D-01  8.90D-01  7.62D-01
 E= -769.783174734534     Delta-E=       -0.000000000697 Rises=F Damp=F
 DIIS: error= 1.43D-07 at cycle  11 NSaved=  11.
 NSaved=11 IEnMin=11 EnMin= -769.783174734534     IErMin=11 ErrMin= 1.43D-07
 ErrMax= 1.43D-07  0.00D+00 EMaxC= 1.00D-01 BMatC= 2.39D-11 BMatP= 6.73D-10
 IDIUse=1 WtCom= 1.00D+00 WtEn= 0.00D+00
 Coeff-Com:  0.231D-05 0.249D-07-0.204D-04-0.101D-03-0.377D-03-0.920D-03
 Coeff-Com: -0.461D-02-0.471D-02 0.449D-01 0.171D+00 0.795D+00
 Coeff:      0.231D-05 0.249D-07-0.204D-04-0.101D-03-0.377D-03-0.920D-03
 Coeff:     -0.461D-02-0.471D-02 0.449D-01 0.171D+00 0.795D+00
 Gap=     0.187 Goal=   None    Shift=    0.000
 RMSDP=2.79D-08 MaxDP=9.52D-07 DE=-6.97D-10 OVMax= 2.11D-06

 Cycle  12  Pass 1  IDiag  1:
 RMSU=  1.69D-08    CP:  9.63D-01  1.04D+00  7.12D-01  5.95D-01  8.10D-01
                    CP:  6.52D-01  8.52D-01  7.43D-01  9.09D-01  8.15D-01
                    CP:  8.80D-01
 E= -769.783174734557     Delta-E=       -0.000000000023 Rises=F Damp=F
 DIIS: error= 8.14D-08 at cycle  12 NSaved=  12.
 NSaved=12 IEnMin=12 EnMin= -769.783174734557     IErMin=12 ErrMin= 8.14D-08
 ErrMax= 8.14D-08  0.00D+00 EMaxC= 1.00D-01 BMatC= 5.40D-12 BMatP= 2.39D-11
 IDIUse=1 WtCom= 1.00D+00 WtEn= 0.00D+00
 Coeff-Com: -0.129D-06 0.252D-05 0.867D-05 0.118D-05-0.732D-04-0.356D-03
 Coeff-Com: -0.396D-02-0.669D-02 0.101D-02 0.464D-01 0.433D+00 0.531D+00
 Coeff:     -0.129D-06 0.252D-05 0.867D-05 0.118D-05-0.732D-04-0.356D-03
 Coeff:     -0.396D-02-0.669D-02 0.101D-02 0.464D-01 0.433D+00 0.531D+00
 Gap=     0.187 Goal=   None    Shift=    0.000
 RMSDP=9.36D-09 MaxDP=3.29D-07 DE=-2.32D-11 OVMax= 8.41D-07

 Error on total polarization charges =  0.01967
 SCF Done:  E(RB3LYP) =  -769.783174735     A.U. after   12 cycles
            NFock= 12  Conv=0.94D-08     -V/T= 2.0091
 KE= 7.628402053392D+02 PE=-4.674154486661D+03 EE= 1.687177725563D+03
 Leave Link  502 at Sun Jul 18 13:30:35 2021, MaxMem=   104857600 cpu:             395.4 elap:              98.9
 (Enter /prod/apps/gaussian/g16b1/l601.exe)
 Copying SCF densities to generalized density rwf, IOpCl= 0 IROHF=0.

 **********************************************************************

            Population analysis using the SCF Density.

 **********************************************************************

 Orbital symmetries:
       Occupied  (A) (A) (A) (A) (A) (A) (A) (A) (A) (A) (A) (A)
                 (A) (A) (A) (A) (A) (A) (A) (A) (A) (A) (A) (A)
                 (A) (A) (A) (A) (A) (A) (A) (A) (A) (A) (A) (A)
                 (A) (A) (A) (A) (A) (A) (A) (A) (A) (A) (A) (A)
                 (A) (A) (A) (A) (A) (A) (A) (A) (A) (A) (A) (A)
                 (A) (A) (A) (A) (A) (A) (A) (A)
       Virtual   (A) (A) (A) (A) (A) (A) (A) (A) (A) (A) (A) (A)
                 (A) (A) (A) (A) (A) (A) (A) (A) (A) (A) (A) (A)
                 (A) (A) (A) (A) (A) (A) (A) (A) (A) (A) (A) (A)
                 (A) (A) (A) (A) (A) (A) (A) (A) (A) (A) (A) (A)
                 (A) (A) (A) (A) (A) (A) (A) (A) (A) (A) (A) (A)
                 (A) (A) (A) (A) (A) (A) (A) (A) (A) (A) (A) (A)
                 (A) (A) (A) (A) (A) (A) (A) (A) (A) (A) (A) (A)
                 (A) (A) (A) (A) (A) (A) (A) (A) (A) (A) (A) (A)
                 (A) (A) (A) (A) (A) (A) (A) (A) (A) (A) (A) (A)
                 (A) (A) (A) (A) (A) (A) (A) (A) (A) (A) (A) (A)
                 (A) (A) (A) (A) (A) (A) (A) (A) (A) (A) (A) (A)
                 (A) (A) (A) (A) (A) (A) (A) (A) (A) (A) (A) (A)
                 (A) (A) (A) (A) (A) (A) (A) (A) (A) (A) (A) (A)
                 (A) (A) (A) (A) (A) (A) (A) (A) (A) (A) (A) (A)
                 (A) (A) (A) (A) (A) (A) (A) (A) (A) (A) (A) (A)
                 (A) (A) (A) (A) (A) (A) (A) (A) (A) (A) (A) (A)
                 (A) (A) (A) (A) (A) (A) (A) (A) (A) (A) (A) (A)
                 (A) (A) (A) (A) (A) (A) (A) (A) (A) (A) (A) (A)
                 (A) (A) (A) (A) (A) (A) (A) (A) (A) (A) (A) (A)
                 (A) (A) (A) (A) (A) (A) (A) (A) (A) (A) (A) (A)
                 (A) (A) (A) (A) (A) (A) (A) (A) (A) (A) (A) (A)
                 (A) (A) (A) (A) (A) (A) (A)
 The electronic state is 1-A.
 Alpha  occ. eigenvalues --  -14.44257 -14.35512 -10.25049 -10.23194 -10.23008
 Alpha  occ. eigenvalues --  -10.22023 -10.20622 -10.19699 -10.19120 -10.18753
 Alpha  occ. eigenvalues --  -10.18594 -10.18450 -10.18408 -10.18316 -10.18284
 Alpha  occ. eigenvalues --  -10.18227 -10.18060 -10.17941 -10.17856  -1.00535
 Alpha  occ. eigenvalues --   -0.96125  -0.86237  -0.84976  -0.80346  -0.79625
 Alpha  occ. eigenvalues --   -0.76063  -0.75607  -0.73196  -0.71627  -0.68216
 Alpha  occ. eigenvalues --   -0.65390  -0.63189  -0.60503  -0.59779  -0.58888
 Alpha  occ. eigenvalues --   -0.58667  -0.57688  -0.56519  -0.52153  -0.51339
 Alpha  occ. eigenvalues --   -0.49063  -0.48412  -0.47295  -0.46757  -0.45990
 Alpha  occ. eigenvalues --   -0.45021  -0.44690  -0.43244  -0.42972  -0.42134
 Alpha  occ. eigenvalues --   -0.41336  -0.40395  -0.38904  -0.38624  -0.38381
 Alpha  occ. eigenvalues --   -0.37289  -0.36372  -0.36006  -0.35572  -0.34617
 Alpha  occ. eigenvalues --   -0.34478  -0.32783  -0.32235  -0.28886  -0.25279
 Alpha  occ. eigenvalues --   -0.24736  -0.23890  -0.19379
 Alpha virt. eigenvalues --   -0.00708  -0.00221   0.00390   0.00893   0.04481
 Alpha virt. eigenvalues --    0.08635   0.09712   0.10369   0.10704   0.11204
 Alpha virt. eigenvalues --    0.11620   0.12858   0.13392   0.13557   0.14042
 Alpha virt. eigenvalues --    0.14851   0.15691   0.16087   0.16510   0.17112
 Alpha virt. eigenvalues --    0.17198   0.17912   0.18294   0.19015   0.19216
 Alpha virt. eigenvalues --    0.20007   0.21300   0.21903   0.22566   0.23644
 Alpha virt. eigenvalues --    0.23968   0.25208   0.26272   0.27311   0.28693
 Alpha virt. eigenvalues --    0.30438   0.32716   0.33127   0.34409   0.35847
 Alpha virt. eigenvalues --    0.36017   0.36588   0.38906   0.41708   0.46988
 Alpha virt. eigenvalues --    0.48103   0.48984   0.49538   0.49696   0.50890
 Alpha virt. eigenvalues --    0.51641   0.52763   0.53071   0.53697   0.54352
 Alpha virt. eigenvalues --    0.55032   0.55821   0.56133   0.56884   0.58473
 Alpha virt. eigenvalues --    0.58932   0.59115   0.59775   0.60798   0.61560
 Alpha virt. eigenvalues --    0.61772   0.62030   0.62567   0.63064   0.63425
 Alpha virt. eigenvalues --    0.63883   0.64905   0.65824   0.66654   0.67251
 Alpha virt. eigenvalues --    0.68222   0.69008   0.69487   0.70938   0.71174
 Alpha virt. eigenvalues --    0.72545   0.74867   0.75573   0.77079   0.78627
 Alpha virt. eigenvalues --    0.79443   0.80033   0.82626   0.83503   0.83838
 Alpha virt. eigenvalues --    0.84406   0.84631   0.84930   0.85416   0.85617
 Alpha virt. eigenvalues --    0.85815   0.86757   0.87465   0.88790   0.89432
 Alpha virt. eigenvalues --    0.90056   0.91295   0.91413   0.92331   0.93638
 Alpha virt. eigenvalues --    0.93976   0.95114   0.95819   0.96436   0.97341
 Alpha virt. eigenvalues --    0.98390   0.98810   0.99582   1.01268   1.02406
 Alpha virt. eigenvalues --    1.03660   1.05571   1.06590   1.07981   1.10411
 Alpha virt. eigenvalues --    1.11836   1.12712   1.13093   1.14968   1.15923
 Alpha virt. eigenvalues --    1.17991   1.18793   1.21282   1.21978   1.24893
 Alpha virt. eigenvalues --    1.25838   1.27326   1.28719   1.30631   1.32518
 Alpha virt. eigenvalues --    1.34102   1.36163   1.37219   1.39456   1.42132
 Alpha virt. eigenvalues --    1.42455   1.43242   1.46175   1.47388   1.48106
 Alpha virt. eigenvalues --    1.49499   1.51285   1.54244   1.56467   1.58509
 Alpha virt. eigenvalues --    1.59352   1.60414   1.62981   1.65001   1.67610
 Alpha virt. eigenvalues --    1.68764   1.71121   1.73312   1.75102   1.77518
 Alpha virt. eigenvalues --    1.77864   1.79819   1.80771   1.81809   1.82817
 Alpha virt. eigenvalues --    1.85908   1.86574   1.88175   1.89945   1.90533
 Alpha virt. eigenvalues --    1.92530   1.93039   1.93245   1.94781   1.95661
 Alpha virt. eigenvalues --    1.96521   1.97435   1.98612   1.99736   2.00621
 Alpha virt. eigenvalues --    2.02034   2.03897   2.05457   2.10025   2.10989
 Alpha virt. eigenvalues --    2.12069   2.14505   2.15916   2.16724   2.18444
 Alpha virt. eigenvalues --    2.19692   2.20570   2.21247   2.21482   2.23456
 Alpha virt. eigenvalues --    2.26339   2.27478   2.27863   2.29465   2.30129
 Alpha virt. eigenvalues --    2.30970   2.31906   2.33891   2.35544   2.36071
 Alpha virt. eigenvalues --    2.37947   2.39303   2.39987   2.41946   2.42615
 Alpha virt. eigenvalues --    2.43772   2.48416   2.51945   2.54037   2.57949
 Alpha virt. eigenvalues --    2.58467   2.59480   2.60651   2.63422   2.64144
 Alpha virt. eigenvalues --    2.65518   2.66128   2.67910   2.71041   2.71577
 Alpha virt. eigenvalues --    2.73620   2.75463   2.76490   2.80453   2.81946
 Alpha virt. eigenvalues --    2.82395   2.83763   2.86593   2.91554   2.97520
 Alpha virt. eigenvalues --    3.00305   3.19175   3.21073   3.41541   3.45097
 Alpha virt. eigenvalues --    3.76540   4.09380   4.10537   4.11534   4.13224
 Alpha virt. eigenvalues --    4.15435   4.16208   4.18687   4.24571   4.30172
 Alpha virt. eigenvalues --    4.36837   4.38479   4.40529   4.42417   4.44815
 Alpha virt. eigenvalues --    4.49534   4.55084   4.72980   4.78056
          Condensed to atoms (all electrons):
               1          2          3          4          5          6
     1  N    6.731808   0.298008   0.303100   0.218995  -0.047067  -0.037217
     2  H    0.298008   0.278492  -0.010989  -0.019590  -0.002467   0.003698
     3  H    0.303100  -0.010989   0.277178  -0.017702   0.004144  -0.003740
     4  C    0.218995  -0.019590  -0.017702   5.020239   0.380674   0.387125
     5  H   -0.047067  -0.002467   0.004144   0.380674   0.495629  -0.020405
     6  H   -0.037217   0.003698  -0.003740   0.387125  -0.020405   0.491961
     7  C   -0.049711  -0.004183  -0.000500   0.359750  -0.034301  -0.034584
     8  H    0.004244   0.000061  -0.000064  -0.042340  -0.002675  -0.002731
     9  H   -0.002763  -0.000383   0.002774  -0.035929   0.004684  -0.003366
    10  C   -0.002975   0.006130  -0.000305  -0.044344  -0.007692   0.004159
    11  H    0.000071  -0.000266  -0.000012   0.005509   0.000155  -0.000106
    12  H    0.001892   0.004546   0.000090  -0.007983   0.000025  -0.000039
    13  N   -0.000120  -0.000596   0.000017   0.001413   0.007029   0.000069
    14  C   -0.000186   0.001558   0.000000   0.000738  -0.000548   0.000000
    15  C   -0.000073   0.000271  -0.000000   0.000036  -0.000002  -0.000000
    16  H    0.000000  -0.000011   0.000000   0.000006  -0.000001  -0.000000
    17  C    0.000003  -0.000038  -0.000000  -0.000003   0.000000  -0.000000
    18  H   -0.000000  -0.000000   0.000000   0.000000   0.000000   0.000000
    19  C    0.000001  -0.000021  -0.000000   0.000000   0.000001   0.000000
    20  H   -0.000000   0.000000  -0.000000  -0.000000   0.000000  -0.000000
    21  C   -0.000002   0.000024  -0.000000  -0.000003   0.000004   0.000000
    22  H   -0.000000   0.000000   0.000000  -0.000000  -0.000000  -0.000000
    23  C   -0.000102   0.000641   0.000001   0.000115  -0.000581  -0.000001
    24  C   -0.000002   0.000034  -0.000001  -0.001039   0.000815   0.000007
    25  H   -0.000000  -0.000003   0.000000   0.000016  -0.000031  -0.000000
    26  H    0.000260  -0.000045  -0.000001  -0.000896   0.007273   0.000009
    27  C    0.000000   0.000001  -0.000000   0.000021  -0.000140   0.000000
    28  H    0.000000   0.000000  -0.000000  -0.000001   0.000003   0.000000
    29  H    0.000000  -0.000000   0.000000   0.000000   0.000007   0.000000
    30  C    0.000001   0.000001   0.000000  -0.000115   0.000035  -0.000003
    31  C    0.000000   0.000000  -0.000000  -0.000002   0.000000   0.000000
    32  H   -0.000000  -0.000000   0.000000  -0.000000  -0.000000  -0.000000
    33  C   -0.000000   0.000000   0.000000   0.000001   0.000000   0.000000
    34  H    0.000000  -0.000000  -0.000000  -0.000000   0.000000   0.000000
    35  C   -0.000000   0.000000   0.000000   0.000005  -0.000008  -0.000001
    36  H    0.000000  -0.000000  -0.000000   0.000000   0.000000  -0.000000
    37  C   -0.000001  -0.000001  -0.000000   0.000019  -0.000009  -0.000005
    38  H   -0.000000  -0.000000   0.000000   0.000050   0.000006   0.000000
    39  C    0.000004  -0.000016   0.000000  -0.000542   0.001423  -0.000030
    40  H    0.307670  -0.010577  -0.010448  -0.016047  -0.003483  -0.001395
               7          8          9         10         11         12
     1  N   -0.049711   0.004244  -0.002763  -0.002975   0.000071   0.001892
     2  H   -0.004183   0.000061  -0.000383   0.006130  -0.000266   0.004546
     3  H   -0.000500  -0.000064   0.002774  -0.000305  -0.000012   0.000090
     4  C    0.359750  -0.042340  -0.035929  -0.044344   0.005509  -0.007983
     5  H   -0.034301  -0.002675   0.004684  -0.007692   0.000155   0.000025
     6  H   -0.034584  -0.002731  -0.003366   0.004159  -0.000106  -0.000039
     7  C    5.081001   0.372997   0.367686   0.346912  -0.046298  -0.025924
     8  H    0.372997   0.522238  -0.020608  -0.026832  -0.004720   0.003793
     9  H    0.367686  -0.020608   0.531822  -0.029205   0.000174  -0.001068
    10  C    0.346912  -0.026832  -0.029205   4.998247   0.371162   0.372983
    11  H   -0.046298  -0.004720   0.000174   0.371162   0.577315  -0.039057
    12  H   -0.025924   0.003793  -0.001068   0.372983  -0.039057   0.536384
    13  N   -0.048106  -0.005576   0.002952   0.289610  -0.041024  -0.035954
    14  C    0.002894  -0.000066  -0.000110  -0.049893  -0.000787  -0.003132
    15  C    0.000739  -0.000018  -0.000017  -0.015575   0.001658   0.005380
    16  H    0.000144  -0.000007   0.000003   0.003265   0.000789  -0.001631
    17  C    0.000002   0.000000   0.000000  -0.000008  -0.000068   0.000514
    18  H   -0.000000  -0.000000   0.000000  -0.000001   0.000005   0.000005
    19  C   -0.000001  -0.000000   0.000000   0.000002   0.000001  -0.000061
    20  H   -0.000000   0.000000  -0.000000  -0.000000   0.000000  -0.000000
    21  C   -0.000004   0.000000   0.000000  -0.000091   0.000009  -0.000098
    22  H    0.000000   0.000000   0.000000   0.000004  -0.000000   0.000001
[...]
     23          6           0       -1.719561   -0.890614    0.669347
     24          6           0       -0.839444   -0.931158    1.882630
     25          1           0       -1.405231   -1.322364    2.732915
     26          1           0       -0.519473    0.084295    2.141252
     27          6           0        0.392041   -1.815990    1.661308
     28          1           0        0.042432   -2.827016    1.414604
     29          1           0        0.935659   -1.913971    2.607681
     30          6           0        1.391162   -1.370795    0.602559
     31          6           0        2.615157   -2.056319    0.606533
     32          1           0        2.750526   -2.837071    1.350121
     33          6           0        3.652200   -1.766858   -0.275857
     34          1           0        4.586227   -2.317399   -0.227749
     35          6           0        3.464653   -0.750008   -1.209877
     36          1           0        4.247905   -0.493470   -1.916143
     37          6           0        2.258231   -0.058972   -1.246999
     38          1           0        2.129139    0.714415   -1.992373
     39          6           0        1.202232   -0.344502   -0.357099
     40          1           0       -0.830199    3.828715    2.263989
 ---------------------------------------------------------------------
 Rotational constants (GHZ):           0.4583446           0.3414195           0.2608425
 Leave Link  202 at Sun Jul 18 14:41:29 2021, MaxMem=   262144000 cpu:               0.0 elap:               0.0
 (Enter /prod/apps/gaussian/g16b1/l301.exe)
 Standard basis: Aug-CC-pVDZ (5D, 7F)
 Ernie: Thresh=  0.10000D-02 Tol=  0.10000D-05 Strict=F.
 Ernie:  38 primitive shells out of 622 were deleted.
 There are   664 symmetry adapted cartesian basis functions of A   symmetry.
 There are   626 symmetry adapted basis functions of A   symmetry.
   626 basis functions,  1048 primitive gaussians,   664 cartesian basis functions
    68 alpha electrons       68 beta electrons
       nuclear repulsion energy      1448.6960255790 Hartrees.
 IExCor=    0 DFT=F Ex=HF Corr=None ExCW=0 ScaHFX=  1.000000
 ScaDFX=  1.000000  1.000000  1.000000  1.000000 ScalE2=  1.000000  1.000000
 IRadAn=      5 IRanWt=     -1 IRanGd=            0 ICorTp=0 IEmpDi=  4
 NAtoms=   40 NActive=   40 NUniq=   40 SFac= 1.00D+00 NAtFMM=   60 NAOKFM=F Big=F
 Integral buffers will be    131072 words long.
 Raffenetti 1 integral format.
 Two-electron integral symmetry is turned on.
 Leave Link  301 at Sun Jul 18 14:41:29 2021, MaxMem=   262144000 cpu:               0.2 elap:               0.1
 (Enter /prod/apps/gaussian/g16b1/l302.exe)
 NPDir=0 NMtPBC=     1 NCelOv=     1 NCel=       1 NClECP=     1 NCelD=      1
         NCelK=      1 NCelE2=     1 NClLst=     1 CellRange=     0.0.
 One-electron integrals computed using PRISM.
 One-electron integral symmetry used in STVInt
 NBasis=   626 RedAO= T EigKep=  1.05D-06  NBF=   626
 NBsUse=   624 1.00D-06 EigRej=  9.61D-07 NBFU=   624
 Leave Link  302 at Sun Jul 18 14:41:30 2021, MaxMem=   262144000 cpu:               2.3 elap:               0.6
 (Enter /prod/apps/gaussian/g16b1/l303.exe)
 DipDrv:  MaxL=1.
 Leave Link  303 at Sun Jul 18 14:41:30 2021, MaxMem=   262144000 cpu:               0.5 elap:               0.2
 (Enter /prod/apps/gaussian/g16b1/l401.exe)
 ExpMin= 2.97D-02 ExpMax= 9.05D+03 ExpMxC= 3.09D+02 IAcc=3 IRadAn=         5 AccDes= 0.00D+00
 Harris functional with IExCor=  205 and IRadAn=       5 diagonalized for initial guess.
 HarFok:  IExCor=  205 AccDes= 0.00D+00 IRadAn=         5 IDoV= 1 UseB2=F ITyADJ=14
 ICtDFT=  3500011 ScaDFX=  1.000000  1.000000  1.000000  1.000000
 FoFCou: FMM=F IPFlag=           0 FMFlag=      100000 FMFlg1=           0
         NFxFlg=           0 DoJE=T BraDBF=F KetDBF=T FulRan=T
         wScrn=  0.000000 ICntrl=       500 IOpCl=  0 I1Cent=   200000004 NGrid=           0
         NMat0=    1 NMatS0=      1 NMatT0=    0 NMatD0=    1 NMtDS0=    0 NMtDT0=    0
 Petite list used in FoFCou.
 Harris En= -765.967342500687    
 JPrj=0 DoOrth=F DoCkMO=F.
 Leave Link  401 at Sun Jul 18 14:41:36 2021, MaxMem=   262144000 cpu:              22.8 elap:               5.7
 (Enter /prod/apps/gaussian/g16b1/l502.exe)
 Integral symmetry usage will be decided dynamically.
 Closed shell SCF:
 Using DIIS extrapolation, IDIIS=  1040.
 NGot=   262144000 LenX=   261251932 LenY=   260810372
 Requested convergence on RMS density matrix=1.00D-08 within 128 cycles.
 Requested convergence on MAX density matrix=1.00D-06.
 Requested convergence on             energy=1.00D-06.
 No special actions if energy rises.
 Fock matrices will be formed incrementally for  20 cycles.

 Cycle   1  Pass 1  IDiag  1:
 FoFJK:  IHMeth= 1 ICntrl=       0 DoSepK=F KAlg= 0 I1Cent=           0 FoldK=F
 IRaf= 960000000 NMat=       1 IRICut=       1 DoRegI=T DoRafI=F ISym2E= 0 IDoP0=0 IntGTp=1.
 FoFCou: FMM=F IPFlag=           0 FMFlag=      100000 FMFlg1=           0
         NFxFlg=           0 DoJE=F BraDBF=F KetDBF=F FulRan=T
         wScrn=  0.000000 ICntrl=         0 IOpCl=  0 I1Cent=           0 NGrid=           0
         NMat0=    1 NMatS0=      1 NMatT0=    0 NMatD0=    1 NMtDS0=    0 NMtDT0=    0
 Symmetry not used in FoFCou.
 E= -764.017190563419    
 DIIS: error= 1.57D-02 at cycle   1 NSaved=   1.
 NSaved= 1 IEnMin= 1 EnMin= -764.017190563419     IErMin= 1 ErrMin= 1.57D-02
 ErrMax= 1.57D-02  0.00D+00 EMaxC= 1.00D-01 BMatC= 8.70D-01 BMatP= 8.70D-01
 IDIUse=3 WtCom= 8.43D-01 WtEn= 1.57D-01
 Coeff-Com:  0.100D+01
 Coeff-En:   0.100D+01
 Coeff:      0.100D+01
 Gap=     0.492 Goal=   None    Shift=    0.000
 GapD=    0.492 DampG=2.000 DampE=0.500 DampFc=1.0000 IDamp=-1.
 RMSDP=9.16D-02 MaxDP=1.35D+01              OVMax= 1.74D-01

 Cycle   2  Pass 1  IDiag  1:
 RMSU=  2.71D-02    CP:  4.38D-01
 E= -764.641191921057     Delta-E=       -0.624001357638 Rises=F Damp=F
 DIIS: error= 9.07D-03 at cycle   2 NSaved=   2.
 NSaved= 2 IEnMin= 2 EnMin= -764.641191921057     IErMin= 2 ErrMin= 9.07D-03
 ErrMax= 9.07D-03  0.00D+00 EMaxC= 1.00D-01 BMatC= 1.07D-01 BMatP= 8.70D-01
 IDIUse=3 WtCom= 9.09D-01 WtEn= 9.07D-02
 Coeff-Com:  0.195D+00 0.805D+00
 Coeff-En:   0.000D+00 0.100D+01
 Coeff:      0.177D+00 0.823D+00
 Gap=     0.302 Goal=   None    Shift=    0.000
 RMSDP=6.74D-03 MaxDP=6.30D-01 DE=-6.24D-01 OVMax= 5.86D-02

 Cycle   3  Pass 1  IDiag  1:
 RMSU=  6.59D-03    CP:  4.40D-01  9.50D-01
 E= -764.739775271677     Delta-E=       -0.098583350621 Rises=F Damp=F
 DIIS: error= 1.71D-03 at cycle   3 NSaved=   3.
 NSaved= 3 IEnMin= 3 EnMin= -764.739775271677     IErMin= 3 ErrMin= 1.71D-03
 ErrMax= 1.71D-03  0.00D+00 EMaxC= 1.00D-01 BMatC= 9.55D-03 BMatP= 1.07D-01
 IDIUse=3 WtCom= 9.83D-01 WtEn= 1.71D-02
 Coeff-Com: -0.157D-01 0.184D+00 0.831D+00
 Coeff-En:   0.000D+00 0.000D+00 0.100D+01
 Coeff:     -0.154D-01 0.181D+00 0.834D+00
 Gap=     0.296 Goal=   None    Shift=    0.000
 RMSDP=2.48D-03 MaxDP=2.44D-01 DE=-9.86D-02 OVMax= 3.73D-02

 Cycle   4  Pass 1  IDiag  1:
 RMSU=  1.27D-03    CP:  4.29D-01  9.64D-01  8.33D-01
 E= -764.749311054474     Delta-E=       -0.009535782797 Rises=F Damp=F
 DIIS: error= 6.69D-04 at cycle   4 NSaved=   4.
 NSaved= 4 IEnMin= 4 EnMin= -764.749311054474     IErMin= 4 ErrMin= 6.69D-04
 ErrMax= 6.69D-04  0.00D+00 EMaxC= 1.00D-01 BMatC= 1.23D-03 BMatP= 9.55D-03
 IDIUse=3 WtCom= 9.93D-01 WtEn= 6.69D-03
 Coeff-Com: -0.149D-01 0.250D-01 0.303D+00 0.687D+00
 Coeff-En:   0.000D+00 0.000D+00 0.000D+00 0.100D+01
 Coeff:     -0.148D-01 0.248D-01 0.301D+00 0.689D+00
 Gap=     0.284 Goal=   None    Shift=    0.000
 RMSDP=5.55D-04 MaxDP=9.53D-02 DE=-9.54D-03 OVMax= 7.11D-03

 Cycle   5  Pass 1  IDiag  1:
 RMSU=  3.90D-04    CP:  4.27D-01  9.61D-01  8.26D-01  8.74D-01
 E= -764.750593899492     Delta-E=       -0.001282845017 Rises=F Damp=F
 DIIS: error= 1.88D-04 at cycle   5 NSaved=   5.
 NSaved= 5 IEnMin= 5 EnMin= -764.750593899492     IErMin= 5 ErrMin= 1.88D-04
 ErrMax= 1.88D-04  0.00D+00 EMaxC= 1.00D-01 BMatC= 6.27D-05 BMatP= 1.23D-03
 IDIUse=3 WtCom= 9.98D-01 WtEn= 1.88D-03
 Coeff-Com: -0.153D-03-0.176D-01-0.500D-01 0.757D-01 0.992D+00
 Coeff-En:   0.000D+00 0.000D+00 0.000D+00 0.000D+00 0.100D+01
 Coeff:     -0.152D-03-0.176D-01-0.499D-01 0.756D-01 0.992D+00
 Gap=     0.287 Goal=   None    Shift=    0.000
 RMSDP=2.17D-04 MaxDP=2.42D-02 DE=-1.28D-03 OVMax= 5.91D-03

 Cycle   6  Pass 1  IDiag  1:
 RMSU=  1.27D-04    CP:  4.26D-01  9.63D-01  8.40D-01  9.69D-01  9.18D-01
 E= -764.750726290510     Delta-E=       -0.000132391019 Rises=F Damp=F
 DIIS: error= 5.70D-05 at cycle   6 NSaved=   6.
 NSaved= 6 IEnMin= 6 EnMin= -764.750726290510     IErMin= 6 ErrMin= 5.70D-05
 ErrMax= 5.70D-05  0.00D+00 EMaxC= 1.00D-01 BMatC= 1.08D-05 BMatP= 6.27D-05
 IDIUse=1 WtCom= 1.00D+00 WtEn= 0.00D+00
 Coeff-Com:  0.134D-02-0.666D-02-0.365D-01-0.647D-01 0.213D+00 0.893D+00
 Coeff:      0.134D-02-0.666D-02-0.365D-01-0.647D-01 0.213D+00 0.893D+00
 Gap=     0.287 Goal=   None    Shift=    0.000
 RMSDP=6.82D-05 MaxDP=6.37D-03 DE=-1.32D-04 OVMax= 1.58D-03

 Cycle   7  Pass 1  IDiag  1:
 RMSU=  5.09D-05    CP:  4.26D-01  9.62D-01  8.39D-01  9.63D-01  9.96D-01
                    CP:  9.57D-01
 E= -764.750745484676     Delta-E=       -0.000019194166 Rises=F Damp=F
 DIIS: error= 2.60D-05 at cycle   7 NSaved=   7.
 NSaved= 7 IEnMin= 7 EnMin= -764.750745484676     IErMin= 7 ErrMin= 2.60D-05
 ErrMax= 2.60D-05  0.00D+00 EMaxC= 1.00D-01 BMatC= 1.32D-06 BMatP= 1.08D-05
 IDIUse=1 WtCom= 1.00D+00 WtEn= 0.00D+00
 Coeff-Com:  0.321D-03 0.371D-03-0.151D-02-0.296D-01-0.606D-01 0.182D+00
 Coeff-Com:  0.909D+00
 Coeff:      0.321D-03 0.371D-03-0.151D-02-0.296D-01-0.606D-01 0.182D+00
 Coeff:      0.909D+00
 Gap=     0.288 Goal=   None    Shift=    0.000
 RMSDP=2.12D-05 MaxDP=1.65D-03 DE=-1.92D-05 OVMax= 9.92D-04

 Cycle   8  Pass 1  IDiag  1:
 RMSU=  1.55D-05    CP:  4.26D-01  9.62D-01  8.40D-01  9.68D-01  1.00D+00
                    CP:  1.03D+00  1.02D+00
 E= -764.750748624458     Delta-E=       -0.000003139782 Rises=F Damp=F
 DIIS: error= 9.50D-06 at cycle   8 NSaved=   8.
 NSaved= 8 IEnMin= 8 EnMin= -764.750748624458     IErMin= 8 ErrMin= 9.50D-06
 ErrMax= 9.50D-06  0.00D+00 EMaxC= 1.00D-01 BMatC= 2.05D-07 BMatP= 1.32D-06
 IDIUse=1 WtCom= 1.00D+00 WtEn= 0.00D+00
 Coeff-Com: -0.210D-03 0.917D-03 0.616D-02 0.922D-02-0.191D-01-0.156D+00
 Coeff-Com: -0.622D-01 0.122D+01
 Coeff:     -0.210D-03 0.917D-03 0.616D-02 0.922D-02-0.191D-01-0.156D+00
 Coeff:     -0.622D-01 0.122D+01
 Gap=     0.288 Goal=   None    Shift=    0.000
 RMSDP=1.16D-05 MaxDP=6.66D-04 DE=-3.14D-06 OVMax= 5.72D-04

 Cycle   9  Pass 1  IDiag  1:
 RMSU=  7.83D-06    CP:  4.26D-01  9.62D-01  8.41D-01  9.67D-01  1.00D+00
                    CP:  1.02D+00  1.13D+00  1.35D+00
 E= -764.750749408304     Delta-E=       -0.000000783846 Rises=F Damp=F
 DIIS: error= 5.87D-06 at cycle   9 NSaved=   9.
 NSaved= 9 IEnMin= 9 EnMin= -764.750749408304     IErMin= 9 ErrMin= 5.87D-06
 ErrMax= 5.87D-06  0.00D+00 EMaxC= 1.00D-01 BMatC= 3.72D-08 BMatP= 2.05D-07
 IDIUse=1 WtCom= 1.00D+00 WtEn= 0.00D+00
 Coeff-Com: -0.917D-04 0.159D-03 0.171D-02 0.566D-02 0.544D-02-0.586D-01
 Coeff-Com: -0.147D+00 0.257D+00 0.936D+00
 Coeff:     -0.917D-04 0.159D-03 0.171D-02 0.566D-02 0.544D-02-0.586D-01
 Coeff:     -0.147D+00 0.257D+00 0.936D+00
 Gap=     0.288 Goal=   None    Shift=    0.000
 RMSDP=4.52D-06 MaxDP=3.81D-04 DE=-7.84D-07 OVMax= 2.19D-04

 Cycle  10  Pass 1  IDiag  1:
 RMSU=  2.43D-06    CP:  4.26D-01  9.62D-01  8.41D-01  9.67D-01  1.01D+00
                    CP:  1.02D+00  1.16D+00  1.51D+00  1.25D+00
 E= -764.750749552677     Delta-E=       -0.000000144373 Rises=F Damp=F
 DIIS: error= 2.09D-06 at cycle  10 NSaved=  10.
 NSaved=10 IEnMin=10 EnMin= -764.750749552677     IErMin=10 ErrMin= 2.09D-06
 ErrMax= 2.09D-06  0.00D+00 EMaxC= 1.00D-01 BMatC= 7.99D-09 BMatP= 3.72D-08
 IDIUse=1 WtCom= 1.00D+00 WtEn= 0.00D+00
 Coeff-Com:  0.489D-04-0.206D-03-0.138D-02-0.269D-02 0.330D-02 0.403D-01
 Coeff-Com:  0.234D-01-0.290D+00-0.609D-01 0.129D+01
 Coeff:      0.489D-04-0.206D-03-0.138D-02-0.269D-02 0.330D-02 0.403D-01
 Coeff:      0.234D-01-0.290D+00-0.609D-01 0.129D+01
 Gap=     0.288 Goal=   None    Shift=    0.000
 RMSDP=3.16D-06 MaxDP=1.62D-04 DE=-1.44D-07 OVMax= 1.19D-04

 Cycle  11  Pass 1  IDiag  1:
 RMSU=  1.55D-06    CP:  4.26D-01  9.62D-01  8.41D-01  9.67D-01  1.01D+00
                    CP:  1.02D+00  1.16D+00  1.58D+00  1.52D+00  1.44D+00
 E= -764.750749598450     Delta-E=       -0.000000045773 Rises=F Damp=F
 DIIS: error= 1.15D-06 at cycle  11 NSaved=  11.
 NSaved=11 IEnMin=11 EnMin= -764.750749598450     IErMin=11 ErrMin= 1.15D-06
 ErrMax= 1.15D-06  0.00D+00 EMaxC= 1.00D-01 BMatC= 1.41D-09 BMatP= 7.99D-09
 IDIUse=1 WtCom= 1.00D+00 WtEn= 0.00D+00
 Coeff-Com:  0.245D-04-0.563D-04-0.475D-03-0.149D-02-0.114D-02 0.173D-01
 Coeff-Com:  0.345D-01-0.785D-01-0.212D+00 0.696D-01 0.117D+01
 Coeff:      0.245D-04-0.563D-04-0.475D-03-0.149D-02-0.114D-02 0.173D-01
 Coeff:      0.345D-01-0.785D-01-0.212D+00 0.696D-01 0.117D+01
 Gap=     0.288 Goal=   None    Shift=    0.000
 RMSDP=1.41D-06 MaxDP=5.10D-05 DE=-4.58D-08 OVMax= 5.54D-05

 Cycle  12  Pass 1  IDiag  1:
 RMSU=  5.55D-07    CP:  4.26D-01  9.62D-01  8.41D-01  9.67D-01  1.01D+00
                    CP:  1.02D+00  1.17D+00  1.62D+00  1.61D+00  1.70D+00
                    CP:  1.47D+00
 E= -764.750749606385     Delta-E=       -0.000000007934 Rises=F Damp=F
 DIIS: error= 2.90D-07 at cycle  12 NSaved=  12.
 NSaved=12 IEnMin=12 EnMin= -764.750749606385     IErMin=12 ErrMin= 2.90D-07
 ErrMax= 2.90D-07  0.00D+00 EMaxC= 1.00D-01 BMatC= 1.58D-10 BMatP= 1.41D-09
 IDIUse=1 WtCom= 1.00D+00 WtEn= 0.00D+00
 Coeff-Com: -0.425D-05 0.205D-04 0.144D-03 0.292D-03-0.639D-03-0.407D-02
 Coeff-Com: -0.140D-02 0.354D-01-0.519D-02-0.178D+00 0.685D-01 0.108D+01
 Coeff:     -0.425D-05 0.205D-04 0.144D-03 0.292D-03-0.639D-03-0.407D-02
 Coeff:     -0.140D-02 0.354D-01-0.519D-02-0.178D+00 0.685D-01 0.108D+01
 Gap=     0.288 Goal=   None    Shift=    0.000
 RMSDP=4.91D-07 MaxDP=3.00D-05 DE=-7.93D-09 OVMax= 1.51D-05

 Cycle  13  Pass 1  IDiag  1:
 RMSU=  2.42D-07    CP:  4.26D-01  9.62D-01  8.41D-01  9.67D-01  1.01D+00
                    CP:  1.02D+00  1.17D+00  1.62D+00  1.62D+00  1.76D+00
                    CP:  1.63D+00  1.28D+00
 E= -764.750749606997     Delta-E=       -0.000000000612 Rises=F Damp=F
 DIIS: error= 7.34D-08 at cycle  13 NSaved=  13.
 NSaved=13 IEnMin=13 EnMin= -764.750749606997     IErMin=13 ErrMin= 7.34D-08
 ErrMax= 7.34D-08  0.00D+00 EMaxC= 1.00D-01 BMatC= 1.69D-11 BMatP= 1.58D-10
 IDIUse=1 WtCom= 1.00D+00 WtEn= 0.00D+00
 Coeff-Com: -0.339D-05 0.916D-05 0.730D-04 0.232D-03 0.379D-04-0.249D-02
 Coeff-Com: -0.468D-02 0.137D-01 0.269D-01-0.252D-01-0.144D+00 0.124D+00
 Coeff-Com:  0.101D+01
 Coeff:     -0.339D-05 0.916D-05 0.730D-04 0.232D-03 0.379D-04-0.249D-02
 Coeff:     -0.468D-02 0.137D-01 0.269D-01-0.252D-01-0.144D+00 0.124D+00
 Coeff:      0.101D+01
 Gap=     0.288 Goal=   None    Shift=    0.000
 RMSDP=1.37D-07 MaxDP=9.47D-06 DE=-6.12D-10 OVMax= 3.33D-06

 Cycle  14  Pass 1  IDiag  1:
 RMSU=  6.99D-08    CP:  4.26D-01  9.62D-01  8.41D-01  9.67D-01  1.01D+00
                    CP:  1.02D+00  1.17D+00  1.63D+00  1.63D+00  1.76D+00
                    CP:  1.65D+00  1.38D+00  1.20D+00
 E= -764.750749607056     Delta-E=       -0.000000000059 Rises=F Damp=F
 DIIS: error= 2.16D-08 at cycle  14 NSaved=  14.
 NSaved=14 IEnMin=14 EnMin= -764.750749607056     IErMin=14 ErrMin= 2.16D-08
 ErrMax= 2.16D-08  0.00D+00 EMaxC= 1.00D-01 BMatC= 1.59D-12 BMatP= 1.69D-11
 IDIUse=1 WtCom= 1.00D+00 WtEn= 0.00D+00
 Coeff-Com:  0.227D-06-0.133D-05-0.106D-04-0.146D-04 0.445D-04 0.325D-03
 Coeff-Com: -0.108D-03-0.274D-02 0.122D-02 0.144D-01-0.124D-01-0.905D-01
 Coeff-Com:  0.247D-01 0.107D+01
 Coeff:      0.227D-06-0.133D-05-0.106D-04-0.146D-04 0.445D-04 0.325D-03
 Coeff:     -0.108D-03-0.274D-02 0.122D-02 0.144D-01-0.124D-01-0.905D-01
 Coeff:      0.247D-01 0.107D+01
 Gap=     0.288 Goal=   None    Shift=    0.000
 RMSDP=3.99D-08 MaxDP=2.12D-06 DE=-5.91D-11 OVMax= 1.00D-06

 Cycle  15  Pass 1  IDiag  1:
 RMSU=  2.41D-08    CP:  4.26D-01  9.62D-01  8.41D-01  9.67D-01  1.01D+00
                    CP:  1.02D+00  1.17D+00  1.63D+00  1.63D+00  1.77D+00
                    CP:  1.65D+00  1.39D+00  1.28D+00  1.17D+00
 E= -764.750749607064     Delta-E=       -0.000000000008 Rises=F Damp=F
 DIIS: error= 1.34D-08 at cycle  15 NSaved=  15.
 NSaved=15 IEnMin=15 EnMin= -764.750749607064     IErMin=15 ErrMin= 1.34D-08
 ErrMax= 1.34D-08  0.00D+00 EMaxC= 1.00D-01 BMatC= 2.59D-13 BMatP= 1.59D-12
 IDIUse=1 WtCom= 1.00D+00 WtEn= 0.00D+00
 Coeff-Com:  0.447D-06-0.132D-05-0.110D-04-0.313D-04-0.656D-06 0.382D-03
 Coeff-Com:  0.542D-03-0.220D-02-0.308D-02 0.595D-02 0.159D-01-0.302D-01
 Coeff-Com: -0.122D+00 0.185D+00 0.950D+00
 Coeff:      0.447D-06-0.132D-05-0.110D-04-0.313D-04-0.656D-06 0.382D-03
 Coeff:      0.542D-03-0.220D-02-0.308D-02 0.595D-02 0.159D-01-0.302D-01
 Coeff:     -0.122D+00 0.185D+00 0.950D+00
 Gap=     0.288 Goal=   None    Shift=    0.000
 RMSDP=1.31D-08 MaxDP=7.69D-07 DE=-7.73D-12 OVMax= 3.98D-07

 Cycle  16  Pass 1  IDiag  1:
 RMSU=  8.26D-09    CP:  4.26D-01  9.62D-01  8.41D-01  9.67D-01  1.01D+00
                    CP:  1.02D+00  1.17D+00  1.63D+00  1.63D+00  1.77D+00
                    CP:  1.66D+00  1.39D+00  1.29D+00  1.25D+00  1.21D+00
 E= -764.750749607042     Delta-E=        0.000000000021 Rises=F Damp=F
 DIIS: error= 5.98D-09 at cycle  16 NSaved=  16.
 NSaved=16 IEnMin=15 EnMin= -764.750749607064     IErMin=16 ErrMin= 5.98D-09
 ErrMax= 5.98D-09  0.00D+00 EMaxC= 1.00D-01 BMatC= 4.44D-14 BMatP= 2.59D-13
 IDIUse=1 WtCom= 1.00D+00 WtEn= 0.00D+00
 Coeff-Com: -0.240D-07 0.177D-06 0.133D-05 0.128D-05-0.652D-05-0.334D-04
 Coeff-Com:  0.145D-04 0.340D-03-0.158D-03-0.172D-02 0.157D-02 0.122D-01
 Coeff-Com: -0.438D-02-0.155D+00 0.229D-01 0.112D+01
 Coeff:     -0.240D-07 0.177D-06 0.133D-05 0.128D-05-0.652D-05-0.334D-04
 Coeff:      0.145D-04 0.340D-03-0.158D-03-0.172D-02 0.157D-02 0.122D-01
 Coeff:     -0.438D-02-0.155D+00 0.229D-01 0.112D+01
 Gap=     0.288 Goal=   None    Shift=    0.000
 RMSDP=6.20D-09 MaxDP=3.31D-07 DE= 2.14D-11 OVMax= 2.66D-07

 SCF Done:  E(RHF) =  -764.750749607     A.U. after   16 cycles
            NFock= 16  Conv=0.62D-08     -V/T= 2.0010
 KE= 7.639610791850D+02 PE=-4.661697717842D+03 EE= 1.684289863471D+03
 Leave Link  502 at Sun Jul 18 15:05:55 2021, MaxMem=   262144000 cpu:            5835.8 elap:            1459.3
 (Enter /prod/apps/gaussian/g16b1/l801.exe)
 ExpMin= 2.97D-02 ExpMax= 9.05D+03 ExpMxC= 3.09D+02 IAcc=3 IRadAn=         5 AccDes= 0.00D+00
 HarFok:  IExCor=  205 AccDes= 0.00D+00 IRadAn=         5 IDoV=-2 UseB2=F ITyADJ=14
 ICtDFT= 12500011 ScaDFX=  1.000000  1.000000  1.000000  1.000000
 Largest valence mixing into a core orbital is  1.08D-04
 Largest core mixing into a valence orbital is  4.02D-05
 Range of M.O.s used for correlation:    20   624
 NBasis=   626 NAE=    68 NBE=    68 NFC=    19 NFV=     0
 NROrb=    605 NOA=    49 NOB=    49 NVA=   556 NVB=   556

 **** Warning!!: The largest alpha MO coefficient is  0.14220294D+03

 Leave Link  801 at Sun Jul 18 15:05:55 2021, MaxMem=   262144000 cpu:               1.1 elap:               0.3
 (Enter /prod/apps/gaussian/g16b1/l906.exe)
 FulOut=F Deriv=F AODrv=F NAtomX=    40
   MMem=           3  MDisk=          49 MDiskD=          49
  W3Min=    18090016 MinDsk=    18945612 NBas6D=         664
 NBas2D=      221647    NTT=      220780    LW2=     2000000
    MDV=   259351888 MDiskM=        5383 NBas2p=      208911
 Disk-based method using OVN memory for 49 occupieds at a time.
 Estimated scratch disk usage= 17332961876 words.
 IMap=   1   2   3   4   5   6   7   8   9  10  11  12  13  14  15  16  17  18  19  20
 IMap=  21  22  23  24  25  26  27  28  29  30  31  32  33  34  35  36  37  38  39  40
 IMap=  41  42  43  44  45  46  47  48  49
 Actual    scratch disk usage= 17119365204 words.
 JobTyp=1 Pass  1:  I=   1 to  49 NPSUse=  4 ParTrn=T ParDer=T DoDerP=F.
