 Entering Gaussian System, Link 0=g16
 Initial command:
 /prod/apps/gaussian/g16b1/l1.exe "/tmp/ubator02/1839666/Gau-192744.inp" -scrdir="/tmp/ubator02/1839666/"
 Entering Link 1 = /prod/apps/gaussian/g16b1/l1.exe PID=    192745.
  
 Copyright (c) 1988-2017, Gaussian, Inc.  All Rights Reserved.
  
 This is part of the Gaussian(R) 16 program.  It is based on
 the Gaussian(R) 09 system (copyright 2009, Gaussian, Inc.),
 the Gaussian(R) 03 system (copyright 2003, Gaussian, Inc.),
 the Gaussian(R) 98 system (copyright 1998, Gaussian, Inc.),
 the Gaussian(R) 94 system (copyright 1995, Gaussian, Inc.),
 the Gaussian 92(TM) system (copyright 1992, Gaussian, Inc.),
 the Gaussian 90(TM) system (copyright 1990, Gaussian, Inc.),
 the Gaussian 88(TM) system (copyright 1988, Gaussian, Inc.),
 the Gaussian 86(TM) system (copyright 1986, Carnegie Mellon
 University), and the Gaussian 82(TM) system (copyright 1983,
 Carnegie Mellon University). Gaussian is a federally registered
 trademark of Gaussian, Inc.
  
 This software contains proprietary and confidential information,
 including trade secrets, belonging to Gaussian, Inc.
  
 This software is provided under written license and may be
 used, copied, transmitted, or stored only in accord with that
 written license.
  
 The following legend is applicable only to US Government
 contracts under FAR:
  
                    RESTRICTED RIGHTS LEGEND
  
 Use, reproduction and disclosure by the US Government is
 subject to restrictions as set forth in subparagraphs (a)
 and (c) of the Commercial Computer Software - Restricted
 Rights clause in FAR 52.227-19.
  
 Gaussian, Inc.
 340 Quinnipiac St., Bldg. 40, Wallingford CT 06492
  
  
 ---------------------------------------------------------------
 Warning -- This program may not be used in any manner that
 competes with the business of Gaussian, Inc. or will provide
 assistance to any competitor of Gaussian, Inc.  The licensee
 of this program is prohibited from giving any competitor of
 Gaussian, Inc. access to this program.  By using this program,
 the user acknowledges that Gaussian, Inc. is engaged in the
 business of creating and licensing software in the field of
 computational chemistry and represents and warrants to the
 licensee that it is not a competitor of Gaussian, Inc. and that
 it will not use this program in any manner prohibited above.
 ---------------------------------------------------------------
  

 Cite this work as:
 Gaussian 16, Revision B.01,
 M. J. Frisch, G. W. Trucks, H. B. Schlegel, G. E. Scuseria, 
 M. A. Robb, J. R. Cheeseman, G. Scalmani, V. Barone, 
 G. A. Petersson, H. Nakatsuji, X. Li, M. Caricato, A. V. Marenich, 
 J. Bloino, B. G. Janesko, R. Gomperts, B. Mennucci, H. P. Hratchian, 
 J. V. Ortiz, A. F. Izmaylov, J. L. Sonnenberg, D. Williams-Young, 
 F. Ding, F. Lipparini, F. Egidi, J. Goings, B. Peng, A. Petrone, 
 T. Henderson, D. Ranasinghe, V. G. Zakrzewski, J. Gao, N. Rega, 
 G. Zheng, W. Liang, M. Hada, M. Ehara, K. Toyota, R. Fukuda, 
 J. Hasegawa, M. Ishida, T. Nakajima, Y. Honda, O. Kitao, H. Nakai, 
 T. Vreven, K. Throssell, J. A. Montgomery, Jr., J. E. Peralta, 
 F. Ogliaro, M. J. Bearpark, J. J. Heyd, E. N. Brothers, K. N. Kudin, 
 V. N. Staroverov, T. A. Keith, R. Kobayashi, J. Normand, 
 K. Raghavachari, A. P. Rendell, J. C. Burant, S. S. Iyengar, 
 J. Tomasi, M. Cossi, J. M. Millam, M. Klene, C. Adamo, R. Cammi, 
 J. W. Ochterski, R. L. Martin, K. Morokuma, O. Farkas, 
 J. B. Foresman, and D. J. Fox, Gaussian, Inc., Wallingford CT, 2016.
 
 ******************************************
 Gaussian 16:  ES64L-G16RevB.01 20-Dec-2017
                18-Jul-2021 
 ******************************************
 %mem=800MB
 %nproc=4
 Will use up to    4 processors via shared memory.
 %chk=SET_328_BBB321_conf1.geo_180_150_045.chk
 -----------------------------------------------------------
 #p b3lyp/6-31G(d) opt freq scrf=(iefpcm,read,solvent=water)
 -----------------------------------------------------------
 1/18=20,19=15,26=3,38=1,40=2/1,3;
 2/9=110,12=2,17=6,18=5,40=1/2;
 3/5=1,6=6,7=1,11=2,25=1,30=1,70=2203,71=1,72=1,74=-5/1,2,3;
 4//1;
 5/5=2,38=5,53=1/2;
 6/7=2,8=2,9=2,10=2,28=1/1;
 7//1,2,3,16;
 1/18=20,19=15,26=3/3(2);
 2/9=110/2;
 99//99;
 2/9=110/2;
 3/5=1,6=6,7=1,11=2,25=1,30=1,70=2205,71=1,72=1,74=-5/1,2,3;
 4/5=5,16=3,69=1/1;
 5/5=2,38=5,53=1/2;
 7//1,2,3,16;
 1/18=20,19=15,26=3/3(-5);
 2/9=110/2;
 6/7=2,8=2,9=2,10=2,19=2,28=1/1;
 99/9=1/99;
 Leave Link    1 at Sun Jul 18 15:30:46 2021, MaxMem=   104857600 cpu:               0.1 elap:               0.0
 (Enter /prod/apps/gaussian/g16b1/l101.exe)
 ---------------------------------------------
 SET_328_BBB321_conf1.geo_180_150_045 geometry
 ---------------------------------------------
 Symbolic Z-matrix:
 Charge =  1 Multiplicity = 1
 C                    -2.465     3.189     4.617 
 H                    -3.41      3.56      4.215 
 H                    -2.014     4.016     5.17 
 H                    -2.719     2.359     5.279 
 C                    -1.582     2.735     3.489 
 O                    -0.339     2.833     3.512 
 N                    -2.175     2.266     2.397 
 H                    -3.183     2.306     2.373 
 C                    -1.596     1.76      1.167 
 C                    -2.206     2.115    -0.009 
 C                    -1.825     1.701    -1.237 
 C                    -0.783     0.821    -1.301 
 H                    -0.421     0.28     -2.171 
 H                    -2.39      1.921    -2.139 
 H                    -3.08      2.755     0.076 
 C                    -0.575     0.9       1.092 
 H                    -0.089     0.508     1.981 
 C                    -0.174     0.33     -0.132 
 C                     0.904    -0.614    -0.302 
 N                     1.014    -1.614    -1.286 
 C                     1.993    -0.426     0.501 
 H                     2.25      0.281     1.279 
 S                     3.167    -1.568     0.026 
 C                     2.19     -2.232    -1.235 
 N                     2.716    -3.23     -1.958 
 C                     2.053    -3.721    -2.886 
 N                     2.119    -2.933    -3.931 
 H                     1.306    -2.327    -3.947 
 H                     2.181    -3.462    -4.794 
 N                     2.681    -4.731    -3.446 
 H                     2.848    -5.316    -2.635 
 H                     3.605    -4.463    -3.767 
 H                     3.632    -3.575    -1.753 
 
 ITRead=  0  0  0  0  0  0  0  0  0  0  0  0  0  0  0  0  0  0  0  0
 ITRead=  0  0  0  0  0  0  0  0  0  0  0  0  0
 MicOpt= -1 -1 -1 -1 -1 -1 -1 -1 -1 -1 -1 -1 -1 -1 -1 -1 -1 -1 -1 -1
 MicOpt= -1 -1 -1 -1 -1 -1 -1 -1 -1 -1 -1 -1 -1
 NAtoms=     33 NQM=       33 NQMF=       0 NMMI=      0 NMMIF=      0
                NMic=       0 NMicF=      0.
                    Isotopes and Nuclear Properties:
 (Nuclear quadrupole moments (NQMom) in fm**2, nuclear magnetic moments (NMagM)
  in nuclear magnetons)

  Atom         1           2           3           4           5           6           7           8           9          10
 IAtWgt=          12           1           1           1          12          16          14           1          12          12
 AtmWgt=  12.0000000   1.0078250   1.0078250   1.0078250  12.0000000  15.9949146  14.0030740   1.0078250  12.0000000  12.0000000
 NucSpn=           0           1           1           1           0           0           2           1           0           0
 AtZEff=  -0.0000000  -0.0000000  -0.0000000  -0.0000000  -0.0000000  -0.0000000  -0.0000000  -0.0000000  -0.0000000  -0.0000000
 NQMom=    0.0000000   0.0000000   0.0000000   0.0000000   0.0000000   0.0000000   2.0440000   0.0000000   0.0000000   0.0000000
 NMagM=    0.0000000   2.7928460   2.7928460   2.7928460   0.0000000   0.0000000   0.4037610   2.7928460   0.0000000   0.0000000
 AtZNuc=   6.0000000   1.0000000   1.0000000   1.0000000   6.0000000   8.0000000   7.0000000   1.0000000   6.0000000   6.0000000

  Atom        11          12          13          14          15          16          17          18          19          20
 IAtWgt=          12          12           1           1           1          12           1          12          12          14
 AtmWgt=  12.0000000  12.0000000   1.0078250   1.0078250   1.0078250  12.0000000   1.0078250  12.0000000  12.0000000  14.0030740
 NucSpn=           0           0           1           1           1           0           1           0           0           2
 AtZEff=  -0.0000000  -0.0000000  -0.0000000  -0.0000000  -0.0000000  -0.0000000  -0.0000000  -0.0000000  -0.0000000  -0.0000000
 NQMom=    0.0000000   0.0000000   0.0000000   0.0000000   0.0000000   0.0000000   0.0000000   0.0000000   0.0000000   2.0440000
 NMagM=    0.0000000   0.0000000   2.7928460   2.7928460   2.7928460   0.0000000   2.7928460   0.0000000   0.0000000   0.4037610
 AtZNuc=   6.0000000   6.0000000   1.0000000   1.0000000   1.0000000   6.0000000   1.0000000   6.0000000   6.0000000   7.0000000

  Atom        21          22          23          24          25          26          27          28          29          30
 IAtWgt=          12           1          32          12          14          12          14           1           1          14
 AtmWgt=  12.0000000   1.0078250  31.9720718  12.0000000  14.0030740  12.0000000  14.0030740   1.0078250   1.0078250  14.0030740
 NucSpn=           0           1           0           0           2           0           2           1           1           2
 AtZEff=  -0.0000000  -0.0000000  -0.0000000  -0.0000000  -0.0000000  -0.0000000  -0.0000000  -0.0000000  -0.0000000  -0.0000000
 NQMom=    0.0000000   0.0000000   0.0000000   0.0000000   2.0440000   0.0000000   2.0440000   0.0000000   0.0000000   2.0440000
 NMagM=    0.0000000   2.7928460   0.0000000   0.0000000   0.4037610   0.0000000   0.4037610   2.7928460   2.7928460   0.4037610
 AtZNuc=   6.0000000   1.0000000  16.0000000   6.0000000   7.0000000   6.0000000   7.0000000   1.0000000   1.0000000   7.0000000

  Atom        31          32          33
 IAtWgt=           1           1           1
 AtmWgt=   1.0078250   1.0078250   1.0078250
 NucSpn=           1           1           1
 AtZEff=  -0.0000000  -0.0000000  -0.0000000
 NQMom=    0.0000000   0.0000000   0.0000000
 NMagM=    2.7928460   2.7928460   2.7928460
 AtZNuc=   1.0000000   1.0000000   1.0000000
 Leave Link  101 at Sun Jul 18 15:30:47 2021, MaxMem=   104857600 cpu:               0.5 elap:               0.1
 (Enter /prod/apps/gaussian/g16b1/l103.exe)

 GradGradGradGradGradGradGradGradGradGradGradGradGradGradGradGradGradGrad
 Berny optimization.
 Initialization pass.
                           ----------------------------
                           !    Initial Parameters    !
                           ! (Angstroms and Degrees)  !
 --------------------------                            --------------------------
 ! Name  Definition              Value          Derivative Info.                !
 --------------------------------------------------------------------------------
 ! R1    R(1,2)                  1.0919         estimate D2E/DX2                !
 ! R2    R(1,3)                  1.0923         estimate D2E/DX2                !
 ! R3    R(1,4)                  1.0916         estimate D2E/DX2                !
 ! R4    R(1,5)                  1.5027         estimate D2E/DX2                !
 ! R5    R(5,6)                  1.2471         estimate D2E/DX2                !
 ! R6    R(5,7)                  1.3282         estimate D2E/DX2                !
 ! R7    R(7,8)                  1.0091         estimate D2E/DX2                !
 ! R8    R(7,9)                  1.4506         estimate D2E/DX2                !
 ! R9    R(9,10)                 1.3715         estimate D2E/DX2                !
 ! R10   R(9,16)                 1.337          estimate D2E/DX2                !
 ! R11   R(10,11)                1.3508         estimate D2E/DX2                !
 ! R12   R(10,15)                1.0866         estimate D2E/DX2                !
 ! R13   R(11,12)                1.3654         estimate D2E/DX2                !
 ! R14   R(11,14)                1.0868         estimate D2E/DX2                !
 ! R15   R(12,13)                1.0866         estimate D2E/DX2                !
 ! R16   R(12,18)                1.4066         estimate D2E/DX2                !
 ! R17   R(16,17)                1.0864         estimate D2E/DX2                !
 ! R18   R(16,18)                1.4085         estimate D2E/DX2                !
 ! R19   R(18,19)                1.443          estimate D2E/DX2                !
 ! R20   R(19,20)                1.4073         estimate D2E/DX2                !
 ! R21   R(19,21)                1.366          estimate D2E/DX2                !
 ! R22   R(20,24)                1.3295         estimate D2E/DX2                !
 ! R23   R(21,22)                1.0822         estimate D2E/DX2                !
 ! R24   R(21,23)                1.7053         estimate D2E/DX2                !
 ! R25   R(23,24)                1.7279         estimate D2E/DX2                !
 ! R26   R(24,25)                1.3399         estimate D2E/DX2                !
 ! R27   R(25,26)                1.2417         estimate D2E/DX2                !
 ! R28   R(25,33)                1.0001         estimate D2E/DX2                !
 ! R29   R(26,27)                1.3105         estimate D2E/DX2                !
 ! R30   R(26,30)                1.3146         estimate D2E/DX2                !
 ! R31   R(27,28)                1.0141         estimate D2E/DX2                !
 ! R32   R(27,29)                1.0141         estimate D2E/DX2                !
 ! R33   R(30,31)                1.0138         estimate D2E/DX2                !
 ! R34   R(30,32)                1.0142         estimate D2E/DX2                !
 ! A1    A(2,1,3)              106.6472         estimate D2E/DX2                !
 ! A2    A(2,1,4)              106.2739         estimate D2E/DX2                !
 ! A3    A(2,1,5)              109.5625         estimate D2E/DX2                !
 ! A4    A(3,1,4)              111.3896         estimate D2E/DX2                !
 ! A5    A(3,1,5)              111.4782         estimate D2E/DX2                !
 ! A6    A(4,1,5)              111.2367         estimate D2E/DX2                !
 ! A7    A(1,5,6)              123.2364         estimate D2E/DX2                !
 ! A8    A(1,5,7)              117.4832         estimate D2E/DX2                !
 ! A9    A(6,5,7)              119.2046         estimate D2E/DX2                !
 ! A10   A(5,7,8)              116.8434         estimate D2E/DX2                !
 ! A11   A(5,7,9)              129.9499         estimate D2E/DX2                !
 ! A12   A(8,7,9)              113.103          estimate D2E/DX2                !
 ! A13   A(7,9,10)             117.3379         estimate D2E/DX2                !
 ! A14   A(7,9,16)             125.2214         estimate D2E/DX2                !
 ! A15   A(10,9,16)            117.2594         estimate D2E/DX2                !
 ! A16   A(9,10,11)            125.0807         estimate D2E/DX2                !
 ! A17   A(9,10,15)            116.3029         estimate D2E/DX2                !
 ! A18   A(11,10,15)           118.5886         estimate D2E/DX2                !
 ! A19   A(10,11,12)           117.0915         estimate D2E/DX2                !
 ! A20   A(10,11,14)           123.0814         estimate D2E/DX2                !
 ! A21   A(12,11,14)           119.2284         estimate D2E/DX2                !
 ! A22   A(11,12,13)           127.7839         estimate D2E/DX2                !
 ! A23   A(11,12,18)           121.0937         estimate D2E/DX2                !
 ! A24   A(13,12,18)           110.3279         estimate D2E/DX2                !
 ! A25   A(9,16,17)            121.8578         estimate D2E/DX2                !
 ! A26   A(9,16,18)            121.7659         estimate D2E/DX2                !
 ! A27   A(17,16,18)           115.96           estimate D2E/DX2                !
 ! A28   A(12,18,16)           117.2382         estimate D2E/DX2                !
 ! A29   A(12,18,19)           116.9946         estimate D2E/DX2                !
 ! A30   A(16,18,19)           125.4382         estimate D2E/DX2                !
 ! A31   A(18,19,20)           127.2766         estimate D2E/DX2                !
 ! A32   A(18,19,21)           115.8665         estimate D2E/DX2                !
 ! A33   A(20,19,21)           116.5202         estimate D2E/DX2                !
 ! A34   A(19,20,24)           111.8786         estimate D2E/DX2                !
 ! A35   A(19,21,22)           134.5726         estimate D2E/DX2                !
 ! A36   A(19,21,23)           107.0329         estimate D2E/DX2                !
 ! A37   A(22,21,23)           118.3104         estimate D2E/DX2                !
 ! A38   A(21,23,24)            94.0921         estimate D2E/DX2                !
 ! A39   A(20,24,23)           110.4581         estimate D2E/DX2                !
 ! A40   A(20,24,25)           132.281          estimate D2E/DX2                !
 ! A41   A(23,24,25)           117.2609         estimate D2E/DX2                !
 ! A42   A(24,25,26)           119.2207         estimate D2E/DX2                !
 ! A43   A(24,25,33)           120.3914         estimate D2E/DX2                !
 ! A44   A(26,25,33)           120.3879         estimate D2E/DX2                !
 ! A45   A(25,26,27)           109.3476         estimate D2E/DX2                !
 ! A46   A(25,26,30)           111.5371         estimate D2E/DX2                !
 ! A47   A(27,26,30)            95.6376         estimate D2E/DX2                !
 ! A48   A(26,27,28)           109.3613         estimate D2E/DX2                !
 ! A49   A(26,27,29)           111.5928         estimate D2E/DX2                !
 ! A50   A(28,27,29)           110.3216         estimate D2E/DX2                !
 ! A51   A(26,30,31)           100.4429         estimate D2E/DX2                !
 ! A52   A(26,30,32)           111.5329         estimate D2E/DX2                !
 ! A53   A(31,30,32)           104.8083         estimate D2E/DX2                !
 ! D1    D(2,1,5,6)            146.7622         estimate D2E/DX2                !
 ! D2    D(2,1,5,7)            -30.0413         estimate D2E/DX2                !
 ! D3    D(3,1,5,6)             28.9526         estimate D2E/DX2                !
 ! D4    D(3,1,5,7)           -147.8509         estimate D2E/DX2                !
 ! D5    D(4,1,5,6)            -96.0341         estimate D2E/DX2                !
 ! D6    D(4,1,5,7)             87.1624         estimate D2E/DX2                !
 ! D7    D(1,5,7,8)              4.1459         estimate D2E/DX2                !
 ! D8    D(1,5,7,9)           -179.8513         estimate D2E/DX2                !
 ! D9    D(6,5,7,8)           -172.7913         estimate D2E/DX2                !
 ! D10   D(6,5,7,9)              3.2115         estimate D2E/DX2                !
 ! D11   D(5,7,9,10)          -139.4257         estimate D2E/DX2                !
 ! D12   D(5,7,9,16)            45.6186         estimate D2E/DX2                !
 ! D13   D(8,7,9,10)            36.697          estimate D2E/DX2                !
 ! D14   D(8,7,9,16)          -138.2587         estimate D2E/DX2                !
 ! D15   D(7,9,10,11)         -177.864          estimate D2E/DX2                !
 ! D16   D(7,9,10,15)            0.1829         estimate D2E/DX2                !
 ! D17   D(16,9,10,11)          -2.4987         estimate D2E/DX2                !
 ! D18   D(16,9,10,15)         175.5481         estimate D2E/DX2                !
 ! D19   D(7,9,16,17)           -0.1478         estimate D2E/DX2                !
 ! D20   D(7,9,16,18)          172.147          estimate D2E/DX2                !
 ! D21   D(10,9,16,17)        -175.1071         estimate D2E/DX2                !
 ! D22   D(10,9,16,18)          -2.8122         estimate D2E/DX2                !
 ! D23   D(9,10,11,12)           2.6253         estimate D2E/DX2                !
 ! D24   D(9,10,11,14)         173.6699         estimate D2E/DX2                !
 ! D25   D(15,10,11,12)       -175.3806         estimate D2E/DX2                !
 ! D26   D(15,10,11,14)         -4.3361         estimate D2E/DX2                !
 ! D27   D(10,11,12,13)        171.2767         estimate D2E/DX2                !
 ! D28   D(10,11,12,18)          2.5119         estimate D2E/DX2                !
 ! D29   D(14,11,12,13)         -0.1276         estimate D2E/DX2                !
 ! D30   D(14,11,12,18)       -168.8924         estimate D2E/DX2                !
 ! D31   D(11,12,18,16)         -7.2993         estimate D2E/DX2                !
 ! D32   D(11,12,18,19)        178.9239         estimate D2E/DX2                !
 ! D33   D(13,12,18,16)       -177.8479         estimate D2E/DX2                !
 ! D34   D(13,12,18,19)          8.3753         estimate D2E/DX2                !
 ! D35   D(9,16,18,12)           7.4893         estimate D2E/DX2                !
 ! D36   D(9,16,18,19)        -179.3194         estimate D2E/DX2                !
 ! D37   D(17,16,18,12)       -179.7872         estimate D2E/DX2                !
 ! D38   D(17,16,18,19)         -6.5959         estimate D2E/DX2                !
 ! D39   D(12,18,19,20)        -35.9272         estimate D2E/DX2                !
 ! D40   D(12,18,19,21)        137.1295         estimate D2E/DX2                !
 ! D41   D(16,18,19,20)        150.8666         estimate D2E/DX2                !
 ! D42   D(16,18,19,21)        -36.0766         estimate D2E/DX2                !
 ! D43   D(18,19,20,24)        174.2768         estimate D2E/DX2                !
 ! D44   D(21,19,20,24)          1.2593         estimate D2E/DX2                !
 ! D45   D(18,19,21,22)          1.1724         estimate D2E/DX2                !
 ! D46   D(18,19,21,23)       -175.2991         estimate D2E/DX2                !
 ! D47   D(20,19,21,22)        175.001          estimate D2E/DX2                !
 ! D48   D(20,19,21,23)         -1.4705         estimate D2E/DX2                !
 ! D49   D(19,20,24,23)         -0.3839         estimate D2E/DX2                !
 ! D50   D(19,20,24,25)        179.578          estimate D2E/DX2                !
 ! D51   D(19,21,23,24)          1.0213         estimate D2E/DX2                !
 ! D52   D(22,21,23,24)       -176.1243         estimate D2E/DX2                !
 ! D53   D(21,23,24,20)         -0.3795         estimate D2E/DX2                !
 ! D54   D(21,23,24,25)        179.6522         estimate D2E/DX2                !
 ! D55   D(20,24,25,26)          1.0774         estimate D2E/DX2                !
 ! D56   D(20,24,25,33)       -178.9595         estimate D2E/DX2                !
 ! D57   D(23,24,25,26)       -178.9627         estimate D2E/DX2                !
 ! D58   D(23,24,25,33)          1.0004         estimate D2E/DX2                !
 ! D59   D(24,25,26,27)         78.8278         estimate D2E/DX2                !
 ! D60   D(24,25,26,30)       -176.6647         estimate D2E/DX2                !
 ! D61   D(33,25,26,27)       -101.1353         estimate D2E/DX2                !
 ! D62   D(33,25,26,30)          3.3723         estimate D2E/DX2                !
 ! D63   D(25,26,27,28)        -96.0433         estimate D2E/DX2                !
 ! D64   D(25,26,27,29)        141.6151         estimate D2E/DX2                !
 ! D65   D(30,26,27,28)        148.7662         estimate D2E/DX2                !
 ! D66   D(30,26,27,29)         26.4246         estimate D2E/DX2                !
 ! D67   D(25,26,30,31)         55.04           estimate D2E/DX2                !
 ! D68   D(25,26,30,32)        -55.5766         estimate D2E/DX2                !
 ! D69   D(27,26,30,31)        168.4218         estimate D2E/DX2                !
 ! D70   D(27,26,30,32)         57.8052         estimate D2E/DX2                !
 --------------------------------------------------------------------------------
 Trust Radius=3.00D-01 FncErr=1.00D-07 GrdErr=1.00D-06 EigMax=2.50D+02 EigMin=1.00D-04
 Number of steps in this run=    167 maximum allowed number of steps=    198.
 GradGradGradGradGradGradGradGradGradGradGradGradGradGradGradGradGradGrad

 Leave Link  103 at Sun Jul 18 15:30:47 2021, MaxMem=   104857600 cpu:               0.1 elap:               0.0
 (Enter /prod/apps/gaussian/g16b1/l202.exe)
                          Input orientation:                          
 ---------------------------------------------------------------------
 Center     Atomic      Atomic             Coordinates (Angstroms)
 Number     Number       Type             X           Y           Z
 ---------------------------------------------------------------------
      1          6           0       -2.465000    3.189000    4.617000
      2          1           0       -3.410000    3.560000    4.215000
      3          1           0       -2.014000    4.016000    5.170000
      4          1           0       -2.719000    2.359000    5.279000
      5          6           0       -1.582000    2.735000    3.489000
      6          8           0       -0.339000    2.833000    3.512000
      7          7           0       -2.175000    2.266000    2.397000
      8          1           0       -3.183000    2.306000    2.373000
      9          6           0       -1.596000    1.760000    1.167000
     10          6           0       -2.206000    2.115000   -0.009000
     11          6           0       -1.825000    1.701000   -1.237000
     12          6           0       -0.783000    0.821000   -1.301000
     13          1           0       -0.421000    0.280000   -2.171000
     14          1           0       -2.390000    1.921000   -2.139000
     15          1           0       -3.080000    2.755000    0.076000
     16          6           0       -0.575000    0.900000    1.092000
     17          1           0       -0.089000    0.508000    1.981000
     18          6           0       -0.174000    0.330000   -0.132000
     19          6           0        0.904000   -0.614000   -0.302000
     20          7           0        1.014000   -1.614000   -1.286000
     21          6           0        1.993000   -0.426000    0.501000
     22          1           0        2.250000    0.281000    1.279000
     23         16           0        3.167000   -1.568000    0.026000
     24          6           0        2.190000   -2.232000   -1.235000
     25          7           0        2.716000   -3.230000   -1.958000
     26          6           0        2.053000   -3.721000   -2.886000
     27          7           0        2.119000   -2.933000   -3.931000
     28          1           0        1.306000   -2.327000   -3.947000
     29          1           0        2.181000   -3.462000   -4.794000
     30          7           0        2.681000   -4.731000   -3.446000
     31          1           0        2.848000   -5.316000   -2.635000
     32          1           0        3.605000   -4.463000   -3.767000
     33          1           0        3.632000   -3.575000   -1.753000
 ---------------------------------------------------------------------
                    Distance matrix (angstroms):
                    1          2          3          4          5
     1  C    0.000000
     2  H    1.091911   0.000000
     3  H    1.092309   1.751793   0.000000
     4  H    1.091632   1.746991   1.804039   0.000000
     5  C    1.502727   2.132905   2.157162   2.153659   0.000000
     6  O    2.422321   3.233230   2.637059   3.001894   1.247069
     7  N    2.421658   2.550448   3.282979   2.934367   1.328184
     8  H    2.516098   2.239868   3.480499   2.943287   1.998174
     9  C    3.834019   3.977549   4.613921   4.304471   2.518433
    10  C    4.756094   4.623831   5.520209   5.318425   3.606907
    11  C    6.073966   5.974313   6.815027   6.609876   4.843891
    12  C    6.592365   6.695484   7.321013   7.029220   5.219760
    13  H    7.662712   7.776472   8.389614   8.068801   6.277782
    14  H    6.874372   6.640786   7.612613   7.438199   5.743679
    15  H    4.602962   4.229450   5.354934   5.230521   3.727328
    16  C    4.608389   4.986577   5.330128   4.925077   3.182276
    17  H    4.447655   5.033339   5.116777   4.606507   3.076141
    18  C    5.997963   6.308804   6.714417   6.314490   4.569259
    19  C    7.071742   7.512400   7.739148   7.287827   5.636282
    20  N    8.367656   8.752317   9.085462   8.533419   6.960865
    21  C    7.062821   7.672966   7.588608   7.265566   5.630337
    22  H    6.467606   7.169905   6.875449   6.708878   5.058699
    23  S    8.684800   9.332793   9.191548   8.812510   7.284310
    24  C    9.235917   9.726755   9.886109   9.359902   7.824017
    25  N   10.548789  11.033490  11.210968  10.637214   9.150073
    26  C   11.155960  11.544762  11.887001  11.243025   9.774139
    27  N   11.469971  11.793482  12.173680  11.672001  10.043905
    28  H   10.862265  11.113760  11.592055  11.103076   9.447671
    29  H   12.425298  12.717305  13.145334  12.623762  11.007773
    30  N   12.418522  12.826998  13.144904  12.472118  11.045748
    31  H   12.375561  12.840111  13.101271  12.350243  11.042956
    32  H   12.872042  13.315070  13.540184  12.975468  11.461488
    33  H   11.113146  11.666834  11.722991  11.180187   9.720106
                    6          7          8          9         10
     6  O    0.000000
     7  N    2.221623   0.000000
     8  H    3.108599   1.009079   0.000000
     9  C    2.868868   1.450578   2.066669   0.000000
    10  C    4.049525   2.410933   2.581653   1.371532   0.000000
    11  C    5.103197   3.694277   3.904137   2.415603   1.350756
    12  C    5.235480   4.207243   4.632872   2.762918   2.317030
    13  H    6.230652   5.280846   5.690453   3.835788   3.350775
    14  H    6.080473   4.554179   4.597306   3.403820   2.146717
    15  H    4.396051   2.538737   2.342738   2.093457   1.086601
    16  C    3.106217   2.475678   3.227919   1.337036   2.312701
    17  H    2.795011   2.759532   3.599903   2.121591   3.320277
    18  C    4.423909   3.761374   4.385622   2.398830   2.707467
    19  C    5.288994   5.005921   5.690834   3.747511   4.147938
    20  N    6.680361   6.228050   6.809515   4.920689   5.089653
    21  C    5.012527   5.311676   6.144850   4.254771   4.934408
    22  H    4.266370   4.977025   5.900419   4.122099   4.987829
    23  S    6.619141   6.989861   7.799922   5.921455   6.514203
    24  C    7.388104   7.244077   7.904444   6.003288   6.302722
    25  N    8.718595   8.549498   9.176222   7.297881   7.522879
    26  C    9.466308   9.034946   9.560204   7.731971   7.776574
    27  N    9.730713   9.247249   9.762107   7.862257   7.718161
    28  H    9.217825   8.570843   9.030958   7.160878   6.897344
    29  H   10.722269  10.173259  10.649329   8.778869   8.558325
    30  N   10.712061  10.328572  10.852033   9.039114   9.086443
    31  H   10.693399  10.394146  10.933797   9.180093   9.362615
    32  H   11.034971  10.801978  11.384020   9.493181   9.547794
    33  H    9.195191   9.222854   9.902235   8.020013   8.336659
                   11         12         13         14         15
    11  C    0.000000
    12  C    1.365379   0.000000
    13  H    2.205179   1.086566   0.000000
    14  H    1.086844   2.120069   2.563370   0.000000
    15  H    2.099979   3.303437   4.271407   2.465336   0.000000
    16  C    2.761945   2.403321   3.324949   3.843960   3.278461
    17  H    3.846098   3.369144   4.171488   4.926010   4.198109
    18  C    2.413808   1.406600   2.054515   3.386737   3.790610
    19  C    3.698769   2.429649   2.459273   4.544362   5.231185
    20  N    4.364808   3.026328   2.535683   4.981069   6.140362
    21  C    4.703392   3.536720   3.669525   5.629272   6.002892
    22  H    4.995226   4.018344   4.363112   5.991821   5.998065
    23  S    6.099311   4.803202   4.595178   6.909457   7.597094
    24  C    5.620384   4.261912   3.742133   6.248282   7.373045
    25  N    6.742053   5.393074   4.712350   7.255122   8.576188
    26  C    6.867035   5.584343   4.758141   7.220140   8.778366
    27  N    6.654827   5.425036   4.457866   6.863211   8.685562
    28  H    5.776854   4.612498   3.596269   5.913948   7.826126
    29  H    7.440219   6.271398   5.258621   7.544518   9.489263
    30  N    8.158084   6.886583   6.029772   8.465955  10.081359
    31  H    8.545737   7.254411   6.497451   8.947448  10.374572
    32  H    8.595388   7.297695   6.422767   8.907630  10.562074
    33  H    7.607975   6.246707   5.609149   8.162077   9.405588
                   16         17         18         19         20
    16  C    0.000000
    17  H    1.086361   0.000000
    18  C    1.408502   2.122187   0.000000
    19  C    2.534339   2.730755   1.442955   0.000000
    20  N    3.807887   4.048800   2.553859   1.407251   0.000000
    21  C    2.949946   2.719831   2.380780   1.366043   2.358634
    22  H    2.898061   2.452601   2.805191   2.261040   3.420226
    23  S    4.607596   4.328203   3.845731   2.477674   2.521680
    24  C    4.782215   4.800427   3.656357   2.267644   1.329474
    25  N    6.098367   6.111987   4.935583   3.587358   2.441279
    26  C    6.639617   6.794137   5.380952   4.201274   2.842353
    27  N    6.868774   7.188010   5.507941   4.474777   3.155441
    28  H    6.272417   6.717472   4.878962   4.047468   2.770299
    29  H    7.827361   8.174009   6.454420   5.469908   4.133165
    30  N    7.931150   8.035692   6.689345   5.476509   4.142485
    31  H    8.015367   7.990770   6.875668   5.597395   4.346051
    32  H    8.357275   8.449614   7.104007   5.840927   4.580987
    33  H    6.768936   6.667795   5.688787   4.279592   3.304169
                   21         22         23         24         25
    21  C    0.000000
    22  H    1.082212   0.000000
    23  S    1.705305   2.414477   0.000000
    24  C    2.512795   3.555132   1.727873   0.000000
    25  N    3.798924   4.798171   2.627147   1.339929   0.000000
    26  C    4.725716   5.779450   3.788951   2.227485   1.241706
    27  N    5.093481   6.122994   4.315018   2.786549   2.082630
    28  H    4.885742   5.916407   4.452430   2.854019   2.599929
    29  H    6.106526   7.134153   5.271796   3.765563   2.895332
    30  N    5.880916   6.901560   4.721816   3.372626   2.113852
    31  H    5.871765   6.855903   4.607623   3.450220   2.197077
    32  H    6.091940   7.057172   4.791630   3.659318   2.362857
    33  H    4.205120   5.096242   2.721969   2.037483   1.000053
                   26         27         28         29         30
    26  C    0.000000
    27  N    1.310467   0.000000
    28  H    1.904460   1.014131   0.000000
    29  H    1.929748   1.014127   1.664710   0.000000
    30  N    1.314566   1.945218   2.814399   1.917672   0.000000
    31  H    1.799736   2.808869   3.610156   2.922924   1.013822
    32  H    1.932726   2.139157   3.143294   2.021016   1.014219
    33  H    1.948909   2.728556   3.432407   3.371328   2.259864
                   31         32         33
    31  H    0.000000
    32  H    1.606886   0.000000
    33  H    2.103250   2.201243   0.000000
 Stoichiometry    C12H14N5OS(1+)
 Framework group  C1[X(C12H14N5OS)]
 Deg. of freedom    93
 Full point group                 C1      NOp   1
 Largest Abelian subgroup         C1      NOp   1
 Largest concise Abelian subgroup C1      NOp   1
                         Standard orientation:                         
 ---------------------------------------------------------------------
 Center     Atomic      Atomic             Coordinates (Angstroms)
 Number     Number       Type             X           Y           Z
 ---------------------------------------------------------------------
      1          6           0        6.379360   -0.930472    0.764202
      2          1           0        6.847538    0.049377    0.878105
      3          1           0        7.019207   -1.506789    0.092195
      4          1           0        6.348965   -1.372802    1.761739
      5          6           0        4.996516   -0.764848    0.199844
      6          8           0        4.467286   -1.593990   -0.566720
      7          7           0        4.344898    0.354766    0.492987
      8          1           0        4.848657    1.049497    1.023850
      9          6           0        3.017137    0.789208    0.102489
     10          6           0        2.860785    2.108651   -0.237694
     11          6           0        1.690609    2.687643   -0.584099
     12          6           0        0.572730    1.904868   -0.540851
     13          1           0       -0.462306    2.215540   -0.654027
     14          1           0        1.584060    3.756252   -0.751286
     15          1           0        3.752856    2.727210   -0.189789
     16          6           0        1.916104    0.031531    0.138786
     17          1           0        1.941761   -1.001545    0.473865
     18          6           0        0.637046    0.570209   -0.101451
     19          6           0       -0.601741   -0.169021   -0.068839
     20          7           0       -1.878739    0.321790    0.260912
     21          6           0       -0.543116   -1.451210   -0.536419
     22          1           0        0.244346   -2.081167   -0.929152
     23         16           0       -2.135106   -2.062238   -0.519828
     24          6           0       -2.824629   -0.593708    0.074749
     25          7           0       -4.151277   -0.570072    0.261451
     26          6           0       -4.687556    0.473014    0.669139
     27          7           0       -4.815790    1.313633   -0.327977
     28          1           0       -4.034401    1.960073   -0.325351
     29          1           0       -5.692600    1.820759   -0.278172
     30          7           0       -5.976848    0.307894    0.865466
     31          1           0       -5.966515   -0.485664    1.496333
     32          1           0       -6.440220   -0.031502    0.029560
     33          1           0       -4.703114   -1.382778    0.074129
 ---------------------------------------------------------------------
 Rotational constants (GHZ):           0.8911746           0.1369003           0.1224452
 Leave Link  202 at Sun Jul 18 15:30:47 2021, MaxMem=   104857600 cpu:               0.0 elap:               0.0
 (Enter /prod/apps/gaussian/g16b1/l301.exe)
 Standard basis: 6-31G(d) (6D, 7F)
 Ernie: Thresh=  0.10000D-02 Tol=  0.10000D-05 Strict=F.
 There are   317 symmetry adapted cartesian basis functions of A   symmetry.
 There are   317 symmetry adapted basis functions of A   symmetry.
   317 basis functions,   612 primitive gaussians,   317 cartesian basis functions
    72 alpha electrons       72 beta electrons
       nuclear repulsion energy      1467.8935273159 Hartrees.
 IExCor=  402 DFT=T Ex+Corr=B3LYP ExCW=0 ScaHFX=  0.200000
 ScaDFX=  0.800000  0.720000  1.000000  0.810000 ScalE2=  1.000000  1.000000
 IRadAn=      5 IRanWt=     -1 IRanGd=            0 ICorTp=0 IEmpDi=  4
 NAtoms=   33 NActive=   33 NUniq=   33 SFac= 1.00D+00 NAtFMM=   60 NAOKFM=F Big=F
 Integral buffers will be    131072 words long.
 Raffenetti 2 integral format.
 Two-electron integral symmetry is turned on.
 Using the following non-standard input for PCM:
 MSTModel=DFT cav MSTCharged
 --- end of non-standard input.
 MST model for solvation energy: B3LYP parametrization.
 MST cavity parameters:
 ISph   IAn     Re0     Alpha   Atom Type   QCorr
 ------------------------------------------------
   1      6     1.50     1.25      CH3        F
   2      1     1.20     1.25      CH3        F
   3      1     1.20     1.25      CH3        F
   4      1     1.20     1.25      CH3        F
   5      6     1.50     1.25      C          F
   6      8     1.40     1.25      O          F
   7      7     1.50     1.25      NH         F
   8      1     0.90     1.25      NH         F
   9      6     1.50     1.25      C          F
  10      6     1.50     1.25      CH         F
  11      6     1.50     1.25      CH         F
  12      6     1.50     1.25      CH         F
  13      1     1.20     1.25      CH         F
  14      1     1.20     1.25      CH         F
  15      1     1.20     1.25      CH         F
  16      6     1.50     1.25      CH         F
  17      1     1.20     1.25      CH         F
  18      6     1.50     1.25      C          F
  19      6     1.50     1.25      C          F
  20      7     1.40     1.25      N          F
  21      6     1.50     1.25      CH         F
  22      1     1.20     1.25      CH         F
  23     16     1.75     1.25      S          F
  24      6     1.50     1.25      C          F
  25      7     1.50     1.15      NH         T
  26      6     1.50     1.15      C          T
  27      7     1.55     1.15      NH         T
  28      1     0.90     1.15      NH         T
  29      1     0.90     1.15      NH         T
  30      7     1.55     1.15      NH         T
  31      1     0.90     1.15      NH         T
  32      1     0.90     1.15      NH         T
  33      1     0.90     1.15      NH         T
 ------------------------------------------------------------------------------
 Polarizable Continuum Model (PCM)
 =================================
 Model                : PCM.
 Atomic radii         : MST.
 Polarization charges : Total charges.
 Charge compensation  : None.
 Solution method      : On-the-fly selection.
 Cavity type          : Scaled VdW (van der Waals Surface) (Alpha=1.250).
 Cavity algorithm     : GePol (No added spheres)
                        Default sphere list used, NSphG=   33.
                        Lebedev-Laikov grids with approx.  5.0 points / Ang**2.
                        Smoothing algorithm: York/Karplus (Gamma=1.0000).
                        Polarization charges: spherical gaussians, with
                                              point-specific exponents (IZeta= 3).
                        Self-potential: point-specific (ISelfS= 7).
                        Self-field    : sphere-specific E.n sum rule (ISelfD= 2).
 1st derivatives      : Analytical E(r).r(x)/FMM algorithm (CHGder, D1EAlg=3).
                        Cavity 1st derivative terms included.
 Solvent              : Water, Eps=  78.355300 Eps(inf)=   1.777849
 ------------------------------------------------------------------------------
 GePol: Number of generator spheres                  =      33
 GePol: Total number of spheres                      =      33
 GePol: Number of exposed spheres                    =      33 (100.00%)
 GePol: Number of points                             =    2519
 GePol: Average weight of points                     =       0.12
 GePol: Minimum weight of points                     =   0.12D-09
 GePol: Maximum weight of points                     =    0.22001
 GePol: Number of points with low weight             =     137
 GePol: Fraction of low-weight points (<1% of avg)   =       5.44%
 GePol: Cavity surface area                          =    314.118 Ang**2
 GePol: Cavity volume                                =    292.537 Ang**3
 PCM non-electrostatic energy =         0.0016191324 Hartrees.
 Nuclear repulsion after PCM non-electrostatic terms =     1467.8951464483 Hartrees.
 Leave Link  301 at Sun Jul 18 15:30:47 2021, MaxMem=   104857600 cpu:               0.4 elap:               0.1
 (Enter /prod/apps/gaussian/g16b1/l302.exe)
 NPDir=0 NMtPBC=     1 NCelOv=     1 NCel=       1 NClECP=     1 NCelD=      1
         NCelK=      1 NCelE2=     1 NClLst=     1 CellRange=     0.0.
 One-electron integrals computed using PRISM.
 One-electron integral symmetry used in STVInt
 NBasis=   317 RedAO= T EigKep=  3.56D-04  NBF=   317
 NBsUse=   317 1.00D-06 EigRej= -1.00D+00 NBFU=   317
 Precomputing XC quadrature grid using
 IXCGrd= 4 IRadAn=           5 IRanWt=          -1 IRanGd=           0 AccXCQ= 0.00D+00.
 Generated NRdTot=       0 NPtTot=           0 NUsed=           0 NTot=          32
 NSgBfM=   312   312   312   312   312 MxSgAt=    33 MxSgA2=    33.
 Leave Link  302 at Sun Jul 18 15:30:47 2021, MaxMem=   104857600 cpu:               1.7 elap:               0.5
 (Enter /prod/apps/gaussian/g16b1/l303.exe)
 DipDrv:  MaxL=1.
 Leave Link  303 at Sun Jul 18 15:30:47 2021, MaxMem=   104857600 cpu:               0.2 elap:               0.1
 (Enter /prod/apps/gaussian/g16b1/l401.exe)
 ExpMin= 1.17D-01 ExpMax= 2.19D+04 ExpMxC= 3.30D+03 IAcc=3 IRadAn=         5 AccDes= 0.00D+00
 Harris functional with IExCor=  402 and IRadAn=       5 diagonalized for initial guess.
 HarFok:  IExCor=  402 AccDes= 0.00D+00 IRadAn=         5 IDoV= 1 UseB2=F ITyADJ=14
 ICtDFT=  3500011 ScaDFX=  1.000000  1.000000  1.000000  1.000000
 FoFCou: FMM=F IPFlag=           0 FMFlag=      100000 FMFlg1=           0
         NFxFlg=           0 DoJE=T BraDBF=F KetDBF=T FulRan=T
         wScrn=  0.000000 ICntrl=       500 IOpCl=  0 I1Cent=   200000004 NGrid=           0
         NMat0=    1 NMatS0=      1 NMatT0=    0 NMatD0=    1 NMtDS0=    0 NMtDT0=    0
 Petite list used in FoFCou.
 Harris En= -1212.42795655327    
 JPrj=0 DoOrth=F DoCkMO=F.
 Leave Link  401 at Sun Jul 18 15:30:50 2021, MaxMem=   104857600 cpu:               8.6 elap:               2.2
 (Enter /prod/apps/gaussian/g16b1/l502.exe)
 Integral symmetry usage will be decided dynamically.
 Closed shell SCF:
 Using DIIS extrapolation, IDIIS=  1040.
 NGot=   104857600 LenX=   104651207 LenY=   104550277
 Requested convergence on RMS density matrix=1.00D-08 within 128 cycles.
 Requested convergence on MAX density matrix=1.00D-06.
 Requested convergence on             energy=1.00D-06.
 No special actions if energy rises.
 Fock matrices will be formed incrementally for  20 cycles.

 Cycle   1  Pass 1  IDiag  1:
 FoFJK:  IHMeth= 1 ICntrl=       0 DoSepK=F KAlg= 0 I1Cent=           0 FoldK=F
 IRaf= 710000000 NMat=       1 IRICut=       1 DoRegI=T DoRafI=F ISym2E= 0 IDoP0=0 IntGTp=1.
 FoFCou: FMM=F IPFlag=           0 FMFlag=      100000 FMFlg1=           0
         NFxFlg=           0 DoJE=F BraDBF=F KetDBF=F FulRan=T
         wScrn=  0.000000 ICntrl=         0 IOpCl=  0 I1Cent=           0 NGrid=           0
         NMat0=    1 NMatS0=      1 NMatT0=    0 NMatD0=    1 NMtDS0=    0 NMtDT0=    0
 Symmetry not used in FoFCou.
 Inv3:  Mode=1 IEnd=    19036083.
 Iteration    1 A*A^-1 deviation from unit magnitude is 3.66D-15 for   2184.
 Iteration    1 A*A^-1 deviation from orthogonality  is 2.38D-15 for    831     86.
 Iteration    1 A^-1*A deviation from unit magnitude is 3.66D-15 for   2184.
 Iteration    1 A^-1*A deviation from orthogonality  is 5.88D-15 for   2317   2259.
 E= -1212.06516680247    
 DIIS: error= 2.80D-02 at cycle   1 NSaved=   1.
 NSaved= 1 IEnMin= 1 EnMin= -1212.06516680247     IErMin= 1 ErrMin= 2.80D-02
 ErrMax= 2.80D-02  0.00D+00 EMaxC= 1.00D-01 BMatC= 5.28D-01 BMatP= 5.28D-01
 IDIUse=3 WtCom= 7.20D-01 WtEn= 2.80D-01
 Coeff-Com:  0.100D+01
 Coeff-En:   0.100D+01
 Coeff:      0.100D+01
 Gap=     0.091 Goal=   None    Shift=    0.000
 GapD=    0.091 DampG=0.500 DampE=0.500 DampFc=0.2500 IDamp=-1.
 Damping current iteration by 2.50D-01
 RMSDP=6.73D-03 MaxDP=3.52D-01              OVMax= 9.01D-01

 Cycle   2  Pass 1  IDiag  1:
 RMSU=  1.66D-03    CP:  9.88D-01
 E= -1212.17436479153     Delta-E=       -0.109197989059 Rises=F Damp=T
 DIIS: error= 1.42D-02 at cycle   2 NSaved=   2.
 NSaved= 2 IEnMin= 2 EnMin= -1212.17436479153     IErMin= 2 ErrMin= 1.42D-02
 ErrMax= 1.42D-02  0.00D+00 EMaxC= 1.00D-01 BMatC= 1.24D-01 BMatP= 5.28D-01
 IDIUse=3 WtCom= 8.58D-01 WtEn= 1.42D-01
 Coeff-Com: -0.370D+00 0.137D+01
 Coeff-En:   0.175D+00 0.825D+00
 Coeff:     -0.293D+00 0.129D+01
 Gap=    -0.270 Goal=   None    Shift=    0.000
 RMSDP=2.67D-03 MaxDP=1.15D-01 DE=-1.09D-01 OVMax= 7.69D-01

 Cycle   3  Pass 1  IDiag  1:
 RMSU=  2.63D-03    CP:  9.68D-01  1.09D+00
 E= -1212.26904961083     Delta-E=       -0.094684819299 Rises=F Damp=F
 DIIS: error= 4.69D-02 at cycle   3 NSaved=   3.
 NSaved= 3 IEnMin= 3 EnMin= -1212.26904961083     IErMin= 2 ErrMin= 1.42D-02
 ErrMax= 4.69D-02  0.00D+00 EMaxC= 1.00D-01 BMatC= 3.26D-01 BMatP= 1.24D-01
 IDIUse=2 WtCom= 0.00D+00 WtEn= 1.00D+00
 Coeff-En:   0.000D+00 0.389D+00 0.611D+00
 Coeff:      0.000D+00 0.389D+00 0.611D+00
 Gap=     0.079 Goal=   None    Shift=    0.000
 RMSDP=4.98D-03 MaxDP=3.79D-01 DE=-9.47D-02 OVMax= 9.63D-01

 Cycle   4  Pass 1  IDiag  1:
 RMSU=  1.98D-03    CP:  9.62D-01  2.68D+00 -4.11D-01
 E= -1210.95323481782     Delta-E=        1.315814793004 Rises=F Damp=F
 DIIS: error= 9.80D-02 at cycle   4 NSaved=   4.
 NSaved= 4 IEnMin= 3 EnMin= -1212.26904961083     IErMin= 2 ErrMin= 1.42D-02
 ErrMax= 9.80D-02  0.00D+00 EMaxC= 1.00D-01 BMatC= 1.06D+00 BMatP= 1.24D-01
 IDIUse=2 WtCom= 0.00D+00 WtEn= 1.00D+00
 EnCoef did     1 forward-backward iterations
 Coeff-En:   0.576D-01 0.000D+00 0.729D+00 0.213D+00
 Coeff:      0.576D-01 0.000D+00 0.729D+00 0.213D+00
 Gap=    -0.070 Goal=   None    Shift=    0.000
 RMSDP=4.51D-03 MaxDP=2.62D-01 DE= 1.32D+00 OVMax= 8.59D-01

 Cycle   5  Pass 1  IDiag  1:
 RMSU=  1.65D-03    CP:  9.79D-01  7.72D-01  3.83D-01  1.20D-01
 E= -1212.51297381180     Delta-E=       -1.559738993976 Rises=F Damp=F
 DIIS: error= 1.35D-02 at cycle   5 NSaved=   5.
 NSaved= 5 IEnMin= 5 EnMin= -1212.51297381180     IErMin= 5 ErrMin= 1.35D-02
 ErrMax= 1.35D-02  0.00D+00 EMaxC= 1.00D-01 BMatC= 5.08D-02 BMatP= 1.24D-01
 IDIUse=3 WtCom= 8.65D-01 WtEn= 1.35D-01
 Coeff-Com: -0.195D+00 0.420D+00 0.293D+00 0.539D-02 0.477D+00
 Coeff-En:   0.000D+00 0.000D+00 0.981D-01 0.000D+00 0.902D+00
 Coeff:     -0.169D+00 0.363D+00 0.267D+00 0.466D-02 0.534D+00
 Gap=     0.111 Goal=   None    Shift=    0.000
 RMSDP=9.32D-04 MaxDP=4.47D-02 DE=-1.56D+00 OVMax= 6.43D-02

 Cycle   6  Pass 1  IDiag  1:
 RMSU=  5.46D-04    CP:  9.76D-01  8.79D-01  5.68D-01  6.76D-02  6.75D-01
 E= -1212.54334577421     Delta-E=       -0.030371962407 Rises=F Damp=F
 DIIS: error= 9.89D-03 at cycle   6 NSaved=   6.
 NSaved= 6 IEnMin= 6 EnMin= -1212.54334577421     IErMin= 6 ErrMin= 9.89D-03
 ErrMax= 9.89D-03  0.00D+00 EMaxC= 1.00D-01 BMatC= 1.53D-02 BMatP= 5.08D-02
 IDIUse=3 WtCom= 9.01D-01 WtEn= 9.89D-02
 Coeff-Com: -0.132D+00 0.195D+00 0.591D-01-0.945D-02 0.341D+00 0.546D+00
 Coeff-En:   0.000D+00 0.000D+00 0.000D+00 0.000D+00 0.235D+00 0.765D+00
 Coeff:     -0.119D+00 0.176D+00 0.533D-01-0.852D-02 0.331D+00 0.568D+00
 Gap=     0.083 Goal=   None    Shift=    0.000
 RMSDP=3.84D-04 MaxDP=2.07D-02 DE=-3.04D-02 OVMax= 3.26D-02

 Cycle   7  Pass 1  IDiag  1:
 RMSU=  1.58D-04    CP:  9.76D-01  9.13D-01  5.23D-01  4.46D-02  8.40D-01
                    CP:  6.87D-01
 E= -1212.55588492269     Delta-E=       -0.012539148484 Rises=F Damp=F
 DIIS: error= 5.85D-04 at cycle   7 NSaved=   7.
 NSaved= 7 IEnMin= 7 EnMin= -1212.55588492269     IErMin= 7 ErrMin= 5.85D-04
 ErrMax= 5.85D-04  0.00D+00 EMaxC= 1.00D-01 BMatC= 4.40D-04 BMatP= 1.53D-02
 IDIUse=3 WtCom= 9.94D-01 WtEn= 5.85D-03
 Coeff-Com: -0.288D-01 0.364D-01-0.234D-01 0.687D-03 0.575D-01 0.247D+00
 Coeff-Com:  0.710D+00
 Coeff-En:   0.000D+00 0.000D+00 0.000D+00 0.000D+00 0.000D+00 0.000D+00
 Coeff-En:   0.100D+01
 Coeff:     -0.287D-01 0.362D-01-0.233D-01 0.683D-03 0.571D-01 0.246D+00
 Coeff:      0.712D+00
 Gap=     0.082 Goal=   None    Shift=    0.000
 RMSDP=9.52D-05 MaxDP=5.07D-03 DE=-1.25D-02 OVMax= 1.06D-02

 Cycle   8  Pass 1  IDiag  1:
 RMSU=  5.62D-05    CP:  9.76D-01  9.02D-01  5.10D-01  5.32D-02  8.55D-01
                    CP:  7.81D-01  8.20D-01
 E= -1212.55630818339     Delta-E=       -0.000423260698 Rises=F Damp=F
 DIIS: error= 2.50D-04 at cycle   8 NSaved=   8.
 NSaved= 8 IEnMin= 8 EnMin= -1212.55630818339     IErMin= 8 ErrMin= 2.50D-04
 ErrMax= 2.50D-04  0.00D+00 EMaxC= 1.00D-01 BMatC= 5.64D-05 BMatP= 4.40D-04
 IDIUse=3 WtCom= 9.98D-01 WtEn= 2.50D-03
 Coeff-Com: -0.474D-02 0.564D-02-0.216D-01 0.946D-03-0.107D-01 0.708D-01
 Coeff-Com:  0.385D+00 0.575D+00
 Coeff-En:   0.000D+00 0.000D+00 0.000D+00 0.000D+00 0.000D+00 0.000D+00
 Coeff-En:   0.000D+00 0.100D+01
 Coeff:     -0.473D-02 0.562D-02-0.216D-01 0.943D-03-0.107D-01 0.706D-01
 Coeff:      0.384D+00 0.576D+00
 Gap=     0.082 Goal=   None    Shift=    0.000
 RMSDP=3.31D-05 MaxDP=1.78D-03 DE=-4.23D-04 OVMax= 2.70D-03

 Cycle   9  Pass 1  IDiag  1:
 RMSU=  1.97D-05    CP:  9.76D-01  9.05D-01  5.08D-01  5.05D-02  8.61D-01
                    CP:  7.95D-01  9.18D-01  7.30D-01
 E= -1212.55636493078     Delta-E=       -0.000056747394 Rises=F Damp=F
 DIIS: error= 1.06D-04 at cycle   9 NSaved=   9.
 NSaved= 9 IEnMin= 9 EnMin= -1212.55636493078     IErMin= 9 ErrMin= 1.06D-04
 ErrMax= 1.06D-04  0.00D+00 EMaxC= 1.00D-01 BMatC= 6.00D-06 BMatP= 5.64D-05
 IDIUse=3 WtCom= 9.99D-01 WtEn= 1.06D-03
 Coeff-Com: -0.336D-03 0.771D-03-0.711D-02 0.375D-03-0.101D-01 0.475D-02
 Coeff-Com:  0.829D-01 0.281D+00 0.648D+00
 Coeff-En:   0.000D+00 0.000D+00 0.000D+00 0.000D+00 0.000D+00 0.000D+00
 Coeff-En:   0.000D+00 0.000D+00 0.100D+01
 Coeff:     -0.336D-03 0.770D-03-0.710D-02 0.375D-03-0.101D-01 0.474D-02
 Coeff:      0.828D-01 0.281D+00 0.648D+00
 Gap=     0.082 Goal=   None    Shift=    0.000
 RMSDP=1.13D-05 MaxDP=5.13D-04 DE=-5.67D-05 OVMax= 9.33D-04

 Cycle  10  Pass 1  IDiag  1:
 RMSU=  8.35D-06    CP:  9.77D-01  9.05D-01  5.07D-01  5.01D-02  8.62D-01
                    CP:  8.01D-01  9.29D-01  7.82D-01  7.26D-01
 E= -1212.55637016227     Delta-E=       -0.000005231485 Rises=F Damp=F
 DIIS: error= 3.21D-05 at cycle  10 NSaved=  10.
 NSaved=10 IEnMin=10 EnMin= -1212.55637016227     IErMin=10 ErrMin= 3.21D-05
 ErrMax= 3.21D-05  0.00D+00 EMaxC= 1.00D-01 BMatC= 1.04D-06 BMatP= 6.00D-06
 IDIUse=1 WtCom= 1.00D+00 WtEn= 0.00D+00
 Coeff-Com: -0.227D-03 0.667D-03-0.862D-03 0.666D-04-0.255D-02-0.447D-02
 Coeff-Com: -0.667D-02 0.675D-01 0.355D+00 0.591D+00
 Coeff:     -0.227D-03 0.667D-03-0.862D-03 0.666D-04-0.255D-02-0.447D-02
 Coeff:     -0.667D-02 0.675D-01 0.355D+00 0.591D+00
 Gap=     0.082 Goal=   None    Shift=    0.000
 RMSDP=4.58D-06 MaxDP=2.02D-04 DE=-5.23D-06 OVMax= 4.64D-04

 Cycle  11  Pass 1  IDiag  1:
 RMSU=  2.71D-06    CP:  9.76D-01  9.05D-01  5.07D-01  5.01D-02  8.62D-01
                    CP:  8.01D-01  9.26D-01  7.98D-01  8.08D-01  6.34D-01
 E= -1212.55637121208     Delta-E=       -0.000001049814 Rises=F Damp=F
 DIIS: error= 1.19D-05 at cycle  11 NSaved=  11.
 NSaved=11 IEnMin=11 EnMin= -1212.55637121208     IErMin=11 ErrMin= 1.19D-05
 ErrMax= 1.19D-05  0.00D+00 EMaxC= 1.00D-01 BMatC= 8.14D-08 BMatP= 1.04D-06
 IDIUse=1 WtCom= 1.00D+00 WtEn= 0.00D+00
 Coeff-Com: -0.179D-04 0.957D-04 0.115D-03 0.927D-05-0.313D-03-0.264D-02
 Coeff-Com: -0.110D-01 0.325D-02 0.111D+00 0.293D+00 0.606D+00
 Coeff:     -0.179D-04 0.957D-04 0.115D-03 0.927D-05-0.313D-03-0.264D-02
 Coeff:     -0.110D-01 0.325D-02 0.111D+00 0.293D+00 0.606D+00
 Gap=     0.082 Goal=   None    Shift=    0.000
 RMSDP=1.28D-06 MaxDP=6.43D-05 DE=-1.05D-06 OVMax= 8.74D-05

 Cycle  12  Pass 1  IDiag  1:
 RMSU=  8.24D-07    CP:  9.76D-01  9.05D-01  5.07D-01  5.01D-02  8.62D-01
                    CP:  8.01D-01  9.26D-01  8.04D-01  8.24D-01  7.01D-01
                    CP:  8.42D-01
 E= -1212.55637128889     Delta-E=       -0.000000076808 Rises=F Damp=F
 DIIS: error= 3.05D-06 at cycle  12 NSaved=  12.
 NSaved=12 IEnMin=12 EnMin= -1212.55637128889     IErMin=12 ErrMin= 3.05D-06
 ErrMax= 3.05D-06  0.00D+00 EMaxC= 1.00D-01 BMatC= 8.22D-09 BMatP= 8.14D-08
 IDIUse=1 WtCom= 1.00D+00 WtEn= 0.00D+00
 Coeff-Com: -0.562D-05 0.309D-05 0.158D-03-0.988D-06 0.201D-03-0.694D-03
 Coeff-Com: -0.452D-02-0.720D-02 0.185D-01 0.953D-01 0.306D+00 0.592D+00
 Coeff:     -0.562D-05 0.309D-05 0.158D-03-0.988D-06 0.201D-03-0.694D-03
 Coeff:     -0.452D-02-0.720D-02 0.185D-01 0.953D-01 0.306D+00 0.592D+00
 Gap=     0.082 Goal=   None    Shift=    0.000
 RMSDP=4.29D-07 MaxDP=2.80D-05 DE=-7.68D-08 OVMax= 3.85D-05

 Cycle  13  Pass 1  IDiag  1:
 RMSU=  2.76D-07    CP:  9.76D-01  9.05D-01  5.07D-01  5.01D-02  8.62D-01
                    CP:  8.01D-01  9.27D-01  8.04D-01  8.27D-01  7.10D-01
                    CP:  9.08D-01  7.51D-01
 E= -1212.55637129701     Delta-E=       -0.000000008125 Rises=F Damp=F
 DIIS: error= 1.19D-06 at cycle  13 NSaved=  13.
 NSaved=13 IEnMin=13 EnMin= -1212.55637129701     IErMin=13 ErrMin= 1.19D-06
 ErrMax= 1.19D-06  0.00D+00 EMaxC= 1.00D-01 BMatC= 1.28D-09 BMatP= 8.22D-09
 IDIUse=1 WtCom= 1.00D+00 WtEn= 0.00D+00
 Coeff-Com:  0.347D-05-0.443D-05 0.800D-04-0.656D-06 0.119D-03-0.955D-04
 Coeff-Com: -0.110D-02-0.445D-02-0.111D-02 0.223D-01 0.834D-01 0.313D+00
 Coeff-Com:  0.588D+00
 Coeff:      0.347D-05-0.443D-05 0.800D-04-0.656D-06 0.119D-03-0.955D-04
 Coeff:     -0.110D-02-0.445D-02-0.111D-02 0.223D-01 0.834D-01 0.313D+00
 Coeff:      0.588D+00
 Gap=     0.082 Goal=   None    Shift=    0.000
 RMSDP=1.44D-07 MaxDP=4.88D-06 DE=-8.12D-09 OVMax= 1.21D-05

 Cycle  14  Pass 1  IDiag  1:
 RMSU=  9.70D-08    CP:  9.76D-01  9.05D-01  5.07D-01  5.01D-02  8.62D-01
                    CP:  8.01D-01  9.27D-01  8.04D-01  8.28D-01  7.16D-01
                    CP:  9.23D-01  8.32D-01  8.83D-01
 E= -1212.55637129818     Delta-E=       -0.000000001162 Rises=F Damp=F
 DIIS: error= 6.69D-07 at cycle  14 NSaved=  14.
 NSaved=14 IEnMin=14 EnMin= -1212.55637129818     IErMin=14 ErrMin= 6.69D-07
 ErrMax= 6.69D-07  0.00D+00 EMaxC= 1.00D-01 BMatC= 1.42D-10 BMatP= 1.28D-09
 IDIUse=1 WtCom= 1.00D+00 WtEn= 0.00D+00
 Coeff-Com:  0.155D-04-0.212D-04 0.797D-05 0.378D-06 0.203D-05 0.663D-04
 Coeff-Com:  0.377D-03-0.943D-03-0.352D-02-0.511D-02-0.185D-01 0.446D-01
 Coeff-Com:  0.209D+00 0.774D+00
 Coeff:      0.155D-04-0.212D-04 0.797D-05 0.378D-06 0.203D-05 0.663D-04
 Coeff:      0.377D-03-0.943D-03-0.352D-02-0.511D-02-0.185D-01 0.446D-01
 Coeff:      0.209D+00 0.774D+00
 Gap=     0.082 Goal=   None    Shift=    0.000
 RMSDP=6.13D-08 MaxDP=1.98D-06 DE=-1.16D-09 OVMax= 6.84D-06

 Cycle  15  Pass 1  IDiag  1:
 RMSU=  3.22D-08    CP:  9.76D-01  9.05D-01  5.07D-01  5.01D-02  8.62D-01
                    CP:  8.01D-01  9.27D-01  8.04D-01  8.28D-01  7.18D-01
                    CP:  9.31D-01  8.65D-01  9.82D-01  9.22D-01
 E= -1212.55637129830     Delta-E=       -0.000000000124 Rises=F Damp=F
 DIIS: error= 3.48D-07 at cycle  15 NSaved=  15.
 NSaved=15 IEnMin=15 EnMin= -1212.55637129830     IErMin=15 ErrMin= 3.48D-07
 ErrMax= 3.48D-07  0.00D+00 EMaxC= 1.00D-01 BMatC= 3.61D-11 BMatP= 1.42D-10
 IDIUse=1 WtCom= 1.00D+00 WtEn= 0.00D+00
 Coeff-Com:  0.995D-05-0.140D-04-0.178D-05 0.349D-06-0.988D-05 0.438D-04
 Coeff-Com:  0.327D-03-0.381D-04-0.147D-02-0.425D-02-0.168D-01-0.748D-02
 Coeff-Com:  0.310D-01 0.389D+00 0.610D+00
 Coeff:      0.995D-05-0.140D-04-0.178D-05 0.349D-06-0.988D-05 0.438D-04
 Coeff:      0.327D-03-0.381D-04-0.147D-02-0.425D-02-0.168D-01-0.748D-02
 Coeff:      0.310D-01 0.389D+00 0.610D+00
 Gap=     0.082 Goal=   None    Shift=    0.000
 RMSDP=2.18D-08 MaxDP=8.25D-07 DE=-1.24D-10 OVMax= 1.91D-06

 Cycle  16  Pass 1  IDiag  1:
 RMSU=  1.28D-08    CP:  9.76D-01  9.05D-01  5.07D-01  5.01D-02  8.62D-01
                    CP:  8.01D-01  9.27D-01  8.04D-01  8.28D-01  7.18D-01
                    CP:  9.33D-01  8.71D-01  1.00D+00  1.01D+00  8.51D-01
 E= -1212.55637129834     Delta-E=       -0.000000000036 Rises=F Damp=F
 DIIS: error= 2.15D-07 at cycle  16 NSaved=  16.
 NSaved=16 IEnMin=16 EnMin= -1212.55637129834     IErMin=16 ErrMin= 2.15D-07
 ErrMax= 2.15D-07  0.00D+00 EMaxC= 1.00D-01 BMatC= 7.99D-12 BMatP= 3.61D-11
 IDIUse=1 WtCom= 1.00D+00 WtEn= 0.00D+00
 Coeff-Com:  0.317D-05-0.410D-05-0.171D-05 0.147D-06-0.640D-05 0.128D-04
 Coeff-Com:  0.136D-03 0.203D-03 0.209D-05-0.113D-02-0.543D-02-0.124D-01
 Coeff-Com: -0.290D-01 0.726D-01 0.326D+00 0.649D+00
 Coeff:      0.317D-05-0.410D-05-0.171D-05 0.147D-06-0.640D-05 0.128D-04
 Coeff:      0.136D-03 0.203D-03 0.209D-05-0.113D-02-0.543D-02-0.124D-01
 Coeff:     -0.290D-01 0.726D-01 0.326D+00 0.649D+00
 Gap=     0.082 Goal=   None    Shift=    0.000
 RMSDP=1.07D-08 MaxDP=4.04D-07 DE=-3.64D-11 OVMax= 7.27D-07

 Cycle  17  Pass 1  IDiag  1:
 RMSU=  3.25D-09    CP:  9.76D-01  9.05D-01  5.07D-01  5.01D-02  8.62D-01
                    CP:  8.01D-01  9.27D-01  8.04D-01  8.28D-01  7.19D-01
                    CP:  9.34D-01  8.74D-01  1.01D+00  1.04D+00  9.54D-01
                    CP:  7.89D-01
 E= -1212.55637129834     Delta-E=       -0.000000000007 Rises=F Damp=F
 DIIS: error= 3.59D-08 at cycle  17 NSaved=  17.
 NSaved=17 IEnMin=17 EnMin= -1212.55637129834     IErMin=17 ErrMin= 3.59D-08
 ErrMax= 3.59D-08  0.00D+00 EMaxC= 1.00D-01 BMatC= 4.11D-13 BMatP= 7.99D-12
 IDIUse=1 WtCom= 1.00D+00 WtEn= 0.00D+00
 Coeff-Com:  0.646D-06-0.755D-06-0.544D-06 0.214D-07-0.191D-05 0.283D-05
 Coeff-Com:  0.406D-04 0.107D-03 0.136D-03-0.135D-03-0.985D-03-0.491D-02
 Coeff-Com: -0.171D-01 0.276D-02 0.904D-01 0.263D+00 0.667D+00
 Coeff:      0.646D-06-0.755D-06-0.544D-06 0.214D-07-0.191D-05 0.283D-05
 Coeff:      0.406D-04 0.107D-03 0.136D-03-0.135D-03-0.985D-03-0.491D-02
 Coeff:     -0.171D-01 0.276D-02 0.904D-01 0.263D+00 0.667D+00
 Gap=     0.082 Goal=   None    Shift=    0.000
 RMSDP=2.82D-09 MaxDP=9.27D-08 DE=-7.28D-12 OVMax= 1.98D-07

 Error on total polarization charges =  0.02627
 SCF Done:  E(RB3LYP) =  -1212.55637130     A.U. after   17 cycles
            NFock= 17  Conv=0.28D-08     -V/T= 2.0059
 KE= 1.205426686087D+03 PE=-5.757875390322D+03 EE= 1.871997186488D+03
 Leave Link  502 at Sun Jul 18 15:32:12 2021, MaxMem=   104857600 cpu:             331.0 elap:              82.8
 (Enter /prod/apps/gaussian/g16b1/l601.exe)
 Copying SCF densities to generalized density rwf, IOpCl= 0 IROHF=0.

 **********************************************************************

            Population analysis using the SCF Density.

 **********************************************************************

 Orbital symmetries:
       Occupied  (A) (A) (A) (A) (A) (A) (A) (A) (A) (A) (A) (A)
                 (A) (A) (A) (A) (A) (A) (A) (A) (A) (A) (A) (A)
                 (A) (A) (A) (A) (A) (A) (A) (A) (A) (A) (A) (A)
                 (A) (A) (A) (A) (A) (A) (A) (A) (A) (A) (A) (A)
                 (A) (A) (A) (A) (A) (A) (A) (A) (A) (A) (A) (A)
                 (A) (A) (A) (A) (A) (A) (A) (A) (A) (A) (A) (A)
       Virtual   (A) (A) (A) (A) (A) (A) (A) (A) (A) (A) (A) (A)
                 (A) (A) (A) (A) (A) (A) (A) (A) (A) (A) (A) (A)
                 (A) (A) (A) (A) (A) (A) (A) (A) (A) (A) (A) (A)
                 (A) (A) (A) (A) (A) (A) (A) (A) (A) (A) (A) (A)
                 (A) (A) (A) (A) (A) (A) (A) (A) (A) (A) (A) (A)
                 (A) (A) (A) (A) (A) (A) (A) (A) (A) (A) (A) (A)
                 (A) (A) (A) (A) (A) (A) (A) (A) (A) (A) (A) (A)
                 (A) (A) (A) (A) (A) (A) (A) (A) (A) (A) (A) (A)
                 (A) (A) (A) (A) (A) (A) (A) (A) (A) (A) (A) (A)
                 (A) (A) (A) (A) (A) (A) (A) (A) (A) (A) (A) (A)
                 (A) (A) (A) (A) (A) (A) (A) (A) (A) (A) (A) (A)
                 (A) (A) (A) (A) (A) (A) (A) (A) (A) (A) (A) (A)
                 (A) (A) (A) (A) (A) (A) (A) (A) (A) (A) (A) (A)
                 (A) (A) (A) (A) (A) (A) (A) (A) (A) (A) (A) (A)
                 (A) (A) (A) (A) (A) (A) (A) (A) (A) (A) (A) (A)
                 (A) (A) (A) (A) (A) (A) (A) (A) (A) (A) (A) (A)
                 (A) (A) (A) (A) (A) (A) (A) (A) (A) (A) (A) (A)
                 (A) (A) (A) (A) (A) (A) (A) (A) (A) (A) (A) (A)
                 (A) (A) (A) (A) (A) (A) (A) (A) (A) (A) (A) (A)
                 (A) (A) (A) (A) (A) (A) (A) (A) (A) (A) (A) (A)
                 (A) (A) (A) (A) (A)
 The electronic state is 1-A.
 Alpha  occ. eigenvalues --  -88.92868 -19.10955 -14.42716 -14.36980 -14.36344
 Alpha  occ. eigenvalues --  -14.35586 -14.34904 -10.33180 -10.31268 -10.29216
 Alpha  occ. eigenvalues --  -10.25030 -10.23704 -10.23368 -10.20965 -10.19705
 Alpha  occ. eigenvalues --  -10.19368 -10.19145 -10.19120 -10.18815  -7.99189
 Alpha  occ. eigenvalues --   -5.95566  -5.95172  -5.94916  -1.11962  -1.03035
 Alpha  occ. eigenvalues --   -1.00474  -0.95626  -0.93442  -0.89680  -0.87435
 Alpha  occ. eigenvalues --   -0.82358  -0.80323  -0.77289  -0.74812  -0.73027
 Alpha  occ. eigenvalues --   -0.69205  -0.65485  -0.64195  -0.62110  -0.59873
 Alpha  occ. eigenvalues --   -0.58020  -0.57943  -0.57409  -0.54025  -0.53458
 Alpha  occ. eigenvalues --   -0.53248  -0.49720  -0.47985  -0.47317  -0.46485
 Alpha  occ. eigenvalues --   -0.45701  -0.45020  -0.44528  -0.43288  -0.41652
 Alpha  occ. eigenvalues --   -0.40620  -0.40153  -0.39368  -0.38961  -0.38272
 Alpha  occ. eigenvalues --   -0.36708  -0.36379  -0.34612  -0.33850  -0.30385
 Alpha  occ. eigenvalues --   -0.30100  -0.29285  -0.28883  -0.27021  -0.25281
 Alpha  occ. eigenvalues --   -0.24335  -0.22415
 Alpha virt. eigenvalues --   -0.14184  -0.03771  -0.01510  -0.00850   0.01581
 Alpha virt. eigenvalues --    0.03176   0.05682   0.08253   0.09467   0.09560
 Alpha virt. eigenvalues --    0.10627   0.12170   0.12756   0.14167   0.14242
 Alpha virt. eigenvalues --    0.14790   0.15402   0.15987   0.16839   0.17009
 Alpha virt. eigenvalues --    0.18266   0.18694   0.19412   0.20730   0.21396
 Alpha virt. eigenvalues --    0.23582   0.25109   0.26593   0.28231   0.29128
 Alpha virt. eigenvalues --    0.29772   0.30482   0.31735   0.33066   0.34559
 Alpha virt. eigenvalues --    0.35023   0.36517   0.37473   0.37985   0.40158
 Alpha virt. eigenvalues --    0.41018   0.42630   0.44927   0.46492   0.49246
 Alpha virt. eigenvalues --    0.50025   0.50630   0.52079   0.53491   0.53774
 Alpha virt. eigenvalues --    0.54012   0.55000   0.55237   0.56376   0.56940
 Alpha virt. eigenvalues --    0.57809   0.58102   0.59075   0.59699   0.60531
 Alpha virt. eigenvalues --    0.61187   0.61860   0.62412   0.63310   0.64399
 Alpha virt. eigenvalues --    0.64815   0.65977   0.67852   0.68039   0.69233
 Alpha virt. eigenvalues --    0.69691   0.70816   0.73440   0.74602   0.74825
 Alpha virt. eigenvalues --    0.75840   0.76404   0.77194   0.78624   0.79253
 Alpha virt. eigenvalues --    0.79949   0.81682   0.82125   0.83090   0.83191
 Alpha virt. eigenvalues --    0.83639   0.84664   0.85082   0.85417   0.86308
 Alpha virt. eigenvalues --    0.86498   0.87220   0.87861   0.88891   0.89454
 Alpha virt. eigenvalues --    0.90959   0.91337   0.91885   0.93104   0.93630
 Alpha virt. eigenvalues --    0.94405   0.95551   0.96168   0.96444   0.97750
 Alpha virt. eigenvalues --    0.99669   1.00381   1.01242   1.02059   1.03370
 Alpha virt. eigenvalues --    1.04486   1.04778   1.06127   1.08610   1.08791
 Alpha virt. eigenvalues --    1.11106   1.13344   1.16161   1.16852   1.17831
 Alpha virt. eigenvalues --    1.19400   1.20240   1.24605   1.26580   1.28038
 Alpha virt. eigenvalues --    1.29025   1.30639   1.33290   1.34319   1.37642
 Alpha virt. eigenvalues --    1.38481   1.39164   1.40974   1.41212   1.43531
 Alpha virt. eigenvalues --    1.47329   1.48688   1.50385   1.50803   1.53137
 Alpha virt. eigenvalues --    1.55754   1.57029   1.58381   1.60614   1.61838
 Alpha virt. eigenvalues --    1.64822   1.66528   1.68657   1.72296   1.76693
 Alpha virt. eigenvalues --    1.77294   1.77841   1.78532   1.80472   1.80882
 Alpha virt. eigenvalues --    1.82959   1.84053   1.85293   1.87242   1.88163
 Alpha virt. eigenvalues --    1.89503   1.90613   1.90979   1.93824   1.94287
 Alpha virt. eigenvalues --    1.96745   1.97598   1.98930   2.01817   2.03995
 Alpha virt. eigenvalues --    2.06159   2.10346   2.11951   2.13754   2.14208
 Alpha virt. eigenvalues --    2.16253   2.16445   2.17321   2.18722   2.20253
 Alpha virt. eigenvalues --    2.20995   2.21489   2.22726   2.24452   2.25724
 Alpha virt. eigenvalues --    2.27892   2.30370   2.31667   2.32011   2.33445
 Alpha virt. eigenvalues --    2.35547   2.36474   2.38239   2.39721   2.43313
 Alpha virt. eigenvalues --    2.45098   2.47399   2.48278   2.49861   2.52118
 Alpha virt. eigenvalues --    2.55966   2.57781   2.60299   2.62596   2.63349
 Alpha virt. eigenvalues --    2.65105   2.66291   2.68503   2.69933   2.70213
 Alpha virt. eigenvalues --    2.74844   2.77253   2.78904   2.81655   2.82905
 Alpha virt. eigenvalues --    2.86031   2.89426   2.91412   2.95263   2.96272
 Alpha virt. eigenvalues --    2.99128   3.09120   3.15011   3.23426   3.28446
 Alpha virt. eigenvalues --    3.48494   3.78686   3.85623   3.94306   3.98001
 Alpha virt. eigenvalues --    4.08273   4.08900   4.11261   4.13232   4.14050
 Alpha virt. eigenvalues --    4.17914   4.18937   4.21011   4.28338   4.30967
 Alpha virt. eigenvalues --    4.35876   4.44118   4.51890   4.55339   4.77581
          Condensed to atoms (all electrons):
               1          2          3          4          5          6
     1  C    5.306532   0.346643   0.361830   0.360858   0.351071  -0.079089
     2  H    0.346643   0.539628  -0.026493  -0.024914  -0.024308   0.002649
     3  H    0.361830  -0.026493   0.512377  -0.019034  -0.020658   0.002235
     4  H    0.360858  -0.024914  -0.019034   0.502068  -0.018517   0.000335
     5  C    0.351071  -0.024308  -0.020658  -0.018517   4.292307   0.592108
     6  O   -0.079089   0.002649   0.002235   0.000335   0.592108   8.182876
     7  N   -0.112760   0.004877   0.003689  -0.000086   0.274646  -0.115535
     8  H    0.000422   0.002218  -0.000099   0.000088  -0.016308   0.003768
     9  C    0.005759  -0.000058  -0.000094  -0.000123  -0.017763   0.003174
    10  C   -0.000406   0.000041   0.000004   0.000003   0.002532  -0.000217
    11  C    0.000001   0.000000  -0.000000   0.000000  -0.000070  -0.000010
    12  C    0.000000   0.000000   0.000000  -0.000000  -0.000006  -0.000002
    13  H    0.000000  -0.000000  -0.000000  -0.000000  -0.000000   0.000000
    14  H   -0.000000  -0.000000   0.000000   0.000000   0.000000   0.000000
    15  H   -0.000040   0.000009   0.000000   0.000001   0.000232   0.000000
    16  C    0.000408  -0.000021   0.000003  -0.000009  -0.001287   0.005393
    17  H   -0.000014  -0.000000   0.000002  -0.000010   0.003362   0.004699
    18  C    0.000006  -0.000000  -0.000000  -0.000000   0.000281   0.000368
    19  C   -0.000000  -0.000000  -0.000000   0.000000   0.000001   0.000010
    20  N    0.000000  -0.000000  -0.000000  -0.000000   0.000000   0.000000
    21  C   -0.000000   0.000000   0.000000   0.000000  -0.000004  -0.000023
    22  H    0.000000  -0.000000   0.000000  -0.000000   0.000004   0.000049
    23  S   -0.000000  -0.000000   0.000000   0.000000   0.000000  -0.000000
    24  C   -0.000000   0.000000   0.000000   0.000000  -0.000000  -0.000000
    25  N   -0.000000   0.000000   0.000000  -0.000000   0.000000  -0.000000
    26  C   -0.000000  -0.000000  -0.000000   0.000000  -0.000000   0.000000
    27  N   -0.000000   0.000000   0.000000  -0.000000  -0.000000  -0.000000
    28  H    0.000000  -0.000000  -0.000000  -0.000000   0.000000   0.000000
    29  H   -0.000000   0.000000  -0.000000   0.000000  -0.000000   0.000000
    30  N    0.000000   0.000000   0.000000   0.000000   0.000000  -0.000000
    31  H    0.000000  -0.000000   0.000000  -0.000000   0.000000   0.000000
    32  H   -0.000000   0.000000   0.000000   0.000000  -0.000000  -0.000000
    33  H   -0.000000   0.000000   0.000000   0.000000  -0.000000  -0.000000
               7          8          9         10         11         12
     1  C   -0.112760   0.000422   0.005759  -0.000406   0.000001   0.000000
     2  H    0.004877   0.002218  -0.000058   0.000041   0.000000   0.000000
     3  H    0.003689  -0.000099  -0.000094   0.000004  -0.000000   0.000000
     4  H   -0.000086   0.000088  -0.000123   0.000003   0.000000  -0.000000
     5  C    0.274646  -0.016308  -0.017763   0.002532  -0.000070  -0.000006
     6  O   -0.115535   0.003768   0.003174  -0.000217  -0.000010  -0.000002
     7  N    7.248934   0.295119   0.208260  -0.053856   0.006274   0.000284
     8  H    0.295119   0.342866  -0.020111  -0.004573  -0.000089   0.000011
     9  C    0.208260  -0.020111   4.547805   0.527029  -0.006913  -0.050532
    10  C   -0.053856  -0.004573   0.527029   4.991558   0.535659  -0.038283
    11  C    0.006274  -0.000089  -0.006913   0.535659   4.907329   0.486298
    12  C    0.000284   0.000011  -0.050532  -0.038283   0.486298   5.051324
    13  H    0.000006  -0.000000   0.000819   0.004744  -0.040496   0.352842
    14  H   -0.000099  -0.000007   0.003478  -0.034474   0.362124  -0.038704
    15  H   -0.008054   0.004635  -0.048213   0.353212  -0.043676   0.006219
    16  C   -0.060180   0.003914   0.527067  -0.068050  -0.061484  -0.049895
    17  H   -0.009704  -0.000058  -0.035171   0.007302   0.000034   0.007303
    18  C    0.003086   0.000019  -0.008033  -0.039941  -0.013998   0.515604
    19  C   -0.000147   0.000002   0.005951   0.001230   0.009008  -0.051595
    20  N    0.000000  -0.000000  -0.000069   0.000013   0.000231  -0.010483
    21  C    0.000009   0.000000   0.000214   0.000038  -0.000400   0.005532
    22  H   -0.000004   0.000000   0.000076  -0.000000   0.000002  -0.000023
    23  S    0.000000   0.000000   0.000003  -0.000001   0.000016  -0.000094
    24  C   -0.000000   0.000000   0.000001   0.000000  -0.000001   0.000270
    25  N    0.000000  -0.000000  -0.000000  -0.000000  -0.000000   0.000001
    26  C   -0.000000   0.000000   0.000000   0.000000  -0.000000  -0.000006
    27  N   -0.000000   0.000000  -0.000000   0.000000  -0.000000  -0.000004
    28  H    0.000000  -0.000000  -0.000000   0.000000  -0.000000  -0.000036
    29  H    0.000000  -0.000000   0.000000  -0.000000  -0.000000   0.000000
    30  N   -0.000000  -0.000000  -0.000000   0.000000   0.000000  -0.000000
    31  H    0.000000   0.000000   0.000000  -0.000000   0.000000   0.000000
    32  H   -0.000000   0.000000   0.000000   0.000000  -0.000000  -0.000000
    33  H   -0.000000   0.000000   0.000000   0.000000  -0.000000   0.000000
              13         14         15         16         17         18
     1  C    0.000000  -0.000000  -0.000040   0.000408  -0.000014   0.000006
     2  H   -0.000000  -0.000000   0.000009  -0.000021  -0.000000  -0.000000
     3  H   -0.000000   0.000000   0.000000   0.000003   0.000002  -0.000000
     4  H   -0.000000   0.000000   0.000001  -0.000009  -0.000010  -0.000000
     5  C   -0.000000   0.000000   0.000232  -0.001287   0.003362   0.000281
     6  O    0.000000   0.000000   0.000000   0.005393   0.004699   0.000368
     7  N    0.000006  -0.000099  -0.008054  -0.060180  -0.009704   0.003086
     8  H   -0.000000  -0.000007   0.004635   0.003914  -0.000058   0.000019
     9  C    0.000819   0.003478  -0.048213   0.527067  -0.035171  -0.008033
    10  C    0.004744  -0.034474   0.353212  -0.068050   0.007302  -0.039941
    11  C   -0.040496   0.362124  -0.043676  -0.061484   0.000034  -0.013998
    12  C    0.352842  -0.038704   0.006219  -0.049895   0.007303   0.515604
    13  H    0.580574  -0.004377  -0.000176   0.007156  -0.000223  -0.051512
    14  H   -0.004377   0.550121  -0.006648   0.000887   0.000020   0.003131
    15  H   -0.000176  -0.006648   0.581202   0.008854  -0.000215   0.000555
    16  C    0.007156   0.000887   0.008854   5.118529   0.340311   0.499526
    17  H   -0.000223   0.000020  -0.000215   0.340311   0.574480  -0.044828
    18  C   -0.051512   0.003131   0.000555   0.499526  -0.044828   4.802277
    19  C   -0.016675  -0.000249   0.000002  -0.046264  -0.010601   0.336338
    20  N    0.015181  -0.000008   0.000000   0.003126  -0.000062  -0.048675
    21  C    0.001046   0.000002  -0.000000  -0.013365   0.007252  -0.058017
    22  H   -0.000033   0.000000  -0.000000   0.002139   0.001497  -0.007236
    23  S    0.000222  -0.000000  -0.000000   0.000626  -0.000220   0.008126
    24  C   -0.000476  -0.000000  -0.000000   0.000007  -0.000026   0.005791
    25  N   -0.000035   0.000000  -0.000000   0.000001  -0.000000  -0.000167
    26  C    0.000025   0.000000   0.000000  -0.000000   0.000000  -0.000024
    27  N   -0.000005  -0.000000   0.000000   0.000000   0.000000   0.000008
    28  H    0.000309  -0.000000  -0.000000   0.000000  -0.000000  -0.000004
    29  H   -0.000000   0.000000   0.000000  -0.000000  -0.000000  -0.000000
    30  N    0.000000   0.000000  -0.000000   0.000000   0.000000  -0.000000
    31  H   -0.000000   0.000000   0.000000  -0.000000   0.000000  -0.000000
    32  H    0.000000   0.000000   0.000000   0.000000   0.000000   0.000000
    33  H   -0.000000   0.000000  -0.000000  -0.000000   0.000000   0.000001
              19         20         21         22         23         24
     1  C   -0.000000   0.000000  -0.000000   0.000000  -0.000000  -0.000000
     2  H   -0.000000  -0.000000   0.000000  -0.000000  -0.000000   0.000000
     3  H   -0.000000  -0.000000   0.000000   0.000000   0.000000   0.000000
     4  H    0.000000  -0.000000   0.000000  -0.000000   0.000000   0.000000
     5  C    0.000001   0.000000  -0.000004   0.000004   0.000000  -0.000000
     6  O    0.000010   0.000000  -0.000023   0.000049  -0.000000  -0.000000
     7  N   -0.000147   0.000000   0.000009  -0.000004   0.000000  -0.000000
     8  H    0.000002  -0.000000   0.000000   0.000000   0.000000   0.000000
     9  C    0.005951  -0.000069   0.000214   0.000076   0.000003   0.000001
    10  C    0.001230   0.000013   0.000038  -0.000000  -0.000001   0.000000
    11  C    0.009008   0.000231  -0.000400   0.000002   0.000016  -0.000001
    12  C   -0.051595  -0.010483   0.005532  -0.000023  -0.000094   0.000270
    13  H   -0.016675   0.015181   0.001046  -0.000033   0.000222  -0.000476
    14  H   -0.000249  -0.000008   0.000002   0.000000  -0.000000  -0.000000
    15  H    0.000002   0.000000  -0.000000  -0.000000  -0.000000  -0.000000
    16  C   -0.046264   0.003126  -0.013365   0.002139   0.000626   0.000007
    17  H   -0.010601  -0.000062   0.007252   0.001497  -0.000220  -0.000026
    18  C    0.336338  -0.048675  -0.058017  -0.007236   0.008126   0.005791
    19  C    4.756003   0.391240   0.509419  -0.009737  -0.076602  -0.040521
    20  N    0.391240   6.995652  -0.084180   0.003577  -0.094459   0.416165
    21  C    0.509419  -0.084180   5.382569   0.354090   0.300776  -0.050466
    22  H   -0.009737   0.003577   0.354090   0.443770  -0.029706   0.001853
    23  S   -0.076602  -0.094459   0.300776  -0.029706  15.363036   0.303871
    24  C   -0.040521   0.416165  -0.050466   0.001853   0.303871   4.813771
    25  N    0.001310  -0.055224   0.002153  -0.000008  -0.067340   0.251245
    26  C    0.000307   0.007984   0.000020  -0.000000   0.006657  -0.050760
    27  N   -0.000000  -0.001946  -0.000048  -0.000000   0.001260  -0.000810
    28  H    0.000021   0.006547   0.000032  -0.000000   0.000170   0.000786
    29  H    0.000002   0.000061  -0.000000   0.000000   0.000028  -0.000125
    30  N   -0.000010   0.000432   0.000004  -0.000000  -0.000899   0.010841
    31  H    0.000001   0.000027   0.000001  -0.000000  -0.000048   0.000591
    32  H    0.000000   0.000008  -0.000000  -0.000000   0.000056   0.000320
    33  H   -0.000016   0.002080   0.000008  -0.000001  -0.000809  -0.015810
              25         26         27         28         29         30
     1  C   -0.000000  -0.000000  -0.000000   0.000000  -0.000000   0.000000
     2  H    0.000000  -0.000000   0.000000  -0.000000   0.000000   0.000000
     3  H    0.000000  -0.000000   0.000000  -0.000000  -0.000000   0.000000
     4  H   -0.000000   0.000000  -0.000000  -0.000000   0.000000   0.000000
     5  C    0.000000  -0.000000  -0.000000   0.000000  -0.000000   0.000000
     6  O   -0.000000   0.000000  -0.000000   0.000000   0.000000  -0.000000
     7  N    0.000000  -0.000000  -0.000000   0.000000   0.000000  -0.000000
     8  H   -0.000000   0.000000   0.000000  -0.000000  -0.000000  -0.000000
     9  C   -0.000000   0.000000  -0.000000  -0.000000   0.000000  -0.000000
    10  C   -0.000000   0.000000   0.000000   0.000000  -0.000000   0.000000
[...]
 ---------------------------------------------------------------------
 Rotational constants (GHZ):           0.7680993           0.1469792           0.1254406
 Leave Link  202 at Sun Jul 18 16:12:00 2021, MaxMem=   262144000 cpu:               0.1 elap:               0.0
 (Enter /prod/apps/gaussian/g16b1/l301.exe)
 Standard basis: Aug-CC-pVDZ (5D, 7F)
 Ernie: Thresh=  0.10000D-02 Tol=  0.10000D-05 Strict=F.
 Ernie:  46 primitive shells out of 601 were deleted.
 There are   605 symmetry adapted cartesian basis functions of A   symmetry.
 There are   567 symmetry adapted basis functions of A   symmetry.
   567 basis functions,  1009 primitive gaussians,   605 cartesian basis functions
    72 alpha electrons       72 beta electrons
       nuclear repulsion energy      1456.8938039266 Hartrees.
 IExCor=    0 DFT=F Ex=HF Corr=None ExCW=0 ScaHFX=  1.000000
 ScaDFX=  1.000000  1.000000  1.000000  1.000000 ScalE2=  1.000000  1.000000
 IRadAn=      5 IRanWt=     -1 IRanGd=            0 ICorTp=0 IEmpDi=  4
 NAtoms=   33 NActive=   33 NUniq=   33 SFac= 1.00D+00 NAtFMM=   60 NAOKFM=F Big=F
 Integral buffers will be    131072 words long.
 Raffenetti 1 integral format.
 Two-electron integral symmetry is turned on.
 Leave Link  301 at Sun Jul 18 16:12:00 2021, MaxMem=   262144000 cpu:               0.2 elap:               0.1
 (Enter /prod/apps/gaussian/g16b1/l302.exe)
 NPDir=0 NMtPBC=     1 NCelOv=     1 NCel=       1 NClECP=     1 NCelD=      1
         NCelK=      1 NCelE2=     1 NClLst=     1 CellRange=     0.0.
 One-electron integrals computed using PRISM.
 One-electron integral symmetry used in STVInt
 NBasis=   567 RedAO= T EigKep=  1.14D-06  NBF=   567
 NBsUse=   567 1.00D-06 EigRej= -1.00D+00 NBFU=   567
 Leave Link  302 at Sun Jul 18 16:12:01 2021, MaxMem=   262144000 cpu:               1.7 elap:               0.4
 (Enter /prod/apps/gaussian/g16b1/l303.exe)
 DipDrv:  MaxL=1.
 Leave Link  303 at Sun Jul 18 16:12:01 2021, MaxMem=   262144000 cpu:               0.4 elap:               0.1
 (Enter /prod/apps/gaussian/g16b1/l401.exe)
 ExpMin= 2.97D-02 ExpMax= 1.11D+05 ExpMxC= 1.07D+03 IAcc=3 IRadAn=         5 AccDes= 0.00D+00
 Harris functional with IExCor=  205 and IRadAn=       5 diagonalized for initial guess.
 HarFok:  IExCor=  205 AccDes= 0.00D+00 IRadAn=         5 IDoV= 1 UseB2=F ITyADJ=14
 ICtDFT=  3500011 ScaDFX=  1.000000  1.000000  1.000000  1.000000
 FoFCou: FMM=F IPFlag=           0 FMFlag=      100000 FMFlg1=           0
         NFxFlg=           0 DoJE=T BraDBF=F KetDBF=T FulRan=T
         wScrn=  0.000000 ICntrl=       500 IOpCl=  0 I1Cent=   200000004 NGrid=           0
         NMat0=    1 NMatS0=      1 NMatT0=    0 NMatD0=    1 NMtDS0=    0 NMtDT0=    0
 Petite list used in FoFCou.
 Harris En= -1207.68382121764    
 JPrj=0 DoOrth=F DoCkMO=F.
 Leave Link  401 at Sun Jul 18 16:12:04 2021, MaxMem=   262144000 cpu:              12.9 elap:               3.3
 (Enter /prod/apps/gaussian/g16b1/l502.exe)
 Integral symmetry usage will be decided dynamically.
 Closed shell SCF:
 Using DIIS extrapolation, IDIIS=  1040.
 NGot=   262144000 LenX=   261402691 LenY=   261036061
 Requested convergence on RMS density matrix=1.00D-08 within 128 cycles.
 Requested convergence on MAX density matrix=1.00D-06.
 Requested convergence on             energy=1.00D-06.
 No special actions if energy rises.
 Fock matrices will be formed incrementally for  20 cycles.

 Cycle   1  Pass 1  IDiag  1:
 FoFJK:  IHMeth= 1 ICntrl=       0 DoSepK=F KAlg= 0 I1Cent=           0 FoldK=F
 IRaf= 880000000 NMat=       1 IRICut=       1 DoRegI=T DoRafI=F ISym2E= 0 IDoP0=0 IntGTp=1.
 FoFCou: FMM=F IPFlag=           0 FMFlag=      100000 FMFlg1=           0
         NFxFlg=           0 DoJE=F BraDBF=F KetDBF=F FulRan=T
         wScrn=  0.000000 ICntrl=         0 IOpCl=  0 I1Cent=           0 NGrid=           0
         NMat0=    1 NMatS0=      1 NMatT0=    0 NMatD0=    1 NMtDS0=    0 NMtDT0=    0
 Symmetry not used in FoFCou.
 E= -1206.43382367078    
 DIIS: error= 1.43D-02 at cycle   1 NSaved=   1.
 NSaved= 1 IEnMin= 1 EnMin= -1206.43382367078     IErMin= 1 ErrMin= 1.43D-02
 ErrMax= 1.43D-02  0.00D+00 EMaxC= 1.00D-01 BMatC= 9.55D-01 BMatP= 9.55D-01
 IDIUse=3 WtCom= 8.57D-01 WtEn= 1.43D-01
 Coeff-Com:  0.100D+01
 Coeff-En:   0.100D+01
 Coeff:      0.100D+01
 Gap=     0.551 Goal=   None    Shift=    0.000
 GapD=    0.551 DampG=2.000 DampE=0.500 DampFc=1.0000 IDamp=-1.
 RMSDP=5.72D-02 MaxDP=5.08D+00              OVMax= 1.86D-01

 Cycle   2  Pass 1  IDiag  1:
 RMSU=  2.47D-02    CP:  5.38D-01
 E= -1206.96794405285     Delta-E=       -0.534120382065 Rises=F Damp=F
 DIIS: error= 9.06D-03 at cycle   2 NSaved=   2.
 NSaved= 2 IEnMin= 2 EnMin= -1206.96794405285     IErMin= 2 ErrMin= 9.06D-03
 ErrMax= 9.06D-03  0.00D+00 EMaxC= 1.00D-01 BMatC= 1.91D-01 BMatP= 9.55D-01
 IDIUse=3 WtCom= 9.09D-01 WtEn= 9.06D-02
 Coeff-Com:  0.258D+00 0.742D+00
 Coeff-En:   0.000D+00 0.100D+01
 Coeff:      0.235D+00 0.765D+00
 Gap=     0.342 Goal=   None    Shift=    0.000
 RMSDP=8.05D-03 MaxDP=5.34D-01 DE=-5.34D-01 OVMax= 1.15D-01

 Cycle   3  Pass 1  IDiag  1:
 RMSU=  7.03D-03    CP:  5.46D-01  8.46D-01
 E= -1207.13268285537     Delta-E=       -0.164738802521 Rises=F Damp=F
 DIIS: error= 3.06D-03 at cycle   3 NSaved=   3.
 NSaved= 3 IEnMin= 3 EnMin= -1207.13268285537     IErMin= 3 ErrMin= 3.06D-03
 ErrMax= 3.06D-03  0.00D+00 EMaxC= 1.00D-01 BMatC= 2.52D-02 BMatP= 1.91D-01
 IDIUse=3 WtCom= 9.69D-01 WtEn= 3.06D-02
 Coeff-Com: -0.528D-02 0.238D+00 0.767D+00
 Coeff-En:   0.000D+00 0.000D+00 0.100D+01
 Coeff:     -0.512D-02 0.231D+00 0.774D+00
 Gap=     0.309 Goal=   None    Shift=    0.000
 RMSDP=2.32D-03 MaxDP=1.69D-01 DE=-1.65D-01 OVMax= 4.93D-02

 Cycle   4  Pass 1  IDiag  1:
 RMSU=  1.38D-03    CP:  5.35D-01  8.79D-01  8.29D-01
 E= -1207.15691296045     Delta-E=       -0.024230105084 Rises=F Damp=F
 DIIS: error= 9.85D-04 at cycle   4 NSaved=   4.
 NSaved= 4 IEnMin= 4 EnMin= -1207.15691296045     IErMin= 4 ErrMin= 9.85D-04
 ErrMax= 9.85D-04  0.00D+00 EMaxC= 1.00D-01 BMatC= 2.35D-03 BMatP= 2.52D-02
 IDIUse=3 WtCom= 9.90D-01 WtEn= 9.85D-03
 Coeff-Com: -0.195D-01 0.303D-01 0.277D+00 0.712D+00
 Coeff-En:   0.000D+00 0.000D+00 0.000D+00 0.100D+01
 Coeff:     -0.193D-01 0.300D-01 0.274D+00 0.715D+00
 Gap=     0.300 Goal=   None    Shift=    0.000
 RMSDP=6.36D-04 MaxDP=5.38D-02 DE=-2.42D-02 OVMax= 1.23D-02

 Cycle   5  Pass 1  IDiag  1:
 RMSU=  4.86D-04    CP:  5.33D-01  8.84D-01  8.63D-01  8.80D-01
 E= -1207.15956051915     Delta-E=       -0.002647558699 Rises=F Damp=F
 DIIS: error= 2.69D-04 at cycle   5 NSaved=   5.
 NSaved= 5 IEnMin= 5 EnMin= -1207.15956051915     IErMin= 5 ErrMin= 2.69D-04
 ErrMax= 2.69D-04  0.00D+00 EMaxC= 1.00D-01 BMatC= 1.08D-04 BMatP= 2.35D-03
 IDIUse=3 WtCom= 9.97D-01 WtEn= 2.69D-03
 Coeff-Com:  0.712D-03-0.193D-01-0.658D-01-0.137D-01 0.110D+01
 Coeff-En:   0.000D+00 0.000D+00 0.000D+00 0.000D+00 0.100D+01
 Coeff:      0.710D-03-0.192D-01-0.656D-01-0.137D-01 0.110D+01
 Gap=     0.301 Goal=   None    Shift=    0.000
 RMSDP=2.47D-04 MaxDP=2.07D-02 DE=-2.65D-03 OVMax= 6.00D-03

 Cycle   6  Pass 1  IDiag  1:
 RMSU=  1.64D-04    CP:  5.33D-01  8.84D-01  8.75D-01  9.92D-01  1.12D+00
 E= -1207.15988657593     Delta-E=       -0.000326056778 Rises=F Damp=F
 DIIS: error= 1.12D-04 at cycle   6 NSaved=   6.
 NSaved= 6 IEnMin= 6 EnMin= -1207.15988657593     IErMin= 6 ErrMin= 1.12D-04
 ErrMax= 1.12D-04  0.00D+00 EMaxC= 1.00D-01 BMatC= 2.21D-05 BMatP= 1.08D-04
 IDIUse=3 WtCom= 9.99D-01 WtEn= 1.12D-03
 Coeff-Com:  0.250D-02-0.802D-02-0.466D-01-0.953D-01 0.215D+00 0.932D+00
 Coeff-En:   0.000D+00 0.000D+00 0.000D+00 0.000D+00 0.000D+00 0.100D+01
 Coeff:      0.249D-02-0.801D-02-0.465D-01-0.952D-01 0.215D+00 0.932D+00
 Gap=     0.301 Goal=   None    Shift=    0.000
 RMSDP=1.01D-04 MaxDP=1.31D-02 DE=-3.26D-04 OVMax= 2.79D-03

 Cycle   7  Pass 1  IDiag  1:
 RMSU=  5.26D-05    CP:  5.33D-01  8.84D-01  8.80D-01  1.01D+00  1.25D+00
                    CP:  1.22D+00
 E= -1207.15995249534     Delta-E=       -0.000065919407 Rises=F Damp=F
 DIIS: error= 4.44D-05 at cycle   7 NSaved=   7.
 NSaved= 7 IEnMin= 7 EnMin= -1207.15995249534     IErMin= 7 ErrMin= 4.44D-05
 ErrMax= 4.44D-05  0.00D+00 EMaxC= 1.00D-01 BMatC= 3.84D-06 BMatP= 2.21D-05
 IDIUse=1 WtCom= 1.00D+00 WtEn= 0.00D+00
 Coeff-Com:  0.924D-04 0.180D-02 0.651D-02-0.754D-02-0.149D+00 0.914D-01
 Coeff-Com:  0.106D+01
 Coeff:      0.924D-04 0.180D-02 0.651D-02-0.754D-02-0.149D+00 0.914D-01
 Coeff:      0.106D+01
 Gap=     0.301 Goal=   None    Shift=    0.000
 RMSDP=5.20D-05 MaxDP=6.44D-03 DE=-6.59D-05 OVMax= 1.63D-03

 Cycle   8  Pass 1  IDiag  1:
 RMSU=  2.61D-05    CP:  5.33D-01  8.84D-01  8.81D-01  1.02D+00  1.28D+00
                    CP:  1.43D+00  1.29D+00
 E= -1207.15996740916     Delta-E=       -0.000014913820 Rises=F Damp=F
 DIIS: error= 2.06D-05 at cycle   8 NSaved=   8.
 NSaved= 8 IEnMin= 8 EnMin= -1207.15996740916     IErMin= 8 ErrMin= 2.06D-05
 ErrMax= 2.06D-05  0.00D+00 EMaxC= 1.00D-01 BMatC= 7.83D-07 BMatP= 3.84D-06
 IDIUse=1 WtCom= 1.00D+00 WtEn= 0.00D+00
 Coeff-Com: -0.478D-03 0.200D-02 0.110D-01 0.177D-01-0.687D-01-0.179D+00
 Coeff-Com:  0.182D+00 0.104D+01
 Coeff:     -0.478D-03 0.200D-02 0.110D-01 0.177D-01-0.687D-01-0.179D+00
 Coeff:      0.182D+00 0.104D+01
 Gap=     0.301 Goal=   None    Shift=    0.000
 RMSDP=2.86D-05 MaxDP=3.58D-03 DE=-1.49D-05 OVMax= 8.17D-04

 Cycle   9  Pass 1  IDiag  1:
 RMSU=  1.11D-05    CP:  5.33D-01  8.84D-01  8.83D-01  1.02D+00  1.30D+00
                    CP:  1.52D+00  1.51D+00  1.40D+00
 E= -1207.15997062270     Delta-E=       -0.000003213539 Rises=F Damp=F
 DIIS: error= 7.35D-06 at cycle   9 NSaved=   9.
 NSaved= 9 IEnMin= 9 EnMin= -1207.15997062270     IErMin= 9 ErrMin= 7.35D-06
 ErrMax= 7.35D-06  0.00D+00 EMaxC= 1.00D-01 BMatC= 1.09D-07 BMatP= 7.83D-07
 IDIUse=1 WtCom= 1.00D+00 WtEn= 0.00D+00
 Coeff-Com: -0.683D-04-0.726D-04 0.178D-03 0.382D-02 0.163D-01-0.343D-01
 Coeff-Com: -0.135D+00 0.748D-01 0.107D+01
 Coeff:     -0.683D-04-0.726D-04 0.178D-03 0.382D-02 0.163D-01-0.343D-01
 Coeff:     -0.135D+00 0.748D-01 0.107D+01
 Gap=     0.301 Goal=   None    Shift=    0.000
 RMSDP=9.93D-06 MaxDP=5.43D-04 DE=-3.21D-06 OVMax= 3.70D-04

 Cycle  10  Pass 1  IDiag  1:
 RMSU=  3.99D-06    CP:  5.33D-01  8.84D-01  8.83D-01  1.02D+00  1.30D+00
                    CP:  1.54D+00  1.57D+00  1.59D+00  1.42D+00
 E= -1207.15997111922     Delta-E=       -0.000000496528 Rises=F Damp=F
 DIIS: error= 3.97D-06 at cycle  10 NSaved=  10.
 NSaved=10 IEnMin=10 EnMin= -1207.15997111922     IErMin=10 ErrMin= 3.97D-06
 ErrMax= 3.97D-06  0.00D+00 EMaxC= 1.00D-01 BMatC= 2.05D-08 BMatP= 1.09D-07
 IDIUse=1 WtCom= 1.00D+00 WtEn= 0.00D+00
 Coeff-Com:  0.734D-04-0.346D-03-0.187D-02-0.247D-02 0.100D-01 0.284D-01
 Coeff-Com: -0.215D-01-0.183D+00-0.229D-01 0.119D+01
 Coeff:      0.734D-04-0.346D-03-0.187D-02-0.247D-02 0.100D-01 0.284D-01
 Coeff:     -0.215D-01-0.183D+00-0.229D-01 0.119D+01
 Gap=     0.301 Goal=   None    Shift=    0.000
 RMSDP=4.63D-06 MaxDP=1.94D-04 DE=-4.97D-07 OVMax= 1.81D-04

 Cycle  11  Pass 1  IDiag  1:
 RMSU=  1.88D-06    CP:  5.33D-01  8.84D-01  8.83D-01  1.02D+00  1.31D+00
                    CP:  1.55D+00  1.59D+00  1.65D+00  1.64D+00  1.45D+00
 E= -1207.15997122062     Delta-E=       -0.000000101396 Rises=F Damp=F
 DIIS: error= 1.90D-06 at cycle  11 NSaved=  11.
 NSaved=11 IEnMin=11 EnMin= -1207.15997122062     IErMin=11 ErrMin= 1.90D-06
 ErrMax= 1.90D-06  0.00D+00 EMaxC= 1.00D-01 BMatC= 4.71D-09 BMatP= 2.05D-08
 IDIUse=1 WtCom= 1.00D+00 WtEn= 0.00D+00
 Coeff-Com:  0.270D-04-0.686D-04-0.431D-03-0.983D-03-0.123D-02 0.112D-01
 Coeff-Com:  0.245D-01-0.483D-01-0.216D+00 0.242D+00 0.988D+00
 Coeff:      0.270D-04-0.686D-04-0.431D-03-0.983D-03-0.123D-02 0.112D-01
 Coeff:      0.245D-01-0.483D-01-0.216D+00 0.242D+00 0.988D+00
 Gap=     0.301 Goal=   None    Shift=    0.000
 RMSDP=2.09D-06 MaxDP=1.69D-04 DE=-1.01D-07 OVMax= 7.43D-05

 Cycle  12  Pass 1  IDiag  1:
 RMSU=  9.28D-07    CP:  5.33D-01  8.84D-01  8.83D-01  1.02D+00  1.31D+00
                    CP:  1.55D+00  1.60D+00  1.65D+00  1.70D+00  1.74D+00
                    CP:  1.34D+00
 E= -1207.15997123843     Delta-E=       -0.000000017806 Rises=F Damp=F
 DIIS: error= 7.48D-07 at cycle  12 NSaved=  12.
 NSaved=12 IEnMin=12 EnMin= -1207.15997123843     IErMin=12 ErrMin= 7.48D-07
 ErrMax= 7.48D-07  0.00D+00 EMaxC= 1.00D-01 BMatC= 7.65D-10 BMatP= 4.71D-09
 IDIUse=1 WtCom= 1.00D+00 WtEn= 0.00D+00
 Coeff-Com: -0.139D-04 0.641D-04 0.340D-03 0.628D-03-0.167D-02-0.693D-02
 Coeff-Com:  0.276D-02 0.382D-01 0.129D-01-0.237D+00-0.743D-01 0.127D+01
 Coeff:     -0.139D-04 0.641D-04 0.340D-03 0.628D-03-0.167D-02-0.693D-02
 Coeff:      0.276D-02 0.382D-01 0.129D-01-0.237D+00-0.743D-01 0.127D+01
 Gap=     0.301 Goal=   None    Shift=    0.000
 RMSDP=1.30D-06 MaxDP=8.67D-05 DE=-1.78D-08 OVMax= 3.80D-05

 Cycle  13  Pass 1  IDiag  1:
 RMSU=  4.55D-07    CP:  5.33D-01  8.84D-01  8.83D-01  1.02D+00  1.31D+00
                    CP:  1.55D+00  1.61D+00  1.65D+00  1.71D+00  1.85D+00
                    CP:  1.64D+00  1.50D+00
 E= -1207.15997124264     Delta-E=       -0.000000004214 Rises=F Damp=F
 DIIS: error= 2.84D-07 at cycle  13 NSaved=  13.
 NSaved=13 IEnMin=13 EnMin= -1207.15997124264     IErMin=13 ErrMin= 2.84D-07
 ErrMax= 2.84D-07  0.00D+00 EMaxC= 1.00D-01 BMatC= 1.42D-10 BMatP= 7.65D-10
 IDIUse=1 WtCom= 1.00D+00 WtEn= 0.00D+00
 Coeff-Com: -0.538D-05 0.167D-04 0.862D-04 0.215D-03 0.159D-03-0.255D-02
 Coeff-Com: -0.350D-02 0.105D-01 0.373D-01-0.515D-01-0.175D+00 0.620D-01
 Coeff-Com:  0.112D+01
 Coeff:     -0.538D-05 0.167D-04 0.862D-04 0.215D-03 0.159D-03-0.255D-02
 Coeff:     -0.350D-02 0.105D-01 0.373D-01-0.515D-01-0.175D+00 0.620D-01
 Coeff:      0.112D+01
 Gap=     0.301 Goal=   None    Shift=    0.000
 RMSDP=4.66D-07 MaxDP=2.61D-05 DE=-4.21D-09 OVMax= 1.65D-05

 Cycle  14  Pass 1  IDiag  1:
 RMSU=  1.51D-07    CP:  5.33D-01  8.84D-01  8.83D-01  1.02D+00  1.31D+00
                    CP:  1.55D+00  1.61D+00  1.65D+00  1.72D+00  1.89D+00
                    CP:  1.72D+00  1.73D+00  1.31D+00
 E= -1207.15997124328     Delta-E=       -0.000000000638 Rises=F Damp=F
 DIIS: error= 1.28D-07 at cycle  14 NSaved=  14.
 NSaved=14 IEnMin=14 EnMin= -1207.15997124328     IErMin=14 ErrMin= 1.28D-07
 ErrMax= 1.28D-07  0.00D+00 EMaxC= 1.00D-01 BMatC= 2.42D-11 BMatP= 1.42D-10
 IDIUse=1 WtCom= 1.00D+00 WtEn= 0.00D+00
 Coeff-Com:  0.234D-05-0.112D-04-0.654D-04-0.109D-03 0.431D-03 0.112D-02
 Coeff-Com: -0.880D-03-0.745D-02 0.112D-02 0.450D-01 0.531D-02-0.269D+00
 Coeff-Com:  0.957D-01 0.113D+01
 Coeff:      0.234D-05-0.112D-04-0.654D-04-0.109D-03 0.431D-03 0.112D-02
 Coeff:     -0.880D-03-0.745D-02 0.112D-02 0.450D-01 0.531D-02-0.269D+00
 Coeff:      0.957D-01 0.113D+01
 Gap=     0.301 Goal=   None    Shift=    0.000
 RMSDP=2.36D-07 MaxDP=2.07D-05 DE=-6.38D-10 OVMax= 6.66D-06

 Cycle  15  Pass 1  IDiag  1:
 RMSU=  6.69D-08    CP:  5.33D-01  8.84D-01  8.83D-01  1.02D+00  1.31D+00
                    CP:  1.55D+00  1.61D+00  1.65D+00  1.73D+00  1.91D+00
                    CP:  1.76D+00  1.80D+00  1.48D+00  1.38D+00
 E= -1207.15997124345     Delta-E=       -0.000000000176 Rises=F Damp=F
 DIIS: error= 3.86D-08 at cycle  15 NSaved=  15.
 NSaved=15 IEnMin=15 EnMin= -1207.15997124345     IErMin=15 ErrMin= 3.86D-08
 ErrMax= 3.86D-08  0.00D+00 EMaxC= 1.00D-01 BMatC= 2.66D-12 BMatP= 2.42D-11
 IDIUse=1 WtCom= 1.00D+00 WtEn= 0.00D+00
 Coeff-Com:  0.625D-06-0.188D-05-0.101D-04-0.292D-04-0.211D-04 0.259D-03
 Coeff-Com:  0.503D-03-0.114D-02-0.447D-02 0.384D-02 0.244D-01-0.603D-02
 Coeff-Com: -0.137D+00-0.394D-01 0.116D+01
 Coeff:      0.625D-06-0.188D-05-0.101D-04-0.292D-04-0.211D-04 0.259D-03
 Coeff:      0.503D-03-0.114D-02-0.447D-02 0.384D-02 0.244D-01-0.603D-02
 Coeff:     -0.137D+00-0.394D-01 0.116D+01
 Gap=     0.301 Goal=   None    Shift=    0.000
 RMSDP=7.59D-08 MaxDP=7.21D-06 DE=-1.76D-10 OVMax= 2.33D-06

 Cycle  16  Pass 1  IDiag  1:
 RMSU=  2.23D-08    CP:  5.33D-01  8.84D-01  8.83D-01  1.02D+00  1.31D+00
                    CP:  1.55D+00  1.61D+00  1.65D+00  1.73D+00  1.92D+00
                    CP:  1.77D+00  1.82D+00  1.50D+00  1.56D+00  1.33D+00
 E= -1207.15997124342     Delta-E=        0.000000000035 Rises=F Damp=F
 DIIS: error= 2.28D-08 at cycle  16 NSaved=  16.
 NSaved=16 IEnMin=15 EnMin= -1207.15997124345     IErMin=16 ErrMin= 2.28D-08
 ErrMax= 2.28D-08  0.00D+00 EMaxC= 1.00D-01 BMatC= 4.31D-13 BMatP= 2.66D-12
 IDIUse=1 WtCom= 1.00D+00 WtEn= 0.00D+00
 Coeff-Com: -0.265D-06 0.132D-05 0.852D-05 0.118D-04-0.575D-04-0.140D-03
 Coeff-Com:  0.182D-03 0.919D-03-0.649D-03-0.604D-02 0.317D-02 0.340D-01
 Coeff-Com: -0.222D-01-0.160D+00 0.123D+00 0.103D+01
 Coeff:     -0.265D-06 0.132D-05 0.852D-05 0.118D-04-0.575D-04-0.140D-03
 Coeff:      0.182D-03 0.919D-03-0.649D-03-0.604D-02 0.317D-02 0.340D-01
 Coeff:     -0.222D-01-0.160D+00 0.123D+00 0.103D+01
 Gap=     0.301 Goal=   None    Shift=    0.000
 RMSDP=2.41D-08 MaxDP=1.75D-06 DE= 3.50D-11 OVMax= 6.56D-07

 Cycle  17  Pass 1  IDiag  1:
 RMSU=  9.37D-09    CP:  5.33D-01  8.84D-01  8.83D-01  1.02D+00  1.31D+00
                    CP:  1.55D+00  1.61D+00  1.65D+00  1.73D+00  1.92D+00
                    CP:  1.77D+00  1.82D+00  1.50D+00  1.59D+00  1.43D+00
                    CP:  1.32D+00
 E= -1207.15997124347     Delta-E=       -0.000000000051 Rises=F Damp=F
 DIIS: error= 1.01D-08 at cycle  17 NSaved=  17.
 NSaved=17 IEnMin=17 EnMin= -1207.15997124347     IErMin=17 ErrMin= 1.01D-08
 ErrMax= 1.01D-08  0.00D+00 EMaxC= 1.00D-01 BMatC= 8.51D-14 BMatP= 4.31D-13
 IDIUse=1 WtCom= 1.00D+00 WtEn= 0.00D+00
 Coeff-Com: -0.135D-06 0.416D-06 0.284D-05 0.632D-05 0.976D-07-0.635D-04
 Coeff-Com: -0.719D-04 0.308D-03 0.792D-03-0.129D-02-0.371D-02 0.264D-02
 Coeff-Com:  0.261D-01-0.105D-01-0.194D+00 0.826D-01 0.110D+01
 Coeff:     -0.135D-06 0.416D-06 0.284D-05 0.632D-05 0.976D-07-0.635D-04
 Coeff:     -0.719D-04 0.308D-03 0.792D-03-0.129D-02-0.371D-02 0.264D-02
 Coeff:      0.261D-01-0.105D-01-0.194D+00 0.826D-01 0.110D+01
 Gap=     0.301 Goal=   None    Shift=    0.000
 RMSDP=9.02D-09 MaxDP=6.54D-07 DE=-5.14D-11 OVMax= 2.87D-07

 SCF Done:  E(RHF) =  -1207.15997124     A.U. after   17 cycles
            NFock= 17  Conv=0.90D-08     -V/T= 2.0010
 KE= 1.205983524332D+03 PE=-5.734617271236D+03 EE= 1.864579971734D+03
 Leave Link  502 at Sun Jul 18 16:25:01 2021, MaxMem=   262144000 cpu:            3102.6 elap:             776.4
 (Enter /prod/apps/gaussian/g16b1/l801.exe)
 ExpMin= 2.97D-02 ExpMax= 1.11D+05 ExpMxC= 1.07D+03 IAcc=3 IRadAn=         5 AccDes= 0.00D+00
 HarFok:  IExCor=  205 AccDes= 0.00D+00 IRadAn=         5 IDoV=-2 UseB2=F ITyADJ=14
 ICtDFT= 12500011 ScaDFX=  1.000000  1.000000  1.000000  1.000000
 GSVD:  LWork=        -713 too small for GESVD, short by        2990 words or        2990 for optimal perf.
 Largest valence mixing into a core orbital is  3.28D-04
 Largest core mixing into a valence orbital is  8.85D-05
 Range of M.O.s used for correlation:    24   567
 NBasis=   567 NAE=    72 NBE=    72 NFC=    23 NFV=     0
 NROrb=    544 NOA=    49 NOB=    49 NVA=   495 NVB=   495

 **** Warning!!: The largest alpha MO coefficient is  0.12469382D+03

 Leave Link  801 at Sun Jul 18 16:25:01 2021, MaxMem=   262144000 cpu:               1.5 elap:               0.5
 (Enter /prod/apps/gaussian/g16b1/l906.exe)
 FulOut=F Deriv=F AODrv=F NAtomX=    33
   MMem=           4  MDisk=          49 MDiskD=          49
  W3Min=    14674275 MinDsk=    15167740 NBas6D=         605
 NBas2D=      184143    NTT=      183315    LW2=     2000000
    MDV=   260001167 MDiskM=        5922 NBas2p=      156650
 Disk-based method using OVN memory for 49 occupieds at a time.
 Estimated scratch disk usage= 11657709462 words.
 IMap=   1   2   3   4   5   6   7   8   9  10  11  12  13  14  15  16  17  18  19  20
 IMap=  21  22  23  24  25  26  27  28  29  30  31  32  33  34  35  36  37  38  39  40
 IMap=  41  42  43  44  45  46  47  48  49
 Actual    scratch disk usage= 11428445078 words.
 JobTyp=1 Pass  1:  I=   1 to  49 NPSUse=  4 ParTrn=T ParDer=T DoDerP=F.
