 Entering Gaussian System, Link 0=g16
 Initial command:
 /prod/apps/gaussian/g16b1/l1.exe "/tmp/ubator02/1839532/Gau-74598.inp" -scrdir="/tmp/ubator02/1839532/"
 Entering Link 1 = /prod/apps/gaussian/g16b1/l1.exe PID=     74601.
  
 Copyright (c) 1988-2017, Gaussian, Inc.  All Rights Reserved.
  
 This is part of the Gaussian(R) 16 program.  It is based on
 the Gaussian(R) 09 system (copyright 2009, Gaussian, Inc.),
 the Gaussian(R) 03 system (copyright 2003, Gaussian, Inc.),
 the Gaussian(R) 98 system (copyright 1998, Gaussian, Inc.),
 the Gaussian(R) 94 system (copyright 1995, Gaussian, Inc.),
 the Gaussian 92(TM) system (copyright 1992, Gaussian, Inc.),
 the Gaussian 90(TM) system (copyright 1990, Gaussian, Inc.),
 the Gaussian 88(TM) system (copyright 1988, Gaussian, Inc.),
 the Gaussian 86(TM) system (copyright 1986, Carnegie Mellon
 University), and the Gaussian 82(TM) system (copyright 1983,
 Carnegie Mellon University). Gaussian is a federally registered
 trademark of Gaussian, Inc.
  
 This software contains proprietary and confidential information,
 including trade secrets, belonging to Gaussian, Inc.
  
 This software is provided under written license and may be
 used, copied, transmitted, or stored only in accord with that
 written license.
  
 The following legend is applicable only to US Government
 contracts under FAR:
  
                    RESTRICTED RIGHTS LEGEND
  
 Use, reproduction and disclosure by the US Government is
 subject to restrictions as set forth in subparagraphs (a)
 and (c) of the Commercial Computer Software - Restricted
 Rights clause in FAR 52.227-19.
  
 Gaussian, Inc.
 340 Quinnipiac St., Bldg. 40, Wallingford CT 06492
  
  
 ---------------------------------------------------------------
 Warning -- This program may not be used in any manner that
 competes with the business of Gaussian, Inc. or will provide
 assistance to any competitor of Gaussian, Inc.  The licensee
 of this program is prohibited from giving any competitor of
 Gaussian, Inc. access to this program.  By using this program,
 the user acknowledges that Gaussian, Inc. is engaged in the
 business of creating and licensing software in the field of
 computational chemistry and represents and warrants to the
 licensee that it is not a competitor of Gaussian, Inc. and that
 it will not use this program in any manner prohibited above.
 ---------------------------------------------------------------
  

 Cite this work as:
 Gaussian 16, Revision B.01,
 M. J. Frisch, G. W. Trucks, H. B. Schlegel, G. E. Scuseria, 
 M. A. Robb, J. R. Cheeseman, G. Scalmani, V. Barone, 
 G. A. Petersson, H. Nakatsuji, X. Li, M. Caricato, A. V. Marenich, 
 J. Bloino, B. G. Janesko, R. Gomperts, B. Mennucci, H. P. Hratchian, 
 J. V. Ortiz, A. F. Izmaylov, J. L. Sonnenberg, D. Williams-Young, 
 F. Ding, F. Lipparini, F. Egidi, J. Goings, B. Peng, A. Petrone, 
 T. Henderson, D. Ranasinghe, V. G. Zakrzewski, J. Gao, N. Rega, 
 G. Zheng, W. Liang, M. Hada, M. Ehara, K. Toyota, R. Fukuda, 
 J. Hasegawa, M. Ishida, T. Nakajima, Y. Honda, O. Kitao, H. Nakai, 
 T. Vreven, K. Throssell, J. A. Montgomery, Jr., J. E. Peralta, 
 F. Ogliaro, M. J. Bearpark, J. J. Heyd, E. N. Brothers, K. N. Kudin, 
 V. N. Staroverov, T. A. Keith, R. Kobayashi, J. Normand, 
 K. Raghavachari, A. P. Rendell, J. C. Burant, S. S. Iyengar, 
 J. Tomasi, M. Cossi, J. M. Millam, M. Klene, C. Adamo, R. Cammi, 
 J. W. Ochterski, R. L. Martin, K. Morokuma, O. Farkas, 
 J. B. Foresman, and D. J. Fox, Gaussian, Inc., Wallingford CT, 2016.
 
 ******************************************
 Gaussian 16:  ES64L-G16RevB.01 20-Dec-2017
                18-Jul-2021 
 ******************************************
 %mem=800MB
 %nproc=4
 Will use up to    4 processors via shared memory.
 %chk=SET_328_BBB256_conf1.geo_180_300_120.chk
 -----------------------------------------------------------
 #p b3lyp/6-31G(d) opt freq scrf=(iefpcm,read,solvent=water)
 -----------------------------------------------------------
 1/18=20,19=15,26=3,38=1,40=2/1,3;
 2/9=110,12=2,17=6,18=5,40=1/2;
 3/5=1,6=6,7=1,11=2,25=1,30=1,70=2203,71=1,72=1,74=-5/1,2,3;
 4//1;
 5/5=2,38=5,53=1/2;
 6/7=2,8=2,9=2,10=2,28=1/1;
 7//1,2,3,16;
 1/18=20,19=15,26=3/3(2);
 2/9=110/2;
 99//99;
 2/9=110/2;
 3/5=1,6=6,7=1,11=2,25=1,30=1,70=2205,71=1,72=1,74=-5/1,2,3;
 4/5=5,16=3,69=1/1;
 5/5=2,38=5,53=1/2;
 7//1,2,3,16;
 1/18=20,19=15,26=3/3(-5);
 2/9=110/2;
 6/7=2,8=2,9=2,10=2,19=2,28=1/1;
 99/9=1/99;
 Leave Link    1 at Sun Jul 18 13:37:05 2021, MaxMem=   104857600 cpu:               0.1 elap:               0.0
 (Enter /prod/apps/gaussian/g16b1/l101.exe)
 ---------------------------------------------
 SET_328_BBB256_conf1.geo_180_300_120 geometry
 ---------------------------------------------
 Symbolic Z-matrix:
 Charge =  1 Multiplicity = 1
 C                     1.781    -2.016     1.802 
 H                     1.885    -3.071     1.533 
 H                     1.098    -1.992     2.655 
 H                     2.705    -1.591     2.201 
 N                     1.327    -1.291     0.624 
 H                     2.075    -1.285    -0.04 
 C                     0.106    -1.814    -0.063 
 H                    -0.801    -1.752     0.543 
 H                     0.219    -2.819    -0.477 
 C                    -0.209    -0.885    -1.274 
 H                    -1.065    -1.284    -1.822 
 H                     0.609    -0.867    -1.996 
 C                    -0.427     0.486    -0.853 
 N                     0.364     1.418    -1.391 
 C                     0.114     2.699    -1.008 
 H                     0.808     3.448    -1.385 
 C                    -0.989     3.133    -0.262 
 H                    -1.235     4.162    -0.015 
 C                    -1.857     2.161     0.223 
 H                    -2.738     2.468     0.781 
 C                    -1.546     0.798    -0.022 
 H                    -2.186    -0.015     0.308 
 H                     1.146    -0.346     0.896 
 
 ITRead=  0  0  0  0  0  0  0  0  0  0  0  0  0  0  0  0  0  0  0  0
 ITRead=  0  0  0
 MicOpt= -1 -1 -1 -1 -1 -1 -1 -1 -1 -1 -1 -1 -1 -1 -1 -1 -1 -1 -1 -1
 MicOpt= -1 -1 -1
 NAtoms=     23 NQM=       23 NQMF=       0 NMMI=      0 NMMIF=      0
                NMic=       0 NMicF=      0.
                    Isotopes and Nuclear Properties:
 (Nuclear quadrupole moments (NQMom) in fm**2, nuclear magnetic moments (NMagM)
  in nuclear magnetons)

  Atom         1           2           3           4           5           6           7           8           9          10
 IAtWgt=          12           1           1           1          14           1          12           1           1          12
 AtmWgt=  12.0000000   1.0078250   1.0078250   1.0078250  14.0030740   1.0078250  12.0000000   1.0078250   1.0078250  12.0000000
 NucSpn=           0           1           1           1           2           1           0           1           1           0
 AtZEff=  -0.0000000  -0.0000000  -0.0000000  -0.0000000  -0.0000000  -0.0000000  -0.0000000  -0.0000000  -0.0000000  -0.0000000
 NQMom=    0.0000000   0.0000000   0.0000000   0.0000000   2.0440000   0.0000000   0.0000000   0.0000000   0.0000000   0.0000000
 NMagM=    0.0000000   2.7928460   2.7928460   2.7928460   0.4037610   2.7928460   0.0000000   2.7928460   2.7928460   0.0000000
 AtZNuc=   6.0000000   1.0000000   1.0000000   1.0000000   7.0000000   1.0000000   6.0000000   1.0000000   1.0000000   6.0000000

  Atom        11          12          13          14          15          16          17          18          19          20
 IAtWgt=           1           1          12          14          12           1          12           1          12           1
 AtmWgt=   1.0078250   1.0078250  12.0000000  14.0030740  12.0000000   1.0078250  12.0000000   1.0078250  12.0000000   1.0078250
 NucSpn=           1           1           0           2           0           1           0           1           0           1
 AtZEff=  -0.0000000  -0.0000000  -0.0000000  -0.0000000  -0.0000000  -0.0000000  -0.0000000  -0.0000000  -0.0000000  -0.0000000
 NQMom=    0.0000000   0.0000000   0.0000000   2.0440000   0.0000000   0.0000000   0.0000000   0.0000000   0.0000000   0.0000000
 NMagM=    2.7928460   2.7928460   0.0000000   0.4037610   0.0000000   2.7928460   0.0000000   2.7928460   0.0000000   2.7928460
 AtZNuc=   1.0000000   1.0000000   6.0000000   7.0000000   6.0000000   1.0000000   6.0000000   1.0000000   6.0000000   1.0000000

  Atom        21          22          23
 IAtWgt=          12           1           1
 AtmWgt=  12.0000000   1.0078250   1.0078250
 NucSpn=           0           1           1
 AtZEff=  -0.0000000  -0.0000000  -0.0000000
 NQMom=    0.0000000   0.0000000   0.0000000
 NMagM=    0.0000000   2.7928460   2.7928460
 AtZNuc=   6.0000000   1.0000000   1.0000000
 Leave Link  101 at Sun Jul 18 13:37:05 2021, MaxMem=   104857600 cpu:               0.5 elap:               0.1
 (Enter /prod/apps/gaussian/g16b1/l103.exe)

 GradGradGradGradGradGradGradGradGradGradGradGradGradGradGradGradGradGrad
 Berny optimization.
 Initialization pass.
                           ----------------------------
                           !    Initial Parameters    !
                           ! (Angstroms and Degrees)  !
 --------------------------                            --------------------------
 ! Name  Definition              Value          Derivative Info.                !
 --------------------------------------------------------------------------------
 ! R1    R(1,2)                  1.0937         estimate D2E/DX2                !
 ! R2    R(1,3)                  1.093          estimate D2E/DX2                !
 ! R3    R(1,4)                  1.0925         estimate D2E/DX2                !
 ! R4    R(1,5)                  1.4558         estimate D2E/DX2                !
 ! R5    R(5,6)                  1.0002         estimate D2E/DX2                !
 ! R6    R(5,7)                  1.4954         estimate D2E/DX2                !
 ! R7    R(5,23)                 0.9999         estimate D2E/DX2                !
 ! R8    R(7,8)                  1.0926         estimate D2E/DX2                !
 ! R9    R(7,9)                  1.0928         estimate D2E/DX2                !
 ! R10   R(7,10)                 1.5585         estimate D2E/DX2                !
 ! R11   R(10,11)                1.0919         estimate D2E/DX2                !
 ! R12   R(10,12)                1.0912         estimate D2E/DX2                !
 ! R13   R(10,13)                1.4507         estimate D2E/DX2                !
 ! R14   R(13,14)                1.3356         estimate D2E/DX2                !
 ! R15   R(13,21)                1.4283         estimate D2E/DX2                !
 ! R16   R(14,15)                1.3602         estimate D2E/DX2                !
 ! R17   R(15,16)                1.0885         estimate D2E/DX2                !
 ! R18   R(15,17)                1.4005         estimate D2E/DX2                !
 ! R19   R(17,18)                1.0864         estimate D2E/DX2                !
 ! R20   R(17,19)                1.3905         estimate D2E/DX2                !
 ! R21   R(19,20)                1.0871         estimate D2E/DX2                !
 ! R22   R(19,21)                1.4193         estimate D2E/DX2                !
 ! R23   R(21,22)                1.086          estimate D2E/DX2                !
 ! A1    A(2,1,3)              105.8157         estimate D2E/DX2                !
 ! A2    A(2,1,4)              112.6216         estimate D2E/DX2                !
 ! A3    A(2,1,5)              108.1202         estimate D2E/DX2                !
 ! A4    A(3,1,4)              103.5878         estimate D2E/DX2                !
 ! A5    A(3,1,5)              115.1936         estimate D2E/DX2                !
 ! A6    A(4,1,5)              111.4406         estimate D2E/DX2                !
 ! A7    A(1,5,6)              107.875          estimate D2E/DX2                !
 ! A8    A(1,5,7)              116.8838         estimate D2E/DX2                !
 ! A9    A(1,5,23)             107.8784         estimate D2E/DX2                !
 ! A10   A(6,5,7)              107.9219         estimate D2E/DX2                !
 ! A11   A(6,5,23)             108.077          estimate D2E/DX2                !
 ! A12   A(7,5,23)             107.9208         estimate D2E/DX2                !
 ! A13   A(5,7,8)              113.7752         estimate D2E/DX2                !
 ! A14   A(5,7,9)              114.2832         estimate D2E/DX2                !
 ! A15   A(5,7,10)             108.2721         estimate D2E/DX2                !
 ! A16   A(8,7,9)              110.3746         estimate D2E/DX2                !
 ! A17   A(8,7,10)             103.2602         estimate D2E/DX2                !
 ! A18   A(9,7,10)             105.946          estimate D2E/DX2                !
 ! A19   A(7,10,11)            109.306          estimate D2E/DX2                !
 ! A20   A(7,10,12)            111.867          estimate D2E/DX2                !
 ! A21   A(7,10,13)            111.6067         estimate D2E/DX2                !
 ! A22   A(11,10,12)           105.1671         estimate D2E/DX2                !
 ! A23   A(11,10,13)           111.9128         estimate D2E/DX2                !
 ! A24   A(12,10,13)           106.803          estimate D2E/DX2                !
 ! A25   A(10,13,14)           116.9751         estimate D2E/DX2                !
 ! A26   A(10,13,21)           119.5397         estimate D2E/DX2                !
 ! A27   A(14,13,21)           123.0883         estimate D2E/DX2                !
 ! A28   A(13,14,15)           115.7799         estimate D2E/DX2                !
 ! A29   A(14,15,16)           115.6798         estimate D2E/DX2                !
 ! A30   A(14,15,17)           125.9142         estimate D2E/DX2                !
 ! A31   A(16,15,17)           118.2549         estimate D2E/DX2                !
 ! A32   A(15,17,18)           126.3645         estimate D2E/DX2                !
 ! A33   A(15,17,19)           117.4388         estimate D2E/DX2                !
 ! A34   A(18,17,19)           116.1954         estimate D2E/DX2                !
 ! A35   A(17,19,20)           119.178          estimate D2E/DX2                !
 ! A36   A(17,19,21)           118.3139         estimate D2E/DX2                !
 ! A37   A(20,19,21)           122.505          estimate D2E/DX2                !
 ! A38   A(13,21,19)           118.8072         estimate D2E/DX2                !
 ! A39   A(13,21,22)           118.3559         estimate D2E/DX2                !
 ! A40   A(19,21,22)           122.5005         estimate D2E/DX2                !
 ! D1    D(2,1,5,6)            -69.0061         estimate D2E/DX2                !
 ! D2    D(2,1,5,7)             52.7301         estimate D2E/DX2                !
 ! D3    D(2,1,5,23)           174.4676         estimate D2E/DX2                !
 ! D4    D(3,1,5,6)            172.9041         estimate D2E/DX2                !
 ! D5    D(3,1,5,7)            -65.3597         estimate D2E/DX2                !
 ! D6    D(3,1,5,23)            56.3778         estimate D2E/DX2                !
 ! D7    D(4,1,5,6)             55.2793         estimate D2E/DX2                !
 ! D8    D(4,1,5,7)            177.0155         estimate D2E/DX2                !
 ! D9    D(4,1,5,23)           -61.247          estimate D2E/DX2                !
 ! D10   D(1,5,7,8)             65.0771         estimate D2E/DX2                !
 ! D11   D(1,5,7,9)            -62.9565         estimate D2E/DX2                !
 ! D12   D(1,5,7,10)           179.2448         estimate D2E/DX2                !
 ! D13   D(6,5,7,8)           -173.2112         estimate D2E/DX2                !
 ! D14   D(6,5,7,9)             58.7552         estimate D2E/DX2                !
 ! D15   D(6,5,7,10)           -59.0435         estimate D2E/DX2                !
 ! D16   D(23,5,7,8)           -56.6382         estimate D2E/DX2                !
 ! D17   D(23,5,7,9)           175.3282         estimate D2E/DX2                !
 ! D18   D(23,5,7,10)           57.5295         estimate D2E/DX2                !
 ! D19   D(5,7,10,11)          176.8066         estimate D2E/DX2                !
 ! D20   D(5,7,10,12)           60.747          estimate D2E/DX2                !
 ! D21   D(5,7,10,13)          -58.8561         estimate D2E/DX2                !
 ! D22   D(8,7,10,11)          -62.2632         estimate D2E/DX2                !
 ! D23   D(8,7,10,12)         -178.3229         estimate D2E/DX2                !
 ! D24   D(8,7,10,13)           62.0741         estimate D2E/DX2                !
 ! D25   D(9,7,10,11)           53.7987         estimate D2E/DX2                !
 ! D26   D(9,7,10,12)          -62.261          estimate D2E/DX2                !
 ! D27   D(9,7,10,13)          178.1359         estimate D2E/DX2                !
 ! D28   D(7,10,13,14)         122.2589         estimate D2E/DX2                !
 ! D29   D(7,10,13,21)         -64.7473         estimate D2E/DX2                !
 ! D30   D(11,10,13,14)       -114.8795         estimate D2E/DX2                !
 ! D31   D(11,10,13,21)         58.1143         estimate D2E/DX2                !
 ! D32   D(12,10,13,14)         -0.2936         estimate D2E/DX2                !
 ! D33   D(12,10,13,21)        172.7003         estimate D2E/DX2                !
 ! D34   D(10,13,14,15)        178.2205         estimate D2E/DX2                !
 ! D35   D(21,13,14,15)          5.4972         estimate D2E/DX2                !
 ! D36   D(10,13,21,19)       -171.0325         estimate D2E/DX2                !
 ! D37   D(10,13,21,22)          2.477          estimate D2E/DX2                !
 ! D38   D(14,13,21,19)          1.5125         estimate D2E/DX2                !
 ! D39   D(14,13,21,22)        175.0221         estimate D2E/DX2                !
 ! D40   D(13,14,15,16)        175.3532         estimate D2E/DX2                !
 ! D41   D(13,14,15,17)         -9.2193         estimate D2E/DX2                !
 ! D42   D(14,15,17,18)       -175.1217         estimate D2E/DX2                !
 ! D43   D(14,15,17,19)          5.3279         estimate D2E/DX2                !
 ! D44   D(16,15,17,18)          0.1999         estimate D2E/DX2                !
 ! D45   D(16,15,17,19)       -179.3506         estimate D2E/DX2                !
 ! D46   D(15,17,19,20)       -178.2401         estimate D2E/DX2                !
 ! D47   D(15,17,19,21)          2.3738         estimate D2E/DX2                !
 ! D48   D(18,17,19,20)          2.1633         estimate D2E/DX2                !
 ! D49   D(18,17,19,21)       -177.2228         estimate D2E/DX2                !
 ! D50   D(17,19,21,13)         -5.5117         estimate D2E/DX2                !
 ! D51   D(17,19,21,22)       -178.7381         estimate D2E/DX2                !
 ! D52   D(20,19,21,13)        175.1238         estimate D2E/DX2                !
 ! D53   D(20,19,21,22)          1.8975         estimate D2E/DX2                !
 --------------------------------------------------------------------------------
 Trust Radius=3.00D-01 FncErr=1.00D-07 GrdErr=1.00D-06 EigMax=2.50D+02 EigMin=1.00D-04
 Number of steps in this run=    126 maximum allowed number of steps=    138.
 GradGradGradGradGradGradGradGradGradGradGradGradGradGradGradGradGradGrad

 Leave Link  103 at Sun Jul 18 13:37:05 2021, MaxMem=   104857600 cpu:               0.1 elap:               0.0
 (Enter /prod/apps/gaussian/g16b1/l202.exe)
                          Input orientation:                          
 ---------------------------------------------------------------------
 Center     Atomic      Atomic             Coordinates (Angstroms)
 Number     Number       Type             X           Y           Z
 ---------------------------------------------------------------------
      1          6           0        1.781000   -2.016000    1.802000
      2          1           0        1.885000   -3.071000    1.533000
      3          1           0        1.098000   -1.992000    2.655000
      4          1           0        2.705000   -1.591000    2.201000
      5          7           0        1.327000   -1.291000    0.624000
      6          1           0        2.075000   -1.285000   -0.040000
      7          6           0        0.106000   -1.814000   -0.063000
      8          1           0       -0.801000   -1.752000    0.543000
      9          1           0        0.219000   -2.819000   -0.477000
     10          6           0       -0.209000   -0.885000   -1.274000
     11          1           0       -1.065000   -1.284000   -1.822000
     12          1           0        0.609000   -0.867000   -1.996000
     13          6           0       -0.427000    0.486000   -0.853000
     14          7           0        0.364000    1.418000   -1.391000
     15          6           0        0.114000    2.699000   -1.008000
     16          1           0        0.808000    3.448000   -1.385000
     17          6           0       -0.989000    3.133000   -0.262000
     18          1           0       -1.235000    4.162000   -0.015000
     19          6           0       -1.857000    2.161000    0.223000
     20          1           0       -2.738000    2.468000    0.781000
     21          6           0       -1.546000    0.798000   -0.022000
     22          1           0       -2.186000   -0.015000    0.308000
     23          1           0        1.146000   -0.346000    0.896000
 ---------------------------------------------------------------------
                    Distance matrix (angstroms):
                    1          2          3          4          5
     1  C    0.000000
     2  H    1.093710   0.000000
     3  H    1.093011   1.744275   0.000000
     4  H    1.092521   1.819072   1.717372   0.000000
     5  N    1.455825   2.075101   2.160741   2.115612   0.000000
     6  H    2.003437   2.387514   2.952525   2.347896   1.000218
     7  C    2.514886   2.700390   2.898840   3.454016   1.495439
     8  H    2.884701   3.151897   2.850324   3.881613   2.178868
     9  H    2.877237   2.622815   3.356485   3.854849   2.185097
    10  C    3.834193   4.128278   4.286110   4.589712   2.475184
    11  H    4.665717   4.811642   5.022287   5.521927   3.421203
    12  H    4.137462   4.351969   4.810046   4.746810   2.749491
    13  C    4.264305   4.867298   4.557650   4.842548   2.900995
    14  N    4.898520   5.569052   5.342001   5.238017   3.510880
    15  C    5.736394   6.548742   6.032521   5.951056   4.478269
    16  H    6.399921   7.223020   6.782278   6.469121   5.173351
    17  C    6.200419   7.069053   6.255404   6.482915   5.071551
    18  H    7.110937   8.027888   7.102359   7.316506   6.058661
    19  C    5.759828   6.564487   5.647482   6.229112   4.713275
    20  H    6.447485   7.253837   6.174008   6.936723   5.538859
    21  C    4.723823   5.399902   4.684140   5.359109   3.610452
    22  H    4.687550   5.235724   4.494618   5.476231   3.750893
    23  H    2.003238   2.894394   2.409502   2.384016   0.999885
                    6          7          8          9         10
     6  H    0.000000
     7  C    2.038953   0.000000
     8  H    2.971423   1.092579   0.000000
     9  H    2.447215   1.092790   1.794238   0.000000
    10  C    2.626673   1.558457   2.098486   2.135123   0.000000
    11  H    3.610419   2.178583   2.425272   2.411204   1.091898
    12  H    2.479882   2.210499   3.036091   2.503950   1.091207
    13  C    3.171343   2.489616   2.664083   3.388468   1.450657
    14  N    3.472597   3.503708   3.891848   4.336887   2.376095
    15  C    4.544755   4.610885   4.801482   5.544485   3.608343
    16  H    5.080906   5.470752   5.774605   6.359770   4.452134
    17  C    5.381088   5.070644   4.954452   6.077153   4.216262
    18  H    6.373895   6.124799   5.956099   7.145762   5.301883
    19  C    5.234951   4.442498   4.065600   5.440604   3.772934
    20  H    6.158248   5.209241   4.649410   6.186985   4.675626
    21  C    4.177422   3.090846   2.716017   4.050301   2.487481
    22  H    4.459835   2.937228   2.233969   3.776594   2.677341
    23  H    1.618906   2.038702   2.427397   2.976607   2.614469
                   11         12         13         14         15
    11  H    0.000000
    12  H    1.733909   0.000000
    13  C    2.116342   2.051915   0.000000
    14  N    3.086844   2.376400   1.335571   0.000000
    15  C    4.232839   3.733299   2.283435   1.360202   0.000000
    16  H    5.107927   4.362585   3.252951   2.077997   1.088470
    17  C    4.685004   4.643313   2.769790   2.458958   1.400529
    18  H    5.740476   5.711001   3.855915   3.461172   2.224010
    19  C    4.083787   4.491537   2.451184   2.844272   2.385298
    20  H    4.863337   5.480544   3.455286   3.929693   3.374579
    21  C    2.793937   3.363469   1.428309   2.430362   2.709538
    22  H    2.721011   3.721068   2.166334   3.382690   3.793106
    23  H    3.627105   2.987218   2.495106   2.992255   3.736611
                   16         17         18         19         20
    16  H    0.000000
    17  C    2.142327   0.000000
    18  H    2.561356   1.086447   0.000000
    19  C    3.368124   1.390479   2.108917   0.000000
    20  H    4.269200   2.142213   2.400471   1.087094   0.000000
    21  C    3.797576   2.412483   3.378353   1.419336   2.203310
    22  H    4.880846   3.415789   4.296052   2.202372   2.587223
    23  H    4.439779   4.242951   5.178914   3.969381   4.797632
                   21         22         23
    21  C    0.000000
    22  H    1.086034   0.000000
    23  H    3.065669   3.399637   0.000000
 Stoichiometry    C8H13N2(1+)
 Framework group  C1[X(C8H13N2)]
 Deg. of freedom    63
 Full point group                 C1      NOp   1
 Largest Abelian subgroup         C1      NOp   1
 Largest concise Abelian subgroup C1      NOp   1
                         Standard orientation:                         
 ---------------------------------------------------------------------
 Center     Atomic      Atomic             Coordinates (Angstroms)
 Number     Number       Type             X           Y           Z
 ---------------------------------------------------------------------
      1          6           0       -3.307260   -1.264367    0.163402
      2          1           0       -4.194358   -0.625157    0.137506
      3          1           0       -3.227149   -1.621166    1.193427
      4          1           0       -3.433043   -2.181467   -0.416864
      5          7           0       -2.173473   -0.484888   -0.312376
      6          1           0       -2.305270   -0.316149   -1.289409
      7          6           0       -1.931157    0.832027    0.353474
      8          1           0       -1.658131    0.748737    1.408105
      9          1           0       -2.739984    1.555702    0.225866
     10          6           0       -0.669976    1.481230   -0.292085
     11          1           0       -0.510451    2.470113    0.142546
     12          1           0       -0.805289    1.657383   -1.360445
     13          6           0        0.498570    0.633194   -0.151584
     14          7           0        1.118380    0.264686   -1.275766
     15          6           0        2.232428   -0.498796   -1.114085
     16          1           0        2.691281   -0.863789   -2.031145
     17          6           0        2.873117   -0.770109    0.101394
     18          1           0        3.803161   -1.316431    0.231460
     19          6           0        2.265081   -0.307936    1.263341
     20          1           0        2.752522   -0.477562    2.220108
     21          6           0        1.017474    0.359366    1.150654
     22          1           0        0.492963    0.765125    2.010722
     23          1           0       -1.350261   -1.041573   -0.201945
 ---------------------------------------------------------------------
 Rotational constants (GHZ):           2.5551930           0.7367982           0.7338058
 Leave Link  202 at Sun Jul 18 13:37:05 2021, MaxMem=   104857600 cpu:               0.0 elap:               0.0
 (Enter /prod/apps/gaussian/g16b1/l301.exe)
 Standard basis: 6-31G(d) (6D, 7F)
 Ernie: Thresh=  0.10000D-02 Tol=  0.10000D-05 Strict=F.
 There are   176 symmetry adapted cartesian basis functions of A   symmetry.
 There are   176 symmetry adapted basis functions of A   symmetry.
   176 basis functions,   332 primitive gaussians,   176 cartesian basis functions
    37 alpha electrons       37 beta electrons
       nuclear repulsion energy       521.5222626892 Hartrees.
 IExCor=  402 DFT=T Ex+Corr=B3LYP ExCW=0 ScaHFX=  0.200000
 ScaDFX=  0.800000  0.720000  1.000000  0.810000 ScalE2=  1.000000  1.000000
 IRadAn=      5 IRanWt=     -1 IRanGd=            0 ICorTp=0 IEmpDi=  4
 NAtoms=   23 NActive=   23 NUniq=   23 SFac= 1.00D+00 NAtFMM=   60 NAOKFM=F Big=F
 Integral buffers will be    131072 words long.
 Raffenetti 2 integral format.
 Two-electron integral symmetry is turned on.
 Using the following non-standard input for PCM:
 MSTModel=DFT cav MSTCharged
 --- end of non-standard input.
 MST model for solvation energy: B3LYP parametrization.
 MST cavity parameters:
 ISph   IAn     Re0     Alpha   Atom Type   QCorr
 ------------------------------------------------
   1      6     1.50     1.25      CH3        F
   2      1     1.20     1.25      CH3        F
   3      1     1.20     1.25      CH3        F
   4      1     1.20     1.25      CH3        F
   5      7     1.55     1.15      NH         T
   6      1     0.90     1.15      NH         T
   7      6     1.50     1.25      CH2        F
   8      1     1.20     1.25      CH2        F
   9      1     1.20     1.25      CH2        F
  10      6     1.50     1.25      CH2        F
  11      1     1.20     1.25      CH2        F
  12      1     1.20     1.25      CH2        F
  13      6     1.50     1.25      C          F
  14      7     1.40     1.25      N          F
  15      6     1.50     1.25      CH         F
  16      1     1.20     1.25      CH         F
  17      6     1.50     1.25      CH         F
  18      1     1.20     1.25      CH         F
  19      6     1.50     1.25      CH         F
  20      1     1.20     1.25      CH         F
  21      6     1.50     1.25      CH         F
  22      1     1.20     1.25      CH         F
  23      1     0.90     1.15      NH         T
 ------------------------------------------------------------------------------
 Polarizable Continuum Model (PCM)
 =================================
 Model                : PCM.
 Atomic radii         : MST.
 Polarization charges : Total charges.
 Charge compensation  : None.
 Solution method      : On-the-fly selection.
 Cavity type          : Scaled VdW (van der Waals Surface) (Alpha=1.250).
 Cavity algorithm     : GePol (No added spheres)
                        Default sphere list used, NSphG=   23.
                        Lebedev-Laikov grids with approx.  5.0 points / Ang**2.
                        Smoothing algorithm: York/Karplus (Gamma=1.0000).
                        Polarization charges: spherical gaussians, with
                                              point-specific exponents (IZeta= 3).
                        Self-potential: point-specific (ISelfS= 7).
                        Self-field    : sphere-specific E.n sum rule (ISelfD= 2).
 1st derivatives      : Analytical E(r).r(x)/FMM algorithm (CHGder, D1EAlg=3).
                        Cavity 1st derivative terms included.
 Solvent              : Water, Eps=  78.355300 Eps(inf)=   1.777849
 ------------------------------------------------------------------------------
 GePol: Number of generator spheres                  =      23
 GePol: Total number of spheres                      =      23
 GePol: Number of exposed spheres                    =      23 (100.00%)
 GePol: Number of points                             =    1678
 GePol: Average weight of points                     =       0.13
 GePol: Minimum weight of points                     =   0.14D-10
 GePol: Maximum weight of points                     =    0.22001
 GePol: Number of points with low weight             =     122
 GePol: Fraction of low-weight points (<1% of avg)   =       7.27%
 GePol: Cavity surface area                          =    214.128 Ang**2
 GePol: Cavity volume                                =    189.025 Ang**3
 PCM non-electrostatic energy =         0.0013035355 Hartrees.
 Nuclear repulsion after PCM non-electrostatic terms =      521.5235662247 Hartrees.
 Leave Link  301 at Sun Jul 18 13:37:05 2021, MaxMem=   104857600 cpu:               0.3 elap:               0.1
 (Enter /prod/apps/gaussian/g16b1/l302.exe)
 NPDir=0 NMtPBC=     1 NCelOv=     1 NCel=       1 NClECP=     1 NCelD=      1
         NCelK=      1 NCelE2=     1 NClLst=     1 CellRange=     0.0.
 One-electron integrals computed using PRISM.
 One-electron integral symmetry used in STVInt
 NBasis=   176 RedAO= T EigKep=  9.53D-04  NBF=   176
 NBsUse=   176 1.00D-06 EigRej= -1.00D+00 NBFU=   176
 Precomputing XC quadrature grid using
 IXCGrd= 4 IRadAn=           5 IRanWt=          -1 IRanGd=           0 AccXCQ= 0.00D+00.
 Generated NRdTot=       0 NPtTot=           0 NUsed=           0 NTot=          32
 NSgBfM=   176   176   176   176   176 MxSgAt=    23 MxSgA2=    23.
 Leave Link  302 at Sun Jul 18 13:37:06 2021, MaxMem=   104857600 cpu:               0.9 elap:               0.2
 (Enter /prod/apps/gaussian/g16b1/l303.exe)
 DipDrv:  MaxL=1.
 Leave Link  303 at Sun Jul 18 13:37:06 2021, MaxMem=   104857600 cpu:               0.1 elap:               0.0
 (Enter /prod/apps/gaussian/g16b1/l401.exe)
 ExpMin= 1.61D-01 ExpMax= 4.17D+03 ExpMxC= 6.27D+02 IAcc=3 IRadAn=         5 AccDes= 0.00D+00
 Harris functional with IExCor=  402 and IRadAn=       5 diagonalized for initial guess.
 HarFok:  IExCor=  402 AccDes= 0.00D+00 IRadAn=         5 IDoV= 1 UseB2=F ITyADJ=14
 ICtDFT=  3500011 ScaDFX=  1.000000  1.000000  1.000000  1.000000
 FoFCou: FMM=F IPFlag=           0 FMFlag=      100000 FMFlg1=           0
         NFxFlg=           0 DoJE=T BraDBF=F KetDBF=T FulRan=T
         wScrn=  0.000000 ICntrl=       500 IOpCl=  0 I1Cent=   200000004 NGrid=           0
         NMat0=    1 NMatS0=      1 NMatT0=    0 NMatD0=    1 NMtDS0=    0 NMtDT0=    0
 Petite list used in FoFCou.
 Harris En= -421.950047367641    
 JPrj=0 DoOrth=F DoCkMO=F.
 Leave Link  401 at Sun Jul 18 13:37:07 2021, MaxMem=   104857600 cpu:               4.2 elap:               1.1
 (Enter /prod/apps/gaussian/g16b1/l502.exe)
 Integral symmetry usage will be decided dynamically.
 Closed shell SCF:
 Using DIIS extrapolation, IDIIS=  1040.
 NGot=   104857600 LenX=   104792415 LenY=   104760998
 Requested convergence on RMS density matrix=1.00D-08 within 128 cycles.
 Requested convergence on MAX density matrix=1.00D-06.
 Requested convergence on             energy=1.00D-06.
 No special actions if energy rises.
 Fock matrices will be formed incrementally for  20 cycles.

 Cycle   1  Pass 1  IDiag  1:
 FoFJK:  IHMeth= 1 ICntrl=       0 DoSepK=F KAlg= 0 I1Cent=           0 FoldK=F
 IRaf= 920000000 NMat=       1 IRICut=       1 DoRegI=T DoRafI=F ISym2E= 0 IDoP0=0 IntGTp=1.
 FoFCou: FMM=F IPFlag=           0 FMFlag=      100000 FMFlg1=           0
         NFxFlg=           0 DoJE=F BraDBF=F KetDBF=F FulRan=T
         wScrn=  0.000000 ICntrl=         0 IOpCl=  0 I1Cent=           0 NGrid=           0
         NMat0=    1 NMatS0=      1 NMatT0=    0 NMatD0=    1 NMtDS0=    0 NMtDT0=    0
 Symmetry not used in FoFCou.
 Inv3:  Mode=1 IEnd=     8447052.
 Iteration    1 A*A^-1 deviation from unit magnitude is 3.55D-15 for   1156.
 Iteration    1 A*A^-1 deviation from orthogonality  is 1.89D-15 for   1508    863.
 Iteration    1 A^-1*A deviation from unit magnitude is 3.33D-15 for   1006.
 Iteration    1 A^-1*A deviation from orthogonality  is 4.99D-13 for   1505   1156.
 E= -421.855507972999    
 DIIS: error= 2.38D-02 at cycle   1 NSaved=   1.
 NSaved= 1 IEnMin= 1 EnMin= -421.855507972999     IErMin= 1 ErrMin= 2.38D-02
 ErrMax= 2.38D-02  0.00D+00 EMaxC= 1.00D-01 BMatC= 1.72D-01 BMatP= 1.72D-01
 IDIUse=3 WtCom= 7.62D-01 WtEn= 2.38D-01
 Coeff-Com:  0.100D+01
 Coeff-En:   0.100D+01
 Coeff:      0.100D+01
 Gap=     0.226 Goal=   None    Shift=    0.000
 GapD=    0.226 DampG=1.000 DampE=0.500 DampFc=0.5000 IDamp=-1.
 Damping current iteration by 5.00D-01
 RMSDP=4.86D-03 MaxDP=1.07D-01              OVMax= 1.48D-01

 Cycle   2  Pass 1  IDiag  1:
 RMSU=  2.36D-03    CP:  9.76D-01
 E= -421.945761508161     Delta-E=       -0.090253535162 Rises=F Damp=T
 DIIS: error= 5.73D-03 at cycle   2 NSaved=   2.
 NSaved= 2 IEnMin= 2 EnMin= -421.945761508161     IErMin= 2 ErrMin= 5.73D-03
 ErrMax= 5.73D-03  0.00D+00 EMaxC= 1.00D-01 BMatC= 1.05D-02 BMatP= 1.72D-01
 IDIUse=3 WtCom= 9.43D-01 WtEn= 5.73D-02
 Coeff-Com: -0.545D-01 0.105D+01
 Coeff-En:   0.000D+00 0.100D+01
 Coeff:     -0.513D-01 0.105D+01
 Gap=     0.224 Goal=   None    Shift=    0.000
 RMSDP=1.05D-03 MaxDP=2.11D-02 DE=-9.03D-02 OVMax= 9.56D-02

 Cycle   3  Pass 1  IDiag  1:
 RMSU=  1.01D-03    CP:  9.70D-01  1.09D+00
 E= -422.032351256482     Delta-E=       -0.086589748321 Rises=F Damp=F
 DIIS: error= 2.74D-03 at cycle   3 NSaved=   3.
 NSaved= 3 IEnMin= 3 EnMin= -422.032351256482     IErMin= 3 ErrMin= 2.74D-03
 ErrMax= 2.74D-03  0.00D+00 EMaxC= 1.00D-01 BMatC= 2.88D-03 BMatP= 1.05D-02
 IDIUse=3 WtCom= 9.73D-01 WtEn= 2.74D-02
 Coeff-Com: -0.595D-01 0.342D+00 0.717D+00
 Coeff-En:   0.000D+00 0.000D+00 0.100D+01
 Coeff:     -0.579D-01 0.333D+00 0.725D+00
 Gap=     0.224 Goal=   None    Shift=    0.000
 RMSDP=4.46D-04 MaxDP=1.24D-02 DE=-8.66D-02 OVMax= 4.07D-02

 Cycle   4  Pass 1  IDiag  1:
 RMSU=  3.85D-04    CP:  9.71D-01  1.10D+00  7.79D-01
 E= -422.033875871168     Delta-E=       -0.001524614685 Rises=F Damp=F
 DIIS: error= 1.88D-03 at cycle   4 NSaved=   4.
 NSaved= 4 IEnMin= 4 EnMin= -422.033875871168     IErMin= 4 ErrMin= 1.88D-03
 ErrMax= 1.88D-03  0.00D+00 EMaxC= 1.00D-01 BMatC= 1.25D-03 BMatP= 2.88D-03
 IDIUse=3 WtCom= 9.81D-01 WtEn= 1.88D-02
 Coeff-Com: -0.273D-01 0.990D-01 0.429D+00 0.499D+00
 Coeff-En:   0.000D+00 0.000D+00 0.329D+00 0.671D+00
 Coeff:     -0.268D-01 0.971D-01 0.427D+00 0.503D+00
 Gap=     0.224 Goal=   None    Shift=    0.000
 RMSDP=2.37D-04 MaxDP=5.75D-03 DE=-1.52D-03 OVMax= 1.88D-02

 Cycle   5  Pass 1  IDiag  1:
 RMSU=  9.35D-05    CP:  9.70D-01  1.11D+00  8.49D-01  4.73D-01
 E= -422.035177007136     Delta-E=       -0.001301135969 Rises=F Damp=F
 DIIS: error= 3.61D-04 at cycle   5 NSaved=   5.
 NSaved= 5 IEnMin= 5 EnMin= -422.035177007136     IErMin= 5 ErrMin= 3.61D-04
 ErrMax= 3.61D-04  0.00D+00 EMaxC= 1.00D-01 BMatC= 4.67D-05 BMatP= 1.25D-03
 IDIUse=3 WtCom= 9.96D-01 WtEn= 3.61D-03
 Coeff-Com: -0.770D-02 0.196D-01 0.145D+00 0.236D+00 0.608D+00
 Coeff-En:   0.000D+00 0.000D+00 0.000D+00 0.000D+00 0.100D+01
 Coeff:     -0.768D-02 0.195D-01 0.144D+00 0.235D+00 0.609D+00
 Gap=     0.224 Goal=   None    Shift=    0.000
 RMSDP=4.68D-05 MaxDP=1.65D-03 DE=-1.30D-03 OVMax= 3.48D-03

 Cycle   6  Pass 1  IDiag  1:
 RMSU=  2.64D-05    CP:  9.70D-01  1.11D+00  8.46D-01  5.38D-01  6.90D-01
 E= -422.035216293113     Delta-E=       -0.000039285976 Rises=F Damp=F
 DIIS: error= 1.67D-04 at cycle   6 NSaved=   6.
 NSaved= 6 IEnMin= 6 EnMin= -422.035216293113     IErMin= 6 ErrMin= 1.67D-04
 ErrMax= 1.67D-04  0.00D+00 EMaxC= 1.00D-01 BMatC= 8.32D-06 BMatP= 4.67D-05
 IDIUse=3 WtCom= 9.98D-01 WtEn= 1.67D-03
 Coeff-Com: -0.268D-02 0.458D-02 0.552D-01 0.104D+00 0.366D+00 0.473D+00
 Coeff-En:   0.000D+00 0.000D+00 0.000D+00 0.000D+00 0.840D-01 0.916D+00
 Coeff:     -0.268D-02 0.457D-02 0.551D-01 0.104D+00 0.365D+00 0.474D+00
 Gap=     0.224 Goal=   None    Shift=    0.000
 RMSDP=1.48D-05 MaxDP=6.35D-04 DE=-3.93D-05 OVMax= 1.01D-03

 Cycle   7  Pass 1  IDiag  1:
 RMSU=  5.69D-06    CP:  9.70D-01  1.11D+00  8.50D-01  5.34D-01  7.35D-01
                    CP:  5.36D-01
 E= -422.035223466301     Delta-E=       -0.000007173189 Rises=F Damp=F
 DIIS: error= 1.70D-05 at cycle   7 NSaved=   7.
 NSaved= 7 IEnMin= 7 EnMin= -422.035223466301     IErMin= 7 ErrMin= 1.70D-05
 ErrMax= 1.70D-05  0.00D+00 EMaxC= 1.00D-01 BMatC= 1.57D-07 BMatP= 8.32D-06
 IDIUse=1 WtCom= 1.00D+00 WtEn= 0.00D+00
 Coeff-Com: -0.847D-03 0.117D-02 0.182D-01 0.352D-01 0.133D+00 0.211D+00
 Coeff-Com:  0.602D+00
 Coeff:     -0.847D-03 0.117D-02 0.182D-01 0.352D-01 0.133D+00 0.211D+00
 Coeff:      0.602D+00
 Gap=     0.224 Goal=   None    Shift=    0.000
 RMSDP=2.79D-06 MaxDP=8.94D-05 DE=-7.17D-06 OVMax= 9.02D-05

 Cycle   8  Pass 1  IDiag  1:
 RMSU=  1.87D-06    CP:  9.70D-01  1.11D+00  8.50D-01  5.36D-01  7.36D-01
                    CP:  5.54D-01  6.80D-01
 E= -422.035223594226     Delta-E=       -0.000000127925 Rises=F Damp=F
 DIIS: error= 6.51D-06 at cycle   8 NSaved=   8.
 NSaved= 8 IEnMin= 8 EnMin= -422.035223594226     IErMin= 8 ErrMin= 6.51D-06
 ErrMax= 6.51D-06  0.00D+00 EMaxC= 1.00D-01 BMatC= 1.62D-08 BMatP= 1.57D-07
 IDIUse=1 WtCom= 1.00D+00 WtEn= 0.00D+00
 Coeff-Com: -0.374D-04-0.103D-03 0.122D-02 0.251D-02 0.135D-01 0.384D-01
 Coeff-Com:  0.274D+00 0.670D+00
 Coeff:     -0.374D-04-0.103D-03 0.122D-02 0.251D-02 0.135D-01 0.384D-01
 Coeff:      0.274D+00 0.670D+00
 Gap=     0.224 Goal=   None    Shift=    0.000
 RMSDP=7.66D-07 MaxDP=1.90D-05 DE=-1.28D-07 OVMax= 3.12D-05

 Cycle   9  Pass 1  IDiag  1:
 RMSU=  4.28D-07    CP:  9.70D-01  1.11D+00  8.50D-01  5.36D-01  7.37D-01
                    CP:  5.59D-01  7.44D-01  7.47D-01
 E= -422.035223608594     Delta-E=       -0.000000014368 Rises=F Damp=F
 DIIS: error= 1.26D-06 at cycle   9 NSaved=   9.
 NSaved= 9 IEnMin= 9 EnMin= -422.035223608594     IErMin= 9 ErrMin= 1.26D-06
 ErrMax= 1.26D-06  0.00D+00 EMaxC= 1.00D-01 BMatC= 1.04D-09 BMatP= 1.62D-08
 IDIUse=1 WtCom= 1.00D+00 WtEn= 0.00D+00
 Coeff-Com:  0.253D-04-0.105D-03-0.318D-03-0.637D-03-0.282D-03 0.790D-02
 Coeff-Com:  0.942D-01 0.302D+00 0.597D+00
 Coeff:      0.253D-04-0.105D-03-0.318D-03-0.637D-03-0.282D-03 0.790D-02
 Coeff:      0.942D-01 0.302D+00 0.597D+00
 Gap=     0.224 Goal=   None    Shift=    0.000
 RMSDP=1.90D-07 MaxDP=5.75D-06 DE=-1.44D-08 OVMax= 6.88D-06

 Cycle  10  Pass 1  IDiag  1:
 RMSU=  1.32D-07    CP:  9.70D-01  1.11D+00  8.50D-01  5.35D-01  7.37D-01
                    CP:  5.61D-01  7.50D-01  7.75D-01  7.50D-01
 E= -422.035223609447     Delta-E=       -0.000000000854 Rises=F Damp=F
 DIIS: error= 4.53D-07 at cycle  10 NSaved=  10.
 NSaved=10 IEnMin=10 EnMin= -422.035223609447     IErMin=10 ErrMin= 4.53D-07
 ErrMax= 4.53D-07  0.00D+00 EMaxC= 1.00D-01 BMatC= 1.05D-10 BMatP= 1.04D-09
 IDIUse=1 WtCom= 1.00D+00 WtEn= 0.00D+00
 Coeff-Com:  0.159D-04-0.351D-04-0.282D-03-0.622D-03-0.173D-02-0.551D-03
 Coeff-Com:  0.112D-01 0.631D-01 0.276D+00 0.653D+00
 Coeff:      0.159D-04-0.351D-04-0.282D-03-0.622D-03-0.173D-02-0.551D-03
 Coeff:      0.112D-01 0.631D-01 0.276D+00 0.653D+00
 Gap=     0.224 Goal=   None    Shift=    0.000
 RMSDP=5.75D-08 MaxDP=1.67D-06 DE=-8.54D-10 OVMax= 2.97D-06

 Cycle  11  Pass 1  IDiag  1:
 RMSU=  3.00D-08    CP:  9.70D-01  1.11D+00  8.50D-01  5.36D-01  7.37D-01
                    CP:  5.61D-01  7.51D-01  7.82D-01  8.07D-01  7.29D-01
 E= -422.035223609542     Delta-E=       -0.000000000095 Rises=F Damp=F
 DIIS: error= 1.30D-07 at cycle  11 NSaved=  11.
 NSaved=11 IEnMin=11 EnMin= -422.035223609542     IErMin=11 ErrMin= 1.30D-07
 ErrMax= 1.30D-07  0.00D+00 EMaxC= 1.00D-01 BMatC= 3.08D-12 BMatP= 1.05D-10
 IDIUse=1 WtCom= 1.00D+00 WtEn= 0.00D+00
 Coeff-Com:  0.430D-05-0.755D-05-0.747D-04-0.181D-03-0.527D-03-0.363D-03
 Coeff-Com: -0.311D-03 0.942D-02 0.638D-01 0.212D+00 0.716D+00
 Coeff:      0.430D-05-0.755D-05-0.747D-04-0.181D-03-0.527D-03-0.363D-03
 Coeff:     -0.311D-03 0.942D-02 0.638D-01 0.212D+00 0.716D+00
 Gap=     0.224 Goal=   None    Shift=    0.000
 RMSDP=1.47D-08 MaxDP=3.69D-07 DE=-9.50D-11 OVMax= 9.63D-07

 Cycle  12  Pass 1  IDiag  1:
 RMSU=  1.19D-08    CP:  9.70D-01  1.11D+00  8.50D-01  5.36D-01  7.37D-01
                    CP:  5.61D-01  7.51D-01  7.84D-01  8.11D-01  7.57D-01
                    CP:  8.24D-01
 E= -422.035223609550     Delta-E=       -0.000000000008 Rises=F Damp=F
 DIIS: error= 8.37D-08 at cycle  12 NSaved=  12.
 NSaved=12 IEnMin=12 EnMin= -422.035223609550     IErMin=12 ErrMin= 8.37D-08
 ErrMax= 8.37D-08  0.00D+00 EMaxC= 1.00D-01 BMatC= 1.28D-12 BMatP= 3.08D-12
 IDIUse=1 WtCom= 1.00D+00 WtEn= 0.00D+00
 Coeff-Com:  0.768D-06-0.380D-06-0.111D-04-0.363D-04-0.108D-03-0.124D-03
 Coeff-Com: -0.167D-02-0.189D-02 0.353D-02 0.476D-01 0.441D+00 0.512D+00
 Coeff:      0.768D-06-0.380D-06-0.111D-04-0.363D-04-0.108D-03-0.124D-03
 Coeff:     -0.167D-02-0.189D-02 0.353D-02 0.476D-01 0.441D+00 0.512D+00
 Gap=     0.224 Goal=   None    Shift=    0.000
 RMSDP=6.97D-09 MaxDP=1.85D-07 DE=-7.62D-12 OVMax= 5.87D-07

 Error on total polarization charges =  0.01613
 SCF Done:  E(RB3LYP) =  -422.035223610     A.U. after   12 cycles
            NFock= 12  Conv=0.70D-08     -V/T= 2.0099
 KE= 4.179060597459D+02 PE=-2.007550560850D+03 EE= 6.460857112695D+02
 Leave Link  502 at Sun Jul 18 13:37:30 2021, MaxMem=   104857600 cpu:              91.3 elap:              22.9
 (Enter /prod/apps/gaussian/g16b1/l601.exe)
 Copying SCF densities to generalized density rwf, IOpCl= 0 IROHF=0.

 **********************************************************************

            Population analysis using the SCF Density.

 **********************************************************************

 Orbital symmetries:
       Occupied  (A) (A) (A) (A) (A) (A) (A) (A) (A) (A) (A) (A)
                 (A) (A) (A) (A) (A) (A) (A) (A) (A) (A) (A) (A)
                 (A) (A) (A) (A) (A) (A) (A) (A) (A) (A) (A) (A)
                 (A)
       Virtual   (A) (A) (A) (A) (A) (A) (A) (A) (A) (A) (A) (A)
                 (A) (A) (A) (A) (A) (A) (A) (A) (A) (A) (A) (A)
                 (A) (A) (A) (A) (A) (A) (A) (A) (A) (A) (A) (A)
                 (A) (A) (A) (A) (A) (A) (A) (A) (A) (A) (A) (A)
                 (A) (A) (A) (A) (A) (A) (A) (A) (A) (A) (A) (A)
                 (A) (A) (A) (A) (A) (A) (A) (A) (A) (A) (A) (A)
                 (A) (A) (A) (A) (A) (A) (A) (A) (A) (A) (A) (A)
                 (A) (A) (A) (A) (A) (A) (A) (A) (A) (A) (A) (A)
                 (A) (A) (A) (A) (A) (A) (A) (A) (A) (A) (A) (A)
                 (A) (A) (A) (A) (A) (A) (A) (A) (A) (A) (A) (A)
                 (A) (A) (A) (A) (A) (A) (A) (A) (A) (A) (A) (A)
                 (A) (A) (A) (A) (A) (A) (A)
 The electronic state is 1-A.
 Alpha  occ. eigenvalues --  -14.45378 -14.34247 -10.25353 -10.23815 -10.23478
 Alpha  occ. eigenvalues --  -10.23049 -10.21308 -10.20631 -10.20178 -10.19909
 Alpha  occ. eigenvalues --   -1.02024  -0.94887  -0.81779  -0.80475  -0.75200
 Alpha  occ. eigenvalues --   -0.71278  -0.67288  -0.63829  -0.60595  -0.59453
 Alpha  occ. eigenvalues --   -0.53139  -0.52117  -0.51418  -0.49080  -0.46889
 Alpha  occ. eigenvalues --   -0.44530  -0.43072  -0.41836  -0.40916  -0.40398
 Alpha  occ. eigenvalues --   -0.39953  -0.37904  -0.36737  -0.35777  -0.29187
 Alpha  occ. eigenvalues --   -0.27440  -0.25659
 Alpha virt. eigenvalues --   -0.03297  -0.02247   0.06649   0.09166   0.10503
 Alpha virt. eigenvalues --    0.11477   0.11618   0.12296   0.12840   0.14029
 Alpha virt. eigenvalues --    0.15458   0.16089   0.16480   0.17168   0.17777
 Alpha virt. eigenvalues --    0.18797   0.19720   0.20983   0.23065   0.24462
 Alpha virt. eigenvalues --    0.26368   0.30677   0.32927   0.33960   0.43960
 Alpha virt. eigenvalues --    0.46274   0.48286   0.49577   0.51125   0.52331
 Alpha virt. eigenvalues --    0.52698   0.53554   0.54790   0.57328   0.58418
 Alpha virt. eigenvalues --    0.59073   0.59487   0.60715   0.61495   0.63702
 Alpha virt. eigenvalues --    0.64468   0.65346   0.69816   0.70743   0.71966
 Alpha virt. eigenvalues --    0.75185   0.76553   0.78488   0.80110   0.82213
 Alpha virt. eigenvalues --    0.83242   0.84070   0.84682   0.86155   0.87192
 Alpha virt. eigenvalues --    0.87980   0.88447   0.89532   0.91274   0.92260
 Alpha virt. eigenvalues --    0.94570   0.94806   0.95904   0.96679   0.99164
 Alpha virt. eigenvalues --    1.01951   1.04678   1.06312   1.07326   1.11209
 Alpha virt. eigenvalues --    1.16014   1.21524   1.24419   1.29290   1.32292
 Alpha virt. eigenvalues --    1.36135   1.39377   1.41901   1.44859   1.46790
 Alpha virt. eigenvalues --    1.47537   1.48249   1.52547   1.58111   1.60769
 Alpha virt. eigenvalues --    1.69843   1.72727   1.76860   1.79540   1.81997
 Alpha virt. eigenvalues --    1.85936   1.86579   1.88112   1.90565   1.92073
 Alpha virt. eigenvalues --    1.95387   1.96648   1.98026   2.00940   2.04299
 Alpha virt. eigenvalues --    2.04482   2.08501   2.13204   2.14858   2.15930
 Alpha virt. eigenvalues --    2.18404   2.20391   2.23060   2.26264   2.30112
 Alpha virt. eigenvalues --    2.34415   2.37284   2.38610   2.41951   2.44977
 Alpha virt. eigenvalues --    2.47283   2.53222   2.56920   2.57468   2.62744
 Alpha virt. eigenvalues --    2.63757   2.67261   2.67995   2.73417   2.77966
 Alpha virt. eigenvalues --    2.84137   2.86875   3.09103   3.34353   3.88083
 Alpha virt. eigenvalues --    4.04743   4.10334   4.15678   4.19946   4.23526
 Alpha virt. eigenvalues --    4.28739   4.37687   4.46819   4.61121
          Condensed to atoms (all electrons):
               1          2          3          4          5          6
     1  C    5.006021   0.385916   0.382212   0.380050   0.262213  -0.022228
     2  H    0.385916   0.487138  -0.028539  -0.019329  -0.036637  -0.002820
     3  H    0.382212  -0.028539   0.485295  -0.030441  -0.026108   0.003085
     4  H    0.380050  -0.019329  -0.030441   0.482252  -0.026760  -0.002901
     5  N    0.262213  -0.036637  -0.026108  -0.026760   6.656031   0.304503
     6  H   -0.022228  -0.002820   0.003085  -0.002901   0.304503   0.278738
     7  C   -0.037283  -0.001866  -0.001844   0.003363   0.252239  -0.022473
     8  H   -0.000517  -0.000329   0.001924  -0.000029  -0.031626   0.003135
     9  H   -0.001509   0.002986  -0.000144   0.000002  -0.027960  -0.002116
    10  C    0.004106  -0.000052   0.000026  -0.000183  -0.045881  -0.001115
    11  H   -0.000083  -0.000002   0.000001   0.000002   0.003168  -0.000009
    12  H    0.000000   0.000001  -0.000000   0.000001  -0.003814   0.003946
    13  C    0.000103   0.000004  -0.000008   0.000011  -0.005027  -0.000935
    14  N    0.000011  -0.000001   0.000001   0.000002  -0.000322   0.000566
    15  C   -0.000001   0.000000  -0.000000   0.000000   0.000079   0.000015
    16  H   -0.000000   0.000000   0.000000  -0.000000   0.000000  -0.000001
    17  C    0.000000   0.000000  -0.000000  -0.000000   0.000006  -0.000000
    18  H    0.000000   0.000000   0.000000  -0.000000   0.000000  -0.000000
    19  C   -0.000001   0.000000   0.000001  -0.000000  -0.000026  -0.000001
    20  H   -0.000000  -0.000000  -0.000000   0.000000  -0.000000   0.000000
    21  C   -0.000031  -0.000002   0.000018   0.000003  -0.001730   0.000151
    22  H   -0.000006   0.000000  -0.000004  -0.000000   0.000081  -0.000009
    23  H   -0.022350   0.003518  -0.002861  -0.001120   0.296007  -0.011163
               7          8          9         10         11         12
     1  C   -0.037283  -0.000517  -0.001509   0.004106  -0.000083   0.000000
     2  H   -0.001866  -0.000329   0.002986  -0.000052  -0.000002   0.000001
     3  H   -0.001844   0.001924  -0.000144   0.000026   0.000001  -0.000000
     4  H    0.003363  -0.000029   0.000002  -0.000183   0.000002   0.000001
     5  N    0.252239  -0.031626  -0.027960  -0.045881   0.003168  -0.003814
     6  H   -0.022473   0.003135  -0.002116  -0.001115  -0.000009   0.003946
     7  C    5.012096   0.380142   0.375997   0.340900  -0.029527  -0.026523
     8  H    0.380142   0.492535  -0.023970  -0.041373  -0.002286   0.004444
     9  H    0.375997  -0.023970   0.483315  -0.030551  -0.001313  -0.003454
    10  C    0.340900  -0.041373  -0.030551   5.239305   0.369926   0.351378
    11  H   -0.029527  -0.002286  -0.001313   0.369926   0.512942  -0.026667
    12  H   -0.026523   0.004444  -0.003454   0.351378  -0.026667   0.544950
    13  C   -0.046151  -0.009199   0.004655   0.349782  -0.026518  -0.041090
    14  N    0.000091   0.000027  -0.000090  -0.079963   0.001338   0.009212
    15  C   -0.000249   0.000016   0.000003   0.006839  -0.000150   0.000536
    16  H    0.000004   0.000000  -0.000000  -0.000312   0.000004  -0.000048
    17  C   -0.000011  -0.000008   0.000000   0.000957   0.000032   0.000008
    18  H   -0.000000  -0.000000  -0.000000   0.000015  -0.000000  -0.000001
    19  C    0.000337  -0.000056  -0.000001   0.004034   0.000110  -0.000118
    20  H    0.000004   0.000007  -0.000000  -0.000158  -0.000003   0.000004
    21  C   -0.001601   0.005911   0.000041  -0.085587  -0.003688   0.007325
    22  H   -0.001290   0.003796  -0.000056  -0.003584   0.000726  -0.000157
    23  H   -0.023257  -0.001974   0.003200  -0.007765   0.000225  -0.000028
              13         14         15         16         17         18
     1  C    0.000103   0.000011  -0.000001  -0.000000   0.000000   0.000000
     2  H    0.000004  -0.000001   0.000000   0.000000   0.000000   0.000000
     3  H   -0.000008   0.000001  -0.000000   0.000000  -0.000000   0.000000
     4  H    0.000011   0.000002   0.000000  -0.000000  -0.000000  -0.000000
     5  N   -0.005027  -0.000322   0.000079   0.000000   0.000006   0.000000
     6  H   -0.000935   0.000566   0.000015  -0.000001  -0.000000  -0.000000
     7  C   -0.046151   0.000091  -0.000249   0.000004  -0.000011  -0.000000
     8  H   -0.009199   0.000027   0.000016   0.000000  -0.000008  -0.000000
     9  H    0.004655  -0.000090   0.000003  -0.000000   0.000000  -0.000000
    10  C    0.349782  -0.079963   0.006839  -0.000312   0.000957   0.000015
    11  H   -0.026518   0.001338  -0.000150   0.000004   0.000032  -0.000000
    12  H   -0.041090   0.009212   0.000536  -0.000048   0.000008  -0.000001
    13  C    4.658271   0.465825  -0.062328   0.004586  -0.034720   0.000235
    14  N    0.465825   6.838862   0.438332  -0.051859  -0.028896   0.003549
    15  C   -0.062328   0.438332   4.814777   0.375026   0.512004  -0.033691
    16  H    0.004586  -0.051859   0.375026   0.569446  -0.056877  -0.002547
    17  C   -0.034720  -0.028896   0.512004  -0.056877   4.929738   0.361763
    18  H    0.000235   0.003549  -0.033691  -0.002547   0.361763   0.543198
    19  C   -0.021182  -0.036368  -0.032243   0.004233   0.530892  -0.042395
    20  H    0.003528  -0.000059   0.005430  -0.000175  -0.042623  -0.006010
    21  C    0.493153  -0.055380  -0.043280   0.000798  -0.036925   0.005306
    22  H   -0.040576   0.004884   0.000143   0.000021   0.004651  -0.000119
    23  H    0.014942   0.001375  -0.000071  -0.000009  -0.000123  -0.000001
              19         20         21         22         23
     1  C   -0.000001  -0.000000  -0.000031  -0.000006  -0.022350
     2  H    0.000000  -0.000000  -0.000002   0.000000   0.003518
     3  H    0.000001  -0.000000   0.000018  -0.000004  -0.002861
     4  H   -0.000000   0.000000   0.000003  -0.000000  -0.001120
     5  N   -0.000026  -0.000000  -0.001730   0.000081   0.296007
     6  H   -0.000001   0.000000   0.000151  -0.000009  -0.011163
     7  C    0.000337   0.000004  -0.001601  -0.001290  -0.023257
     8  H   -0.000056   0.000007   0.005911   0.003796  -0.001974
     9  H   -0.000001  -0.000000   0.000041  -0.000056   0.003200
    10  C    0.004034  -0.000158  -0.085587  -0.003584  -0.007765
    11  H    0.000110  -0.000003  -0.003688   0.000726   0.000225
    12  H   -0.000118   0.000004   0.007325  -0.000157  -0.000028
    13  C   -0.021182   0.003528   0.493153  -0.040576   0.014942
    14  N   -0.036368  -0.000059  -0.055380   0.004884   0.001375
    15  C   -0.032243   0.005430  -0.043280   0.000143  -0.000071
    16  H    0.004233  -0.000175   0.000798   0.000021  -0.000009
    17  C    0.530892  -0.042623  -0.036925   0.004651  -0.000123
    18  H   -0.042395  -0.006010   0.005306  -0.000119  -0.000001
    19  C    4.845934   0.364813   0.531168  -0.036392   0.000039
    20  H    0.364813   0.545083  -0.038924  -0.004037   0.000001
    21  C    0.531168  -0.038924   5.036643   0.354540   0.003243
    22  H   -0.036392  -0.004037   0.354540   0.549488  -0.000075
    23  H    0.000039   0.000001   0.003243  -0.000075   0.281747
 Mulliken charges:
               1
     1  C   -0.336623
     2  H    0.210015
     3  H    0.217385
     4  H    0.215077
     5  N   -0.568435
     6  H    0.471633
     7  C   -0.173097
     8  H    0.219430
     9  H    0.220965
    10  C   -0.370743
    11  H    0.201770
    12  H    0.180098
    13  C    0.292639
    14  N   -0.511136
    15  C    0.018812
    16  H    0.157711
    17  C   -0.139869
    18  H    0.170697
    19  C   -0.112778
    20  H    0.173121
    21  C   -0.171150
    22  H    0.167975
    23  H    0.466501
 Sum of Mulliken charges =   1.00000
 Mulliken charges with hydrogens summed into heavy atoms:
               1
     1  C    0.305855
     5  N    0.369699
     7  C    0.267298
    10  C    0.011126
    13  C    0.292639
    14  N   -0.511136
    15  C    0.176523
    17  C    0.030828
    19  C    0.060343
    21  C   -0.003175
 Electronic spatial extent (au):  <R**2>=           1736.5433
 Charge=              1.0000 electrons
 Dipole moment (field-independent basis, Debye):
    X=             -9.0063    Y=             -2.3790    Z=              1.4146  Tot=              9.4220
 Quadrupole moment (field-independent basis, Debye-Ang):
   XX=            -24.8012   YY=            -51.3622   ZZ=            -54.7182
   XY=              0.9115   XZ=              5.5361   YZ=              2.4583
 Traceless Quadrupole moment (field-independent basis, Debye-Ang):
   XX=             18.8260   YY=             -7.7350   ZZ=            -11.0910
   XY=              0.9115   XZ=              5.5361   YZ=              2.4583
 Octapole moment (field-independent basis, Debye-Ang**2):
  XXX=            -64.7257  YYY=             -2.5491  ZZZ=              7.9167  XYY=            -21.2676
  XXY=            -31.6829  XXZ=             -1.9771  XZZ=             -7.7291  YZZ=             -4.7313
  YYZ=             -0.3793  XYZ=              0.1872
 Hexadecapole moment (field-independent basis, Debye-Ang**3):
 XXXX=          -1292.8346 YYYY=           -313.3684 ZZZZ=           -313.4603 XXXY=              5.9836
 XXXZ=             26.4438 YYYX=             20.1707 YYYZ=              4.2957 ZZZX=             21.5064
 ZZZY=              8.4793 XXYY=           -275.8923 XXZZ=           -282.4341 YYZZ=           -108.5817
 XXYZ=             -0.8804 YYXZ=             -0.8329 ZZXY=             -3.7055
 N-N= 5.215235662247D+02 E-N=-2.007550566729D+03  KE= 4.179060597459D+02
 No NMR shielding tensors so no spin-rotation constants.
 Leave Link  601 at Sun Jul 18 13:37:30 2021, MaxMem=   104857600 cpu:               0.3 elap:               0.1
 (Enter /prod/apps/gaussian/g16b1/l701.exe)
 ... and contract with generalized density number  0.
 Compute integral first derivatives.
 D1PCM: PCM CHGder 1st derivatives, ID1Alg=3 FixD1E=F DoIter=F DoCFld=F I1PDM=0.
 GePol: Maximum number of non-zero 1st derivatives   =     182
 Leave Link  701 at Sun Jul 18 13:37:31 2021, MaxMem=   104857600 cpu:               4.0 elap:               1.0
 (Enter /prod/apps/gaussian/g16b1/l702.exe)
 L702 exits ... SP integral derivatives will be done elsewhere.
 Leave Link  702 at Sun Jul 18 13:37:31 2021, MaxMem=   104857600 cpu:               0.1 elap:               0.0
 (Enter /prod/apps/gaussian/g16b1/l703.exe)
 Integral derivatives from FoFJK, PRISM(SPDF).
 Compute integral first derivatives, UseDBF=F ICtDFT=           0.
 Calling FoFJK, ICntrl=      2127 FMM=F ISym2X=0 I1Cent= 0 IOpClX= 0 NMat=1 NMatS=1 NMatT=0.
 FoFJK:  IHMeth= 1 ICntrl=    2127 DoSepK=F KAlg= 0 I1Cent=           0 FoldK=F
 IRaf=         0 NMat=       1 IRICut=       1 DoRegI=T DoRafI=F ISym2E= 0 IDoP0=0 IntGTp=1.
 FoFCou: FMM=F IPFlag=           0 FMFlag=      100000 FMFlg1=         800
         NFxFlg=           0 DoJE=F BraDBF=F KetDBF=F FulRan=T
         wScrn=  0.000000 ICntrl=      2127 IOpCl=  0 I1Cent=           0 NGrid=           0
         NMat0=    1 NMatS0=      1 NMatT0=    0 NMatD0=    1 NMtDS0=    0 NMtDT0=    0
 Symmetry not used in FoFCou.
 Leave Link  703 at Sun Jul 18 13:37:35 2021, MaxMem=   104857600 cpu:              18.6 elap:               4.7
 (Enter /prod/apps/gaussian/g16b1/l716.exe)
 Dipole        =-3.54335676D+00-9.35964373D-01 5.56565821D-01
 ***** Axes restored to original set *****
 -------------------------------------------------------------------
 Center     Atomic                   Forces (Hartrees/Bohr)
 Number     Number              X              Y              Z
 -------------------------------------------------------------------
      1        6           0.005584677   -0.026156858    0.028771019
      2        1           0.006931184    0.003612270    0.000287749
      3        1          -0.009676129    0.006399489   -0.009466649
      4        1           0.003019404   -0.001302337   -0.010295915
      5        7          -0.026746403   -0.022412675    0.008203281
      6        1           0.019676621    0.003342578   -0.018607387
      7        6          -0.020633288    0.009437639   -0.033849414
      8        1           0.011814882   -0.005642647    0.013347932
      9        1           0.009258451    0.000225505    0.012917956
     10        6           0.018980029   -0.030909746   -0.005373123
     11        1          -0.003882736   -0.003236265    0.003888593
     12        1           0.004278398   -0.004779624    0.000376997
     13        6          -0.039281751    0.032005772    0.009615637
     14        7           0.000525651    0.023993177    0.018546262
     15        6           0.000528028    0.008422525   -0.009947200
     16        1           0.000577770   -0.002006185   -0.001408719
     17        6           0.001028308   -0.011014849    0.001921465
     18        1           0.010292422    0.002195965   -0.006497838
     19        6           0.004253218   -0.027894418    0.000109915
     20        1           0.000532994   -0.004924121    0.000075993
     21        6           0.005727533    0.020601170   -0.009642484
     22        1          -0.000940482    0.003000121    0.002798958
     23        1          -0.001848780    0.027043513    0.004226971
 -------------------------------------------------------------------
 Cartesian Forces:  Max     0.039281751 RMS     0.014163055
 Leave Link  716 at Sun Jul 18 13:37:35 2021, MaxMem=   104857600 cpu:               0.1 elap:               0.0
 (Enter /prod/apps/gaussian/g16b1/l103.exe)

 GradGradGradGradGradGradGradGradGradGradGradGradGradGradGradGradGradGrad
 Berny optimization.
 FormGI is forming the generalized inverse of G from B-inverse, IUseBI=4.
 Internal  Forces:  Max     0.046111597 RMS     0.008660820
 Search for a local minimum.
 Step number   1 out of a maximum of  126
 All quantities printed in internal units (Hartrees-Bohrs-Radians)
 RMS Force = .86608D-02 SwitMx=.10000D-02 MixMth= 1
 Mixed Optimization -- RFO/linear search
 Second derivative matrix not updated -- first step.
 ITU=  0
     Eigenvalues ---    0.00230   0.00429   0.00953   0.01419   0.01762
     Eigenvalues ---    0.01790   0.01881   0.02008   0.02113   0.02126
     Eigenvalues ---    0.02164   0.02307   0.03490   0.04083   0.04266
     Eigenvalues ---    0.04719   0.05029   0.05393   0.05654   0.05950
     Eigenvalues ---    0.07731   0.09114   0.09580   0.11478   0.12719
     Eigenvalues ---    0.12877   0.15892   0.15973   0.15999   0.16000
     Eigenvalues ---    0.16000   0.16000   0.16000   0.21844   0.21934
     Eigenvalues ---    0.21964   0.22069   0.22399   0.24281   0.24870
     Eigenvalues ---    0.26945   0.32861   0.34387   0.34467   0.34492
     Eigenvalues ---    0.34516   0.34523   0.34594   0.34674   0.34990
     Eigenvalues ---    0.35151   0.35227   0.35275   0.37492   0.38159
     Eigenvalues ---    0.39127   0.41384   0.44319   0.46078   0.47650
     Eigenvalues ---    0.47709   0.51530   0.56700
 RFO step:  Lambda=-3.28155240D-02 EMin= 2.30000000D-03
 Linear search not attempted -- first point.
 Maximum step size (   0.300) exceeded in Quadratic search.
    -- Step size scaled by   0.910
 Iteration  1 RMS(Cart)=  0.10095039 RMS(Int)=  0.00288410
 Iteration  2 RMS(Cart)=  0.00342557 RMS(Int)=  0.00145908
 Iteration  3 RMS(Cart)=  0.00001629 RMS(Int)=  0.00145905
 Iteration  4 RMS(Cart)=  0.00000012 RMS(Int)=  0.00145905
 ITry= 1 IFail=0 DXMaxC= 3.88D-01 DCOld= 1.00D+10 DXMaxT= 3.00D-01 DXLimC= 3.00D+00 Rises=F
 Variable       Old X    -DE/DX   Delta X   Delta X   Delta X     New X
                                 (Linear)    (Quad)   (Total)
    R1        2.06681  -0.00289   0.00000  -0.00697  -0.00697   2.05984
    R2        2.06549  -0.00118   0.00000  -0.00284  -0.00284   2.06266
    R3        2.06457  -0.00174   0.00000  -0.00419  -0.00419   2.06038
    R4        2.75111   0.01806   0.00000   0.04033   0.04033   2.79144
    R5        1.89014   0.02707   0.00000   0.04839   0.04839   1.93852
    R6        2.82597  -0.00450   0.00000  -0.01133  -0.01133   2.81464
    R7        1.88951   0.02704   0.00000   0.04827   0.04827   1.93778
    R8        2.06468  -0.00273   0.00000  -0.00657  -0.00657   2.05811
    R9        2.06507  -0.00414   0.00000  -0.00998  -0.00998   2.05509
   R10        2.94506  -0.00070   0.00000  -0.00212  -0.00212   2.94293
   R11        2.06339   0.00227   0.00000   0.00544   0.00544   2.06883
   R12        2.06208   0.00289   0.00000   0.00694   0.00694   2.06902
   R13        2.74134   0.04611   0.00000   0.10128   0.10128   2.84263
   R14        2.52386   0.01218   0.00000   0.01828   0.01831   2.54217
   R15        2.69911  -0.01605   0.00000  -0.03342  -0.03331   2.66580
   R16        2.57041  -0.01601   0.00000  -0.02515  -0.02524   2.54517
   R17        2.05691  -0.00051   0.00000  -0.00122  -0.00122   2.05569
   R18        2.64662  -0.01236   0.00000  -0.02242  -0.02254   2.62408
   R19        2.05309  -0.00172   0.00000  -0.00408  -0.00408   2.04901
   R20        2.62763   0.00961   0.00000   0.01701   0.01698   2.64460
   R21        2.05431  -0.00179   0.00000  -0.00424  -0.00424   2.05007
   R22        2.68216  -0.02532   0.00000  -0.05124  -0.05116   2.63100
   R23        2.05231  -0.00085   0.00000  -0.00201  -0.00201   2.05030
    A1        1.84683   0.00767   0.00000   0.04355   0.04433   1.89116
    A2        1.96562  -0.00238   0.00000  -0.02098  -0.02086   1.94476
    A3        1.88705   0.00622   0.00000   0.02806   0.02852   1.91557
    A4        1.80795   0.01444   0.00000   0.07077   0.06940   1.87735
    A5        2.01051  -0.01910   0.00000  -0.08520  -0.08548   1.92503
    A6        1.94501  -0.00659   0.00000  -0.03474  -0.03535   1.90965
    A7        1.88277   0.00324   0.00000   0.01225   0.01219   1.89497
    A8        2.04001  -0.00867   0.00000  -0.02916  -0.02906   2.01095
    A9        1.88283   0.00360   0.00000   0.01809   0.01816   1.90100
   A10        1.88359   0.00221   0.00000   0.00484   0.00489   1.88848
   A11        1.88630  -0.00310   0.00000  -0.01842  -0.01851   1.86779
   A12        1.88357   0.00282   0.00000   0.01188   0.01203   1.89561
   A13        1.98575  -0.01042   0.00000  -0.07304  -0.07835   1.90740
   A14        1.99462  -0.01114   0.00000  -0.08857  -0.09197   1.90265
   A15        1.88970   0.00966   0.00000   0.04811   0.04964   1.93935
   A16        1.92640   0.00332   0.00000   0.00205  -0.00867   1.91773
   A17        1.80223   0.00802   0.00000   0.09089   0.09211   1.89434
   A18        1.84911   0.00405   0.00000   0.05177   0.05327   1.90238
   A19        1.90775  -0.00751   0.00000  -0.04233  -0.04247   1.86528
   A20        1.95245  -0.00842   0.00000  -0.03693  -0.03826   1.91418
   A21        1.94791   0.01597   0.00000   0.05898   0.05920   2.00710
   A22        1.83551   0.00450   0.00000   0.01459   0.01360   1.84911
   A23        1.95325  -0.00521   0.00000  -0.02083  -0.01995   1.93329
   A24        1.86406  -0.00013   0.00000   0.02412   0.02452   1.88858
   A25        2.04160   0.00069   0.00000   0.00365   0.00312   2.04472
   A26        2.08636   0.00593   0.00000   0.02067   0.02020   2.10657
   A27        2.14830  -0.00624   0.00000  -0.01775  -0.01833   2.12997
   A28        2.02074   0.01092   0.00000   0.03984   0.03955   2.06029
   A29        2.01899   0.00338   0.00000   0.00847   0.00842   2.02741
   A30        2.19762  -0.01157   0.00000  -0.03760  -0.03830   2.15932
   A31        2.06394   0.00836   0.00000   0.03202   0.03198   2.09591
   A32        2.20548  -0.01417   0.00000  -0.06579  -0.06563   2.13985
   A33        2.04969   0.00317   0.00000   0.01277   0.01241   2.06211
   A34        2.02799   0.01101   0.00000   0.05307   0.05324   2.08123
   A35        2.08005   0.00305   0.00000   0.01711   0.01716   2.09721
   A36        2.06497   0.00332   0.00000   0.01034   0.01016   2.07513
   A37        2.13812  -0.00636   0.00000  -0.02732  -0.02727   2.11084
   A38        2.07358   0.00103   0.00000   0.00274   0.00248   2.07606
   A39        2.06570   0.00348   0.00000   0.01924   0.01891   2.08461
   A40        2.13804  -0.00426   0.00000  -0.01721  -0.01756   2.12047
    D1       -1.20438   0.00213   0.00000   0.02150   0.02137  -1.18301
    D2        0.92031   0.00162   0.00000   0.01743   0.01726   0.93758
    D3        3.04503   0.00219   0.00000   0.02728   0.02704   3.07208
    D4        3.01775  -0.00012   0.00000  -0.00059   0.00004   3.01779
    D5       -1.14074  -0.00063   0.00000  -0.00466  -0.00407  -1.14481
    D6        0.98398  -0.00006   0.00000   0.00519   0.00571   0.98969
    D7        0.96481  -0.00090   0.00000  -0.00845  -0.00881   0.95600
    D8        3.08950  -0.00141   0.00000  -0.01252  -0.01292   3.07659
    D9       -1.06896  -0.00084   0.00000  -0.00267  -0.00314  -1.07210
   D10        1.13581  -0.00791   0.00000  -0.07420  -0.07083   1.06498
   D11       -1.09880   0.00708   0.00000   0.07068   0.06754  -1.03126
   D12        3.12841   0.00220   0.00000   0.02688   0.02659  -3.12819
   D13       -3.02311  -0.00789   0.00000  -0.07441  -0.07101  -3.09412
   D14        1.02547   0.00710   0.00000   0.07046   0.06736   1.09283
   D15       -1.03050   0.00222   0.00000   0.02666   0.02641  -1.00410
   D16       -0.98852  -0.00889   0.00000  -0.08729  -0.08389  -1.07241
   D17        3.06005   0.00610   0.00000   0.05759   0.05448   3.11453
   D18        1.00408   0.00122   0.00000   0.01379   0.01353   1.01761
   D19        3.08586  -0.00231   0.00000  -0.02957  -0.02967   3.05619
   D20        1.06023   0.00175   0.00000   0.00034  -0.00096   1.05927
   D21       -1.02723  -0.00329   0.00000  -0.04569  -0.04626  -1.07350
   D22       -1.08670  -0.00555   0.00000  -0.04332  -0.04252  -1.12922
   D23       -3.11232  -0.00150   0.00000  -0.01341  -0.01381  -3.12613
   D24        1.08340  -0.00653   0.00000  -0.05944  -0.05911   1.02429
   D25        0.93896   0.00325   0.00000   0.01916   0.02014   0.95910
   D26       -1.08666   0.00730   0.00000   0.04907   0.04885  -1.03781
   D27        3.10906   0.00227   0.00000   0.00304   0.00355   3.11260
   D28        2.13382  -0.00171   0.00000  -0.02995  -0.02969   2.10413
   D29       -1.13005   0.00112   0.00000   0.02639   0.02723  -1.10282
   D30       -2.00503  -0.00357   0.00000  -0.05698  -0.05715  -2.06218
   D31        1.01429  -0.00074   0.00000  -0.00065  -0.00023   1.01405
   D32       -0.00512  -0.00096   0.00000  -0.03629  -0.03725  -0.04238
   D33        3.01419   0.00187   0.00000   0.02005   0.01967   3.03385
   D34        3.11053   0.00154   0.00000   0.01682   0.01559   3.12612
   D35        0.09594  -0.00235   0.00000  -0.04468  -0.04512   0.05083
   D36       -2.98508  -0.00341   0.00000  -0.06771  -0.06838  -3.05346
   D37        0.04323  -0.00128   0.00000  -0.02308  -0.02279   0.02044
   D38        0.02640   0.00018   0.00000  -0.00597  -0.00688   0.01952
   D39        3.05471   0.00231   0.00000   0.03866   0.03871   3.09342
   D40        3.06049   0.00184   0.00000   0.03016   0.03046   3.09095
   D41       -0.16091   0.00483   0.00000   0.07546   0.07484  -0.08607
   D42       -3.05645  -0.00240   0.00000  -0.03770  -0.03726  -3.09371
   D43        0.09299  -0.00292   0.00000  -0.04560  -0.04502   0.04797
   D44        0.00349   0.00043   0.00000   0.00758   0.00765   0.01114
   D45       -3.13026  -0.00009   0.00000  -0.00032  -0.00011  -3.13037
   D46       -3.11088  -0.00029   0.00000  -0.00348  -0.00290  -3.11377
   D47        0.04143  -0.00120   0.00000  -0.01637  -0.01564   0.02579
   D48        0.03776  -0.00065   0.00000  -0.01005  -0.00985   0.02790
   D49       -3.09312  -0.00156   0.00000  -0.02294  -0.02260  -3.11572
   D50       -0.09620   0.00237   0.00000   0.03902   0.03888  -0.05732
   D51       -3.11957  -0.00040   0.00000  -0.01011  -0.01020  -3.12977
   D52        3.05649   0.00137   0.00000   0.02537   0.02574   3.08223
   D53        0.03312  -0.00140   0.00000  -0.02376  -0.02335   0.00977
         Item               Value     Threshold  Converged?
 Maximum Force            0.046112     0.000450     NO 
 RMS     Force            0.008661     0.000300     NO 
 Maximum Displacement     0.388056     0.001800     NO 
 RMS     Displacement     0.101372     0.001200     NO 
 Predicted change in Energy=-1.875618D-02
 Lowest energy point so far.  Saving SCF results.
 GradGradGradGradGradGradGradGradGradGradGradGradGradGradGradGradGradGrad

 Leave Link  103 at Sun Jul 18 13:37:35 2021, MaxMem=   104857600 cpu:               0.1 elap:               0.0
 (Enter /prod/apps/gaussian/g16b1/l202.exe)
                          Input orientation:                          
 ---------------------------------------------------------------------
 Center     Atomic      Atomic             Coordinates (Angstroms)
 Number     Number       Type             X           Y           Z
 ---------------------------------------------------------------------
      1          6           0        1.794732   -2.178886    1.809872
      2          1           0        1.894421   -3.215706    1.488608
      3          1           0        1.047687   -2.135569    2.604504
      4          1           0        2.730950   -1.796350    2.217214
      5          7           0        1.377156   -1.340276    0.667777
      6          1           0        2.146656   -1.304108   -0.009624
      7          6           0        0.152372   -1.801069   -0.043572
      8          1           0       -0.687959   -1.799722    0.649242
      9          1           0        0.319114   -2.807394   -0.420643
     10          6           0       -0.189322   -0.862199   -1.238166
     11          1           0       -1.040414   -1.310234   -1.761089
     12          1           0        0.638075   -0.861999   -1.955226
     13          6           0       -0.485238    0.563761   -0.861534
     14          7           0        0.301131    1.515670   -1.395591
     15          6           0        0.040736    2.800053   -1.084859
     16          1           0        0.724636    3.540602   -1.493797
     17          6           0       -1.049917    3.203712   -0.326077
     18          1           0       -1.266470    4.246551   -0.122914
     19          6           0       -1.895803    2.216310    0.191620
     20          1           0       -2.771838    2.496008    0.767146
     21          6           0       -1.593514    0.878453   -0.047463
     22          1           0       -2.225934    0.079218    0.324595
     23          1           0        1.222743   -0.381825    0.997978
 ---------------------------------------------------------------------
                    Distance matrix (angstroms):
                    1          2          3          4          5
     1  C    0.000000
     2  H    1.090020   0.000000
     3  H    1.091510   1.768864   0.000000
     4  H    1.090305   1.801448   1.760238   0.000000
     5  N    1.477165   2.111532   2.119423   2.107490   0.000000
     6  H    2.049306   2.441830   2.955120   2.354253   1.025823
     7  C    2.505064   2.717262   2.815278   3.429320   1.489444
     8  H    2.766691   3.062390   2.635964   3.761314   2.115687
     9  H    2.747302   2.508695   3.183345   3.714492   2.111054
    10  C    3.867902   4.161284   4.232940   4.619554   2.512972
    11  H    4.641591   4.775418   4.909150   5.503307   3.427089
    12  H    4.153072   4.356414   4.751937   4.760503   2.766791
    13  C    4.456095   5.046813   4.652920   5.039115   3.071264
    14  N    5.114252   5.765683   5.467143   5.470453   3.683984
    15  C    6.020448   6.800606   6.243854   6.266407   4.690423
    16  H    6.691179   7.477355   7.008521   6.802938   5.377839
    17  C    6.451873   7.291855   6.441753   6.764903   5.246547
    18  H    7.375151   8.262779   7.316118   7.613949   6.231098
    19  C    5.962930   6.749428   5.781436   6.450683   4.856778
    20  H    6.617815   7.410679   6.278230   7.127953   5.651646
    21  C    4.927192   5.593509   4.805539   5.566356   3.776136
    22  H    4.844670   5.402663   4.562878   5.627650   3.887800
    23  H    2.053235   2.953431   2.384783   2.400439   1.025429
                    6          7          8          9         10
     6  H    0.000000
     7  C    2.055552   0.000000
     8  H    2.952081   1.089105   0.000000
     9  H    2.401816   1.087509   1.781644   0.000000
    10  C    2.676078   1.557333   2.165617   2.170400   0.000000
    11  H    3.636631   2.147911   2.484657   2.426232   1.094779
    12  H    2.501329   2.184533   3.069356   2.498248   1.094880
    13  C    3.337896   2.582253   2.812401   3.493717   1.504254
    14  N    3.643901   3.584807   4.018888   4.431674   2.433020
    15  C    4.736577   4.718799   4.969511   5.653507   3.672672
    16  H    5.262711   5.564539   5.925125   6.450827   4.503924
    17  C    5.535220   5.154915   5.110442   6.165760   4.254899
    18  H    6.517060   6.212336   6.122771   7.236081   5.338854
    19  C    5.364263   4.515493   4.218628   5.524340   3.799156
    20  H    6.263852   5.260527   4.775956   6.252272   4.687027
    21  C    4.330575   3.198120   2.911709   4.169278   2.533653
    22  H    4.598351   3.054073   2.449730   3.919844   2.734277
    23  H    1.649086   2.060285   2.404752   2.951681   2.687941
                   11         12         13         14         15
    11  H    0.000000
    12  H    1.748122   0.000000
    13  C    2.151576   2.119147   0.000000
    14  N    3.149455   2.465772   1.345259   0.000000
    15  C    4.303561   3.811165   2.308143   1.346848   0.000000
    16  H    5.168894   4.427562   3.274925   2.071075   1.087825
    17  C    4.736567   4.693980   2.752257   2.412193   1.388602
    18  H    5.797636   5.751690   3.836512   3.396290   2.174047
    19  C    4.120835   4.528297   2.414487   2.799402   2.391723
    20  H    4.886439   5.505908   3.408037   3.883507   3.381263
    21  C    2.834217   3.413022   1.410680   2.411052   2.727547
    22  H    2.772384   3.779685   2.161413   3.377645   3.811469
    23  H    3.687313   3.048576   2.696130   3.190458   3.982423
                   16         17         18         19         20
    16  H    0.000000
    17  C    2.150839   0.000000
    18  H    2.518370   1.084289   0.000000
    19  C    3.385422   1.399463   2.148690   0.000000
    20  H    4.292828   2.158933   2.474417   1.084849   0.000000
    21  C    3.814806   2.404153   3.384780   1.392265   2.160676
    22  H    4.898326   3.401302   4.299709   2.166526   2.516891
    23  H    4.673595   4.446817   5.373494   4.138339   4.928679
                   21         22         23
    21  C    0.000000
[...]
 Actual    scratch disk usage=  1380253806 words.
 JobTyp=1 Pass  1:  I=   1 to  27 NPSUse=  4 ParTrn=T ParDer=T DoDerP=F.
 Spin components of T(2) and E(2):
     alpha-alpha T2 =       0.6939376226D-01 E2=     -0.1867066958D+00
     alpha-beta  T2 =       0.3764041159D+00 E2=     -0.1087563239D+01
     beta-beta   T2 =       0.6939376226D-01 E2=     -0.1867066958D+00
 The integrals were generated   1 times.
 ANorm=    0.1230931209D+01
 E2 =    -0.1460976630D+01 EUMP2 =    -0.42073041524872D+03
 Leave Link  906 at Sun Jul 18 13:57:56 2021, MaxMem=   262144000 cpu:             275.6 elap:              69.2
 (Enter /prod/apps/gaussian/g16b1/l601.exe)
 Copying SCF densities to generalized density rwf, IOpCl= 0 IROHF=0.

 **********************************************************************

            Population analysis using the SCF Density.

 **********************************************************************

 Orbital symmetries:
       Occupied  (A) (A) (A) (A) (A) (A) (A) (A) (A) (A) (A) (A)
                 (A) (A) (A) (A) (A) (A) (A) (A) (A) (A) (A) (A)
                 (A) (A) (A) (A) (A) (A) (A) (A) (A) (A) (A) (A)
                 (A)
       Virtual   (A) (A) (A) (A) (A) (A) (A) (A) (A) (A) (A) (A)
                 (A) (A) (A) (A) (A) (A) (A) (A) (A) (A) (A) (A)
                 (A) (A) (A) (A) (A) (A) (A) (A) (A) (A) (A) (A)
                 (A) (A) (A) (A) (A) (A) (A) (A) (A) (A) (A) (A)
                 (A) (A) (A) (A) (A) (A) (A) (A) (A) (A) (A) (A)
                 (A) (A) (A) (A) (A) (A) (A) (A) (A) (A) (A) (A)
                 (A) (A) (A) (A) (A) (A) (A) (A) (A) (A) (A) (A)
                 (A) (A) (A) (A) (A) (A) (A) (A) (A) (A) (A) (A)
                 (A) (A) (A) (A) (A) (A) (A) (A) (A) (A) (A) (A)
                 (A) (A) (A) (A) (A) (A) (A) (A) (A) (A) (A) (A)
                 (A) (A) (A) (A) (A) (A) (A) (A) (A) (A) (A) (A)
                 (A) (A) (A) (A) (A) (A) (A) (A) (A) (A) (A) (A)
                 (A) (A) (A) (A) (A) (A) (A) (A) (A) (A) (A) (A)
                 (A) (A) (A) (A) (A) (A) (A) (A) (A) (A) (A) (A)
                 (A) (A) (A) (A) (A) (A) (A) (A) (A) (A) (A) (A)
                 (A) (A) (A) (A) (A) (A) (A) (A) (A) (A) (A) (A)
                 (A) (A) (A) (A) (A) (A) (A) (A) (A) (A) (A) (A)
                 (A) (A) (A) (A) (A) (A) (A) (A) (A) (A) (A) (A)
                 (A) (A) (A) (A) (A) (A) (A) (A) (A) (A) (A) (A)
                 (A) (A) (A) (A) (A) (A) (A) (A) (A) (A) (A) (A)
                 (A) (A) (A) (A) (A) (A) (A) (A) (A) (A) (A) (A)
                 (A) (A) (A) (A) (A) (A) (A) (A) (A) (A) (A) (A)
                 (A) (A) (A) (A) (A) (A) (A) (A) (A) (A) (A) (A)
                 (A) (A) (A) (A) (A) (A) (A) (A) (A) (A) (A) (A)
                 (A) (A) (A) (A) (A) (A) (A) (A) (A) (A) (A) (A)
                 (A) (A) (A) (A) (A) (A) (A) (A) (A) (A)
 The electronic state is 1-A.
 Alpha  occ. eigenvalues --  -15.84579 -15.71448 -11.45523 -11.44920 -11.42705
 Alpha  occ. eigenvalues --  -11.41240 -11.40073 -11.38874 -11.37173 -11.36753
 Alpha  occ. eigenvalues --   -1.47623  -1.39976  -1.23048  -1.21528  -1.15838
 Alpha  occ. eigenvalues --   -1.11151  -1.04648  -0.99246  -0.95873  -0.93801
 Alpha  occ. eigenvalues --   -0.84459  -0.83527  -0.82369  -0.79263  -0.78144
 Alpha  occ. eigenvalues --   -0.75613  -0.73443  -0.72973  -0.71011  -0.70452
 Alpha  occ. eigenvalues --   -0.69134  -0.67972  -0.65720  -0.63993  -0.56063
 Alpha  occ. eigenvalues --   -0.51137  -0.46836
 Alpha virt. eigenvalues --   -0.08243  -0.06287  -0.06170  -0.05353  -0.03892
 Alpha virt. eigenvalues --   -0.03617  -0.03487  -0.03331  -0.03017  -0.01918
 Alpha virt. eigenvalues --   -0.01773  -0.01517  -0.01009  -0.00312   0.00344
 Alpha virt. eigenvalues --    0.01005   0.01899   0.02630   0.02758   0.03733
 Alpha virt. eigenvalues --    0.04187   0.04352   0.04847   0.05039   0.05483
 Alpha virt. eigenvalues --    0.05665   0.06164   0.06476   0.07034   0.07155
 Alpha virt. eigenvalues --    0.07637   0.07919   0.08077   0.08408   0.08751
 Alpha virt. eigenvalues --    0.09159   0.09995   0.10813   0.11303   0.11406
 Alpha virt. eigenvalues --    0.11868   0.12361   0.12820   0.13452   0.14171
 Alpha virt. eigenvalues --    0.15591   0.16480   0.16550   0.17396   0.17936
 Alpha virt. eigenvalues --    0.18961   0.19599   0.19983   0.20269   0.20803
 Alpha virt. eigenvalues --    0.21487   0.22056   0.23050   0.23696   0.23914
 Alpha virt. eigenvalues --    0.24619   0.25207   0.25444   0.25772   0.26909
 Alpha virt. eigenvalues --    0.27857   0.28454   0.28532   0.28972   0.29348
 Alpha virt. eigenvalues --    0.30327   0.31386   0.31848   0.32613   0.32755
 Alpha virt. eigenvalues --    0.33316   0.33656   0.33812   0.34679   0.35381
 Alpha virt. eigenvalues --    0.36080   0.36631   0.37619   0.38066   0.38420
 Alpha virt. eigenvalues --    0.38900   0.39341   0.40174   0.40794   0.41273
 Alpha virt. eigenvalues --    0.42258   0.42647   0.43696   0.43878   0.44731
 Alpha virt. eigenvalues --    0.45460   0.45933   0.46308   0.47436   0.47681
 Alpha virt. eigenvalues --    0.48174   0.49025   0.49685   0.50297   0.50939
 Alpha virt. eigenvalues --    0.51611   0.52288   0.53553   0.54162   0.54707
 Alpha virt. eigenvalues --    0.55071   0.55410   0.55805   0.57253   0.57498
 Alpha virt. eigenvalues --    0.58258   0.58519   0.58911   0.59469   0.59542
 Alpha virt. eigenvalues --    0.59786   0.60731   0.61650   0.62708   0.63433
 Alpha virt. eigenvalues --    0.64786   0.64823   0.65363   0.66400   0.67537
 Alpha virt. eigenvalues --    0.67875   0.69126   0.69375   0.70162   0.72192
 Alpha virt. eigenvalues --    0.72510   0.73637   0.74098   0.74293   0.75270
 Alpha virt. eigenvalues --    0.76438   0.77533   0.77729   0.78810   0.79307
 Alpha virt. eigenvalues --    0.79692   0.80341   0.81280   0.82707   0.82989
 Alpha virt. eigenvalues --    0.84092   0.84770   0.86043   0.86971   0.88206
 Alpha virt. eigenvalues --    0.89231   0.89656   0.90781   0.91659   0.91948
 Alpha virt. eigenvalues --    0.92454   0.94939   0.96805   0.97366   0.98231
 Alpha virt. eigenvalues --    0.98744   0.99488   1.01383   1.03921   1.04757
 Alpha virt. eigenvalues --    1.06255   1.07325   1.09391   1.09871   1.11057
 Alpha virt. eigenvalues --    1.12292   1.14061   1.15315   1.18600   1.19841
 Alpha virt. eigenvalues --    1.25303   1.25717   1.26699   1.28877   1.31192
 Alpha virt. eigenvalues --    1.33279   1.33983   1.37603   1.38094   1.40103
 Alpha virt. eigenvalues --    1.42635   1.44202   1.44762   1.46123   1.46790
 Alpha virt. eigenvalues --    1.47089   1.49239   1.50606   1.52650   1.54128
 Alpha virt. eigenvalues --    1.55622   1.56651   1.57407   1.59008   1.60083
 Alpha virt. eigenvalues --    1.62388   1.63307   1.64254   1.66422   1.67400
 Alpha virt. eigenvalues --    1.68748   1.70573   1.70805   1.72091   1.73572
 Alpha virt. eigenvalues --    1.73940   1.75397   1.76764   1.78920   1.79531
 Alpha virt. eigenvalues --    1.81568   1.81873   1.82032   1.82412   1.85214
 Alpha virt. eigenvalues --    1.85687   1.88457   1.90393   1.93411   1.93788
 Alpha virt. eigenvalues --    1.93989   1.94877   1.97648   1.98732   1.99238
 Alpha virt. eigenvalues --    1.99304   2.01655   2.03115   2.04566   2.05133
 Alpha virt. eigenvalues --    2.06397   2.09014   2.09844   2.10498   2.12952
 Alpha virt. eigenvalues --    2.13743   2.14219   2.15912   2.17796   2.18883
 Alpha virt. eigenvalues --    2.19284   2.21230   2.21353   2.25293   2.26243
 Alpha virt. eigenvalues --    2.26914   2.29225   2.30580   2.32048   2.33641
 Alpha virt. eigenvalues --    2.35100   2.36622   2.37645   2.40679   2.42408
 Alpha virt. eigenvalues --    2.43448   2.44241   2.46128   2.49651   2.53969
 Alpha virt. eigenvalues --    2.56372   2.56513   2.57445   2.57805   2.60967
 Alpha virt. eigenvalues --    2.63485   2.65523   2.66703   2.69208   2.70613
 Alpha virt. eigenvalues --    2.72529   2.73522   2.74034   2.75123   2.78815
 Alpha virt. eigenvalues --    2.79658   2.81524   2.86812   2.88458   2.89285
 Alpha virt. eigenvalues --    2.90366   2.92375   2.96764   2.97558   3.00056
 Alpha virt. eigenvalues --    3.03404   3.04525   3.05488   3.09368   3.14071
 Alpha virt. eigenvalues --    3.16966   3.26539   3.34203   3.34280   3.46375
 Alpha virt. eigenvalues --    3.49795   3.54813   3.70117   3.84900   4.39979
          Condensed to atoms (all electrons):
               1          2          3          4          5          6
     1  C    4.026331   0.354632   0.356362   0.441864   0.160848  -0.036047
     2  H    0.354632   1.084584  -0.114812  -0.222436  -0.028647  -0.023231
     3  H    0.356362  -0.114812   1.076238  -0.207261  -0.007972   0.018624
     4  H    0.441864  -0.222436  -0.207261   1.188572  -0.072288  -0.004781
     5  N    0.160848  -0.028647  -0.007972  -0.072288   6.975791   0.383628
     6  H   -0.036047  -0.023231   0.018624  -0.004781   0.383628   0.590086
     7  C   -0.011198   0.001788  -0.044306   0.016558   0.006482  -0.012818
     8  H    0.000937  -0.015524   0.009237   0.001366  -0.058239   0.022314
     9  H   -0.007771   0.000885  -0.007671   0.002158  -0.017200  -0.051103
    10  C   -0.017866   0.025256   0.029260  -0.035033  -0.083594  -0.044876
    11  H    0.007378   0.001035  -0.000555   0.000169  -0.027172   0.005313
    12  H   -0.005718   0.000852   0.001676  -0.003743   0.045426  -0.005200
    13  C   -0.006369  -0.012698   0.005146   0.009746   0.216947  -0.000533
    14  N    0.003275   0.005949  -0.002442  -0.002196  -0.194066  -0.007068
    15  C   -0.001449   0.006531  -0.005482  -0.009923   0.007148  -0.006171
    16  H    0.001476   0.000415  -0.000556  -0.000310   0.011339   0.002041
    17  C   -0.001751  -0.000804  -0.001998   0.002929  -0.026814   0.002407
    18  H    0.000146  -0.000020  -0.000053   0.000084   0.000800  -0.000218
    19  C    0.002853   0.000415   0.000873  -0.001087   0.026335  -0.001292
    20  H   -0.000024  -0.000010  -0.000008  -0.000027  -0.000175   0.000045
    21  C   -0.013015  -0.001904  -0.001974   0.002080  -0.091140   0.001039
    22  H    0.000469   0.000006   0.000132  -0.000002   0.007415  -0.000906
    23  H   -0.036711   0.005241  -0.019059   0.015207   0.410608  -0.057231
               7          8          9         10         11         12
     1  C   -0.011198   0.000937  -0.007771  -0.017866   0.007378  -0.005718
     2  H    0.001788  -0.015524   0.000885   0.025256   0.001035   0.000852
     3  H   -0.044306   0.009237  -0.007671   0.029260  -0.000555   0.001676
     4  H    0.016558   0.001366   0.002158  -0.035033   0.000169  -0.003743
     5  N    0.006482  -0.058239  -0.017200  -0.083594  -0.027172   0.045426
     6  H   -0.012818   0.022314  -0.051103  -0.044876   0.005313  -0.005200
     7  C    4.753627   0.135011   0.217716   0.306179   0.228030  -0.277568
     8  H    0.135011   1.455227  -0.203385  -0.178373  -0.042983   0.076276
     9  H    0.217716  -0.203385   1.341186  -0.030025  -0.048110  -0.046886
    10  C    0.306179  -0.178373  -0.030025   6.213998  -0.096298   0.285688
    11  H    0.228030  -0.042983  -0.048110  -0.096298   1.188718  -0.185502
    12  H   -0.277568   0.076276  -0.046886   0.285688  -0.185502   0.962402
    13  C   -0.289231   0.084230   0.027409  -0.460274   0.186374   0.094093
    14  N    0.132306  -0.055694   0.009549   0.028952   0.045586  -0.105766
    15  C   -0.007149  -0.017460   0.001719  -0.217395   0.026660  -0.045688
    16  H    0.011486   0.002282   0.000792   0.039183   0.001462   0.000525
    17  C    0.030654  -0.011824   0.004807   0.266178  -0.015945   0.005572
    18  H   -0.000980   0.000148  -0.000043  -0.012090  -0.000461   0.000059
    19  C   -0.052935   0.016075  -0.005688  -0.296155   0.005421   0.006724
    20  H    0.000221   0.000163   0.000225   0.040072   0.002008   0.000596
    21  C   -0.094682   0.045552   0.014297   0.013806  -0.236867   0.144054
    22  H    0.005483   0.001560   0.000764  -0.046128  -0.046629   0.009471
    23  H   -0.081884  -0.021252   0.010975  -0.056529  -0.004656   0.012051
              13         14         15         16         17         18
     1  C   -0.006369   0.003275  -0.001449   0.001476  -0.001751   0.000146
     2  H   -0.012698   0.005949   0.006531   0.000415  -0.000804  -0.000020
     3  H    0.005146  -0.002442  -0.005482  -0.000556  -0.001998  -0.000053
     4  H    0.009746  -0.002196  -0.009923  -0.000310   0.002929   0.000084
     5  N    0.216947  -0.194066   0.007148   0.011339  -0.026814   0.000800
     6  H   -0.000533  -0.007068  -0.006171   0.002041   0.002407  -0.000218
     7  C   -0.289231   0.132306  -0.007149   0.011486   0.030654  -0.000980
     8  H    0.084230  -0.055694  -0.017460   0.002282  -0.011824   0.000148
     9  H    0.027409   0.009549   0.001719   0.000792   0.004807  -0.000043
    10  C   -0.460274   0.028952  -0.217395   0.039183   0.266178  -0.012090
    11  H    0.186374   0.045586   0.026660   0.001462  -0.015945  -0.000461
    12  H    0.094093  -0.105766  -0.045688   0.000525   0.005572   0.000059
    13  C    9.100896  -0.022139   0.425204   0.059616  -1.356329   0.007437
    14  N   -0.022139   7.664931   0.397527  -0.208446   0.015065   0.010708
    15  C    0.425204   0.397527   6.705279  -0.028006  -1.162832   0.142186
    16  H    0.059616  -0.208446  -0.028006   1.522955   0.086635  -0.064264
    17  C   -1.356329   0.015065  -1.162832   0.086635   7.239177  -0.445749
    18  H    0.007437   0.010708   0.142186  -0.064264  -0.445749   1.540538
    19  C    1.375789  -0.342784   1.019019   0.041573  -1.535274   0.379474
    20  H   -0.167512   0.014388  -0.144098  -0.007831   0.355637  -0.059375
    21  C   -3.803413   0.205309  -1.574477  -0.014093   1.894142  -0.087071
    22  H    0.585066  -0.021929   0.053113  -0.000580  -0.150130  -0.011153
    23  H    0.065019   0.050718  -0.016441  -0.045425  -0.029475   0.002597
              19         20         21         22         23
     1  C    0.002853  -0.000024  -0.013015   0.000469  -0.036711
     2  H    0.000415  -0.000010  -0.001904   0.000006   0.005241
     3  H    0.000873  -0.000008  -0.001974   0.000132  -0.019059
     4  H   -0.001087  -0.000027   0.002080  -0.000002   0.015207
     5  N    0.026335  -0.000175  -0.091140   0.007415   0.410608
     6  H   -0.001292   0.000045   0.001039  -0.000906  -0.057231
     7  C   -0.052935   0.000221  -0.094682   0.005483  -0.081884
     8  H    0.016075   0.000163   0.045552   0.001560  -0.021252
     9  H   -0.005688   0.000225   0.014297   0.000764   0.010975
    10  C   -0.296155   0.040072   0.013806  -0.046128  -0.056529
    11  H    0.005421   0.002008  -0.236867  -0.046629  -0.004656
    12  H    0.006724   0.000596   0.144054   0.009471   0.012051
    13  C    1.375789  -0.167512  -3.803413   0.585066   0.065019
    14  N   -0.342784   0.014388   0.205309  -0.021929   0.050718
    15  C    1.019019  -0.144098  -1.574477   0.053113  -0.016441
    16  H    0.041573  -0.007831  -0.014093  -0.000580  -0.045425
    17  C   -1.535274   0.355637   1.894142  -0.150130  -0.029475
    18  H    0.379474  -0.059375  -0.087071  -0.011153   0.002597
    19  C    8.124167  -0.470806  -2.493226   0.352825   0.008436
    20  H   -0.470806   1.554576   0.358059  -0.088565   0.000991
    21  C   -2.493226   0.358059  11.611811  -0.986746  -0.021005
    22  H    0.352825  -0.088565  -0.986746   1.896831   0.007218
    23  H    0.008436   0.000991  -0.021005   0.007218   0.559928
 Mulliken charges:
               1
     1  C    0.781346
     2  H   -0.067502
     3  H   -0.083399
     4  H   -0.121646
     5  N   -0.645458
     6  H    0.225979
     7  C    1.027208
     8  H   -0.245642
     9  H   -0.214599
    10  C    0.326067
    11  H    0.007024
    12  H    0.030608
    13  C   -0.124476
    14  N   -0.621733
    15  C    0.452185
    16  H   -0.412269
    17  C    0.835723
    18  H   -0.402699
    19  C   -0.160731
    20  H   -0.388548
    21  C    1.129465
    22  H   -0.567584
    23  H    0.240680
 Sum of Mulliken charges =   1.00000
 Mulliken charges with hydrogens summed into heavy atoms:
               1
     1  C    0.508800
     5  N   -0.178799
     7  C    0.566966
    10  C    0.363699
    13  C   -0.124476
    14  N   -0.621733
    15  C    0.039916
    17  C    0.433024
    19  C   -0.549279
    21  C    0.561882
 Electronic spatial extent (au):  <R**2>=           1784.3127
 Charge=              1.0000 electrons
 Dipole moment (field-independent basis, Debye):
    X=             -6.0915    Y=             -0.0746    Z=              0.3777  Tot=              6.1037
 Quadrupole moment (field-independent basis, Debye-Ang):
   XX=            -17.0473   YY=            -47.0679   ZZ=            -58.6909
   XY=             -2.0281   XZ=             -3.0523   YZ=              0.3379
 Traceless Quadrupole moment (field-independent basis, Debye-Ang):
   XX=             23.8881   YY=             -6.1326   ZZ=            -17.7555
   XY=             -2.0281   XZ=             -3.0523   YZ=              0.3379
 Octapole moment (field-independent basis, Debye-Ang**2):
  XXX=            -55.4151  YYY=              4.2253  ZZZ=              3.8576  XYY=             -4.3818
  XXY=             16.6010  XXZ=             -2.9269  XZZ=            -21.8825  YZZ=             -0.2029
  YYZ=             -0.1657  XYZ=              1.5493
 Hexadecapole moment (field-independent basis, Debye-Ang**3):
 XXXX=          -1259.0194 YYYY=           -433.4919 ZZZZ=           -104.7582 XXXY=            -46.9181
 XXXZ=            -31.8516 YYYX=             -0.9269 YYYZ=              7.8163 ZZZX=             -6.1532
 ZZZY=             -3.2995 XXYY=           -306.2317 XXZZ=           -307.4000 YYZZ=           -104.2491
 XXYZ=              1.1784 YYXZ=             -2.2256 ZZXY=             -6.2060
 N-N= 5.208883375309D+02 E-N=-2.006447012736D+03  KE= 4.186940540178D+02
 Leave Link  601 at Sun Jul 18 13:57:56 2021, MaxMem=   262144000 cpu:               0.3 elap:               0.1
 (Enter /prod/apps/gaussian/g16b1/l9999.exe)
 1\1\GINC-PIRINEUS28\SP\RMP2-FC\Aug-CC-pVDZ\C8H13N2(1+)\UBATOR02\18-Jul
 -2021\0\\#p mp2/aug-cc-pVDZ scf=tight maxdisk=180GB geom=allcheck\\SET
 _328_BBB256_conf1.geo_180_300_120 geometry\\1,1\C,0,2.3249507004,-1.92
 16787645,1.4612483667\H,0,2.314479414,-3.0089250207,1.4020509398\H,0,1
 .8612174384,-1.591436894,2.3892906107\H,0,3.3475413335,-1.552047019,1.
 3999060773\N,0,1.5496088466,-1.3651755284,0.3189643601\H,0,2.011763261
 1,-1.6144389369,-0.5672801601\C,0,0.1156026515,-1.8044640032,0.2732705
 091\H,0,-0.302280219,-1.6030877673,1.2603299953\H,0,0.10478534,-2.8812
 858268,0.0989809331\C,0,-0.6527733014,-1.0620006113,-0.8188565321\H,0,
 -1.6418469026,-1.5171170973,-0.901204915\H,0,-0.1573535656,-1.22800524
 41,-1.7833427624\C,0,-0.8057184998,0.4260123252,-0.5775167504\N,0,0.25
 25634542,1.0766517643,-0.0585713656\C,0,0.160607756,2.3986045065,0.143
 7231857\H,0,1.0374728013,2.8789584216,0.5679938051\C,0,-0.9774705462,3
 .1384808966,-0.1643010736\H,0,-0.9996125578,4.2063434044,0.0132729397\
 C,0,-2.0767277525,2.4656183157,-0.6974305949\H,0,-2.9867152524,3.00148
 33807,-0.9444268203\C,0,-1.9915951712,1.0909169569,-0.9028509239\H,0,-
 2.8278677204,0.5325417906,-1.3070976948\H,0,1.5233684919,-0.3209490487
 ,0.3518478704\\Version=ES64L-G16RevB.01\State=1-A\HF=-419.2694386\MP2=
 -420.7304152\RMSD=9.671e-09\PG=C01 [X(C8H13N2)]\\@


 MAN IS A SINGULAR CREATURE.  HE HAS A SET OF GIFTS
 WHICH MAKE HIM UNIQUE AMONG THE ANIMALS: SO THAT, 
 UNLIKE THEM, HE IS NOT A FIGURE IN THE LANDSCAPE --
 HE IS A SHAPER OF THE LANDSCAPE.

                       -- JACOB BRONOWSKI
 Job cpu time:       0 days  0 hours 13 minutes 18.2 seconds.
 Elapsed time:       0 days  0 hours  3 minutes 20.0 seconds.
 File lengths (MBytes):  RWF=  10598 Int=      0 D2E=      0 Chk=     11 Scr=      1
 Normal termination of Gaussian 16 at Sun Jul 18 13:57:57 2021.
