 Entering Gaussian System, Link 0=g16
 Initial command:
 /prod/apps/gaussian/g16b1/l1.exe "/tmp/ubator02/1839595/Gau-185777.inp" -scrdir="/tmp/ubator02/1839595/"
 Entering Link 1 = /prod/apps/gaussian/g16b1/l1.exe PID=    185781.
  
 Copyright (c) 1988-2017, Gaussian, Inc.  All Rights Reserved.
  
 This is part of the Gaussian(R) 16 program.  It is based on
 the Gaussian(R) 09 system (copyright 2009, Gaussian, Inc.),
 the Gaussian(R) 03 system (copyright 2003, Gaussian, Inc.),
 the Gaussian(R) 98 system (copyright 1998, Gaussian, Inc.),
 the Gaussian(R) 94 system (copyright 1995, Gaussian, Inc.),
 the Gaussian 92(TM) system (copyright 1992, Gaussian, Inc.),
 the Gaussian 90(TM) system (copyright 1990, Gaussian, Inc.),
 the Gaussian 88(TM) system (copyright 1988, Gaussian, Inc.),
 the Gaussian 86(TM) system (copyright 1986, Carnegie Mellon
 University), and the Gaussian 82(TM) system (copyright 1983,
 Carnegie Mellon University). Gaussian is a federally registered
 trademark of Gaussian, Inc.
  
 This software contains proprietary and confidential information,
 including trade secrets, belonging to Gaussian, Inc.
  
 This software is provided under written license and may be
 used, copied, transmitted, or stored only in accord with that
 written license.
  
 The following legend is applicable only to US Government
 contracts under FAR:
  
                    RESTRICTED RIGHTS LEGEND
  
 Use, reproduction and disclosure by the US Government is
 subject to restrictions as set forth in subparagraphs (a)
 and (c) of the Commercial Computer Software - Restricted
 Rights clause in FAR 52.227-19.
  
 Gaussian, Inc.
 340 Quinnipiac St., Bldg. 40, Wallingford CT 06492
  
  
 ---------------------------------------------------------------
 Warning -- This program may not be used in any manner that
 competes with the business of Gaussian, Inc. or will provide
 assistance to any competitor of Gaussian, Inc.  The licensee
 of this program is prohibited from giving any competitor of
 Gaussian, Inc. access to this program.  By using this program,
 the user acknowledges that Gaussian, Inc. is engaged in the
 business of creating and licensing software in the field of
 computational chemistry and represents and warrants to the
 licensee that it is not a competitor of Gaussian, Inc. and that
 it will not use this program in any manner prohibited above.
 ---------------------------------------------------------------
  

 Cite this work as:
 Gaussian 16, Revision B.01,
 M. J. Frisch, G. W. Trucks, H. B. Schlegel, G. E. Scuseria, 
 M. A. Robb, J. R. Cheeseman, G. Scalmani, V. Barone, 
 G. A. Petersson, H. Nakatsuji, X. Li, M. Caricato, A. V. Marenich, 
 J. Bloino, B. G. Janesko, R. Gomperts, B. Mennucci, H. P. Hratchian, 
 J. V. Ortiz, A. F. Izmaylov, J. L. Sonnenberg, D. Williams-Young, 
 F. Ding, F. Lipparini, F. Egidi, J. Goings, B. Peng, A. Petrone, 
 T. Henderson, D. Ranasinghe, V. G. Zakrzewski, J. Gao, N. Rega, 
 G. Zheng, W. Liang, M. Hada, M. Ehara, K. Toyota, R. Fukuda, 
 J. Hasegawa, M. Ishida, T. Nakajima, Y. Honda, O. Kitao, H. Nakai, 
 T. Vreven, K. Throssell, J. A. Montgomery, Jr., J. E. Peralta, 
 F. Ogliaro, M. J. Bearpark, J. J. Heyd, E. N. Brothers, K. N. Kudin, 
 V. N. Staroverov, T. A. Keith, R. Kobayashi, J. Normand, 
 K. Raghavachari, A. P. Rendell, J. C. Burant, S. S. Iyengar, 
 J. Tomasi, M. Cossi, J. M. Millam, M. Klene, C. Adamo, R. Cammi, 
 J. W. Ochterski, R. L. Martin, K. Morokuma, O. Farkas, 
 J. B. Foresman, and D. J. Fox, Gaussian, Inc., Wallingford CT, 2016.
 
 ******************************************
 Gaussian 16:  ES64L-G16RevB.01 20-Dec-2017
                18-Jul-2021 
 ******************************************
 %mem=800MB
 %nproc=4
 Will use up to    4 processors via shared memory.
 %chk=SET_328_BBB29_conf1.geo_120_180_180.chk
 -----------------------------------------------------------
 #p b3lyp/6-31G(d) opt freq scrf=(iefpcm,read,solvent=water)
 -----------------------------------------------------------
 1/18=20,19=15,26=3,38=1,40=2/1,3;
 2/9=110,12=2,17=6,18=5,40=1/2;
 3/5=1,6=6,7=1,11=2,25=1,30=1,70=2203,71=1,72=1,74=-5/1,2,3;
 4//1;
 5/5=2,38=5,53=1/2;
 6/7=2,8=2,9=2,10=2,28=1/1;
 7//1,2,3,16;
 1/18=20,19=15,26=3/3(2);
 2/9=110/2;
 99//99;
 2/9=110/2;
 3/5=1,6=6,7=1,11=2,25=1,30=1,70=2205,71=1,72=1,74=-5/1,2,3;
 4/5=5,16=3,69=1/1;
 5/5=2,38=5,53=1/2;
 7//1,2,3,16;
 1/18=20,19=15,26=3/3(-5);
 2/9=110/2;
 6/7=2,8=2,9=2,10=2,19=2,28=1/1;
 99/9=1/99;
 Leave Link    1 at Sun Jul 18 13:49:17 2021, MaxMem=   104857600 cpu:               0.1 elap:               0.0
 (Enter /prod/apps/gaussian/g16b1/l101.exe)
 --------------------------------------------
 SET_328_BBB29_conf1.geo_120_180_180 geometry
 --------------------------------------------
 Symbolic Z-matrix:
 Charge =  1 Multiplicity = 1
 N                     0.176    -4.218    -1.508 
 H                     0.729    -5.006    -1.779 
 H                    -0.482    -4.008    -2.231 
 C                     1.028    -3.087    -1.295 
 H                     1.512    -2.848    -2.245 
 H                     1.712    -3.454    -0.525 
 C                     0.275    -1.918    -0.739 
 H                    -0.132    -2.246     0.22 
 H                    -0.554    -1.718    -1.42 
 C                     1.228    -0.745    -0.543 
 H                     1.678    -0.509    -1.511 
 H                     2.017    -1.049     0.149 
 N                     0.532     0.432     0.006 
 C                     0.502     0.528     1.341 
 C                     1.628     0.913     2.08 
 H                     2.586     1.04      1.583 
 C                     1.456     1.282     3.448 
 Cl                    2.776     1.952     4.24 
 C                     0.2       1.138     4.148 
 H                     0.093     1.223     5.227 
 C                    -0.786     0.606     3.344 
 H                    -1.724     0.49      3.881 
 C                    -0.733     0.408     1.957 
 S                    -2.236     0.013     1. 
 C                    -1.73      1.057    -0.41 
 C                    -0.355     1.118    -0.781 
 C                     0.047     1.809    -1.883 
 H                     1.11      1.792    -2.109 
 C                    -0.892     2.541    -2.647 
 H                    -0.46      3.201    -3.396 
 C                    -2.217     2.484    -2.331 
 H                    -2.881     3.125    -2.905 
 C                    -2.654     1.709    -1.223 
 H                    -3.703     1.729    -0.94 
 H                    -0.314    -4.43     -0.663 
 
 ITRead=  0  0  0  0  0  0  0  0  0  0  0  0  0  0  0  0  0  0  0  0
 ITRead=  0  0  0  0  0  0  0  0  0  0  0  0  0  0  0
 MicOpt= -1 -1 -1 -1 -1 -1 -1 -1 -1 -1 -1 -1 -1 -1 -1 -1 -1 -1 -1 -1
 MicOpt= -1 -1 -1 -1 -1 -1 -1 -1 -1 -1 -1 -1 -1 -1 -1
 NAtoms=     35 NQM=       35 NQMF=       0 NMMI=      0 NMMIF=      0
                NMic=       0 NMicF=      0.
                    Isotopes and Nuclear Properties:
 (Nuclear quadrupole moments (NQMom) in fm**2, nuclear magnetic moments (NMagM)
  in nuclear magnetons)

  Atom         1           2           3           4           5           6           7           8           9          10
 IAtWgt=          14           1           1          12           1           1          12           1           1          12
 AtmWgt=  14.0030740   1.0078250   1.0078250  12.0000000   1.0078250   1.0078250  12.0000000   1.0078250   1.0078250  12.0000000
 NucSpn=           2           1           1           0           1           1           0           1           1           0
 AtZEff=  -0.0000000  -0.0000000  -0.0000000  -0.0000000  -0.0000000  -0.0000000  -0.0000000  -0.0000000  -0.0000000  -0.0000000
 NQMom=    2.0440000   0.0000000   0.0000000   0.0000000   0.0000000   0.0000000   0.0000000   0.0000000   0.0000000   0.0000000
 NMagM=    0.4037610   2.7928460   2.7928460   0.0000000   2.7928460   2.7928460   0.0000000   2.7928460   2.7928460   0.0000000
 AtZNuc=   7.0000000   1.0000000   1.0000000   6.0000000   1.0000000   1.0000000   6.0000000   1.0000000   1.0000000   6.0000000

  Atom        11          12          13          14          15          16          17          18          19          20
 IAtWgt=           1           1          14          12          12           1          12          35          12           1
 AtmWgt=   1.0078250   1.0078250  14.0030740  12.0000000  12.0000000   1.0078250  12.0000000  34.9688527  12.0000000   1.0078250
 NucSpn=           1           1           2           0           0           1           0           3           0           1
 AtZEff=  -0.0000000  -0.0000000  -0.0000000  -0.0000000  -0.0000000  -0.0000000  -0.0000000  -0.0000000  -0.0000000  -0.0000000
 NQMom=    0.0000000   0.0000000   2.0440000   0.0000000   0.0000000   0.0000000   0.0000000  -8.1650000   0.0000000   0.0000000
 NMagM=    2.7928460   2.7928460   0.4037610   0.0000000   0.0000000   2.7928460   0.0000000   0.8218740   0.0000000   2.7928460
 AtZNuc=   1.0000000   1.0000000   7.0000000   6.0000000   6.0000000   1.0000000   6.0000000  17.0000000   6.0000000   1.0000000

  Atom        21          22          23          24          25          26          27          28          29          30
 IAtWgt=          12           1          12          32          12          12          12           1          12           1
 AtmWgt=  12.0000000   1.0078250  12.0000000  31.9720718  12.0000000  12.0000000  12.0000000   1.0078250  12.0000000   1.0078250
 NucSpn=           0           1           0           0           0           0           0           1           0           1
 AtZEff=  -0.0000000  -0.0000000  -0.0000000  -0.0000000  -0.0000000  -0.0000000  -0.0000000  -0.0000000  -0.0000000  -0.0000000
 NQMom=    0.0000000   0.0000000   0.0000000   0.0000000   0.0000000   0.0000000   0.0000000   0.0000000   0.0000000   0.0000000
 NMagM=    0.0000000   2.7928460   0.0000000   0.0000000   0.0000000   0.0000000   0.0000000   2.7928460   0.0000000   2.7928460
 AtZNuc=   6.0000000   1.0000000   6.0000000  16.0000000   6.0000000   6.0000000   6.0000000   1.0000000   6.0000000   1.0000000

  Atom        31          32          33          34          35
 IAtWgt=          12           1          12           1           1
 AtmWgt=  12.0000000   1.0078250  12.0000000   1.0078250   1.0078250
 NucSpn=           0           1           0           1           1
 AtZEff=  -0.0000000  -0.0000000  -0.0000000  -0.0000000  -0.0000000
 NQMom=    0.0000000   0.0000000   0.0000000   0.0000000   0.0000000
 NMagM=    0.0000000   2.7928460   0.0000000   2.7928460   2.7928460
 AtZNuc=   6.0000000   1.0000000   6.0000000   1.0000000   1.0000000
 Leave Link  101 at Sun Jul 18 13:49:17 2021, MaxMem=   104857600 cpu:               0.5 elap:               0.1
 (Enter /prod/apps/gaussian/g16b1/l103.exe)

 GradGradGradGradGradGradGradGradGradGradGradGradGradGradGradGradGradGrad
 Berny optimization.
 Initialization pass.
                           ----------------------------
                           !    Initial Parameters    !
                           ! (Angstroms and Degrees)  !
 --------------------------                            --------------------------
 ! Name  Definition              Value          Derivative Info.                !
 --------------------------------------------------------------------------------
 ! R1    R(1,2)                  1.0001         estimate D2E/DX2                !
 ! R2    R(1,3)                  0.9999         estimate D2E/DX2                !
 ! R3    R(1,4)                  1.4319         estimate D2E/DX2                !
 ! R4    R(1,35)                 0.9995         estimate D2E/DX2                !
 ! R5    R(4,5)                  1.0926         estimate D2E/DX2                !
 ! R6    R(4,6)                  1.0934         estimate D2E/DX2                !
 ! R7    R(4,7)                  1.4976         estimate D2E/DX2                !
 ! R8    R(7,8)                  1.0922         estimate D2E/DX2                !
 ! R9    R(7,9)                  1.0913         estimate D2E/DX2                !
 ! R10   R(7,10)                 1.524          estimate D2E/DX2                !
 ! R11   R(10,11)                1.0933         estimate D2E/DX2                !
 ! R12   R(10,12)                1.0926         estimate D2E/DX2                !
 ! R13   R(10,13)                1.4735         estimate D2E/DX2                !
 ! R14   R(13,14)                1.3388         estimate D2E/DX2                !
 ! R15   R(13,26)                1.3699         estimate D2E/DX2                !
 ! R16   R(14,15)                1.4008         estimate D2E/DX2                !
 ! R17   R(14,23)                1.3853         estimate D2E/DX2                !
 ! R18   R(15,16)                1.0867         estimate D2E/DX2                !
 ! R19   R(15,17)                1.4273         estimate D2E/DX2                !
 ! R20   R(17,18)                1.6789         estimate D2E/DX2                !
 ! R21   R(17,19)                1.4451         estimate D2E/DX2                !
 ! R22   R(19,20)                1.0876         estimate D2E/DX2                !
 ! R23   R(19,21)                1.379          estimate D2E/DX2                !
 ! R24   R(21,22)                1.087          estimate D2E/DX2                !
 ! R25   R(21,23)                1.4021         estimate D2E/DX2                !
 ! R26   R(23,24)                1.8251         estimate D2E/DX2                !
 ! R27   R(24,25)                1.8259         estimate D2E/DX2                !
 ! R28   R(25,26)                1.4255         estimate D2E/DX2                !
 ! R29   R(25,33)                1.3928         estimate D2E/DX2                !
 ! R30   R(26,27)                1.3614         estimate D2E/DX2                !
 ! R31   R(27,28)                1.0869         estimate D2E/DX2                !
 ! R32   R(27,29)                1.4147         estimate D2E/DX2                !
 ! R33   R(29,30)                1.0878         estimate D2E/DX2                !
 ! R34   R(29,31)                1.3634         estimate D2E/DX2                !
 ! R35   R(31,32)                1.0869         estimate D2E/DX2                !
 ! R36   R(31,33)                1.421          estimate D2E/DX2                !
 ! R37   R(33,34)                1.0867         estimate D2E/DX2                !
 ! A1    A(2,1,3)              109.4767         estimate D2E/DX2                !
 ! A2    A(2,1,4)              109.4898         estimate D2E/DX2                !
 ! A3    A(2,1,35)             109.4529         estimate D2E/DX2                !
 ! A4    A(3,1,4)              109.4646         estimate D2E/DX2                !
 ! A5    A(3,1,35)             109.4646         estimate D2E/DX2                !
 ! A6    A(4,1,35)             109.4788         estimate D2E/DX2                !
 ! A7    A(1,4,5)              107.8784         estimate D2E/DX2                !
 ! A8    A(1,4,6)              102.2317         estimate D2E/DX2                !
 ! A9    A(1,4,7)              111.8761         estimate D2E/DX2                !
 ! A10   A(5,4,6)              114.1179         estimate D2E/DX2                !
 ! A11   A(5,4,7)              112.0109         estimate D2E/DX2                !
 ! A12   A(6,4,7)              108.3674         estimate D2E/DX2                !
 ! A13   A(4,7,8)              106.1967         estimate D2E/DX2                !
 ! A14   A(4,7,9)              107.0574         estimate D2E/DX2                !
 ! A15   A(4,7,10)             109.5203         estimate D2E/DX2                !
 ! A16   A(8,7,9)              108.6553         estimate D2E/DX2                !
 ! A17   A(8,7,10)             110.5634         estimate D2E/DX2                !
 ! A18   A(9,7,10)             114.4699         estimate D2E/DX2                !
 ! A19   A(7,10,11)            108.0394         estimate D2E/DX2                !
 ! A20   A(7,10,12)            108.5945         estimate D2E/DX2                !
 ! A21   A(7,10,13)            111.553          estimate D2E/DX2                !
 ! A22   A(11,10,12)           108.8811         estimate D2E/DX2                !
 ! A23   A(11,10,13)           110.603          estimate D2E/DX2                !
 ! A24   A(12,10,13)           109.1091         estimate D2E/DX2                !
 ! A25   A(10,13,14)           116.0654         estimate D2E/DX2                !
 ! A26   A(10,13,26)           119.4581         estimate D2E/DX2                !
 ! A27   A(14,13,26)           121.4959         estimate D2E/DX2                !
 ! A28   A(13,14,15)           121.8544         estimate D2E/DX2                !
 ! A29   A(13,14,23)           117.205          estimate D2E/DX2                !
 ! A30   A(15,14,23)           120.3867         estimate D2E/DX2                !
 ! A31   A(14,15,16)           119.9654         estimate D2E/DX2                !
 ! A32   A(14,15,17)           118.6743         estimate D2E/DX2                !
 ! A33   A(16,15,17)           120.9556         estimate D2E/DX2                !
 ! A34   A(15,17,18)           117.4244         estimate D2E/DX2                !
 ! A35   A(15,17,19)           122.9055         estimate D2E/DX2                !
 ! A36   A(18,17,19)           119.6449         estimate D2E/DX2                !
 ! A37   A(17,19,20)           123.937          estimate D2E/DX2                !
 ! A38   A(17,19,21)           112.1775         estimate D2E/DX2                !
 ! A39   A(20,19,21)           122.5625         estimate D2E/DX2                !
 ! A40   A(19,21,22)           111.7234         estimate D2E/DX2                !
 ! A41   A(19,21,23)           127.1728         estimate D2E/DX2                !
 ! A42   A(22,21,23)           120.4137         estimate D2E/DX2                !
 ! A43   A(14,23,21)           117.4746         estimate D2E/DX2                !
 ! A44   A(14,23,24)           121.3159         estimate D2E/DX2                !
 ! A45   A(21,23,24)           121.2091         estimate D2E/DX2                !
 ! A46   A(23,24,25)            93.0355         estimate D2E/DX2                !
 ! A47   A(24,25,26)           119.5213         estimate D2E/DX2                !
 ! A48   A(24,25,33)           122.3143         estimate D2E/DX2                !
 ! A49   A(26,25,33)           117.9028         estimate D2E/DX2                !
 ! A50   A(13,26,25)           116.975          estimate D2E/DX2                !
 ! A51   A(13,26,27)           121.8692         estimate D2E/DX2                !
 ! A52   A(25,26,27)           121.1453         estimate D2E/DX2                !
 ! A53   A(26,27,28)           116.6897         estimate D2E/DX2                !
 ! A54   A(26,27,29)           120.2507         estimate D2E/DX2                !
 ! A55   A(28,27,29)           123.0228         estimate D2E/DX2                !
 ! A56   A(27,29,30)           114.9746         estimate D2E/DX2                !
 ! A57   A(27,29,31)           119.8866         estimate D2E/DX2                !
 ! A58   A(30,29,31)           124.8157         estimate D2E/DX2                !
 ! A59   A(29,31,32)           116.531          estimate D2E/DX2                !
 ! A60   A(29,31,33)           120.1593         estimate D2E/DX2                !
 ! A61   A(32,31,33)           123.0639         estimate D2E/DX2                !
 ! A62   A(25,33,31)           120.4267         estimate D2E/DX2                !
 ! A63   A(25,33,34)           119.8024         estimate D2E/DX2                !
 ! A64   A(31,33,34)           119.3331         estimate D2E/DX2                !
 ! D1    D(2,1,4,5)             62.7632         estimate D2E/DX2                !
 ! D2    D(2,1,4,6)            -57.8508         estimate D2E/DX2                !
 ! D3    D(2,1,4,7)           -173.6036         estimate D2E/DX2                !
 ! D4    D(3,1,4,5)            -57.2508         estimate D2E/DX2                !
 ! D5    D(3,1,4,6)           -177.8648         estimate D2E/DX2                !
 ! D6    D(3,1,4,7)             66.3824         estimate D2E/DX2                !
 ! D7    D(35,1,4,5)          -177.2433         estimate D2E/DX2                !
 ! D8    D(35,1,4,6)            62.1428         estimate D2E/DX2                !
 ! D9    D(35,1,4,7)           -53.6101         estimate D2E/DX2                !
 ! D10   D(1,4,7,8)             60.9854         estimate D2E/DX2                !
 ! D11   D(1,4,7,9)            -54.9619         estimate D2E/DX2                !
 ! D12   D(1,4,7,10)          -179.6056         estimate D2E/DX2                !
 ! D13   D(5,4,7,8)           -177.7402         estimate D2E/DX2                !
 ! D14   D(5,4,7,9)             66.3125         estimate D2E/DX2                !
 ! D15   D(5,4,7,10)           -58.3312         estimate D2E/DX2                !
 ! D16   D(6,4,7,8)            -50.9692         estimate D2E/DX2                !
 ! D17   D(6,4,7,9)           -166.9165         estimate D2E/DX2                !
 ! D18   D(6,4,7,10)            68.4398         estimate D2E/DX2                !
 ! D19   D(4,7,10,11)           58.3196         estimate D2E/DX2                !
 ! D20   D(4,7,10,12)          -59.627          estimate D2E/DX2                !
 ! D21   D(4,7,10,13)         -179.9084         estimate D2E/DX2                !
 ! D22   D(8,7,10,11)          175.0044         estimate D2E/DX2                !
 ! D23   D(8,7,10,12)           57.0579         estimate D2E/DX2                !
 ! D24   D(8,7,10,13)          -63.2235         estimate D2E/DX2                !
 ! D25   D(9,7,10,11)          -61.8969         estimate D2E/DX2                !
 ! D26   D(9,7,10,12)         -179.8435         estimate D2E/DX2                !
 ! D27   D(9,7,10,13)           59.8752         estimate D2E/DX2                !
 ! D28   D(7,10,13,14)          90.5492         estimate D2E/DX2                !
 ! D29   D(7,10,13,26)         -70.2235         estimate D2E/DX2                !
 ! D30   D(11,10,13,14)       -149.1734         estimate D2E/DX2                !
 ! D31   D(11,10,13,26)         50.054          estimate D2E/DX2                !
 ! D32   D(12,10,13,14)        -29.4295         estimate D2E/DX2                !
 ! D33   D(12,10,13,26)        169.7979         estimate D2E/DX2                !
 ! D34   D(10,13,14,15)         75.1551         estimate D2E/DX2                !
 ! D35   D(10,13,14,23)       -113.354          estimate D2E/DX2                !
 ! D36   D(26,13,14,15)       -124.4955         estimate D2E/DX2                !
 ! D37   D(26,13,14,23)         46.9953         estimate D2E/DX2                !
 ! D38   D(10,13,26,25)        112.3706         estimate D2E/DX2                !
 ! D39   D(10,13,26,27)        -66.4637         estimate D2E/DX2                !
 ! D40   D(14,13,26,25)        -47.3294         estimate D2E/DX2                !
 ! D41   D(14,13,26,27)        133.8362         estimate D2E/DX2                !
 ! D42   D(13,14,15,16)         -6.5567         estimate D2E/DX2                !
 ! D43   D(13,14,15,17)        166.2124         estimate D2E/DX2                !
 ! D44   D(23,14,15,16)       -177.7817         estimate D2E/DX2                !
 ! D45   D(23,14,15,17)         -5.0126         estimate D2E/DX2                !
 ! D46   D(13,14,23,21)       -175.3881         estimate D2E/DX2                !
 ! D47   D(13,14,23,24)          4.4016         estimate D2E/DX2                !
 ! D48   D(15,14,23,21)         -3.7657         estimate D2E/DX2                !
 ! D49   D(15,14,23,24)        176.024          estimate D2E/DX2                !
 ! D50   D(14,15,17,18)       -171.1885         estimate D2E/DX2                !
 ! D51   D(14,15,17,19)          6.9713         estimate D2E/DX2                !
 ! D52   D(16,15,17,18)          1.5064         estimate D2E/DX2                !
 ! D53   D(16,15,17,19)        179.6661         estimate D2E/DX2                !
 ! D54   D(15,17,19,20)        167.347          estimate D2E/DX2                !
 ! D55   D(15,17,19,21)          0.2222         estimate D2E/DX2                !
 ! D56   D(18,17,19,20)        -14.5325         estimate D2E/DX2                !
 ! D57   D(18,17,19,21)        178.3428         estimate D2E/DX2                !
 ! D58   D(17,19,21,22)        179.3276         estimate D2E/DX2                !
 ! D59   D(17,19,21,23)        -10.2648         estimate D2E/DX2                !
 ! D60   D(20,19,21,22)         11.9986         estimate D2E/DX2                !
 ! D61   D(20,19,21,23)       -177.5938         estimate D2E/DX2                !
 ! D62   D(19,21,23,14)         12.4381         estimate D2E/DX2                !
 ! D63   D(19,21,23,24)       -167.3518         estimate D2E/DX2                !
 ! D64   D(22,21,23,14)       -177.9029         estimate D2E/DX2                !
 ! D65   D(22,21,23,24)          2.3072         estimate D2E/DX2                !
 ! D66   D(14,23,24,25)        -38.5197         estimate D2E/DX2                !
 ! D67   D(21,23,24,25)        141.2622         estimate D2E/DX2                !
 ! D68   D(23,24,25,26)         37.0794         estimate D2E/DX2                !
 ! D69   D(23,24,25,33)       -148.9215         estimate D2E/DX2                !
 ! D70   D(24,25,26,13)         -3.556          estimate D2E/DX2                !
 ! D71   D(24,25,26,27)        175.2874         estimate D2E/DX2                !
 ! D72   D(33,25,26,13)       -177.8182         estimate D2E/DX2                !
 ! D73   D(33,25,26,27)          1.0252         estimate D2E/DX2                !
 ! D74   D(24,25,33,31)       -178.3673         estimate D2E/DX2                !
 ! D75   D(24,25,33,34)          9.2748         estimate D2E/DX2                !
 ! D76   D(26,25,33,31)         -4.2758         estimate D2E/DX2                !
 ! D77   D(26,25,33,34)       -176.6336         estimate D2E/DX2                !
 ! D78   D(13,26,27,28)         -0.0999         estimate D2E/DX2                !
 ! D79   D(13,26,27,29)       -177.9593         estimate D2E/DX2                !
 ! D80   D(25,26,27,28)       -178.8861         estimate D2E/DX2                !
 ! D81   D(25,26,27,29)          3.2545         estimate D2E/DX2                !
 ! D82   D(26,27,29,30)        169.4742         estimate D2E/DX2                !
 ! D83   D(26,27,29,31)         -4.3101         estimate D2E/DX2                !
 ! D84   D(28,27,29,30)         -8.2448         estimate D2E/DX2                !
 ! D85   D(28,27,29,31)        177.971          estimate D2E/DX2                !
 ! D86   D(27,29,31,32)        175.5217         estimate D2E/DX2                !
 ! D87   D(27,29,31,33)          1.0432         estimate D2E/DX2                !
 ! D88   D(30,29,31,32)          2.3877         estimate D2E/DX2                !
 ! D89   D(30,29,31,33)       -172.0907         estimate D2E/DX2                !
 ! D90   D(29,31,33,25)          3.2875         estimate D2E/DX2                !
 ! D91   D(29,31,33,34)        175.6811         estimate D2E/DX2                !
 ! D92   D(32,31,33,25)       -170.8165         estimate D2E/DX2                !
 ! D93   D(32,31,33,34)          1.577          estimate D2E/DX2                !
 --------------------------------------------------------------------------------
 Trust Radius=3.00D-01 FncErr=1.00D-07 GrdErr=1.00D-06 EigMax=2.50D+02 EigMin=1.00D-04
 Number of steps in this run=    204 maximum allowed number of steps=    210.
 GradGradGradGradGradGradGradGradGradGradGradGradGradGradGradGradGradGrad

 Leave Link  103 at Sun Jul 18 13:49:17 2021, MaxMem=   104857600 cpu:               0.1 elap:               0.0
 (Enter /prod/apps/gaussian/g16b1/l202.exe)
                          Input orientation:                          
 ---------------------------------------------------------------------
 Center     Atomic      Atomic             Coordinates (Angstroms)
 Number     Number       Type             X           Y           Z
 ---------------------------------------------------------------------
      1          7           0        0.176000   -4.218000   -1.508000
      2          1           0        0.729000   -5.006000   -1.779000
      3          1           0       -0.482000   -4.008000   -2.231000
      4          6           0        1.028000   -3.087000   -1.295000
      5          1           0        1.512000   -2.848000   -2.245000
      6          1           0        1.712000   -3.454000   -0.525000
      7          6           0        0.275000   -1.918000   -0.739000
      8          1           0       -0.132000   -2.246000    0.220000
      9          1           0       -0.554000   -1.718000   -1.420000
     10          6           0        1.228000   -0.745000   -0.543000
     11          1           0        1.678000   -0.509000   -1.511000
     12          1           0        2.017000   -1.049000    0.149000
     13          7           0        0.532000    0.432000    0.006000
     14          6           0        0.502000    0.528000    1.341000
     15          6           0        1.628000    0.913000    2.080000
     16          1           0        2.586000    1.040000    1.583000
     17          6           0        1.456000    1.282000    3.448000
     18         17           0        2.776000    1.952000    4.240000
     19          6           0        0.200000    1.138000    4.148000
     20          1           0        0.093000    1.223000    5.227000
     21          6           0       -0.786000    0.606000    3.344000
     22          1           0       -1.724000    0.490000    3.881000
     23          6           0       -0.733000    0.408000    1.957000
     24         16           0       -2.236000    0.013000    1.000000
     25          6           0       -1.730000    1.057000   -0.410000
     26          6           0       -0.355000    1.118000   -0.781000
     27          6           0        0.047000    1.809000   -1.883000
     28          1           0        1.110000    1.792000   -2.109000
     29          6           0       -0.892000    2.541000   -2.647000
     30          1           0       -0.460000    3.201000   -3.396000
     31          6           0       -2.217000    2.484000   -2.331000
     32          1           0       -2.881000    3.125000   -2.905000
     33          6           0       -2.654000    1.709000   -1.223000
     34          1           0       -3.703000    1.729000   -0.940000
     35          1           0       -0.314000   -4.430000   -0.663000
 ---------------------------------------------------------------------
                    Distance matrix (angstroms):
                    1          2          3          4          5
     1  N    0.000000
     2  H    1.000097   0.000000
     3  H    0.999896   1.633043   0.000000
     4  C    1.431934   2.001554   2.001109   0.000000
     5  H    2.050601   2.342479   2.306910   1.092647   0.000000
     6  H    1.977190   2.224300   2.833900   1.093364   1.834567
     7  C    2.427172   3.289903   2.677165   1.497567   2.159422
     8  H    2.640006   3.514957   3.038839   2.085211   3.023469
     9  H    2.605886   3.547663   2.430433   2.095832   2.495172
    10  C    3.754951   4.464618   4.052236   2.467887   2.720307
    11  H    4.001586   4.603850   4.174566   2.667441   2.457078
    12  H    4.022125   4.586281   4.545886   2.686392   3.036884
    13  N    4.903206   5.726856   5.074048   3.784439   4.097048
    14  C    5.545051   6.356971   5.856854   4.504819   5.027611
    15  C    6.427224   7.122825   6.874086   5.267886   5.732731
    16  H    6.558121   7.162793   7.031467   5.267103   5.560900
    17  C    7.513344   8.209080   7.999437   6.462770   7.033512
    18  Cl   8.824308   9.425091   9.381365   7.686563   8.166573
    19  C    7.789586   8.553240   8.224237   6.939918   7.647221
    20  H    8.658614   9.396221   9.127746   7.873170   8.626551
    21  C    6.909293   7.748219   7.243068   6.200739   6.960448
    22  H    7.403822   8.261890   7.689676   6.867271   7.690372
    23  C    5.850845   6.738437   6.091256   5.088384   5.770474
    24  S    5.478063   6.457896   5.448332   5.052793   5.723884
    25  C    5.715248   6.684371   5.525194   5.055940   5.396926
    26  C    5.411413   6.298765   5.328649   4.456334   4.621487
    27  C    6.040033   6.849830   5.851362   5.027815   4.895398
    28  H    6.111764   6.816661   6.015758   4.947116   4.659367
    29  C    6.937004   7.767771   6.574995   6.098253   5.914570
    30  H    7.681836   8.448861   7.302561   6.794651   6.465600
    31  C    7.163838   8.067448   6.720587   6.529882   6.507155
    32  H    8.075674   8.967337   7.555737   7.514075   7.443842
    33  C    6.574150   7.539566   6.198204   6.046811   6.258298
    34  H    7.122926   8.105971   6.704826   6.760343   7.060324
    35  H    0.999534   1.632508   1.632462   2.001009   2.887858
                    6          7          8          9         10
     6  H    0.000000
     7  C    2.114252   0.000000
     8  H    2.326935   1.092206   0.000000
     9  H    2.991568   1.091330   1.773829   0.000000
    10  C    2.751956   1.523993   2.164433   2.211647   0.000000
    11  H    3.105862   2.132996   3.047889   2.540037   1.093261
    12  H    2.516213   2.139689   2.460905   3.085346   1.092612
    13  N    4.095773   2.478623   2.767377   2.799173   1.473481
    14  C    4.560963   3.218827   3.058378   3.712516   2.386852
    15  C    5.085644   4.218048   4.066507   4.892166   3.128753
    16  H    5.040196   4.413861   4.476951   5.146278   3.090350
    17  C    6.187080   5.400531   5.038701   6.061149   4.482052
    18  Cl   7.284378   6.783977   6.499236   7.522858   5.705016
    19  C    6.723804   5.764333   5.195273   6.303005   5.158290
    20  H    7.588214   6.744788   6.095460   7.297308   6.201141
    21  C    6.139443   4.916013   4.280303   5.305704   4.581503
    22  H    6.839157   5.580221   4.839740   5.860441   5.459973
    23  C    5.201288   3.700643   3.228326   3.994502   3.380078
    24  S    5.471053   3.613586   3.184069   3.417877   3.867132
    25  C    5.675360   3.602623   3.722944   3.178632   3.466217
    26  C    5.024063   3.100961   3.516849   2.913901   2.456278
    27  C    5.684677   3.905285   4.571397   3.607672   3.116613
    28  H    5.512892   4.042057   4.824132   3.945088   2.983731
    29  C    6.871952   4.988490   5.631399   4.445093   4.440609
    30  H    7.566323   5.814124   6.546209   5.301884   5.153627
    31  C    7.345646   5.303030   5.764350   4.610021   5.048902
    32  H    8.369187   6.331172   6.794871   5.574478   6.118809
    33  C    6.797480   4.687049   4.907622   4.024070   4.642676
    34  H    7.507192   5.400509   5.467931   4.693443   5.531098
    35  H    2.253064   2.581248   2.362767   2.825879   3.996422
                   11         12         13         14         15
    11  H    0.000000
    12  H    1.778235   0.000000
    13  N    2.121341   2.102150   0.000000
    14  C    3.254574   2.490586   1.338783   0.000000
    15  C    3.862624   2.780203   2.394588   1.400793   0.000000
    16  H    3.577248   2.596929   2.659983   2.159575   1.086693
    17  C    5.277182   4.078196   3.663829   2.432711   1.427294
    18  Cl   6.351073   5.130143   5.027195   3.950070   2.657635
    19  C    6.076296   4.906777   4.214834   2.888348   2.523179
    20  H    7.135313   5.886412   5.298796   3.968791   3.515101
    21  C    5.557477   4.561125   3.592999   2.382653   2.742142
    22  H    6.453315   5.503765   4.484253   3.377591   3.828633
    23  C    4.322133   3.599196   2.325339   1.385309   2.417535
    24  S    4.679423   4.465429   2.970761   2.806804   4.111800
    25  C    3.908839   4.334481   2.383343   2.885770   4.182942
    26  C    2.704278   3.344723   1.369939   2.363352   3.487067
    27  C    2.858613   4.022199   2.387399   3.498880   4.359787
    28  H    2.444346   3.740654   2.580099   3.724226   4.311460
    29  C    4.147035   5.400740   3.676148   4.679695   5.598689
    30  H    4.678501   6.063419   4.497225   5.523544   6.291364
    31  C    4.980108   6.046424   4.150816   4.970159   6.058794
    32  H    5.994470   7.123173   5.232087   6.018107   7.076316
    33  C    4.875315   5.595283   3.645787   4.234288   5.466164
    34  H    5.855753   6.451481   4.529056   4.932280   6.181085
    35  H    4.478996   4.186176   4.980193   5.409587   6.312136
                   16         17         18         19         20
    16  H    0.000000
    17  C    2.194012   0.000000
    18  Cl   2.815580   1.678858   0.000000
    19  C    3.504543   1.445085   2.703116   0.000000
    20  H    4.418968   2.241895   2.950271   1.087619   0.000000
    21  C    3.828820   2.344004   3.911825   1.378998   2.167722
    22  H    4.915222   3.305624   4.745137   2.047674   2.377077
    23  C    3.399274   2.789028   4.461962   2.490757   3.469784
    24  S    4.964504   4.608029   6.275147   4.136378   4.975527
    25  C    4.753966   5.008531   6.536632   4.950437   5.926774
    26  C    3.774130   4.603375   5.975714   4.960188   6.025595
    27  C    4.364749   5.539185   6.705149   6.070141   7.134256
    28  H    4.046597   5.591070   6.565893   6.356561   7.427984
    29  C    5.678238   6.651858   7.825082   7.023738   8.044080
    30  H    6.224024   7.361654   8.386906   7.848790   8.864221
    31  C    6.361866   6.952163   8.269892   7.044931   8.003098
    32  H    7.374107   7.909920   9.188504   7.948933   8.865196
    33  C    5.981538   6.236399   7.706382   6.108928   7.027425
    34  H    6.811150   6.787462   8.298167   6.439754   7.259307
    35  H    6.586002   7.256732   8.620756   7.376486   8.173993
                   21         22         23         24         25
    21  C    0.000000
    22  H    1.087046   0.000000
    23  C    1.402063   2.165775   0.000000
    24  S    2.819306   2.964765   1.825071   0.000000
    25  C    3.897057   4.328303   2.649132   1.825944   0.000000
    26  C    4.178939   4.899264   2.853704   2.816229   1.425478
    27  C    5.427949   6.172511   4.161346   4.092602   2.427542
    28  H    5.893778   6.753285   4.673806   4.901677   3.390048
    29  C    6.296629   6.893012   5.076592   4.636564   2.812236
    30  H    7.229654   7.867779   6.044004   5.713347   3.889194
    31  C    6.146566   6.542784   4.989887   4.147501   2.442077
    32  H    7.055805   7.371002   5.969509   5.034838   3.438961
    33  C    5.056038   5.329322   3.936400   2.827166   1.392785
    34  H    5.303082   5.356641   4.354142   2.976633   2.150631
    35  H    6.452916   6.844153   5.517808   5.118584   5.672410
                   26         27         28         29         30
    26  C    0.000000
    27  C    1.361429   0.000000
    28  H    2.089039   1.086892   0.000000
    29  C    2.407333   1.414652   2.204189   0.000000
    30  H    3.344868   2.117518   2.471143   1.087761   0.000000
    31  C    2.781277   2.404584   3.405448   1.363352   2.176089
    32  H    3.862655   3.368905   4.282358   2.088957   2.471457
    33  C    2.414549   2.782265   3.867762   2.413430   3.429523
    34  H    3.407008   3.867577   4.953332   3.387464   4.326173
    35  H    5.549406   6.367405   6.544614   7.270845   8.106958
                   31         32         33         34         35
    31  C    0.000000
    32  H    1.086855   0.000000
    33  C    1.421006   2.210364   0.000000
    34  H    2.170968   2.546709   1.086688   0.000000
    35  H    7.362542   8.288189   6.593673   7.035292   0.000000
 Stoichiometry    C15H16ClN2S(1+)
 Framework group  C1[X(C15H16ClN2S)]
 Deg. of freedom    99
 Full point group                 C1      NOp   1
 Largest Abelian subgroup         C1      NOp   1
 Largest concise Abelian subgroup C1      NOp   1
                         Standard orientation:                         
 ---------------------------------------------------------------------
 Center     Atomic      Atomic             Coordinates (Angstroms)
 Number     Number       Type             X           Y           Z
 ---------------------------------------------------------------------
      1          7           0        3.229360    3.835249    0.544398
      2          1           0        3.503341    4.757884    0.272602
      3          1           0        4.041787    3.259615    0.636048
      4          6           0        2.362128    3.281548   -0.451472
      5          1           0        2.927610    3.204160   -1.383201
      6          1           0        1.548604    4.011409   -0.481910
      7          6           0        1.796232    1.961561   -0.027090
      8          1           0        1.221742    2.154356    0.881593
      9          1           0        2.640466    1.317102    0.223798
     10          6           0        0.892018    1.417907   -1.126813
     11          1           0        1.487039    1.324903   -2.039238
     12          1           0        0.086348    2.134934   -1.301651
     13          7           0        0.307963    0.117543   -0.753881
     14          6           0       -0.870895    0.161983   -0.120902
     15          6           0       -2.063632    0.445562   -0.798532
     16          1           0       -2.036884    0.741395   -1.843840
     17          6           0       -3.303395    0.187644   -0.140021
     18         17           0       -4.706197    0.321698   -1.052566
     19          6           0       -3.387633   -0.214649    1.245380
     20          1           0       -4.311253   -0.224873    1.819607
     21          6           0       -2.145266   -0.309984    1.836203
     22          1           0       -2.217865   -0.601538    2.880901
     23          6           0       -0.897737   -0.260104    1.198265
     24         16           0        0.631180   -0.739049    2.072283
     25          6           0        1.333416   -1.556094    0.598047
     26          6           0        1.112715   -0.989333   -0.691162
     27          6           0        1.698577   -1.515945   -1.801538
     28          1           0        1.495400   -1.015418   -2.744685
     29          6           0        2.488608   -2.685371   -1.703895
     30          1           0        2.766136   -3.132930   -2.655680
     31          6           0        2.736786   -3.237504   -0.482303
     32          1           0        3.285756   -4.175504   -0.475970
     33          6           0        2.185604   -2.653877    0.690231
     34          1           0        2.332974   -3.144221    1.648738
     35          1           0        2.748856    3.875041    1.419956
 ---------------------------------------------------------------------
 Rotational constants (GHZ):           0.3745535           0.2222216           0.1823898
 Leave Link  202 at Sun Jul 18 13:49:17 2021, MaxMem=   104857600 cpu:               0.1 elap:               0.0
 (Enter /prod/apps/gaussian/g16b1/l301.exe)
 Standard basis: 6-31G(d) (6D, 7F)
 Ernie: Thresh=  0.10000D-02 Tol=  0.10000D-05 Strict=F.
 There are   325 symmetry adapted cartesian basis functions of A   symmetry.
 There are   325 symmetry adapted basis functions of A   symmetry.
   325 basis functions,   644 primitive gaussians,   325 cartesian basis functions
    76 alpha electrons       76 beta electrons
       nuclear repulsion energy      1660.9903659824 Hartrees.
 IExCor=  402 DFT=T Ex+Corr=B3LYP ExCW=0 ScaHFX=  0.200000
 ScaDFX=  0.800000  0.720000  1.000000  0.810000 ScalE2=  1.000000  1.000000
 IRadAn=      5 IRanWt=     -1 IRanGd=            0 ICorTp=0 IEmpDi=  4
 NAtoms=   35 NActive=   35 NUniq=   35 SFac= 1.00D+00 NAtFMM=   60 NAOKFM=F Big=F
 Integral buffers will be    131072 words long.
 Raffenetti 2 integral format.
 Two-electron integral symmetry is turned on.
 Using the following non-standard input for PCM:
 MSTModel=DFT cav MSTCharged
 --- end of non-standard input.
 MST model for solvation energy: B3LYP parametrization.
 MST cavity parameters:
 ISph   IAn     Re0     Alpha   Atom Type   QCorr
 ------------------------------------------------
   1      7     1.70     1.15      NH         T
   2      1     0.90     1.15      NH         T
   3      1     0.90     1.15      NH         T
   4      6     1.50     1.25      CH2        F
   5      1     1.20     1.25      CH2        F
   6      1     1.20     1.25      CH2        F
   7      6     1.50     1.25      CH2        F
   8      1     1.20     1.25      CH2        F
   9      1     1.20     1.25      CH2        F
  10      6     1.50     1.25      CH2        F
  11      1     1.20     1.25      CH2        F
  12      1     1.20     1.25      CH2        F
  13      7     1.40     1.25      N          F
  14      6     1.50     1.25      C          F
  15      6     1.50     1.25      CH         F
  16      1     1.20     1.25      CH         F
  17      6     1.50     1.25      C          F
  18     17     1.80     1.25      Cl         F
  19      6     1.50     1.25      CH         F
  20      1     1.20     1.25      CH         F
  21      6     1.50     1.25      CH         F
  22      1     1.20     1.25      CH         F
  23      6     1.50     1.25      C          F
  24     16     1.75     1.25      S          F
  25      6     1.50     1.25      C          F
  26      6     1.50     1.25      C          F
  27      6     1.50     1.25      CH         F
  28      1     1.20     1.25      CH         F
  29      6     1.50     1.25      CH         F
  30      1     1.20     1.25      CH         F
  31      6     1.50     1.25      CH         F
  32      1     1.20     1.25      CH         F
  33      6     1.50     1.25      CH         F
  34      1     1.20     1.25      CH         F
  35      1     0.90     1.15      NH         T
 ------------------------------------------------------------------------------
 Polarizable Continuum Model (PCM)
 =================================
 Model                : PCM.
 Atomic radii         : MST.
 Polarization charges : Total charges.
 Charge compensation  : None.
 Solution method      : On-the-fly selection.
 Cavity type          : Scaled VdW (van der Waals Surface) (Alpha=1.250).
 Cavity algorithm     : GePol (No added spheres)
                        Default sphere list used, NSphG=   35.
                        Lebedev-Laikov grids with approx.  5.0 points / Ang**2.
                        Smoothing algorithm: York/Karplus (Gamma=1.0000).
                        Polarization charges: spherical gaussians, with
                                              point-specific exponents (IZeta= 3).
                        Self-potential: point-specific (ISelfS= 7).
                        Self-field    : sphere-specific E.n sum rule (ISelfD= 2).
 1st derivatives      : Analytical E(r).r(x)/FMM algorithm (CHGder, D1EAlg=3).
                        Cavity 1st derivative terms included.
 Solvent              : Water, Eps=  78.355300 Eps(inf)=   1.777849
 ------------------------------------------------------------------------------
 GePol: Number of generator spheres                  =      35
 GePol: Total number of spheres                      =      35
 GePol: Number of exposed spheres                    =      35 (100.00%)
 GePol: Number of points                             =    2633
 GePol: Average weight of points                     =       0.13
 GePol: Minimum weight of points                     =   0.30D-11
 GePol: Maximum weight of points                     =    0.21948
 GePol: Number of points with low weight             =     194
 GePol: Fraction of low-weight points (<1% of avg)   =       7.37%
 GePol: Cavity surface area                          =    341.557 Ang**2
 GePol: Cavity volume                                =    340.899 Ang**3
 PCM non-electrostatic energy =         0.0018521418 Hartrees.
 Nuclear repulsion after PCM non-electrostatic terms =     1660.9922181241 Hartrees.
 Leave Link  301 at Sun Jul 18 13:49:17 2021, MaxMem=   104857600 cpu:               0.3 elap:               0.1
 (Enter /prod/apps/gaussian/g16b1/l302.exe)
 NPDir=0 NMtPBC=     1 NCelOv=     1 NCel=       1 NClECP=     1 NCelD=      1
         NCelK=      1 NCelE2=     1 NClLst=     1 CellRange=     0.0.
 One-electron integrals computed using PRISM.
 One-electron integral symmetry used in STVInt
 NBasis=   325 RedAO= T EigKep=  4.86D-04  NBF=   325
 NBsUse=   325 1.00D-06 EigRej= -1.00D+00 NBFU=   325
 Precomputing XC quadrature grid using
 IXCGrd= 4 IRadAn=           5 IRanWt=          -1 IRanGd=           0 AccXCQ= 0.00D+00.
 Generated NRdTot=       0 NPtTot=           0 NUsed=           0 NTot=          32
 NSgBfM=   322   322   322   322   322 MxSgAt=    35 MxSgA2=    35.
 Leave Link  302 at Sun Jul 18 13:49:18 2021, MaxMem=   104857600 cpu:               1.7 elap:               0.4
 (Enter /prod/apps/gaussian/g16b1/l303.exe)
 DipDrv:  MaxL=1.
 Leave Link  303 at Sun Jul 18 13:49:18 2021, MaxMem=   104857600 cpu:               0.1 elap:               0.1
 (Enter /prod/apps/gaussian/g16b1/l401.exe)
 ExpMin= 1.17D-01 ExpMax= 2.52D+04 ExpMxC= 3.78D+03 IAcc=3 IRadAn=         5 AccDes= 0.00D+00
 Harris functional with IExCor=  402 and IRadAn=       5 diagonalized for initial guess.
 HarFok:  IExCor=  402 AccDes= 0.00D+00 IRadAn=         5 IDoV= 1 UseB2=F ITyADJ=14
 ICtDFT=  3500011 ScaDFX=  1.000000  1.000000  1.000000  1.000000
 FoFCou: FMM=F IPFlag=           0 FMFlag=      100000 FMFlg1=           0
         NFxFlg=           0 DoJE=T BraDBF=F KetDBF=T FulRan=T
         wScrn=  0.000000 ICntrl=       500 IOpCl=  0 I1Cent=   200000004 NGrid=           0
         NMat0=    1 NMatS0=      1 NMatT0=    0 NMatD0=    1 NMtDS0=    0 NMtDT0=    0
 Petite list used in FoFCou.
 Harris En= -1548.74313292200    
 JPrj=0 DoOrth=F DoCkMO=F.
 Leave Link  401 at Sun Jul 18 13:49:20 2021, MaxMem=   104857600 cpu:               9.4 elap:               2.4
 (Enter /prod/apps/gaussian/g16b1/l502.exe)
 Integral symmetry usage will be decided dynamically.
 Closed shell SCF:
 Using DIIS extrapolation, IDIIS=  1040.
 NGot=   104857600 LenX=   104640764 LenY=   104534698
 Requested convergence on RMS density matrix=1.00D-08 within 128 cycles.
 Requested convergence on MAX density matrix=1.00D-06.
 Requested convergence on             energy=1.00D-06.
 No special actions if energy rises.
 Fock matrices will be formed incrementally for  20 cycles.

 Cycle   1  Pass 1  IDiag  1:
 FoFJK:  IHMeth= 1 ICntrl=       0 DoSepK=F KAlg= 0 I1Cent=           0 FoldK=F
 IRaf= 820000000 NMat=       1 IRICut=       1 DoRegI=T DoRafI=F ISym2E= 0 IDoP0=0 IntGTp=1.
 FoFCou: FMM=F IPFlag=           0 FMFlag=      100000 FMFlg1=           0
         NFxFlg=           0 DoJE=F BraDBF=F KetDBF=F FulRan=T
         wScrn=  0.000000 ICntrl=         0 IOpCl=  0 I1Cent=           0 NGrid=           0
         NMat0=    1 NMatS0=      1 NMatT0=    0 NMatD0=    1 NMtDS0=    0 NMtDT0=    0
 Symmetry not used in FoFCou.
 Inv3:  Mode=1 IEnd=    20798067.
 Iteration    1 A*A^-1 deviation from unit magnitude is 3.77D-15 for    731.
 Iteration    1 A*A^-1 deviation from orthogonality  is 2.77D-15 for   1053     87.
 Iteration    1 A^-1*A deviation from unit magnitude is 3.55D-15 for    731.
 Iteration    1 A^-1*A deviation from orthogonality  is 1.65D-15 for   1469    540.
 E= -1548.52019149828    
 DIIS: error= 2.27D-02 at cycle   1 NSaved=   1.
 NSaved= 1 IEnMin= 1 EnMin= -1548.52019149828     IErMin= 1 ErrMin= 2.27D-02
 ErrMax= 2.27D-02  0.00D+00 EMaxC= 1.00D-01 BMatC= 3.97D-01 BMatP= 3.97D-01
 IDIUse=3 WtCom= 7.73D-01 WtEn= 2.27D-01
 Coeff-Com:  0.100D+01
 Coeff-En:   0.100D+01
 Coeff:      0.100D+01
 Gap=     0.308 Goal=   None    Shift=    0.000
 GapD=    0.308 DampG=1.000 DampE=0.500 DampFc=0.5000 IDamp=-1.
 Damping current iteration by 5.00D-01
 RMSDP=4.74D-03 MaxDP=1.71D-01              OVMax= 1.97D-01

 Cycle   2  Pass 1  IDiag  1:
 RMSU=  2.34D-03    CP:  9.84D-01
 E= -1548.70878021784     Delta-E=       -0.188588719564 Rises=F Damp=T
 DIIS: error= 6.97D-03 at cycle   2 NSaved=   2.
 NSaved= 2 IEnMin= 2 EnMin= -1548.70878021784     IErMin= 2 ErrMin= 6.97D-03
 ErrMax= 6.97D-03  0.00D+00 EMaxC= 1.00D-01 BMatC= 2.45D-02 BMatP= 3.97D-01
 IDIUse=3 WtCom= 9.30D-01 WtEn= 6.97D-02
 Coeff-Com:  0.444D-01 0.956D+00
 Coeff-En:   0.106D+00 0.894D+00
 Coeff:      0.487D-01 0.951D+00
 Gap=     0.214 Goal=   None    Shift=    0.000
 RMSDP=1.20D-03 MaxDP=7.80D-02 DE=-1.89D-01 OVMax= 1.40D-01

 Cycle   3  Pass 1  IDiag  1:
 RMSU=  1.16D-03    CP:  9.75D-01  8.90D-01
 E= -1548.93386025384     Delta-E=       -0.225080036001 Rises=F Damp=F
 DIIS: error= 3.05D-03 at cycle   3 NSaved=   3.
 NSaved= 3 IEnMin= 3 EnMin= -1548.93386025384     IErMin= 3 ErrMin= 3.05D-03
 ErrMax= 3.05D-03  0.00D+00 EMaxC= 1.00D-01 BMatC= 7.59D-03 BMatP= 2.45D-02
 IDIUse=3 WtCom= 9.70D-01 WtEn= 3.05D-02
 Coeff-Com: -0.316D-01 0.320D+00 0.712D+00
 Coeff-En:   0.000D+00 0.000D+00 0.100D+01
 Coeff:     -0.307D-01 0.310D+00 0.720D+00
 Gap=     0.181 Goal=   None    Shift=    0.000
 RMSDP=5.27D-04 MaxDP=3.76D-02 DE=-2.25D-01 OVMax= 4.06D-02

 Cycle   4  Pass 1  IDiag  1:
 RMSU=  4.49D-04    CP:  9.77D-01  9.52D-01  7.99D-01
 E= -1548.93826944052     Delta-E=       -0.004409186676 Rises=F Damp=F
 DIIS: error= 2.06D-03 at cycle   4 NSaved=   4.
 NSaved= 4 IEnMin= 4 EnMin= -1548.93826944052     IErMin= 4 ErrMin= 2.06D-03
 ErrMax= 2.06D-03  0.00D+00 EMaxC= 1.00D-01 BMatC= 3.74D-03 BMatP= 7.59D-03
 IDIUse=3 WtCom= 9.79D-01 WtEn= 2.06D-02
 Coeff-Com: -0.215D-01 0.853D-01 0.440D+00 0.496D+00
 Coeff-En:   0.000D+00 0.000D+00 0.330D+00 0.670D+00
 Coeff:     -0.210D-01 0.836D-01 0.438D+00 0.499D+00
 Gap=     0.174 Goal=   None    Shift=    0.000
 RMSDP=2.58D-04 MaxDP=1.02D-02 DE=-4.41D-03 OVMax= 1.75D-02

 Cycle   5  Pass 1  IDiag  1:
 RMSU=  1.39D-04    CP:  9.76D-01  9.56D-01  8.45D-01  5.31D-01
 E= -1548.94201444613     Delta-E=       -0.003745005609 Rises=F Damp=F
 DIIS: error= 3.97D-04 at cycle   5 NSaved=   5.
 NSaved= 5 IEnMin= 5 EnMin= -1548.94201444613     IErMin= 5 ErrMin= 3.97D-04
 ErrMax= 3.97D-04  0.00D+00 EMaxC= 1.00D-01 BMatC= 1.90D-04 BMatP= 3.74D-03
 IDIUse=3 WtCom= 9.96D-01 WtEn= 3.97D-03
 Coeff-Com: -0.781D-02 0.190D-01 0.169D+00 0.258D+00 0.561D+00
 Coeff-En:   0.000D+00 0.000D+00 0.000D+00 0.000D+00 0.100D+01
 Coeff:     -0.777D-02 0.189D-01 0.168D+00 0.257D+00 0.563D+00
 Gap=     0.174 Goal=   None    Shift=    0.000
 RMSDP=6.59D-05 MaxDP=5.86D-03 DE=-3.75D-03 OVMax= 4.62D-03

 Cycle   6  Pass 1  IDiag  1:
 RMSU=  3.29D-05    CP:  9.76D-01  9.51D-01  8.63D-01  5.74D-01  6.56D-01
 E= -1548.94221235353     Delta-E=       -0.000197907409 Rises=F Damp=F
 DIIS: error= 1.04D-04 at cycle   6 NSaved=   6.
 NSaved= 6 IEnMin= 6 EnMin= -1548.94221235353     IErMin= 6 ErrMin= 1.04D-04
 ErrMax= 1.04D-04  0.00D+00 EMaxC= 1.00D-01 BMatC= 1.31D-05 BMatP= 1.90D-04
 IDIUse=3 WtCom= 9.99D-01 WtEn= 1.04D-03
 Coeff-Com: -0.253D-02 0.351D-02 0.574D-01 0.972D-01 0.285D+00 0.559D+00
 Coeff-En:   0.000D+00 0.000D+00 0.000D+00 0.000D+00 0.000D+00 0.100D+01
 Coeff:     -0.252D-02 0.350D-02 0.573D-01 0.971D-01 0.285D+00 0.560D+00
 Gap=     0.174 Goal=   None    Shift=    0.000
 RMSDP=1.40D-05 MaxDP=6.54D-04 DE=-1.98D-04 OVMax= 1.17D-03

 Cycle   7  Pass 1  IDiag  1:
 RMSU=  9.66D-06    CP:  9.76D-01  9.51D-01  8.64D-01  5.74D-01  6.95D-01
                    CP:  7.50D-01
 E= -1548.94222446220     Delta-E=       -0.000012108662 Rises=F Damp=F
 DIIS: error= 3.71D-05 at cycle   7 NSaved=   7.
 NSaved= 7 IEnMin= 7 EnMin= -1548.94222446220     IErMin= 7 ErrMin= 3.71D-05
 ErrMax= 3.71D-05  0.00D+00 EMaxC= 1.00D-01 BMatC= 1.35D-06 BMatP= 1.31D-05
 IDIUse=1 WtCom= 1.00D+00 WtEn= 0.00D+00
 Coeff-Com: -0.733D-03 0.362D-03 0.177D-01 0.307D-01 0.106D+00 0.302D+00
 Coeff-Com:  0.543D+00
 Coeff:     -0.733D-03 0.362D-03 0.177D-01 0.307D-01 0.106D+00 0.302D+00
 Coeff:      0.543D+00
 Gap=     0.175 Goal=   None    Shift=    0.000
 RMSDP=5.58D-06 MaxDP=2.80D-04 DE=-1.21D-05 OVMax= 4.79D-04

 Cycle   8  Pass 1  IDiag  1:
 RMSU=  3.89D-06    CP:  9.76D-01  9.51D-01  8.64D-01  5.78D-01  6.98D-01
                    CP:  7.67D-01  6.29D-01
 E= -1548.94222574590     Delta-E=       -0.000001283699 Rises=F Damp=F
 DIIS: error= 1.44D-05 at cycle   8 NSaved=   8.
 NSaved= 8 IEnMin= 8 EnMin= -1548.94222574590     IErMin= 8 ErrMin= 1.44D-05
 ErrMax= 1.44D-05  0.00D+00 EMaxC= 1.00D-01 BMatC= 1.97D-07 BMatP= 1.35D-06
 IDIUse=1 WtCom= 1.00D+00 WtEn= 0.00D+00
 Coeff-Com: -0.170D-04-0.414D-03 0.158D-02 0.237D-02 0.174D-01 0.856D-01
 Coeff-Com:  0.307D+00 0.586D+00
 Coeff:     -0.170D-04-0.414D-03 0.158D-02 0.237D-02 0.174D-01 0.856D-01
 Coeff:      0.307D+00 0.586D+00
 Gap=     0.174 Goal=   None    Shift=    0.000
 RMSDP=2.19D-06 MaxDP=8.56D-05 DE=-1.28D-06 OVMax= 1.72D-04

 Cycle   9  Pass 1  IDiag  1:
 RMSU=  1.31D-06    CP:  9.76D-01  9.51D-01  8.65D-01  5.77D-01  7.01D-01
                    CP:  7.82D-01  7.33D-01  6.80D-01
 E= -1548.94222594421     Delta-E=       -0.000000198312 Rises=F Damp=F
 DIIS: error= 4.46D-06 at cycle   9 NSaved=   9.
 NSaved= 9 IEnMin= 9 EnMin= -1548.94222594421     IErMin= 9 ErrMin= 4.46D-06
 ErrMax= 4.46D-06  0.00D+00 EMaxC= 1.00D-01 BMatC= 2.47D-08 BMatP= 1.97D-07
 IDIUse=1 WtCom= 1.00D+00 WtEn= 0.00D+00
 Coeff-Com:  0.107D-03-0.296D-03-0.161D-02-0.336D-02-0.539D-02 0.484D-02
 Coeff-Com:  0.964D-01 0.320D+00 0.589D+00
 Coeff:      0.107D-03-0.296D-03-0.161D-02-0.336D-02-0.539D-02 0.484D-02
 Coeff:      0.964D-01 0.320D+00 0.589D+00
 Gap=     0.174 Goal=   None    Shift=    0.000
 RMSDP=6.77D-07 MaxDP=3.83D-05 DE=-1.98D-07 OVMax= 5.35D-05

 Cycle  10  Pass 1  IDiag  1:
 RMSU=  3.89D-07    CP:  9.76D-01  9.51D-01  8.65D-01  5.77D-01  7.01D-01
                    CP:  7.87D-01  7.39D-01  7.69D-01  7.63D-01
 E= -1548.94222596945     Delta-E=       -0.000000025243 Rises=F Damp=F
 DIIS: error= 1.04D-06 at cycle  10 NSaved=  10.
 NSaved=10 IEnMin=10 EnMin= -1548.94222596945     IErMin=10 ErrMin= 1.04D-06
 ErrMax= 1.04D-06  0.00D+00 EMaxC= 1.00D-01 BMatC= 1.51D-09 BMatP= 2.47D-08
 IDIUse=1 WtCom= 1.00D+00 WtEn= 0.00D+00
 Coeff-Com:  0.516D-04-0.110D-03-0.808D-03-0.174D-02-0.345D-02-0.364D-02
 Coeff-Com:  0.234D-01 0.109D+00 0.284D+00 0.594D+00
 Coeff:      0.516D-04-0.110D-03-0.808D-03-0.174D-02-0.345D-02-0.364D-02
 Coeff:      0.234D-01 0.109D+00 0.284D+00 0.594D+00
 Gap=     0.174 Goal=   None    Shift=    0.000
 RMSDP=1.78D-07 MaxDP=8.96D-06 DE=-2.52D-08 OVMax= 1.13D-05

 Cycle  11  Pass 1  IDiag  1:
 RMSU=  1.28D-07    CP:  9.76D-01  9.51D-01  8.65D-01  5.77D-01  7.02D-01
                    CP:  7.89D-01  7.43D-01  7.72D-01  7.88D-01  7.53D-01
 E= -1548.94222597091     Delta-E=       -0.000000001457 Rises=F Damp=F
 DIIS: error= 3.93D-07 at cycle  11 NSaved=  11.
 NSaved=11 IEnMin=11 EnMin= -1548.94222597091     IErMin=11 ErrMin= 3.93D-07
 ErrMax= 3.93D-07  0.00D+00 EMaxC= 1.00D-01 BMatC= 1.70D-10 BMatP= 1.51D-09
 IDIUse=1 WtCom= 1.00D+00 WtEn= 0.00D+00
 Coeff-Com:  0.122D-04-0.158D-04-0.180D-03-0.437D-03-0.906D-03-0.233D-02
 Coeff-Com: -0.771D-03 0.126D-01 0.677D-01 0.290D+00 0.634D+00
 Coeff:      0.122D-04-0.158D-04-0.180D-03-0.437D-03-0.906D-03-0.233D-02
 Coeff:     -0.771D-03 0.126D-01 0.677D-01 0.290D+00 0.634D+00
 Gap=     0.174 Goal=   None    Shift=    0.000
 RMSDP=6.38D-08 MaxDP=2.01D-06 DE=-1.46D-09 OVMax= 4.88D-06

 Cycle  12  Pass 1  IDiag  1:
 RMSU=  3.97D-08    CP:  9.76D-01  9.51D-01  8.65D-01  5.77D-01  7.02D-01
                    CP:  7.88D-01  7.44D-01  7.77D-01  8.02D-01  8.18D-01
                    CP:  7.81D-01
 E= -1548.94222597110     Delta-E=       -0.000000000192 Rises=F Damp=F
 DIIS: error= 9.91D-08 at cycle  12 NSaved=  12.
 NSaved=12 IEnMin=12 EnMin= -1548.94222597110     IErMin=12 ErrMin= 9.91D-08
 ErrMax= 9.91D-08  0.00D+00 EMaxC= 1.00D-01 BMatC= 1.39D-11 BMatP= 1.70D-10
 IDIUse=1 WtCom= 1.00D+00 WtEn= 0.00D+00
 Coeff-Com:  0.594D-06 0.342D-05 0.261D-05-0.213D-04-0.314D-04-0.665D-03
 Coeff-Com: -0.280D-02-0.538D-02 0.236D-02 0.653D-01 0.276D+00 0.665D+00
 Coeff:      0.594D-06 0.342D-05 0.261D-05-0.213D-04-0.314D-04-0.665D-03
 Coeff:     -0.280D-02-0.538D-02 0.236D-02 0.653D-01 0.276D+00 0.665D+00
 Gap=     0.174 Goal=   None    Shift=    0.000
 RMSDP=1.97D-08 MaxDP=1.04D-06 DE=-1.92D-10 OVMax= 1.76D-06

 Cycle  13  Pass 1  IDiag  1:
 RMSU=  1.28D-08    CP:  9.76D-01  9.51D-01  8.65D-01  5.77D-01  7.02D-01
                    CP:  7.88D-01  7.44D-01  7.77D-01  8.07D-01  8.33D-01
                    CP:  8.35D-01  8.21D-01
 E= -1548.94222597110     Delta-E=       -0.000000000003 Rises=F Damp=F
 DIIS: error= 4.96D-08 at cycle  13 NSaved=  13.
 NSaved=13 IEnMin=13 EnMin= -1548.94222597110     IErMin=13 ErrMin= 4.96D-08
 ErrMax= 4.96D-08  0.00D+00 EMaxC= 1.00D-01 BMatC= 1.62D-12 BMatP= 1.39D-11
 IDIUse=1 WtCom= 1.00D+00 WtEn= 0.00D+00
 Coeff-Com: -0.986D-06 0.319D-05 0.214D-04 0.382D-04 0.880D-04-0.570D-04
 Coeff-Com: -0.131D-02-0.403D-02-0.667D-02-0.221D-02 0.594D-01 0.307D+00
 Coeff-Com:  0.648D+00
 Coeff:     -0.986D-06 0.319D-05 0.214D-04 0.382D-04 0.880D-04-0.570D-04
 Coeff:     -0.131D-02-0.403D-02-0.667D-02-0.221D-02 0.594D-01 0.307D+00
 Coeff:      0.648D+00
 Gap=     0.174 Goal=   None    Shift=    0.000
 RMSDP=6.65D-09 MaxDP=2.19D-07 DE=-2.73D-12 OVMax= 5.59D-07

 Error on total polarization charges =  0.01835
 SCF Done:  E(RB3LYP) =  -1548.94222597     A.U. after   13 cycles
            NFock= 13  Conv=0.66D-08     -V/T= 2.0058
 KE= 1.540081147216D+03 PE=-6.944214939164D+03 EE= 2.194199347853D+03
 Leave Link  502 at Sun Jul 18 13:50:38 2021, MaxMem=   104857600 cpu:             309.2 elap:              77.5
 (Enter /prod/apps/gaussian/g16b1/l601.exe)
 Copying SCF densities to generalized density rwf, IOpCl= 0 IROHF=0.

 **********************************************************************

            Population analysis using the SCF Density.

 **********************************************************************

 Orbital symmetries:
       Occupied  (A) (A) (A) (A) (A) (A) (A) (A) (A) (A) (A) (A)
                 (A) (A) (A) (A) (A) (A) (A) (A) (A) (A) (A) (A)
                 (A) (A) (A) (A) (A) (A) (A) (A) (A) (A) (A) (A)
                 (A) (A) (A) (A) (A) (A) (A) (A) (A) (A) (A) (A)
                 (A) (A) (A) (A) (A) (A) (A) (A) (A) (A) (A) (A)
                 (A) (A) (A) (A) (A) (A) (A) (A) (A) (A) (A) (A)
                 (A) (A) (A) (A)
       Virtual   (A) (A) (A) (A) (A) (A) (A) (A) (A) (A) (A) (A)
                 (A) (A) (A) (A) (A) (A) (A) (A) (A) (A) (A) (A)
                 (A) (A) (A) (A) (A) (A) (A) (A) (A) (A) (A) (A)
                 (A) (A) (A) (A) (A) (A) (A) (A) (A) (A) (A) (A)
                 (A) (A) (A) (A) (A) (A) (A) (A) (A) (A) (A) (A)
                 (A) (A) (A) (A) (A) (A) (A) (A) (A) (A) (A) (A)
                 (A) (A) (A) (A) (A) (A) (A) (A) (A) (A) (A) (A)
                 (A) (A) (A) (A) (A) (A) (A) (A) (A) (A) (A) (A)
                 (A) (A) (A) (A) (A) (A) (A) (A) (A) (A) (A) (A)
                 (A) (A) (A) (A) (A) (A) (A) (A) (A) (A) (A) (A)
                 (A) (A) (A) (A) (A) (A) (A) (A) (A) (A) (A) (A)
                 (A) (A) (A) (A) (A) (A) (A) (A) (A) (A) (A) (A)
                 (A) (A) (A) (A) (A) (A) (A) (A) (A) (A) (A) (A)
                 (A) (A) (A) (A) (A) (A) (A) (A) (A) (A) (A) (A)
                 (A) (A) (A) (A) (A) (A) (A) (A) (A) (A) (A) (A)
                 (A) (A) (A) (A) (A) (A) (A) (A) (A) (A) (A) (A)
                 (A) (A) (A) (A) (A) (A) (A) (A) (A) (A) (A) (A)
                 (A) (A) (A) (A) (A) (A) (A) (A) (A) (A) (A) (A)
                 (A) (A) (A) (A) (A) (A) (A) (A) (A) (A) (A) (A)
                 (A) (A) (A) (A) (A) (A) (A) (A) (A) (A) (A) (A)
                 (A) (A) (A) (A) (A) (A) (A) (A) (A)
 The electronic state is 1-A.
 Alpha  occ. eigenvalues -- -101.55635 -88.90508 -14.44627 -14.34626 -10.26118
 Alpha  occ. eigenvalues --  -10.24335 -10.23682 -10.23144 -10.22997 -10.22960
 Alpha  occ. eigenvalues --  -10.22721 -10.20827 -10.20748 -10.20365 -10.20282
 Alpha  occ. eigenvalues --  -10.19565 -10.19497 -10.19411 -10.19231  -9.47426
 Alpha  occ. eigenvalues --   -7.96380  -7.23780  -7.22869  -7.22808  -5.92884
 Alpha  occ. eigenvalues --   -5.92575  -5.91867  -1.02478  -0.98881  -0.90528
 Alpha  occ. eigenvalues --   -0.86327  -0.85012  -0.80761  -0.79542  -0.77203
 Alpha  occ. eigenvalues --   -0.74312  -0.73944  -0.70715  -0.67742  -0.64383
 Alpha  occ. eigenvalues --   -0.63596  -0.61062  -0.60442  -0.60349  -0.57672
 Alpha  occ. eigenvalues --   -0.56664  -0.54350  -0.52370  -0.49971  -0.49266
 Alpha  occ. eigenvalues --   -0.48520  -0.47816  -0.46864  -0.46325  -0.44643
 Alpha  occ. eigenvalues --   -0.44049  -0.42722  -0.40986  -0.40786  -0.40537
 Alpha  occ. eigenvalues --   -0.40108  -0.38769  -0.38417  -0.37641  -0.36505
 Alpha  occ. eigenvalues --   -0.35900  -0.35567  -0.35239  -0.33314  -0.31622
 Alpha  occ. eigenvalues --   -0.29596  -0.28944  -0.26231  -0.24994  -0.22740
 Alpha  occ. eigenvalues --   -0.20064
 Alpha virt. eigenvalues --   -0.02617  -0.02327  -0.01120  -0.00630   0.01340
 Alpha virt. eigenvalues --    0.04932   0.05323   0.06913   0.09862   0.10132
 Alpha virt. eigenvalues --    0.10661   0.11675   0.12269   0.13235   0.13404
 Alpha virt. eigenvalues --    0.14210   0.14653   0.15582   0.15692   0.16321
 Alpha virt. eigenvalues --    0.17452   0.18141   0.18483   0.18715   0.19170
 Alpha virt. eigenvalues --    0.20245   0.22045   0.22889   0.23739   0.24157
 Alpha virt. eigenvalues --    0.25916   0.27161   0.27421   0.28841   0.30552
 Alpha virt. eigenvalues --    0.31531   0.32038   0.32126   0.35577   0.36640
 Alpha virt. eigenvalues --    0.36876   0.38878   0.39968   0.40354   0.41588
 Alpha virt. eigenvalues --    0.43293   0.44702   0.47235   0.48072   0.49041
 Alpha virt. eigenvalues --    0.50057   0.51039   0.51727   0.53198   0.53780
 Alpha virt. eigenvalues --    0.54313   0.54413   0.54993   0.55867   0.57331
 Alpha virt. eigenvalues --    0.58160   0.58523   0.58963   0.59245   0.59864
 Alpha virt. eigenvalues --    0.60063   0.60972   0.61657   0.61766   0.62364
 Alpha virt. eigenvalues --    0.62859   0.63503   0.64565   0.65292   0.65622
 Alpha virt. eigenvalues --    0.65863   0.68899   0.69998   0.71456   0.72178
 Alpha virt. eigenvalues --    0.74349   0.75246   0.76428   0.76612   0.79217
 Alpha virt. eigenvalues --    0.80578   0.81640   0.81907   0.82796   0.83069
 Alpha virt. eigenvalues --    0.83694   0.84291   0.84709   0.85034   0.85498
 Alpha virt. eigenvalues --    0.85912   0.86110   0.86887   0.87875   0.88633
 Alpha virt. eigenvalues --    0.89407   0.90126   0.90418   0.90843   0.91141
 Alpha virt. eigenvalues --    0.91893   0.92202   0.93395   0.94707   0.95268
 Alpha virt. eigenvalues --    0.95966   0.96644   0.97881   0.98341   1.00648
 Alpha virt. eigenvalues --    1.01177   1.01824   1.02193   1.03148   1.06110
 Alpha virt. eigenvalues --    1.08380   1.09147   1.11330   1.11809   1.12966
 Alpha virt. eigenvalues --    1.13723   1.18012   1.18605   1.20827   1.21953
 Alpha virt. eigenvalues --    1.24744   1.24830   1.26467   1.30052   1.31651
 Alpha virt. eigenvalues --    1.33047   1.34985   1.36885   1.37033   1.40715
 Alpha virt. eigenvalues --    1.40977   1.42436   1.45676   1.46175   1.47391
 Alpha virt. eigenvalues --    1.48768   1.50140   1.51216   1.53219   1.55702
 Alpha virt. eigenvalues --    1.56883   1.57956   1.59389   1.61560   1.65075
 Alpha virt. eigenvalues --    1.68141   1.73794   1.75650   1.76129   1.79076
 Alpha virt. eigenvalues --    1.79986   1.80493   1.83627   1.84538   1.86569
 Alpha virt. eigenvalues --    1.88715   1.89841   1.90985   1.91390   1.94441
 Alpha virt. eigenvalues --    1.95379   1.96204   1.97519   1.98409   2.00305
 Alpha virt. eigenvalues --    2.01514   2.02442   2.05547   2.06198   2.06891
 Alpha virt. eigenvalues --    2.08357   2.08839   2.10448   2.11380   2.12394
 Alpha virt. eigenvalues --    2.15130   2.15445   2.16069   2.19166   2.21043
 Alpha virt. eigenvalues --    2.23058   2.23442   2.25457   2.27838   2.29718
 Alpha virt. eigenvalues --    2.30687   2.31441   2.33094   2.35415   2.38176
 Alpha virt. eigenvalues --    2.40139   2.42974   2.45641   2.47476   2.49130
 Alpha virt. eigenvalues --    2.52088   2.54702   2.56553   2.58435   2.59477
 Alpha virt. eigenvalues --    2.61139   2.63217   2.65193   2.65667   2.68919
 Alpha virt. eigenvalues --    2.70333   2.71642   2.73526   2.75912   2.76116
 Alpha virt. eigenvalues --    2.78179   2.82723   2.84600   2.87804   2.95758
 Alpha virt. eigenvalues --    2.98971   3.14269   3.18090   3.31923   3.37888
 Alpha virt. eigenvalues --    3.78803   3.94254   4.03509   4.08506   4.10672
 Alpha virt. eigenvalues --    4.11370   4.12102   4.16616   4.20116   4.25512
 Alpha virt. eigenvalues --    4.29867   4.33815   4.35437   4.38257   4.40134
 Alpha virt. eigenvalues --    4.42163   4.54566   4.69135   4.71304
          Condensed to atoms (all electrons):
               1          2          3          4          5          6
     1  N    6.682000   0.307020   0.302877   0.237478  -0.038255  -0.047143
     2  H    0.307020   0.269751  -0.010393  -0.019273  -0.002171  -0.003780
     3  H    0.302877  -0.010393   0.278994  -0.021037  -0.003913   0.005157
     4  C    0.237478  -0.019273  -0.021037   5.023886   0.387047   0.391045
     5  H   -0.038255  -0.002171  -0.003913   0.387047   0.496678  -0.022631
     6  H   -0.047143  -0.003780   0.005157   0.391045  -0.022631   0.514749
     7  C   -0.051993   0.004113  -0.002334   0.348369  -0.037102  -0.040714
     8  H   -0.002325  -0.000099  -0.000514  -0.040128   0.005158  -0.007296
     9  H   -0.001745  -0.000073   0.004907  -0.047279  -0.004199   0.005578
    10  C    0.002793  -0.000090  -0.000055  -0.034705  -0.002517  -0.002217
    11  H   -0.000078   0.000008   0.000003  -0.002936   0.005341  -0.000309
    12  H   -0.000032   0.000007   0.000011  -0.002845  -0.000302   0.004079
    13  N   -0.000073   0.000001   0.000000   0.004728   0.000021  -0.000003
    14  C    0.000001  -0.000000   0.000000  -0.000232   0.000011   0.000008
    15  C    0.000000  -0.000000  -0.000000  -0.000005   0.000000  -0.000004
    16  H   -0.000000   0.000000   0.000000  -0.000003   0.000000  -0.000000
    17  C    0.000000  -0.000000  -0.000000  -0.000000  -0.000000  -0.000000
    18  Cl  -0.000000   0.000000   0.000000   0.000000   0.000000   0.000000
    19  C   -0.000000   0.000000  -0.000000   0.000000   0.000000   0.000000
    20  H   -0.000000   0.000000   0.000000   0.000000   0.000000   0.000000
    21  C   -0.000000   0.000000   0.000000   0.000002  -0.000000   0.000000
    22  H    0.000000  -0.000000  -0.000000  -0.000000  -0.000000  -0.000000
    23  C    0.000002  -0.000000   0.000000  -0.000039  -0.000002   0.000001
    24  S   -0.000021   0.000001   0.000002   0.000460  -0.000006  -0.000000
    25  C    0.000002  -0.000000  -0.000002  -0.000007  -0.000000  -0.000002
    26  C    0.000002  -0.000000  -0.000002  -0.000246   0.000019   0.000009
    27  C    0.000001  -0.000000  -0.000000  -0.000037  -0.000005  -0.000000
    28  H    0.000000  -0.000000   0.000000  -0.000008  -0.000002   0.000000
    29  C    0.000000  -0.000000   0.000000  -0.000000  -0.000000  -0.000000
    30  H   -0.000000   0.000000  -0.000000   0.000000   0.000000  -0.000000
    31  C   -0.000000   0.000000   0.000000   0.000000   0.000000   0.000000
    32  H   -0.000000   0.000000  -0.000000   0.000000   0.000000   0.000000
    33  C   -0.000000   0.000000  -0.000000   0.000003   0.000000  -0.000000
    34  H    0.000000  -0.000000  -0.000000  -0.000000  -0.000000  -0.000000
    35  H    0.303835  -0.010442  -0.011465  -0.021387   0.004382  -0.003942
               7          8          9         10         11         12
     1  N   -0.051993  -0.002325  -0.001745   0.002793  -0.000078  -0.000032
     2  H    0.004113  -0.000099  -0.000073  -0.000090   0.000008   0.000007
     3  H   -0.002334  -0.000514   0.004907  -0.000055   0.000003   0.000011
     4  C    0.348369  -0.040128  -0.047279  -0.034705  -0.002936  -0.002845
     5  H   -0.037102   0.005158  -0.004199  -0.002517   0.005341  -0.000302
     6  H   -0.040714  -0.007296   0.005578  -0.002217  -0.000309   0.004079
     7  C    5.108571   0.376473   0.381554   0.362914  -0.055948  -0.044185
     8  H    0.376473   0.546045  -0.033171  -0.031043   0.005051  -0.004847
     9  H    0.381554  -0.033171   0.543244  -0.026881  -0.004289   0.004359
    10  C    0.362914  -0.031043  -0.026881   4.905204   0.377531   0.378011
    11  H   -0.055948   0.005051  -0.004289   0.377531   0.559526  -0.025578
    12  H   -0.044185  -0.004847   0.004359   0.378011  -0.025578   0.537910
    13  N   -0.071854  -0.002201  -0.005657   0.312979  -0.035924  -0.035997
    14  C   -0.000579   0.004535  -0.000303  -0.039816   0.003863   0.000886
    15  C   -0.000020   0.000199  -0.000013  -0.010256   0.000404   0.003260
    16  H    0.000103  -0.000002   0.000001   0.001735  -0.000291   0.000726
    17  C    0.000012  -0.000009   0.000000   0.000055  -0.000002  -0.000118
    18  Cl  -0.000000   0.000000  -0.000000  -0.000004   0.000000   0.000008
    19  C   -0.000000  -0.000004   0.000000   0.000010   0.000000  -0.000001
    20  H   -0.000000   0.000000  -0.000000   0.000000   0.000000  -0.000000
    21  C   -0.000089  -0.000017  -0.000001  -0.000193   0.000008  -0.000013
    22  H    0.000001  -0.000004   0.000000   0.000002  -0.000000   0.000000
    23  C    0.000478   0.000369   0.000121   0.005391  -0.000382  -0.000225
    24  S   -0.000034   0.000683  -0.001126  -0.000492   0.000038  -0.000013
    25  C    0.000803  -0.000291   0.001511   0.003397  -0.000585  -0.000226
    26  C   -0.000280  -0.000520   0.006482  -0.038217  -0.003294   0.004106
    27  C   -0.000317   0.000030   0.000569  -0.007658   0.003953   0.000120
    28  H    0.000260  -0.000001   0.000020   0.001397   0.000997  -0.000166
    29  C    0.000013   0.000001  -0.000051   0.000147  -0.000179  -0.000000
    30  H   -0.000001  -0.000000  -0.000000  -0.000003   0.000007  -0.000000
    31  C    0.000010   0.000000  -0.000018  -0.000003   0.000011  -0.000000
    32  H    0.000000   0.000000   0.000000  -0.000000  -0.000000   0.000000
    33  C   -0.000103  -0.000002  -0.000068  -0.000144   0.000007   0.000005
    34  H   -0.000001   0.000000  -0.000001   0.000002  -0.000000  -0.000000
    35  H   -0.001861   0.005780  -0.000601  -0.000060   0.000017  -0.000001
              13         14         15         16         17         18
     1  N   -0.000073   0.000001   0.000000  -0.000000   0.000000  -0.000000
     2  H    0.000001  -0.000000  -0.000000   0.000000  -0.000000   0.000000
     3  H    0.000000   0.000000  -0.000000   0.000000  -0.000000   0.000000
     4  C    0.004728  -0.000232  -0.000005  -0.000003  -0.000000   0.000000
     5  H    0.000021   0.000011   0.000000   0.000000  -0.000000   0.000000
     6  H   -0.000003   0.000008  -0.000004  -0.000000  -0.000000   0.000000
     7  C   -0.071854  -0.000579  -0.000020   0.000103   0.000012  -0.000000
     8  H   -0.002201   0.004535   0.000199  -0.000002  -0.000009   0.000000
     9  H   -0.005657  -0.000303  -0.000013   0.000001   0.000000  -0.000000
    10  C    0.312979  -0.039816  -0.010256   0.001735   0.000055  -0.000004
    11  H   -0.035924   0.003863   0.000404  -0.000291  -0.000002   0.000000
    12  H   -0.035997   0.000886   0.003260   0.000726  -0.000118   0.000008
    13  N    7.122601   0.299838  -0.076525  -0.005149   0.006373  -0.000181
    14  C    0.299838   4.614573   0.504396  -0.031298   0.003889   0.004951
    15  C   -0.076525   0.504396   5.092907   0.357554   0.482027  -0.073432
    16  H   -0.005149  -0.031298   0.357554   0.538025  -0.045779  -0.001030
    17  C    0.006373   0.003889   0.482027  -0.045779   5.083149   0.208903
    18  Cl  -0.000181   0.004951  -0.073432  -0.001030   0.208903  16.940414
    19  C    0.000586  -0.030373  -0.039380   0.003685   0.483732  -0.072594
    20  H    0.000003   0.000195   0.002888  -0.000088  -0.041065   0.000760
    21  C    0.007347  -0.001398  -0.045733  -0.000308  -0.018797   0.006218
    22  H   -0.000213   0.003313   0.001093   0.000015   0.005829  -0.000283
    23  C   -0.093904   0.490336  -0.083137   0.006831  -0.040289   0.000758
    24  S    0.003500  -0.055898   0.005648  -0.000194   0.000202   0.000010
    25  C   -0.089230  -0.021159   0.000090   0.000004   0.000006   0.000000
    26  C    0.286291  -0.028973   0.003627   0.000013  -0.000157   0.000003
    27  C   -0.070994   0.004894   0.000151   0.000038  -0.000014   0.000000
    28  H   -0.005713   0.000146   0.000024   0.000063   0.000002  -0.000000
    29  C    0.006676  -0.000235  -0.000011   0.000001   0.000000  -0.000000
    30  H   -0.000162   0.000001   0.000000  -0.000000  -0.000000  -0.000000
    31  C    0.000458  -0.000027  -0.000002   0.000000   0.000000  -0.000000
    32  H    0.000002   0.000000  -0.000000  -0.000000  -0.000000   0.000000
    33  C    0.006930   0.000886   0.000019  -0.000000  -0.000001   0.000000
    34  H   -0.000181  -0.000007  -0.000000   0.000000   0.000000  -0.000000
    35  H   -0.000002  -0.000001   0.000000   0.000000   0.000000  -0.000000
              19         20         21         22         23         24
     1  N   -0.000000  -0.000000  -0.000000   0.000000   0.000002  -0.000021
     2  H    0.000000   0.000000   0.000000  -0.000000  -0.000000   0.000001
     3  H   -0.000000   0.000000   0.000000  -0.000000   0.000000   0.000002
     4  C    0.000000   0.000000   0.000002  -0.000000  -0.000039   0.000460
     5  H    0.000000   0.000000  -0.000000  -0.000000  -0.000002  -0.000006
     6  H    0.000000   0.000000   0.000000  -0.000000   0.000001  -0.000000
     7  C   -0.000000  -0.000000  -0.000089   0.000001   0.000478  -0.000034
     8  H   -0.000004   0.000000  -0.000017  -0.000004   0.000369   0.000683
     9  H    0.000000  -0.000000  -0.000001   0.000000   0.000121  -0.001126
    10  C    0.000010   0.000000  -0.000193   0.000002   0.005391  -0.000492
    11  H    0.000000   0.000000   0.000008  -0.000000  -0.000382   0.000038
    12  H   -0.000001  -0.000000  -0.000013   0.000000  -0.000225  -0.000013
    13  N    0.000586   0.000003   0.007347  -0.000213  -0.093904   0.003500
    14  C   -0.030373   0.000195  -0.001398   0.003313   0.490336  -0.055898
    15  C   -0.039380   0.002888  -0.045733   0.001093  -0.083137   0.005648
    16  H    0.003685  -0.000088  -0.000308   0.000015   0.006831  -0.000194
    17  C    0.483732  -0.041065  -0.018797   0.005829  -0.040289   0.000202
    18  Cl  -0.072594   0.000760   0.006218  -0.000283   0.000758   0.000010
    19  C    4.958811   0.369093   0.523996  -0.044122  -0.042170   0.003904
    20  H    0.369093   0.519373  -0.032204  -0.006764   0.003988  -0.000129
    21  C    0.523996  -0.032204   4.972063   0.353396   0.480594  -0.047878
    22  H   -0.044122  -0.006764   0.353396   0.568408  -0.036909  -0.001048
    23  C   -0.042170   0.003988   0.480594  -0.036909   5.200352   0.241141
    24  S    0.003904  -0.000129  -0.047878  -0.001048   0.241141  15.552039
    25  C   -0.000103   0.000000   0.000329   0.000016   0.004173   0.238053
    26  C   -0.000039   0.000000   0.000735  -0.000001  -0.019845  -0.056196
    27  C   -0.000001   0.000000   0.000009  -0.000000   0.000319   0.006066
    28  H    0.000000  -0.000000  -0.000000   0.000000  -0.000001  -0.000257
    29  C    0.000000  -0.000000  -0.000001   0.000000   0.000026   0.000105
    30  H   -0.000000   0.000000   0.000000  -0.000000   0.000000   0.000018
    31  C   -0.000000   0.000000   0.000001   0.000000  -0.000126   0.003699
    32  H    0.000000  -0.000000  -0.000000  -0.000000   0.000000  -0.000129
    33  C    0.000000  -0.000000  -0.000030  -0.000001   0.000980  -0.048977
    34  H    0.000000  -0.000000  -0.000003   0.000001   0.000043  -0.000247
[...]
 Leave Link  202 at Sun Jul 18 15:06:47 2021, MaxMem=   262144000 cpu:               0.1 elap:               0.0
 (Enter /prod/apps/gaussian/g16b1/l301.exe)
 Standard basis: Aug-CC-pVDZ (5D, 7F)
 Ernie: Thresh=  0.10000D-02 Tol=  0.10000D-05 Strict=F.
 Ernie:  54 primitive shells out of 643 were deleted.
 There are   627 symmetry adapted cartesian basis functions of A   symmetry.
 There are   589 symmetry adapted basis functions of A   symmetry.
   589 basis functions,  1069 primitive gaussians,   627 cartesian basis functions
    76 alpha electrons       76 beta electrons
       nuclear repulsion energy      1630.8561397593 Hartrees.
 IExCor=    0 DFT=F Ex=HF Corr=None ExCW=0 ScaHFX=  1.000000
 ScaDFX=  1.000000  1.000000  1.000000  1.000000 ScalE2=  1.000000  1.000000
 IRadAn=      5 IRanWt=     -1 IRanGd=            0 ICorTp=0 IEmpDi=  4
 NAtoms=   35 NActive=   35 NUniq=   35 SFac= 1.00D+00 NAtFMM=   60 NAOKFM=F Big=F
 Integral buffers will be    131072 words long.
 Raffenetti 1 integral format.
 Two-electron integral symmetry is turned on.
 Leave Link  301 at Sun Jul 18 15:06:47 2021, MaxMem=   262144000 cpu:               0.2 elap:               0.1
 (Enter /prod/apps/gaussian/g16b1/l302.exe)
 NPDir=0 NMtPBC=     1 NCelOv=     1 NCel=       1 NClECP=     1 NCelD=      1
         NCelK=      1 NCelE2=     1 NClLst=     1 CellRange=     0.0.
 One-electron integrals computed using PRISM.
 One-electron integral symmetry used in STVInt
 NBasis=   589 RedAO= T EigKep=  1.32D-06  NBF=   589
 NBsUse=   588 1.00D-06 EigRej=  7.30D-07 NBFU=   588
 Leave Link  302 at Sun Jul 18 15:06:48 2021, MaxMem=   262144000 cpu:               1.8 elap:               0.5
 (Enter /prod/apps/gaussian/g16b1/l303.exe)
 DipDrv:  MaxL=1.
 Leave Link  303 at Sun Jul 18 15:06:48 2021, MaxMem=   262144000 cpu:               0.4 elap:               0.1
 (Enter /prod/apps/gaussian/g16b1/l401.exe)
 ExpMin= 2.97D-02 ExpMax= 1.28D+05 ExpMxC= 1.24D+03 IAcc=3 IRadAn=         5 AccDes= 0.00D+00
 Harris functional with IExCor=  205 and IRadAn=       5 diagonalized for initial guess.
 HarFok:  IExCor=  205 AccDes= 0.00D+00 IRadAn=         5 IDoV= 1 UseB2=F ITyADJ=14
 ICtDFT=  3500011 ScaDFX=  1.000000  1.000000  1.000000  1.000000
 FoFCou: FMM=F IPFlag=           0 FMFlag=      100000 FMFlg1=           0
         NFxFlg=           0 DoJE=T BraDBF=F KetDBF=T FulRan=T
         wScrn=  0.000000 ICntrl=       500 IOpCl=  0 I1Cent=   200000004 NGrid=           0
         NMat0=    1 NMatS0=      1 NMatT0=    0 NMatD0=    1 NMtDS0=    0 NMtDT0=    0
 Petite list used in FoFCou.
 Harris En= -1543.28445136682    
 JPrj=0 DoOrth=F DoCkMO=F.
 Leave Link  401 at Sun Jul 18 15:06:53 2021, MaxMem=   262144000 cpu:              17.9 elap:               4.8
 (Enter /prod/apps/gaussian/g16b1/l502.exe)
 Integral symmetry usage will be decided dynamically.
 Closed shell SCF:
 Using DIIS extrapolation, IDIIS=  1040.
 NGot=   262144000 LenX=   261348123 LenY=   260954367
 Requested convergence on RMS density matrix=1.00D-08 within 128 cycles.
 Requested convergence on MAX density matrix=1.00D-06.
 Requested convergence on             energy=1.00D-06.
 No special actions if energy rises.
 Fock matrices will be formed incrementally for  20 cycles.

 Cycle   1  Pass 1  IDiag  1:
 FoFJK:  IHMeth= 1 ICntrl=       0 DoSepK=F KAlg= 0 I1Cent=           0 FoldK=F
 IRaf= 930000000 NMat=       1 IRICut=       1 DoRegI=T DoRafI=F ISym2E= 0 IDoP0=0 IntGTp=1.
 FoFCou: FMM=F IPFlag=           0 FMFlag=      100000 FMFlg1=           0
         NFxFlg=           0 DoJE=F BraDBF=F KetDBF=F FulRan=T
         wScrn=  0.000000 ICntrl=         0 IOpCl=  0 I1Cent=           0 NGrid=           0
         NMat0=    1 NMatS0=      1 NMatT0=    0 NMatD0=    1 NMtDS0=    0 NMtDT0=    0
 Symmetry not used in FoFCou.
 E= -1542.39326873198    
 DIIS: error= 1.71D-02 at cycle   1 NSaved=   1.
 NSaved= 1 IEnMin= 1 EnMin= -1542.39326873198     IErMin= 1 ErrMin= 1.71D-02
 ErrMax= 1.71D-02  0.00D+00 EMaxC= 1.00D-01 BMatC= 9.03D-01 BMatP= 9.03D-01
 IDIUse=3 WtCom= 8.29D-01 WtEn= 1.71D-01
 Coeff-Com:  0.100D+01
 Coeff-En:   0.100D+01
 Coeff:      0.100D+01
 Gap=     0.507 Goal=   None    Shift=    0.000
 GapD=    0.507 DampG=2.000 DampE=0.500 DampFc=1.0000 IDamp=-1.
 RMSDP=5.35D-02 MaxDP=3.31D+00              OVMax= 1.95D-01

 Cycle   2  Pass 1  IDiag  1:
 RMSU=  2.75D-02    CP:  5.46D-01
 E= -1542.95895516665     Delta-E=       -0.565686434674 Rises=F Damp=F
 DIIS: error= 1.64D-02 at cycle   2 NSaved=   2.
 NSaved= 2 IEnMin= 2 EnMin= -1542.95895516665     IErMin= 2 ErrMin= 1.64D-02
 ErrMax= 1.64D-02  0.00D+00 EMaxC= 1.00D-01 BMatC= 1.53D-01 BMatP= 9.03D-01
 IDIUse=3 WtCom= 8.36D-01 WtEn= 1.64D-01
 Coeff-Com:  0.234D+00 0.766D+00
 Coeff-En:   0.000D+00 0.100D+01
 Coeff:      0.196D+00 0.804D+00
 Gap=     0.278 Goal=   None    Shift=    0.000
 RMSDP=6.78D-03 MaxDP=3.45D-01 DE=-5.66D-01 OVMax= 7.09D-02

 Cycle   3  Pass 1  IDiag  1:
 RMSU=  6.39D-03    CP:  5.40D-01  9.22D-01
 E= -1543.10094144128     Delta-E=       -0.141986274628 Rises=F Damp=F
 DIIS: error= 3.06D-03 at cycle   3 NSaved=   3.
 NSaved= 3 IEnMin= 3 EnMin= -1543.10094144128     IErMin= 3 ErrMin= 3.06D-03
 ErrMax= 3.06D-03  0.00D+00 EMaxC= 1.00D-01 BMatC= 1.66D-02 BMatP= 1.53D-01
 IDIUse=3 WtCom= 9.69D-01 WtEn= 3.06D-02
 Coeff-Com: -0.195D-01 0.211D+00 0.808D+00
 Coeff-En:   0.000D+00 0.000D+00 0.100D+01
 Coeff:     -0.189D-01 0.205D+00 0.814D+00
 Gap=     0.260 Goal=   None    Shift=    0.000
 RMSDP=2.11D-03 MaxDP=1.33D-01 DE=-1.42D-01 OVMax= 4.55D-02

 Cycle   4  Pass 1  IDiag  1:
 RMSU=  1.48D-03    CP:  5.32D-01  9.51D-01  8.45D-01
 E= -1543.11849821841     Delta-E=       -0.017556777135 Rises=F Damp=F
 DIIS: error= 9.57D-04 at cycle   4 NSaved=   4.
 NSaved= 4 IEnMin= 4 EnMin= -1543.11849821841     IErMin= 4 ErrMin= 9.57D-04
 ErrMax= 9.57D-04  0.00D+00 EMaxC= 1.00D-01 BMatC= 1.49D-03 BMatP= 1.66D-02
 IDIUse=3 WtCom= 9.90D-01 WtEn= 9.57D-03
 Coeff-Com: -0.168D-01 0.358D-01 0.290D+00 0.691D+00
 Coeff-En:   0.000D+00 0.000D+00 0.000D+00 0.100D+01
 Coeff:     -0.166D-01 0.355D-01 0.287D+00 0.694D+00
 Gap=     0.251 Goal=   None    Shift=    0.000
 RMSDP=5.31D-04 MaxDP=4.29D-02 DE=-1.76D-02 OVMax= 9.10D-03

 Cycle   5  Pass 1  IDiag  1:
 RMSU=  4.56D-04    CP:  5.29D-01  9.51D-01  8.60D-01  9.67D-01
 E= -1543.12014890478     Delta-E=       -0.001650686363 Rises=F Damp=F
 DIIS: error= 2.74D-04 at cycle   5 NSaved=   5.
 NSaved= 5 IEnMin= 5 EnMin= -1543.12014890478     IErMin= 5 ErrMin= 2.74D-04
 ErrMax= 2.74D-04  0.00D+00 EMaxC= 1.00D-01 BMatC= 1.04D-04 BMatP= 1.49D-03
 IDIUse=3 WtCom= 9.97D-01 WtEn= 2.74D-03
 Coeff-Com: -0.221D-03-0.215D-01-0.500D-01 0.102D+00 0.970D+00
 Coeff-En:   0.000D+00 0.000D+00 0.000D+00 0.000D+00 0.100D+01
 Coeff:     -0.220D-03-0.214D-01-0.499D-01 0.101D+00 0.970D+00
 Gap=     0.253 Goal=   None    Shift=    0.000
 RMSDP=2.50D-04 MaxDP=1.67D-02 DE=-1.65D-03 OVMax= 8.17D-03

 Cycle   6  Pass 1  IDiag  1:
 RMSU=  1.39D-04    CP:  5.29D-01  9.52D-01  8.77D-01  1.08D+00  9.88D-01
 E= -1543.12038743019     Delta-E=       -0.000238525411 Rises=F Damp=F
 DIIS: error= 1.10D-04 at cycle   6 NSaved=   6.
 NSaved= 6 IEnMin= 6 EnMin= -1543.12038743019     IErMin= 6 ErrMin= 1.10D-04
 ErrMax= 1.10D-04  0.00D+00 EMaxC= 1.00D-01 BMatC= 2.00D-05 BMatP= 1.04D-04
 IDIUse=3 WtCom= 9.99D-01 WtEn= 1.10D-03
 Coeff-Com:  0.183D-02-0.999D-02-0.423D-01-0.695D-01 0.242D+00 0.878D+00
 Coeff-En:   0.000D+00 0.000D+00 0.000D+00 0.000D+00 0.000D+00 0.100D+01
 Coeff:      0.183D-02-0.998D-02-0.423D-01-0.694D-01 0.241D+00 0.878D+00
 Gap=     0.254 Goal=   None    Shift=    0.000
 RMSDP=8.40D-05 MaxDP=3.07D-03 DE=-2.39D-04 OVMax= 2.70D-03

 Cycle   7  Pass 1  IDiag  1:
 RMSU=  5.78D-05    CP:  5.29D-01  9.52D-01  8.77D-01  1.10D+00  1.10D+00
                    CP:  1.12D+00
 E= -1543.12042957680     Delta-E=       -0.000042146612 Rises=F Damp=F
 DIIS: error= 3.82D-05 at cycle   7 NSaved=   7.
 NSaved= 7 IEnMin= 7 EnMin= -1543.12042957680     IErMin= 7 ErrMin= 3.82D-05
 ErrMax= 3.82D-05  0.00D+00 EMaxC= 1.00D-01 BMatC= 2.22D-06 BMatP= 2.00D-05
 IDIUse=1 WtCom= 1.00D+00 WtEn= 0.00D+00
 Coeff-Com:  0.201D-03 0.134D-02 0.290D-02-0.263D-01-0.860D-01 0.496D-01
 Coeff-Com:  0.106D+01
 Coeff:      0.201D-03 0.134D-02 0.290D-02-0.263D-01-0.860D-01 0.496D-01
 Coeff:      0.106D+01
 Gap=     0.254 Goal=   None    Shift=    0.000
 RMSDP=3.85D-05 MaxDP=1.52D-03 DE=-4.21D-05 OVMax= 1.75D-03

 Cycle   8  Pass 1  IDiag  1:
 RMSU=  2.27D-05    CP:  5.29D-01  9.52D-01  8.79D-01  1.11D+00  1.12D+00
                    CP:  1.25D+00  1.25D+00
 E= -1543.12043773651     Delta-E=       -0.000008159711 Rises=F Damp=F
 DIIS: error= 2.21D-05 at cycle   8 NSaved=   8.
 NSaved= 8 IEnMin= 8 EnMin= -1543.12043773651     IErMin= 8 ErrMin= 2.21D-05
 ErrMax= 2.21D-05  0.00D+00 EMaxC= 1.00D-01 BMatC= 4.39D-07 BMatP= 2.22D-06
 IDIUse=1 WtCom= 1.00D+00 WtEn= 0.00D+00
 Coeff-Com: -0.273D-03 0.153D-02 0.713D-02 0.111D-01-0.252D-01-0.166D+00
 Coeff-Com: -0.193D-01 0.119D+01
 Coeff:     -0.273D-03 0.153D-02 0.713D-02 0.111D-01-0.252D-01-0.166D+00
 Coeff:     -0.193D-01 0.119D+01
 Gap=     0.254 Goal=   None    Shift=    0.000
 RMSDP=1.94D-05 MaxDP=7.63D-04 DE=-8.16D-06 OVMax= 9.15D-04

 Cycle   9  Pass 1  IDiag  1:
 RMSU=  1.05D-05    CP:  5.29D-01  9.52D-01  8.79D-01  1.11D+00  1.13D+00
                    CP:  1.29D+00  1.46D+00  1.32D+00
 E= -1543.12043976931     Delta-E=       -0.000002032800 Rises=F Damp=F
 DIIS: error= 9.36D-06 at cycle   9 NSaved=   9.
 NSaved= 9 IEnMin= 9 EnMin= -1543.12043976931     IErMin= 9 ErrMin= 9.36D-06
 ErrMax= 9.36D-06  0.00D+00 EMaxC= 1.00D-01 BMatC= 8.80D-08 BMatP= 4.39D-07
 IDIUse=1 WtCom= 1.00D+00 WtEn= 0.00D+00
 Coeff-Com: -0.718D-04-0.534D-05 0.595D-03 0.608D-02 0.118D-01-0.367D-01
 Coeff-Com: -0.173D+00 0.178D+00 0.101D+01
 Coeff:     -0.718D-04-0.534D-05 0.595D-03 0.608D-02 0.118D-01-0.367D-01
 Coeff:     -0.173D+00 0.178D+00 0.101D+01
 Gap=     0.254 Goal=   None    Shift=    0.000
 RMSDP=8.01D-06 MaxDP=3.44D-04 DE=-2.03D-06 OVMax= 3.73D-04

 Cycle  10  Pass 1  IDiag  1:
 RMSU=  4.17D-06    CP:  5.29D-01  9.52D-01  8.79D-01  1.11D+00  1.14D+00
                    CP:  1.30D+00  1.52D+00  1.54D+00  1.26D+00
 E= -1543.12044020056     Delta-E=       -0.000000431251 Rises=F Damp=F
 DIIS: error= 5.52D-06 at cycle  10 NSaved=  10.
 NSaved=10 IEnMin=10 EnMin= -1543.12044020056     IErMin=10 ErrMin= 5.52D-06
 ErrMax= 5.52D-06  0.00D+00 EMaxC= 1.00D-01 BMatC= 2.02D-08 BMatP= 8.80D-08
 IDIUse=1 WtCom= 1.00D+00 WtEn= 0.00D+00
 Coeff-Com:  0.701D-04-0.405D-03-0.186D-02-0.288D-02 0.536D-02 0.424D-01
 Coeff-Com:  0.215D-01-0.299D+00-0.154D+00 0.139D+01
 Coeff:      0.701D-04-0.405D-03-0.186D-02-0.288D-02 0.536D-02 0.424D-01
 Coeff:      0.215D-01-0.299D+00-0.154D+00 0.139D+01
 Gap=     0.254 Goal=   None    Shift=    0.000
 RMSDP=5.48D-06 MaxDP=2.17D-04 DE=-4.31D-07 OVMax= 2.51D-04

 Cycle  11  Pass 1  IDiag  1:
 RMSU=  2.41D-06    CP:  5.29D-01  9.52D-01  8.79D-01  1.11D+00  1.14D+00
                    CP:  1.30D+00  1.55D+00  1.64D+00  1.58D+00  1.53D+00
 E= -1543.12044034058     Delta-E=       -0.000000140017 Rises=F Damp=F
 DIIS: error= 1.65D-06 at cycle  11 NSaved=  11.
 NSaved=11 IEnMin=11 EnMin= -1543.12044034058     IErMin=11 ErrMin= 1.65D-06
 ErrMax= 1.65D-06  0.00D+00 EMaxC= 1.00D-01 BMatC= 3.74D-09 BMatP= 2.02D-08
 IDIUse=1 WtCom= 1.00D+00 WtEn= 0.00D+00
 Coeff-Com:  0.257D-04-0.750D-04-0.443D-03-0.146D-02-0.170D-02 0.132D-01
 Coeff-Com:  0.371D-01-0.772D-01-0.248D+00 0.253D+00 0.103D+01
 Coeff:      0.257D-04-0.750D-04-0.443D-03-0.146D-02-0.170D-02 0.132D-01
 Coeff:      0.371D-01-0.772D-01-0.248D+00 0.253D+00 0.103D+01
 Gap=     0.254 Goal=   None    Shift=    0.000
 RMSDP=2.16D-06 MaxDP=1.11D-04 DE=-1.40D-07 OVMax= 8.53D-05

 Cycle  12  Pass 1  IDiag  1:
 RMSU=  9.44D-07    CP:  5.29D-01  9.52D-01  8.79D-01  1.11D+00  1.14D+00
                    CP:  1.31D+00  1.56D+00  1.66D+00  1.66D+00  1.84D+00
                    CP:  1.26D+00
 E= -1543.12044035866     Delta-E=       -0.000000018081 Rises=F Damp=F
 DIIS: error= 4.80D-07 at cycle  12 NSaved=  12.
 NSaved=12 IEnMin=12 EnMin= -1543.12044035866     IErMin=12 ErrMin= 4.80D-07
 ErrMax= 4.80D-07  0.00D+00 EMaxC= 1.00D-01 BMatC= 5.54D-10 BMatP= 3.74D-09
 IDIUse=1 WtCom= 1.00D+00 WtEn= 0.00D+00
 Coeff-Com: -0.453D-05 0.439D-04 0.180D-03 0.234D-03-0.123D-02-0.388D-02
 Coeff-Com:  0.442D-02 0.353D-01-0.341D-01-0.168D+00 0.198D+00 0.970D+00
 Coeff:     -0.453D-05 0.439D-04 0.180D-03 0.234D-03-0.123D-02-0.388D-02
 Coeff:      0.442D-02 0.353D-01-0.341D-01-0.168D+00 0.198D+00 0.970D+00
 Gap=     0.254 Goal=   None    Shift=    0.000
 RMSDP=7.00D-07 MaxDP=3.24D-05 DE=-1.81D-08 OVMax= 2.67D-05

 Cycle  13  Pass 1  IDiag  1:
 RMSU=  3.61D-07    CP:  5.29D-01  9.52D-01  8.79D-01  1.11D+00  1.14D+00
                    CP:  1.31D+00  1.56D+00  1.67D+00  1.67D+00  1.90D+00
                    CP:  1.43D+00  1.23D+00
 E= -1543.12044036054     Delta-E=       -0.000000001880 Rises=F Damp=F
 DIIS: error= 1.87D-07 at cycle  13 NSaved=  13.
 NSaved=13 IEnMin=13 EnMin= -1543.12044036054     IErMin=13 ErrMin= 1.87D-07
 ErrMax= 1.87D-07  0.00D+00 EMaxC= 1.00D-01 BMatC= 6.97D-11 BMatP= 5.54D-10
 IDIUse=1 WtCom= 1.00D+00 WtEn= 0.00D+00
 Coeff-Com: -0.451D-05 0.167D-04 0.865D-04 0.290D-03 0.108D-04-0.239D-02
 Coeff-Com: -0.537D-02 0.156D-01 0.300D-01-0.486D-01-0.129D+00 0.100D+00
 Coeff-Com:  0.104D+01
 Coeff:     -0.451D-05 0.167D-04 0.865D-04 0.290D-03 0.108D-04-0.239D-02
 Coeff:     -0.537D-02 0.156D-01 0.300D-01-0.486D-01-0.129D+00 0.100D+00
 Coeff:      0.104D+01
 Gap=     0.254 Goal=   None    Shift=    0.000
 RMSDP=2.43D-07 MaxDP=1.30D-05 DE=-1.88D-09 OVMax= 8.46D-06

 Cycle  14  Pass 1  IDiag  1:
 RMSU=  1.39D-07    CP:  5.29D-01  9.52D-01  8.79D-01  1.11D+00  1.14D+00
                    CP:  1.31D+00  1.56D+00  1.67D+00  1.68D+00  1.91D+00
                    CP:  1.46D+00  1.34D+00  1.20D+00
 E= -1543.12044036082     Delta-E=       -0.000000000278 Rises=F Damp=F
 DIIS: error= 1.04D-07 at cycle  14 NSaved=  14.
 NSaved=14 IEnMin=14 EnMin= -1543.12044036082     IErMin=14 ErrMin= 1.04D-07
 ErrMax= 1.04D-07  0.00D+00 EMaxC= 1.00D-01 BMatC= 1.06D-11 BMatP= 6.97D-11
 IDIUse=1 WtCom= 1.00D+00 WtEn= 0.00D+00
 Coeff-Com:  0.103D-05-0.736D-05-0.334D-04-0.521D-04 0.120D-03 0.857D-03
 Coeff-Com: -0.538D-06-0.625D-02 0.804D-03 0.289D-01-0.156D-01-0.134D+00
 Coeff-Com: -0.116D+00 0.124D+01
 Coeff:      0.103D-05-0.736D-05-0.334D-04-0.521D-04 0.120D-03 0.857D-03
 Coeff:     -0.538D-06-0.625D-02 0.804D-03 0.289D-01-0.156D-01-0.134D+00
 Coeff:     -0.116D+00 0.124D+01
 Gap=     0.254 Goal=   None    Shift=    0.000
 RMSDP=1.01D-07 MaxDP=3.43D-06 DE=-2.78D-10 OVMax= 4.45D-06

 Cycle  15  Pass 1  IDiag  1:
 RMSU=  6.31D-08    CP:  5.29D-01  9.52D-01  8.79D-01  1.11D+00  1.14D+00
                    CP:  1.31D+00  1.56D+00  1.67D+00  1.68D+00  1.92D+00
                    CP:  1.46D+00  1.36D+00  1.36D+00  1.29D+00
 E= -1543.12044036081     Delta-E=        0.000000000002 Rises=F Damp=F
 DIIS: error= 4.46D-08 at cycle  15 NSaved=  15.
 NSaved=15 IEnMin=14 EnMin= -1543.12044036082     IErMin=15 ErrMin= 4.46D-08
 ErrMax= 4.46D-08  0.00D+00 EMaxC= 1.00D-01 BMatC= 2.26D-12 BMatP= 1.06D-11
 IDIUse=1 WtCom= 1.00D+00 WtEn= 0.00D+00
 Coeff-Com:  0.704D-06-0.226D-05-0.123D-04-0.457D-04-0.231D-04 0.359D-03
 Coeff-Com:  0.974D-03-0.221D-02-0.588D-02 0.619D-02 0.254D-01-0.319D-02
 Coeff-Com: -0.203D+00-0.715D-01 0.125D+01
 Coeff:      0.704D-06-0.226D-05-0.123D-04-0.457D-04-0.231D-04 0.359D-03
 Coeff:      0.974D-03-0.221D-02-0.588D-02 0.619D-02 0.254D-01-0.319D-02
 Coeff:     -0.203D+00-0.715D-01 0.125D+01
 Gap=     0.254 Goal=   None    Shift=    0.000
 RMSDP=5.29D-08 MaxDP=3.21D-06 DE= 2.27D-12 OVMax= 2.43D-06

 Cycle  16  Pass 1  IDiag  1:
 RMSU=  2.31D-08    CP:  5.29D-01  9.52D-01  8.79D-01  1.11D+00  1.14D+00
                    CP:  1.31D+00  1.56D+00  1.67D+00  1.68D+00  1.92D+00
                    CP:  1.46D+00  1.37D+00  1.40D+00  1.44D+00  1.51D+00
 E= -1543.12044036084     Delta-E=       -0.000000000028 Rises=F Damp=F
 DIIS: error= 2.47D-08 at cycle  16 NSaved=  16.
 NSaved=16 IEnMin=16 EnMin= -1543.12044036084     IErMin=16 ErrMin= 2.47D-08
 ErrMax= 2.47D-08  0.00D+00 EMaxC= 1.00D-01 BMatC= 3.78D-13 BMatP= 2.26D-12
 IDIUse=1 WtCom= 1.00D+00 WtEn= 0.00D+00
 Coeff-Com: -0.283D-06 0.184D-05 0.874D-05 0.148D-04-0.266D-04-0.224D-03
 Coeff-Com: -0.385D-04 0.162D-02 0.928D-04-0.703D-02 0.261D-02 0.324D-01
 Coeff-Com:  0.315D-01-0.260D+00-0.738D-01 0.127D+01
 Coeff:     -0.283D-06 0.184D-05 0.874D-05 0.148D-04-0.266D-04-0.224D-03
 Coeff:     -0.385D-04 0.162D-02 0.928D-04-0.703D-02 0.261D-02 0.324D-01
 Coeff:      0.315D-01-0.260D+00-0.738D-01 0.127D+01
 Gap=     0.254 Goal=   None    Shift=    0.000
 RMSDP=2.45D-08 MaxDP=1.11D-06 DE=-2.82D-11 OVMax= 1.13D-06

 Cycle  17  Pass 1  IDiag  1:
 RMSU=  1.05D-08    CP:  5.29D-01  9.52D-01  8.79D-01  1.11D+00  1.14D+00
                    CP:  1.31D+00  1.56D+00  1.67D+00  1.68D+00  1.92D+00
                    CP:  1.46D+00  1.36D+00  1.41D+00  1.45D+00  1.74D+00
                    CP:  1.52D+00
 E= -1543.12044036085     Delta-E=       -0.000000000007 Rises=F Damp=F
 DIIS: error= 5.74D-09 at cycle  17 NSaved=  17.
 NSaved=17 IEnMin=17 EnMin= -1543.12044036085     IErMin=17 ErrMin= 5.74D-09
 ErrMax= 5.74D-09  0.00D+00 EMaxC= 1.00D-01 BMatC= 4.44D-14 BMatP= 3.78D-13
 IDIUse=1 WtCom= 1.00D+00 WtEn= 0.00D+00
 Coeff-Com: -0.117D-06 0.495D-06 0.265D-05 0.756D-05 0.148D-05-0.784D-04
 Coeff-Com: -0.135D-03 0.478D-03 0.827D-03-0.176D-02-0.304D-02 0.428D-02
 Coeff-Com:  0.304D-01-0.198D-01-0.173D+00 0.136D+00 0.103D+01
 Coeff:     -0.117D-06 0.495D-06 0.265D-05 0.756D-05 0.148D-05-0.784D-04
 Coeff:     -0.135D-03 0.478D-03 0.827D-03-0.176D-02-0.304D-02 0.428D-02
 Coeff:      0.304D-01-0.198D-01-0.173D+00 0.136D+00 0.103D+01
 Gap=     0.254 Goal=   None    Shift=    0.000
 RMSDP=6.30D-09 MaxDP=2.95D-07 DE=-7.28D-12 OVMax= 2.67D-07

 SCF Done:  E(RHF) =  -1543.12044036     A.U. after   17 cycles
            NFock= 17  Conv=0.63D-08     -V/T= 2.0005
 KE= 1.542376176416D+03 PE=-6.883374122693D+03 EE= 2.167021366157D+03
 Leave Link  502 at Sun Jul 18 15:23:16 2021, MaxMem=   262144000 cpu:            3925.6 elap:             983.8
 (Enter /prod/apps/gaussian/g16b1/l801.exe)
 ExpMin= 2.97D-02 ExpMax= 1.28D+05 ExpMxC= 1.24D+03 IAcc=3 IRadAn=         5 AccDes= 0.00D+00
 HarFok:  IExCor=  205 AccDes= 0.00D+00 IRadAn=         5 IDoV=-2 UseB2=F ITyADJ=14
 ICtDFT= 12500011 ScaDFX=  1.000000  1.000000  1.000000  1.000000
 GSVD:  LWork=        -945 too small for GESVD, short by        4050 words or        4050 for optimal perf.
 Largest valence mixing into a core orbital is  3.28D-04
 Largest core mixing into a valence orbital is  7.34D-05
 Range of M.O.s used for correlation:    28   588
 NBasis=   589 NAE=    76 NBE=    76 NFC=    27 NFV=     0
 NROrb=    561 NOA=    49 NOB=    49 NVA=   512 NVB=   512

 **** Warning!!: The largest alpha MO coefficient is  0.90919397D+02

 Leave Link  801 at Sun Jul 18 15:23:17 2021, MaxMem=   262144000 cpu:               1.4 elap:               0.4
 (Enter /prod/apps/gaussian/g16b1/l906.exe)
 FulOut=F Deriv=F AODrv=F NAtomX=    35
   MMem=           3  MDisk=          49 MDiskD=          49
  W3Min=    15730176 MinDsk=    16236966 NBas6D=         627
 NBas2D=      197721    NTT=      196878    LW2=     2000000
    MDV=   259662220 MDiskM=        5707 NBas2p=      180888
 Disk-based method using OVN memory for 49 occupieds at a time.
 Estimated scratch disk usage= 13873219584 words.
 IMap=   1   2   3   4   5   6   7   8   9  10  11  12  13  14  15  16  17  18  19  20
 IMap=  21  22  23  24  25  26  27  28  29  30  31  32  33  34  35  36  37  38  39  40
 IMap=  41  42  43  44  45  46  47  48  49
 Actual    scratch disk usage= 13649956352 words.
 JobTyp=1 Pass  1:  I=   1 to  49 NPSUse=  4 ParTrn=T ParDer=T DoDerP=F.
Erroneous write. Write -1 instead of 5513328.
fd = 4
orig len = 8384512 left = 5513328
g_write
