 Entering Gaussian System, Link 0=g16
 Initial command:
 /prod/apps/gaussian/g16b1/l1.exe "/tmp/ubator02/1839613/Gau-205805.inp" -scrdir="/tmp/ubator02/1839613/"
 Entering Link 1 = /prod/apps/gaussian/g16b1/l1.exe PID=    205806.
  
 Copyright (c) 1988-2017, Gaussian, Inc.  All Rights Reserved.
  
 This is part of the Gaussian(R) 16 program.  It is based on
 the Gaussian(R) 09 system (copyright 2009, Gaussian, Inc.),
 the Gaussian(R) 03 system (copyright 2003, Gaussian, Inc.),
 the Gaussian(R) 98 system (copyright 1998, Gaussian, Inc.),
 the Gaussian(R) 94 system (copyright 1995, Gaussian, Inc.),
 the Gaussian 92(TM) system (copyright 1992, Gaussian, Inc.),
 the Gaussian 90(TM) system (copyright 1990, Gaussian, Inc.),
 the Gaussian 88(TM) system (copyright 1988, Gaussian, Inc.),
 the Gaussian 86(TM) system (copyright 1986, Carnegie Mellon
 University), and the Gaussian 82(TM) system (copyright 1983,
 Carnegie Mellon University). Gaussian is a federally registered
 trademark of Gaussian, Inc.
  
 This software contains proprietary and confidential information,
 including trade secrets, belonging to Gaussian, Inc.
  
 This software is provided under written license and may be
 used, copied, transmitted, or stored only in accord with that
 written license.
  
 The following legend is applicable only to US Government
 contracts under FAR:
  
                    RESTRICTED RIGHTS LEGEND
  
 Use, reproduction and disclosure by the US Government is
 subject to restrictions as set forth in subparagraphs (a)
 and (c) of the Commercial Computer Software - Restricted
 Rights clause in FAR 52.227-19.
  
 Gaussian, Inc.
 340 Quinnipiac St., Bldg. 40, Wallingford CT 06492
  
  
 ---------------------------------------------------------------
 Warning -- This program may not be used in any manner that
 competes with the business of Gaussian, Inc. or will provide
 assistance to any competitor of Gaussian, Inc.  The licensee
 of this program is prohibited from giving any competitor of
 Gaussian, Inc. access to this program.  By using this program,
 the user acknowledges that Gaussian, Inc. is engaged in the
 business of creating and licensing software in the field of
 computational chemistry and represents and warrants to the
 licensee that it is not a competitor of Gaussian, Inc. and that
 it will not use this program in any manner prohibited above.
 ---------------------------------------------------------------
  

 Cite this work as:
 Gaussian 16, Revision B.01,
 M. J. Frisch, G. W. Trucks, H. B. Schlegel, G. E. Scuseria, 
 M. A. Robb, J. R. Cheeseman, G. Scalmani, V. Barone, 
 G. A. Petersson, H. Nakatsuji, X. Li, M. Caricato, A. V. Marenich, 
 J. Bloino, B. G. Janesko, R. Gomperts, B. Mennucci, H. P. Hratchian, 
 J. V. Ortiz, A. F. Izmaylov, J. L. Sonnenberg, D. Williams-Young, 
 F. Ding, F. Lipparini, F. Egidi, J. Goings, B. Peng, A. Petrone, 
 T. Henderson, D. Ranasinghe, V. G. Zakrzewski, J. Gao, N. Rega, 
 G. Zheng, W. Liang, M. Hada, M. Ehara, K. Toyota, R. Fukuda, 
 J. Hasegawa, M. Ishida, T. Nakajima, Y. Honda, O. Kitao, H. Nakai, 
 T. Vreven, K. Throssell, J. A. Montgomery, Jr., J. E. Peralta, 
 F. Ogliaro, M. J. Bearpark, J. J. Heyd, E. N. Brothers, K. N. Kudin, 
 V. N. Staroverov, T. A. Keith, R. Kobayashi, J. Normand, 
 K. Raghavachari, A. P. Rendell, J. C. Burant, S. S. Iyengar, 
 J. Tomasi, M. Cossi, J. M. Millam, M. Klene, C. Adamo, R. Cammi, 
 J. W. Ochterski, R. L. Martin, K. Morokuma, O. Farkas, 
 J. B. Foresman, and D. J. Fox, Gaussian, Inc., Wallingford CT, 2016.
 
 ******************************************
 Gaussian 16:  ES64L-G16RevB.01 20-Dec-2017
                18-Jul-2021 
 ******************************************
 %mem=800MB
 %nproc=4
 Will use up to    4 processors via shared memory.
 %chk=SET_328_BBB30_conf1.geo_060_075_270.chk
 -----------------------------------------------------------
 #p b3lyp/6-31G(d) opt freq scrf=(iefpcm,read,solvent=water)
 -----------------------------------------------------------
 1/18=20,19=15,26=3,38=1,40=2/1,3;
 2/9=110,12=2,17=6,18=5,40=1/2;
 3/5=1,6=6,7=1,11=2,25=1,30=1,70=2203,71=1,72=1,74=-5/1,2,3;
 4//1;
 5/5=2,38=5,53=1/2;
 6/7=2,8=2,9=2,10=2,28=1/1;
 7//1,2,3,16;
 1/18=20,19=15,26=3/3(2);
 2/9=110/2;
 99//99;
 2/9=110/2;
 3/5=1,6=6,7=1,11=2,25=1,30=1,70=2205,71=1,72=1,74=-5/1,2,3;
 4/5=5,16=3,69=1/1;
 5/5=2,38=5,53=1/2;
 7//1,2,3,16;
 1/18=20,19=15,26=3/3(-5);
 2/9=110/2;
 6/7=2,8=2,9=2,10=2,19=2,28=1/1;
 99/9=1/99;
 Leave Link    1 at Sun Jul 18 14:19:36 2021, MaxMem=   104857600 cpu:               0.1 elap:               0.0
 (Enter /prod/apps/gaussian/g16b1/l101.exe)
 --------------------------------------------
 SET_328_BBB30_conf1.geo_060_075_270 geometry
 --------------------------------------------
 Symbolic Z-matrix:
 Charge =  1 Multiplicity = 1
 C                    -1.737     0.985    -1.086 
 H                    -2.435     1.473    -1.772 
 H                    -0.725     1.397    -1.124 
 H                    -2.184     1.272    -0.131 
 N                    -1.701    -0.534    -1.137 
 H                    -1.066    -0.81     -1.858 
 C                    -1.29     -1.182     0.114 
 C                    -1.722    -2.652     0.097 
 H                    -2.799    -2.696    -0.08 
 H                    -1.596    -3.004     1.123 
 H                    -1.132    -3.251    -0.6 
 H                    -1.647    -0.638     0.991 
 C                     0.258    -1.337     0.022 
 H                     0.619    -1.813    -0.892 
 H                     0.578    -1.963     0.858 
 C                     0.915    -0.021     0.224 
 C                     0.743     0.728     1.434 
 H                    -0.05      0.397     2.1 
 C                     1.455     1.849     1.674 
 H                     1.252     2.359     2.612 
 C                     2.425     2.25      0.751 
 H                     3.066     3.076     1.048 
 C                     2.385     1.681    -0.563 
 H                     3.159     1.998    -1.258 
 C                     1.64      0.508    -0.779 
 H                     1.632    -0.02     -1.73 
 H                    -2.614    -0.863    -1.377 
 
 ITRead=  0  0  0  0  0  0  0  0  0  0  0  0  0  0  0  0  0  0  0  0
 ITRead=  0  0  0  0  0  0  0
 MicOpt= -1 -1 -1 -1 -1 -1 -1 -1 -1 -1 -1 -1 -1 -1 -1 -1 -1 -1 -1 -1
 MicOpt= -1 -1 -1 -1 -1 -1 -1
 NAtoms=     27 NQM=       27 NQMF=       0 NMMI=      0 NMMIF=      0
                NMic=       0 NMicF=      0.
                    Isotopes and Nuclear Properties:
 (Nuclear quadrupole moments (NQMom) in fm**2, nuclear magnetic moments (NMagM)
  in nuclear magnetons)

  Atom         1           2           3           4           5           6           7           8           9          10
 IAtWgt=          12           1           1           1          14           1          12          12           1           1
 AtmWgt=  12.0000000   1.0078250   1.0078250   1.0078250  14.0030740   1.0078250  12.0000000  12.0000000   1.0078250   1.0078250
 NucSpn=           0           1           1           1           2           1           0           0           1           1
 AtZEff=  -0.0000000  -0.0000000  -0.0000000  -0.0000000  -0.0000000  -0.0000000  -0.0000000  -0.0000000  -0.0000000  -0.0000000
 NQMom=    0.0000000   0.0000000   0.0000000   0.0000000   2.0440000   0.0000000   0.0000000   0.0000000   0.0000000   0.0000000
 NMagM=    0.0000000   2.7928460   2.7928460   2.7928460   0.4037610   2.7928460   0.0000000   0.0000000   2.7928460   2.7928460
 AtZNuc=   6.0000000   1.0000000   1.0000000   1.0000000   7.0000000   1.0000000   6.0000000   6.0000000   1.0000000   1.0000000

  Atom        11          12          13          14          15          16          17          18          19          20
 IAtWgt=           1           1          12           1           1          12          12           1          12           1
 AtmWgt=   1.0078250   1.0078250  12.0000000   1.0078250   1.0078250  12.0000000  12.0000000   1.0078250  12.0000000   1.0078250
 NucSpn=           1           1           0           1           1           0           0           1           0           1
 AtZEff=  -0.0000000  -0.0000000  -0.0000000  -0.0000000  -0.0000000  -0.0000000  -0.0000000  -0.0000000  -0.0000000  -0.0000000
 NQMom=    0.0000000   0.0000000   0.0000000   0.0000000   0.0000000   0.0000000   0.0000000   0.0000000   0.0000000   0.0000000
 NMagM=    2.7928460   2.7928460   0.0000000   2.7928460   2.7928460   0.0000000   0.0000000   2.7928460   0.0000000   2.7928460
 AtZNuc=   1.0000000   1.0000000   6.0000000   1.0000000   1.0000000   6.0000000   6.0000000   1.0000000   6.0000000   1.0000000

  Atom        21          22          23          24          25          26          27
 IAtWgt=          12           1          12           1          12           1           1
 AtmWgt=  12.0000000   1.0078250  12.0000000   1.0078250  12.0000000   1.0078250   1.0078250
 NucSpn=           0           1           0           1           0           1           1
 AtZEff=  -0.0000000  -0.0000000  -0.0000000  -0.0000000  -0.0000000  -0.0000000  -0.0000000
 NQMom=    0.0000000   0.0000000   0.0000000   0.0000000   0.0000000   0.0000000   0.0000000
 NMagM=    0.0000000   2.7928460   0.0000000   2.7928460   0.0000000   2.7928460   2.7928460
 AtZNuc=   6.0000000   1.0000000   6.0000000   1.0000000   6.0000000   1.0000000   1.0000000
 Leave Link  101 at Sun Jul 18 14:19:36 2021, MaxMem=   104857600 cpu:               0.5 elap:               0.1
 (Enter /prod/apps/gaussian/g16b1/l103.exe)

 GradGradGradGradGradGradGradGradGradGradGradGradGradGradGradGradGradGrad
 Berny optimization.
 Initialization pass.
                           ----------------------------
                           !    Initial Parameters    !
                           ! (Angstroms and Degrees)  !
 --------------------------                            --------------------------
 ! Name  Definition              Value          Derivative Info.                !
 --------------------------------------------------------------------------------
 ! R1    R(1,2)                  1.0936         estimate D2E/DX2                !
 ! R2    R(1,3)                  1.0933         estimate D2E/DX2                !
 ! R3    R(1,4)                  1.0928         estimate D2E/DX2                !
 ! R4    R(1,5)                  1.5203         estimate D2E/DX2                !
 ! R5    R(5,6)                  0.9996         estimate D2E/DX2                !
 ! R6    R(5,7)                  1.4676         estimate D2E/DX2                !
 ! R7    R(5,27)                 0.9997         estimate D2E/DX2                !
 ! R8    R(7,8)                  1.5323         estimate D2E/DX2                !
 ! R9    R(7,12)                 1.092          estimate D2E/DX2                !
 ! R10   R(7,13)                 1.5585         estimate D2E/DX2                !
 ! R11   R(8,9)                  1.0923         estimate D2E/DX2                !
 ! R12   R(8,10)                 1.092          estimate D2E/DX2                !
 ! R13   R(8,11)                 1.0921         estimate D2E/DX2                !
 ! R14   R(13,14)                1.0919         estimate D2E/DX2                !
 ! R15   R(13,15)                1.0923         estimate D2E/DX2                !
 ! R16   R(13,16)                1.4847         estimate D2E/DX2                !
 ! R17   R(16,17)                1.4334         estimate D2E/DX2                !
 ! R18   R(16,25)                1.3459         estimate D2E/DX2                !
 ! R19   R(17,18)                1.0872         estimate D2E/DX2                !
 ! R20   R(17,19)                1.3495         estimate D2E/DX2                !
 ! R21   R(19,20)                1.0868         estimate D2E/DX2                !
 ! R22   R(19,21)                1.3977         estimate D2E/DX2                !
 ! R23   R(21,22)                1.0869         estimate D2E/DX2                !
 ! R24   R(21,23)                1.4325         estimate D2E/DX2                !
 ! R25   R(23,24)                1.0875         estimate D2E/DX2                !
 ! R26   R(23,25)                1.4063         estimate D2E/DX2                !
 ! R27   R(25,26)                1.0878         estimate D2E/DX2                !
 ! A1    A(2,1,3)              113.6303         estimate D2E/DX2                !
 ! A2    A(2,1,4)               99.7832         estimate D2E/DX2                !
 ! A3    A(2,1,5)              116.0994         estimate D2E/DX2                !
 ! A4    A(3,1,4)              108.0609         estimate D2E/DX2                !
 ! A5    A(3,1,5)              110.6975         estimate D2E/DX2                !
 ! A6    A(4,1,5)              107.5423         estimate D2E/DX2                !
 ! A7    A(1,5,6)              108.3675         estimate D2E/DX2                !
 ! A8    A(1,5,7)              114.7843         estimate D2E/DX2                !
 ! A9    A(1,5,27)             108.3757         estimate D2E/DX2                !
 ! A10   A(6,5,7)              108.3617         estimate D2E/DX2                !
 ! A11   A(6,5,27)             108.4287         estimate D2E/DX2                !
 ! A12   A(7,5,27)             108.3664         estimate D2E/DX2                !
 ! A13   A(5,7,8)              109.5838         estimate D2E/DX2                !
 ! A14   A(5,7,12)             111.9047         estimate D2E/DX2                !
 ! A15   A(5,7,13)             105.7693         estimate D2E/DX2                !
 ! A16   A(8,7,12)             113.2446         estimate D2E/DX2                !
 ! A17   A(8,7,13)             100.6013         estimate D2E/DX2                !
 ! A18   A(12,7,13)            114.9405         estimate D2E/DX2                !
 ! A19   A(7,8,9)              108.5675         estimate D2E/DX2                !
 ! A20   A(7,8,10)             105.4438         estimate D2E/DX2                !
 ! A21   A(7,8,11)             112.3932         estimate D2E/DX2                !
 ! A22   A(9,8,10)             104.6567         estimate D2E/DX2                !
 ! A23   A(9,8,11)             114.0256         estimate D2E/DX2                !
 ! A24   A(10,8,11)            111.1313         estimate D2E/DX2                !
 ! A25   A(7,13,14)            114.9079         estimate D2E/DX2                !
 ! A26   A(7,13,15)            107.6262         estimate D2E/DX2                !
 ! A27   A(7,13,16)            110.0816         estimate D2E/DX2                !
 ! A28   A(14,13,15)           107.0948         estimate D2E/DX2                !
 ! A29   A(14,13,16)           110.7312         estimate D2E/DX2                !
 ! A30   A(15,13,16)           105.9149         estimate D2E/DX2                !
 ! A31   A(13,16,17)           121.662          estimate D2E/DX2                !
 ! A32   A(13,16,25)           119.0363         estimate D2E/DX2                !
 ! A33   A(17,16,25)           119.2308         estimate D2E/DX2                !
 ! A34   A(16,17,18)           116.4585         estimate D2E/DX2                !
 ! A35   A(16,17,19)           121.3902         estimate D2E/DX2                !
 ! A36   A(18,17,19)           121.9239         estimate D2E/DX2                !
 ! A37   A(17,19,20)           116.4072         estimate D2E/DX2                !
 ! A38   A(17,19,21)           119.145          estimate D2E/DX2                !
 ! A39   A(20,19,21)           124.398          estimate D2E/DX2                !
 ! A40   A(19,21,22)           116.5423         estimate D2E/DX2                !
 ! A41   A(19,21,23)           118.1908         estimate D2E/DX2                !
 ! A42   A(22,21,23)           124.6798         estimate D2E/DX2                !
 ! A43   A(21,23,24)           116.7809         estimate D2E/DX2                !
 ! A44   A(21,23,25)           119.1445         estimate D2E/DX2                !
 ! A45   A(24,23,25)           121.4694         estimate D2E/DX2                !
 ! A46   A(16,25,23)           119.9173         estimate D2E/DX2                !
 ! A47   A(16,25,26)           117.1793         estimate D2E/DX2                !
 ! A48   A(23,25,26)           122.8921         estimate D2E/DX2                !
 ! D1    D(2,1,5,6)             85.8003         estimate D2E/DX2                !
 ! D2    D(2,1,5,7)           -152.9408         estimate D2E/DX2                !
 ! D3    D(2,1,5,27)           -31.6698         estimate D2E/DX2                !
 ! D4    D(3,1,5,6)            -45.6698         estimate D2E/DX2                !
 ! D5    D(3,1,5,7)             75.5891         estimate D2E/DX2                !
 ! D6    D(3,1,5,27)          -163.1398         estimate D2E/DX2                !
 ! D7    D(4,1,5,6)           -163.5104         estimate D2E/DX2                !
 ! D8    D(4,1,5,7)            -42.2515         estimate D2E/DX2                !
 ! D9    D(4,1,5,27)            79.0196         estimate D2E/DX2                !
 ! D10   D(1,5,7,8)            161.6217         estimate D2E/DX2                !
 ! D11   D(1,5,7,12)            35.1422         estimate D2E/DX2                !
 ! D12   D(1,5,7,13)           -90.7181         estimate D2E/DX2                !
 ! D13   D(6,5,7,8)            -77.1163         estimate D2E/DX2                !
 ! D14   D(6,5,7,12)           156.4043         estimate D2E/DX2                !
 ! D15   D(6,5,7,13)            30.544          estimate D2E/DX2                !
 ! D16   D(27,5,7,8)            40.3455         estimate D2E/DX2                !
 ! D17   D(27,5,7,12)          -86.134          estimate D2E/DX2                !
 ! D18   D(27,5,7,13)          148.0058         estimate D2E/DX2                !
 ! D19   D(5,7,8,9)            -55.7081         estimate D2E/DX2                !
 ! D20   D(5,7,8,10)          -167.4063         estimate D2E/DX2                !
 ! D21   D(5,7,8,11)            71.3723         estimate D2E/DX2                !
 ! D22   D(12,7,8,9)            70.0073         estimate D2E/DX2                !
 ! D23   D(12,7,8,10)          -41.6909         estimate D2E/DX2                !
 ! D24   D(12,7,8,11)         -162.9123         estimate D2E/DX2                !
 ! D25   D(13,7,8,9)          -166.8113         estimate D2E/DX2                !
 ! D26   D(13,7,8,10)           81.4905         estimate D2E/DX2                !
 ! D27   D(13,7,8,11)          -39.7309         estimate D2E/DX2                !
 ! D28   D(5,7,13,14)          -51.5379         estimate D2E/DX2                !
 ! D29   D(5,7,13,15)         -170.7208         estimate D2E/DX2                !
 ! D30   D(5,7,13,16)           74.287          estimate D2E/DX2                !
 ! D31   D(8,7,13,14)           62.491          estimate D2E/DX2                !
 ! D32   D(8,7,13,15)          -56.6919         estimate D2E/DX2                !
 ! D33   D(8,7,13,16)         -171.6841         estimate D2E/DX2                !
 ! D34   D(12,7,13,14)        -175.5139         estimate D2E/DX2                !
 ! D35   D(12,7,13,15)          65.3031         estimate D2E/DX2                !
 ! D36   D(12,7,13,16)         -49.6891         estimate D2E/DX2                !
 ! D37   D(7,13,16,17)          59.8747         estimate D2E/DX2                !
 ! D38   D(7,13,16,25)        -117.0395         estimate D2E/DX2                !
 ! D39   D(14,13,16,17)       -171.9669         estimate D2E/DX2                !
 ! D40   D(14,13,16,25)         11.119          estimate D2E/DX2                !
 ! D41   D(15,13,16,17)        -56.1973         estimate D2E/DX2                !
 ! D42   D(15,13,16,25)        126.8886         estimate D2E/DX2                !
 ! D43   D(13,16,17,18)        -12.7679         estimate D2E/DX2                !
 ! D44   D(13,16,17,19)        172.6114         estimate D2E/DX2                !
 ! D45   D(25,16,17,18)        164.1404         estimate D2E/DX2                !
 ! D46   D(25,16,17,19)        -10.4803         estimate D2E/DX2                !
 ! D47   D(13,16,25,23)       -173.279          estimate D2E/DX2                !
 ! D48   D(13,16,25,26)          5.532          estimate D2E/DX2                !
 ! D49   D(17,16,25,23)          9.7307         estimate D2E/DX2                !
 ! D50   D(17,16,25,26)       -171.4582         estimate D2E/DX2                !
 ! D51   D(16,17,19,20)        179.351          estimate D2E/DX2                !
 ! D52   D(16,17,19,21)         -3.1035         estimate D2E/DX2                !
 ! D53   D(18,17,19,20)          5.026          estimate D2E/DX2                !
 ! D54   D(18,17,19,21)       -177.4285         estimate D2E/DX2                !
 ! D55   D(17,19,21,22)       -171.8188         estimate D2E/DX2                !
 ! D56   D(17,19,21,23)         16.5501         estimate D2E/DX2                !
 ! D57   D(20,19,21,22)          5.5167         estimate D2E/DX2                !
 ! D58   D(20,19,21,23)       -166.1144         estimate D2E/DX2                !
 ! D59   D(19,21,23,24)       -179.1258         estimate D2E/DX2                !
 ! D60   D(19,21,23,25)        -17.1416         estimate D2E/DX2                !
 ! D61   D(22,21,23,24)          9.9845         estimate D2E/DX2                !
 ! D62   D(22,21,23,25)        171.9687         estimate D2E/DX2                !
 ! D63   D(21,23,25,16)          3.826          estimate D2E/DX2                !
 ! D64   D(21,23,25,26)       -174.9144         estimate D2E/DX2                !
 ! D65   D(24,23,25,16)        164.9381         estimate D2E/DX2                !
 ! D66   D(24,23,25,26)        -13.8023         estimate D2E/DX2                !
 --------------------------------------------------------------------------------
 Trust Radius=3.00D-01 FncErr=1.00D-07 GrdErr=1.00D-06 EigMax=2.50D+02 EigMin=1.00D-04
 Number of steps in this run=    151 maximum allowed number of steps=    162.
 GradGradGradGradGradGradGradGradGradGradGradGradGradGradGradGradGradGrad

 Leave Link  103 at Sun Jul 18 14:19:36 2021, MaxMem=   104857600 cpu:               0.0 elap:               0.0
 (Enter /prod/apps/gaussian/g16b1/l202.exe)
                          Input orientation:                          
 ---------------------------------------------------------------------
 Center     Atomic      Atomic             Coordinates (Angstroms)
 Number     Number       Type             X           Y           Z
 ---------------------------------------------------------------------
      1          6           0       -1.737000    0.985000   -1.086000
      2          1           0       -2.435000    1.473000   -1.772000
      3          1           0       -0.725000    1.397000   -1.124000
      4          1           0       -2.184000    1.272000   -0.131000
      5          7           0       -1.701000   -0.534000   -1.137000
      6          1           0       -1.066000   -0.810000   -1.858000
      7          6           0       -1.290000   -1.182000    0.114000
      8          6           0       -1.722000   -2.652000    0.097000
      9          1           0       -2.799000   -2.696000   -0.080000
     10          1           0       -1.596000   -3.004000    1.123000
     11          1           0       -1.132000   -3.251000   -0.600000
     12          1           0       -1.647000   -0.638000    0.991000
     13          6           0        0.258000   -1.337000    0.022000
     14          1           0        0.619000   -1.813000   -0.892000
     15          1           0        0.578000   -1.963000    0.858000
     16          6           0        0.915000   -0.021000    0.224000
     17          6           0        0.743000    0.728000    1.434000
     18          1           0       -0.050000    0.397000    2.100000
     19          6           0        1.455000    1.849000    1.674000
     20          1           0        1.252000    2.359000    2.612000
     21          6           0        2.425000    2.250000    0.751000
     22          1           0        3.066000    3.076000    1.048000
     23          6           0        2.385000    1.681000   -0.563000
     24          1           0        3.159000    1.998000   -1.258000
     25          6           0        1.640000    0.508000   -0.779000
     26          1           0        1.632000   -0.020000   -1.730000
     27          1           0       -2.614000   -0.863000   -1.377000
 ---------------------------------------------------------------------
                    Distance matrix (angstroms):
                    1          2          3          4          5
     1  C    0.000000
     2  H    1.093592   0.000000
     3  H    1.093312   1.830240   0.000000
     4  H    1.092796   1.672209   1.769281   0.000000
     5  N    1.520282   2.229356   2.163679   2.122960   0.000000
     6  H    2.065974   2.663390   2.350720   2.926974   0.999621
     7  C    2.517081   3.452107   2.916009   2.623238   1.467592
     8  C    3.824589   4.584447   4.345026   3.957677   2.451351
     9  H    3.961015   4.513970   4.705748   4.015700   2.645203
    10  H    4.561982   5.397080   5.017614   4.494712   3.349556
    11  H    4.306497   5.038608   4.695118   4.667354   2.827405
    12  H    2.637453   3.565310   3.076448   2.279332   2.131224
    13  C    3.255668   4.285649   3.123197   3.576822   2.413663
    14  H    3.662946   4.571555   3.487730   4.237116   2.660501
    15  H    4.222448   5.272681   4.112874   4.367149   3.349016
    16  C    3.124298   4.175949   2.552925   3.376637   2.993150
    17  C    3.544975   4.575275   3.024227   3.363405   3.765079
    18  H    3.652713   4.673156   3.442354   3.208885   3.751097
    19  C    4.307315   5.210412   3.575683   4.102837   4.851881
    20  H    4.949465   5.796414   4.334936   4.528986   5.580740
    21  C    4.721974   5.530719   3.763739   4.793463   5.323446
    22  H    5.656416   6.386158   4.680631   5.675117   6.366366
    23  C    4.212936   4.973665   3.172929   4.607566   4.683065
    24  H    5.002656   5.642044   3.932507   5.508616   5.481356
    25  C    3.424311   4.303824   2.550014   3.953046   3.517984
    26  H    3.574202   4.332586   2.816127   4.334504   3.424140
    27  H    2.066135   2.375913   2.956337   2.509112   0.999705
                    6          7          8          9         10
     6  H    0.000000
     7  C    2.019243   0.000000
     8  C    2.765018   1.532257   0.000000
     9  H    3.117943   2.146372   1.092334   0.000000
    10  H    3.739104   2.105089   1.091996   1.728954   0.000000
    11  H    2.746889   2.194430   1.092113   1.832297   1.801398
    12  H    2.912721   1.092023   2.204780   2.590272   2.370228
    13  C    2.359047   1.558459   2.378077   3.347019   2.725510
    14  H    2.185953   2.248217   2.676252   3.622397   3.222566
    15  H    3.377692   2.157063   2.518698   3.580679   2.424909
    16  C    2.980202   2.494403   3.727205   4.587138   4.001451
    17  C    4.058964   3.086031   4.391833   5.153808   4.415367
    18  H    4.260853   2.824011   4.012978   4.677184   3.861534
    19  C    5.089278   4.376709   5.730555   6.467616   5.758803
    20  H    5.949503   5.023987   6.346654   7.015019   6.252199
    21  C    5.325182   5.097609   6.454063   7.241799   6.626563
    22  H    6.373324   6.162601   7.525911   8.305817   7.662002
    23  C    4.448765   4.707518   6.006491   6.801858   6.374965
    24  H    5.108374   5.638119   6.876241   7.675877   7.300629
    25  C    3.197468   3.498349   4.696384   5.518962   5.140374
    26  H    2.814194   3.645362   4.638391   5.432977   5.240596
    27  H    1.621874   2.019361   2.483719   2.253070   3.445316
                   11         12         13         14         15
    11  H    0.000000
    12  H    3.102302   0.000000
    13  C    2.445890   2.248686   0.000000
    14  H    2.284537   3.171919   1.091922   0.000000
    15  H    2.590137   2.593056   1.092324   1.756895   0.000000
    16  C    3.911788   2.744599   1.484692   2.131745   2.070480
    17  C    4.846155   2.788244   2.548175   3.447076   2.756897
    18  H    4.665686   2.202615   2.723913   3.779382   2.739808
    19  C    6.154157   4.034112   3.783188   4.549010   3.995789
    20  H    6.890029   4.473684   4.621315   5.484915   4.712799
    21  C    6.688681   4.997932   4.253692   4.740153   4.601329
    22  H    7.769816   6.000784   5.330301   5.801183   5.622968
    23  C    6.057663   4.904049   3.738272   3.928744   4.308506
    24  H    6.811582   5.924874   4.601785   4.594483   5.179627
    25  C    4.673982   3.905200   2.440400   2.538159   3.148564
    26  H    4.399541   4.305532   2.586865   2.223345   3.403514
    27  H    2.915921   2.567711   3.229591   3.404411   4.048961
                   16         17         18         19         20
    16  C    0.000000
    17  C    1.433417   0.000000
    18  H    2.150657   1.087183   0.000000
    19  C    2.427138   1.349513   2.134199   0.000000
    20  H    3.388291   2.075313   2.409729   1.086809   0.000000
    21  C    2.777637   2.368986   3.373283   1.397723   2.202528
    22  H    3.859687   3.325422   4.241839   2.119605   2.500156
    23  C    2.382661   2.755428   3.830072   2.428434   3.438604
    24  H    3.362770   3.833643   4.912947   3.394472   4.329419
    25  C    1.345910   2.397995   3.340219   2.801734   3.882734
    26  H    2.081395   3.370567   4.203797   3.887378   4.965582
    27  H    3.965603   4.658589   4.500136   5.763706   6.421788
                   21         22         23         24         25
    21  C    0.000000
    22  H    1.086907   0.000000
    23  C    1.432465   2.237210   0.000000
    24  H    2.153681   2.547228   1.087470   0.000000
    25  C    2.447793   3.459195   1.406275   2.181032   0.000000
    26  H    3.455012   4.399870   2.195973   2.574264   1.087772
    27  H    6.293701   7.325213   5.667851   6.444145   4.509297
                   26         27
    26  H    0.000000
    27  H    4.343245   0.000000
 Stoichiometry    C10H16N(1+)
 Framework group  C1[X(C10H16N)]
 Deg. of freedom    75
 Full point group                 C1      NOp   1
 Largest Abelian subgroup         C1      NOp   1
 Largest concise Abelian subgroup C1      NOp   1
                         Standard orientation:                         
 ---------------------------------------------------------------------
 Center     Atomic      Atomic             Coordinates (Angstroms)
 Number     Number       Type             X           Y           Z
 ---------------------------------------------------------------------
      1          6           0        1.028623    1.997372   -0.692190
      2          1           0        1.351054    3.033384   -0.828797
      3          1           0        0.024079    1.902940   -0.271113
      4          1           0        0.990112    1.675730   -1.735869
      5          7           0        2.003390    1.083664    0.033223
      6          1           0        1.852833    1.179792    1.016754
      7          6           0        1.890015   -0.337475   -0.315110
      8          6           0        3.169884   -1.071363    0.098602
      9          1           0        4.022244   -0.576667   -0.372516
     10          1           0        3.114664   -2.048193   -0.386382
     11          1           0        3.258706   -1.174256    1.182222
     12          1           0        1.632317   -0.479875   -1.366693
     13          6           0        0.872371   -0.942134    0.698588
     14          1           0        1.089685   -0.733596    1.748150
     15          1           0        0.889297   -2.027502    0.576683
     16          6           0       -0.506812   -0.515047    0.352524
     17          6           0       -1.096599   -0.831158   -0.915115
     18          1           0       -0.423507   -1.204516   -1.682916
     19          6           0       -2.395980   -0.570991   -1.170274
     20          1           0       -2.755951   -0.833764   -2.161498
     21          6           0       -3.196443   -0.041362   -0.154212
     22          1           0       -4.261834    0.023718   -0.359326
     23          6           0       -2.549057    0.536441    0.985522
     24          1           0       -3.193622    0.928370    1.768795
     25          6           0       -1.196014    0.239769    1.228156
     26          1           0       -0.666997    0.578611    2.116174
     27          1           0        2.933263    1.385856   -0.175170
 ---------------------------------------------------------------------
 Rotational constants (GHZ):           2.0961022           0.6862080           0.6468804
 Leave Link  202 at Sun Jul 18 14:19:36 2021, MaxMem=   104857600 cpu:               0.0 elap:               0.0
 (Enter /prod/apps/gaussian/g16b1/l301.exe)
 Standard basis: 6-31G(d) (6D, 7F)
 Ernie: Thresh=  0.10000D-02 Tol=  0.10000D-05 Strict=F.
 There are   197 symmetry adapted cartesian basis functions of A   symmetry.
 There are   197 symmetry adapted basis functions of A   symmetry.
   197 basis functions,   372 primitive gaussians,   197 cartesian basis functions
    41 alpha electrons       41 beta electrons
       nuclear repulsion energy       626.7827625211 Hartrees.
 IExCor=  402 DFT=T Ex+Corr=B3LYP ExCW=0 ScaHFX=  0.200000
 ScaDFX=  0.800000  0.720000  1.000000  0.810000 ScalE2=  1.000000  1.000000
 IRadAn=      5 IRanWt=     -1 IRanGd=            0 ICorTp=0 IEmpDi=  4
 NAtoms=   27 NActive=   27 NUniq=   27 SFac= 1.00D+00 NAtFMM=   60 NAOKFM=F Big=F
 Integral buffers will be    131072 words long.
 Raffenetti 2 integral format.
 Two-electron integral symmetry is turned on.
 Using the following non-standard input for PCM:
 MSTModel=DFT cav MSTCharged
 --- end of non-standard input.
 MST model for solvation energy: B3LYP parametrization.
 MST cavity parameters:
 ISph   IAn     Re0     Alpha   Atom Type   QCorr
 ------------------------------------------------
   1      6     1.50     1.25      CH3        F
   2      1     1.20     1.25      CH3        F
   3      1     1.20     1.25      CH3        F
   4      1     1.20     1.25      CH3        F
   5      7     1.55     1.15      NH         T
   6      1     0.90     1.15      NH         T
   7      6     1.50     1.25      CH         F
   8      6     1.50     1.25      CH3        F
   9      1     1.20     1.25      CH3        F
  10      1     1.20     1.25      CH3        F
  11      1     1.20     1.25      CH3        F
  12      1     1.20     1.25      CH         F
  13      6     1.50     1.25      CH2        F
  14      1     1.20     1.25      CH2        F
  15      1     1.20     1.25      CH2        F
  16      6     1.50     1.25      C          F
  17      6     1.50     1.25      CH         F
  18      1     1.20     1.25      CH         F
  19      6     1.50     1.25      CH         F
  20      1     1.20     1.25      CH         F
  21      6     1.50     1.25      CH         F
  22      1     1.20     1.25      CH         F
  23      6     1.50     1.25      CH         F
  24      1     1.20     1.25      CH         F
  25      6     1.50     1.25      CH         F
  26      1     1.20     1.25      CH         F
  27      1     0.90     1.15      NH         T
 ------------------------------------------------------------------------------
 Polarizable Continuum Model (PCM)
 =================================
 Model                : PCM.
 Atomic radii         : MST.
 Polarization charges : Total charges.
 Charge compensation  : None.
 Solution method      : On-the-fly selection.
 Cavity type          : Scaled VdW (van der Waals Surface) (Alpha=1.250).
 Cavity algorithm     : GePol (No added spheres)
                        Default sphere list used, NSphG=   27.
                        Lebedev-Laikov grids with approx.  5.0 points / Ang**2.
                        Smoothing algorithm: York/Karplus (Gamma=1.0000).
                        Polarization charges: spherical gaussians, with
                                              point-specific exponents (IZeta= 3).
                        Self-potential: point-specific (ISelfS= 7).
                        Self-field    : sphere-specific E.n sum rule (ISelfD= 2).
 1st derivatives      : Analytical E(r).r(x)/FMM algorithm (CHGder, D1EAlg=3).
                        Cavity 1st derivative terms included.
 Solvent              : Water, Eps=  78.355300 Eps(inf)=   1.777849
 ------------------------------------------------------------------------------
 GePol: Number of generator spheres                  =      27
 GePol: Total number of spheres                      =      27
 GePol: Number of exposed spheres                    =      27 (100.00%)
 GePol: Number of points                             =    1838
 GePol: Average weight of points                     =       0.13
 GePol: Minimum weight of points                     =   0.19D-11
 GePol: Maximum weight of points                     =    0.21416
 GePol: Number of points with low weight             =     152
 GePol: Fraction of low-weight points (<1% of avg)   =       8.27%
 GePol: Cavity surface area                          =    231.281 Ang**2
 GePol: Cavity volume                                =    215.117 Ang**3
 PCM non-electrostatic energy =         0.0009105732 Hartrees.
 Nuclear repulsion after PCM non-electrostatic terms =      626.7836730943 Hartrees.
 Leave Link  301 at Sun Jul 18 14:19:36 2021, MaxMem=   104857600 cpu:               0.3 elap:               0.1
 (Enter /prod/apps/gaussian/g16b1/l302.exe)
 NPDir=0 NMtPBC=     1 NCelOv=     1 NCel=       1 NClECP=     1 NCelD=      1
         NCelK=      1 NCelE2=     1 NClLst=     1 CellRange=     0.0.
 One-electron integrals computed using PRISM.
 One-electron integral symmetry used in STVInt
 NBasis=   197 RedAO= T EigKep=  6.12D-04  NBF=   197
 NBsUse=   197 1.00D-06 EigRej= -1.00D+00 NBFU=   197
 Precomputing XC quadrature grid using
 IXCGrd= 4 IRadAn=           5 IRanWt=          -1 IRanGd=           0 AccXCQ= 0.00D+00.
 Generated NRdTot=       0 NPtTot=           0 NUsed=           0 NTot=          32
 NSgBfM=   197   197   197   197   197 MxSgAt=    27 MxSgA2=    27.
 Leave Link  302 at Sun Jul 18 14:19:36 2021, MaxMem=   104857600 cpu:               1.1 elap:               0.3
 (Enter /prod/apps/gaussian/g16b1/l303.exe)
 DipDrv:  MaxL=1.
 Leave Link  303 at Sun Jul 18 14:19:36 2021, MaxMem=   104857600 cpu:               0.1 elap:               0.0
 (Enter /prod/apps/gaussian/g16b1/l401.exe)
 ExpMin= 1.61D-01 ExpMax= 4.17D+03 ExpMxC= 6.27D+02 IAcc=3 IRadAn=         5 AccDes= 0.00D+00
 Harris functional with IExCor=  402 and IRadAn=       5 diagonalized for initial guess.
 HarFok:  IExCor=  402 AccDes= 0.00D+00 IRadAn=         5 IDoV= 1 UseB2=F ITyADJ=14
 ICtDFT=  3500011 ScaDFX=  1.000000  1.000000  1.000000  1.000000
 FoFCou: FMM=F IPFlag=           0 FMFlag=      100000 FMFlg1=           0
         NFxFlg=           0 DoJE=T BraDBF=F KetDBF=T FulRan=T
         wScrn=  0.000000 ICntrl=       500 IOpCl=  0 I1Cent=   200000004 NGrid=           0
         NMat0=    1 NMatS0=      1 NMatT0=    0 NMatD0=    1 NMtDS0=    0 NMtDT0=    0
 Petite list used in FoFCou.
 Harris En= -445.245778247609    
 JPrj=0 DoOrth=F DoCkMO=F.
 Leave Link  401 at Sun Jul 18 14:19:38 2021, MaxMem=   104857600 cpu:               5.5 elap:               1.4
 (Enter /prod/apps/gaussian/g16b1/l502.exe)
 Integral symmetry usage will be decided dynamically.
 Closed shell SCF:
 Using DIIS extrapolation, IDIIS=  1040.
 NGot=   104857600 LenX=   104776342 LenY=   104737092
 Requested convergence on RMS density matrix=1.00D-08 within 128 cycles.
 Requested convergence on MAX density matrix=1.00D-06.
 Requested convergence on             energy=1.00D-06.
 No special actions if energy rises.
 Fock matrices will be formed incrementally for  20 cycles.

 Cycle   1  Pass 1  IDiag  1:
 FoFJK:  IHMeth= 1 ICntrl=       0 DoSepK=F KAlg= 0 I1Cent=           0 FoldK=F
 IRaf= 930000000 NMat=       1 IRICut=       1 DoRegI=T DoRafI=F ISym2E= 0 IDoP0=0 IntGTp=1.
 FoFCou: FMM=F IPFlag=           0 FMFlag=      100000 FMFlg1=           0
         NFxFlg=           0 DoJE=F BraDBF=F KetDBF=F FulRan=T
         wScrn=  0.000000 ICntrl=         0 IOpCl=  0 I1Cent=           0 NGrid=           0
         NMat0=    1 NMatS0=      1 NMatT0=    0 NMatD0=    1 NMtDS0=    0 NMtDT0=    0
 Symmetry not used in FoFCou.
 Inv3:  Mode=1 IEnd=    10134732.
 Iteration    1 A*A^-1 deviation from unit magnitude is 3.11D-15 for   1266.
 Iteration    1 A*A^-1 deviation from orthogonality  is 2.01D-15 for   1265    378.
 Iteration    1 A^-1*A deviation from unit magnitude is 2.89D-15 for    460.
 Iteration    1 A^-1*A deviation from orthogonality  is 2.54D-14 for   1783   1776.
 E= -445.021057330152    
 DIIS: error= 3.32D-02 at cycle   1 NSaved=   1.
 NSaved= 1 IEnMin= 1 EnMin= -445.021057330152     IErMin= 1 ErrMin= 3.32D-02
 ErrMax= 3.32D-02  0.00D+00 EMaxC= 1.00D-01 BMatC= 2.43D-01 BMatP= 2.43D-01
 IDIUse=3 WtCom= 6.68D-01 WtEn= 3.32D-01
 Coeff-Com:  0.100D+01
 Coeff-En:   0.100D+01
 Coeff:      0.100D+01
 Gap=     0.223 Goal=   None    Shift=    0.000
 GapD=    0.223 DampG=1.000 DampE=0.500 DampFc=0.5000 IDamp=-1.
 Damping current iteration by 5.00D-01
 RMSDP=5.11D-03 MaxDP=1.26D-01              OVMax= 1.42D-01

 Cycle   2  Pass 1  IDiag  1:
 RMSU=  2.49D-03    CP:  9.76D-01
 E= -445.151079263144     Delta-E=       -0.130021932992 Rises=F Damp=T
 DIIS: error= 6.18D-03 at cycle   2 NSaved=   2.
 NSaved= 2 IEnMin= 2 EnMin= -445.151079263144     IErMin= 2 ErrMin= 6.18D-03
 ErrMax= 6.18D-03  0.00D+00 EMaxC= 1.00D-01 BMatC= 1.17D-02 BMatP= 2.43D-01
 IDIUse=3 WtCom= 9.38D-01 WtEn= 6.18D-02
 Coeff-Com: -0.253D-01 0.103D+01
 Coeff-En:   0.000D+00 0.100D+01
 Coeff:     -0.237D-01 0.102D+01
 Gap=     0.233 Goal=   None    Shift=    0.000
 RMSDP=1.23D-03 MaxDP=2.12D-02 DE=-1.30D-01 OVMax= 7.54D-02

 Cycle   3  Pass 1  IDiag  1:
 RMSU=  1.22D-03    CP:  9.68D-01  9.76D-01
 E= -445.282529694101     Delta-E=       -0.131450430957 Rises=F Damp=F
 DIIS: error= 1.96D-03 at cycle   3 NSaved=   3.
 NSaved= 3 IEnMin= 3 EnMin= -445.282529694101     IErMin= 3 ErrMin= 1.96D-03
 ErrMax= 1.96D-03  0.00D+00 EMaxC= 1.00D-01 BMatC= 1.79D-03 BMatP= 1.17D-02
 IDIUse=3 WtCom= 9.80D-01 WtEn= 1.96D-02
 Coeff-Com: -0.410D-01 0.246D+00 0.795D+00
 Coeff-En:   0.000D+00 0.000D+00 0.100D+01
 Coeff:     -0.402D-01 0.241D+00 0.799D+00
 Gap=     0.221 Goal=   None    Shift=    0.000
 RMSDP=3.09D-04 MaxDP=7.48D-03 DE=-1.31D-01 OVMax= 1.53D-02

 Cycle   4  Pass 1  IDiag  1:
 RMSU=  2.41D-04    CP:  9.68D-01  1.01D+00  8.56D-01
 E= -445.283672211001     Delta-E=       -0.001142516901 Rises=F Damp=F
 DIIS: error= 1.36D-03 at cycle   4 NSaved=   4.
 NSaved= 4 IEnMin= 4 EnMin= -445.283672211001     IErMin= 4 ErrMin= 1.36D-03
 ErrMax= 1.36D-03  0.00D+00 EMaxC= 1.00D-01 BMatC= 5.59D-04 BMatP= 1.79D-03
 IDIUse=3 WtCom= 9.86D-01 WtEn= 1.36D-02
 Coeff-Com: -0.185D-01 0.713D-01 0.405D+00 0.542D+00
 Coeff-En:   0.000D+00 0.000D+00 0.203D+00 0.797D+00
 Coeff:     -0.182D-01 0.703D-01 0.402D+00 0.546D+00
 Gap=     0.221 Goal=   None    Shift=    0.000
 RMSDP=1.40D-04 MaxDP=4.74D-03 DE=-1.14D-03 OVMax= 1.00D-02

 Cycle   5  Pass 1  IDiag  1:
 RMSU=  9.11D-05    CP:  9.68D-01  1.01D+00  8.82D-01  5.79D-01
 E= -445.284175796892     Delta-E=       -0.000503585891 Rises=F Damp=F
 DIIS: error= 4.98D-04 at cycle   5 NSaved=   5.
 NSaved= 5 IEnMin= 5 EnMin= -445.284175796892     IErMin= 5 ErrMin= 4.98D-04
 ErrMax= 4.98D-04  0.00D+00 EMaxC= 1.00D-01 BMatC= 5.40D-05 BMatP= 5.59D-04
 IDIUse=3 WtCom= 9.95D-01 WtEn= 4.98D-03
 Coeff-Com: -0.507D-02 0.105D-01 0.123D+00 0.285D+00 0.587D+00
 Coeff-En:   0.000D+00 0.000D+00 0.000D+00 0.360D-01 0.964D+00
 Coeff:     -0.504D-02 0.105D-01 0.123D+00 0.284D+00 0.588D+00
 Gap=     0.221 Goal=   None    Shift=    0.000
 RMSDP=4.40D-05 MaxDP=1.29D-03 DE=-5.04D-04 OVMax= 3.25D-03

 Cycle   6  Pass 1  IDiag  1:
 RMSU=  2.06D-05    CP:  9.68D-01  1.01D+00  8.82D-01  6.59D-01  6.30D-01
 E= -445.284228723080     Delta-E=       -0.000052926187 Rises=F Damp=F
 DIIS: error= 1.34D-04 at cycle   6 NSaved=   6.
 NSaved= 6 IEnMin= 6 EnMin= -445.284228723080     IErMin= 6 ErrMin= 1.34D-04
 ErrMax= 1.34D-04  0.00D+00 EMaxC= 1.00D-01 BMatC= 3.56D-06 BMatP= 5.40D-05
 IDIUse=3 WtCom= 9.99D-01 WtEn= 1.34D-03
 Coeff-Com: -0.221D-02 0.367D-02 0.541D-01 0.139D+00 0.332D+00 0.474D+00
 Coeff-En:   0.000D+00 0.000D+00 0.000D+00 0.000D+00 0.000D+00 0.100D+01
 Coeff:     -0.221D-02 0.367D-02 0.540D-01 0.139D+00 0.332D+00 0.474D+00
 Gap=     0.221 Goal=   None    Shift=    0.000
 RMSDP=1.12D-05 MaxDP=3.02D-04 DE=-5.29D-05 OVMax= 6.49D-04

 Cycle   7  Pass 1  IDiag  1:
 RMSU=  4.50D-06    CP:  9.68D-01  1.01D+00  8.86D-01  6.52D-01  6.60D-01
                    CP:  5.90D-01
 E= -445.284232362751     Delta-E=       -0.000003639671 Rises=F Damp=F
 DIIS: error= 1.48D-05 at cycle   7 NSaved=   7.
 NSaved= 7 IEnMin= 7 EnMin= -445.284232362751     IErMin= 7 ErrMin= 1.48D-05
 ErrMax= 1.48D-05  0.00D+00 EMaxC= 1.00D-01 BMatC= 7.96D-08 BMatP= 3.56D-06
 IDIUse=1 WtCom= 1.00D+00 WtEn= 0.00D+00
 Coeff-Com: -0.424D-03 0.394D-03 0.103D-01 0.288D-01 0.780D-01 0.176D+00
 Coeff-Com:  0.707D+00
 Coeff:     -0.424D-03 0.394D-03 0.103D-01 0.288D-01 0.780D-01 0.176D+00
 Coeff:      0.707D+00
 Gap=     0.221 Goal=   None    Shift=    0.000
 RMSDP=1.66D-06 MaxDP=5.84D-05 DE=-3.64D-06 OVMax= 9.44D-05

 Cycle   8  Pass 1  IDiag  1:
 RMSU=  1.17D-06    CP:  9.68D-01  1.01D+00  8.86D-01  6.55D-01  6.62D-01
                    CP:  6.15D-01  8.11D-01
 E= -445.284232423541     Delta-E=       -0.000000060790 Rises=F Damp=F
 DIIS: error= 5.27D-06 at cycle   8 NSaved=   8.
 NSaved= 8 IEnMin= 8 EnMin= -445.284232423541     IErMin= 8 ErrMin= 5.27D-06
 ErrMax= 5.27D-06  0.00D+00 EMaxC= 1.00D-01 BMatC= 1.19D-08 BMatP= 7.96D-08
 IDIUse=1 WtCom= 1.00D+00 WtEn= 0.00D+00
 Coeff-Com: -0.527D-04-0.709D-04 0.123D-02 0.441D-02 0.156D-01 0.549D-01
 Coeff-Com:  0.347D+00 0.577D+00
 Coeff:     -0.527D-04-0.709D-04 0.123D-02 0.441D-02 0.156D-01 0.549D-01
 Coeff:      0.347D+00 0.577D+00
 Gap=     0.221 Goal=   None    Shift=    0.000
 RMSDP=6.26D-07 MaxDP=1.80D-05 DE=-6.08D-08 OVMax= 4.65D-05

 Cycle   9  Pass 1  IDiag  1:
 RMSU=  3.98D-07    CP:  9.68D-01  1.01D+00  8.86D-01  6.55D-01  6.64D-01
                    CP:  6.19D-01  8.41D-01  6.42D-01
 E= -445.284232434327     Delta-E=       -0.000000010786 Rises=F Damp=F
 DIIS: error= 1.56D-06 at cycle   9 NSaved=   9.
 NSaved= 9 IEnMin= 9 EnMin= -445.284232434327     IErMin= 9 ErrMin= 1.56D-06
 ErrMax= 1.56D-06  0.00D+00 EMaxC= 1.00D-01 BMatC= 8.69D-10 BMatP= 1.19D-08
 IDIUse=1 WtCom= 1.00D+00 WtEn= 0.00D+00
 Coeff-Com:  0.161D-04-0.660D-04-0.469D-03-0.942D-03-0.887D-03 0.690D-02
 Coeff-Com:  0.780D-01 0.259D+00 0.658D+00
 Coeff:      0.161D-04-0.660D-04-0.469D-03-0.942D-03-0.887D-03 0.690D-02
 Coeff:      0.780D-01 0.259D+00 0.658D+00
 Gap=     0.221 Goal=   None    Shift=    0.000
 RMSDP=1.89D-07 MaxDP=5.01D-06 DE=-1.08D-08 OVMax= 1.64D-05

 Cycle  10  Pass 1  IDiag  1:
 RMSU=  1.14D-07    CP:  9.68D-01  1.01D+00  8.86D-01  6.55D-01  6.64D-01
                    CP:  6.20D-01  8.47D-01  7.13D-01  7.04D-01
 E= -445.284232435094     Delta-E=       -0.000000000766 Rises=F Damp=F
 DIIS: error= 6.32D-07 at cycle  10 NSaved=  10.
 NSaved=10 IEnMin=10 EnMin= -445.284232435094     IErMin=10 ErrMin= 6.32D-07
 ErrMax= 6.32D-07  0.00D+00 EMaxC= 1.00D-01 BMatC= 1.35D-10 BMatP= 8.69D-10
 IDIUse=1 WtCom= 1.00D+00 WtEn= 0.00D+00
 Coeff-Com:  0.119D-04-0.315D-04-0.345D-03-0.814D-03-0.146D-02 0.718D-03
 Coeff-Com:  0.234D-01 0.116D+00 0.378D+00 0.484D+00
 Coeff:      0.119D-04-0.315D-04-0.345D-03-0.814D-03-0.146D-02 0.718D-03
 Coeff:      0.234D-01 0.116D+00 0.378D+00 0.484D+00
 Gap=     0.221 Goal=   None    Shift=    0.000
 RMSDP=6.61D-08 MaxDP=1.82D-06 DE=-7.66D-10 OVMax= 6.53D-06

 Cycle  11  Pass 1  IDiag  1:
 RMSU=  3.44D-08    CP:  9.68D-01  1.01D+00  8.86D-01  6.55D-01  6.64D-01
                    CP:  6.20D-01  8.49D-01  7.09D-01  7.66D-01  5.71D-01
 E= -445.284232435233     Delta-E=       -0.000000000139 Rises=F Damp=F
 DIIS: error= 1.00D-07 at cycle  11 NSaved=  11.
 NSaved=11 IEnMin=11 EnMin= -445.284232435233     IErMin=11 ErrMin= 1.00D-07
 ErrMax= 1.00D-07  0.00D+00 EMaxC= 1.00D-01 BMatC= 3.77D-12 BMatP= 1.35D-10
 IDIUse=1 WtCom= 1.00D+00 WtEn= 0.00D+00
 Coeff-Com:  0.251D-05-0.440D-05-0.785D-04-0.196D-03-0.420D-03-0.284D-03
 Coeff-Com:  0.101D-02 0.182D-01 0.690D-01 0.182D+00 0.731D+00
 Coeff:      0.251D-05-0.440D-05-0.785D-04-0.196D-03-0.420D-03-0.284D-03
 Coeff:      0.101D-02 0.182D-01 0.690D-01 0.182D+00 0.731D+00
 Gap=     0.221 Goal=   None    Shift=    0.000
 RMSDP=1.20D-08 MaxDP=2.70D-07 DE=-1.39D-10 OVMax= 7.11D-07

 Cycle  12  Pass 1  IDiag  1:
 RMSU=  6.82D-09    CP:  9.68D-01  1.01D+00  8.86D-01  6.55D-01  6.64D-01
                    CP:  6.20D-01  8.48D-01  7.13D-01  7.66D-01  6.17D-01
                    CP:  8.30D-01
 E= -445.284232435241     Delta-E=       -0.000000000008 Rises=F Damp=F
 DIIS: error= 2.80D-08 at cycle  12 NSaved=  12.
 NSaved=12 IEnMin=12 EnMin= -445.284232435241     IErMin=12 ErrMin= 2.80D-08
 ErrMax= 2.80D-08  0.00D+00 EMaxC= 1.00D-01 BMatC= 2.50D-13 BMatP= 3.77D-12
 IDIUse=1 WtCom= 1.00D+00 WtEn= 0.00D+00
 Coeff-Com:  0.461D-06-0.312D-06-0.163D-04-0.420D-04-0.107D-03-0.164D-03
 Coeff-Com: -0.849D-03 0.177D-02 0.843D-02 0.535D-01 0.296D+00 0.641D+00
 Coeff:      0.461D-06-0.312D-06-0.163D-04-0.420D-04-0.107D-03-0.164D-03
 Coeff:     -0.849D-03 0.177D-02 0.843D-02 0.535D-01 0.296D+00 0.641D+00
 Gap=     0.221 Goal=   None    Shift=    0.000
 RMSDP=2.86D-09 MaxDP=1.18D-07 DE=-7.73D-12 OVMax= 1.56D-07

 Error on total polarization charges =  0.01700
 SCF Done:  E(RB3LYP) =  -445.284232435     A.U. after   12 cycles
            NFock= 12  Conv=0.29D-08     -V/T= 2.0094
 KE= 4.411547547995D+02 PE=-2.269773314291D+03 EE= 7.565506539620D+02
 Leave Link  502 at Sun Jul 18 14:20:09 2021, MaxMem=   104857600 cpu:             124.3 elap:              31.1
 (Enter /prod/apps/gaussian/g16b1/l601.exe)
 Copying SCF densities to generalized density rwf, IOpCl= 0 IROHF=0.

 **********************************************************************

            Population analysis using the SCF Density.

 **********************************************************************

 Orbital symmetries:
       Occupied  (A) (A) (A) (A) (A) (A) (A) (A) (A) (A) (A) (A)
                 (A) (A) (A) (A) (A) (A) (A) (A) (A) (A) (A) (A)
                 (A) (A) (A) (A) (A) (A) (A) (A) (A) (A) (A) (A)
                 (A) (A) (A) (A) (A)
       Virtual   (A) (A) (A) (A) (A) (A) (A) (A) (A) (A) (A) (A)
                 (A) (A) (A) (A) (A) (A) (A) (A) (A) (A) (A) (A)
                 (A) (A) (A) (A) (A) (A) (A) (A) (A) (A) (A) (A)
                 (A) (A) (A) (A) (A) (A) (A) (A) (A) (A) (A) (A)
                 (A) (A) (A) (A) (A) (A) (A) (A) (A) (A) (A) (A)
                 (A) (A) (A) (A) (A) (A) (A) (A) (A) (A) (A) (A)
                 (A) (A) (A) (A) (A) (A) (A) (A) (A) (A) (A) (A)
                 (A) (A) (A) (A) (A) (A) (A) (A) (A) (A) (A) (A)
                 (A) (A) (A) (A) (A) (A) (A) (A) (A) (A) (A) (A)
                 (A) (A) (A) (A) (A) (A) (A) (A) (A) (A) (A) (A)
                 (A) (A) (A) (A) (A) (A) (A) (A) (A) (A) (A) (A)
                 (A) (A) (A) (A) (A) (A) (A) (A) (A) (A) (A) (A)
                 (A) (A) (A) (A) (A) (A) (A) (A) (A) (A) (A) (A)
 The electronic state is 1-A.
 Alpha  occ. eigenvalues --  -14.44708 -10.25393 -10.23857 -10.19911 -10.19790
 Alpha  occ. eigenvalues --  -10.19493 -10.19318 -10.18955 -10.18863 -10.18763
 Alpha  occ. eigenvalues --  -10.18748  -1.01436  -0.86657  -0.81374  -0.76750
 Alpha  occ. eigenvalues --   -0.74753  -0.71424  -0.68810  -0.64325  -0.60723
 Alpha  occ. eigenvalues --   -0.59883  -0.58019  -0.52239  -0.51295  -0.50651
 Alpha  occ. eigenvalues --   -0.46316  -0.45665  -0.44230  -0.42938  -0.42338
 Alpha  occ. eigenvalues --   -0.41935  -0.40877  -0.39558  -0.39014  -0.38094
 Alpha  occ. eigenvalues --   -0.37227  -0.35795  -0.33668  -0.32563  -0.26048
 Alpha  occ. eigenvalues --   -0.23894
 Alpha virt. eigenvalues --   -0.01778   0.00072   0.06378   0.08425   0.09421
 Alpha virt. eigenvalues --    0.10109   0.10679   0.12254   0.13137   0.13259
 Alpha virt. eigenvalues --    0.15324   0.15686   0.15986   0.16663   0.17261
 Alpha virt. eigenvalues --    0.17805   0.19169   0.19446   0.19734   0.21019
 Alpha virt. eigenvalues --    0.22836   0.24735   0.26185   0.26866   0.30158
 Alpha virt. eigenvalues --    0.32986   0.34052   0.35718   0.45426   0.45897
 Alpha virt. eigenvalues --    0.47524   0.49886   0.51866   0.53390   0.54232
 Alpha virt. eigenvalues --    0.54496   0.56308   0.57569   0.57813   0.58824
 Alpha virt. eigenvalues --    0.58982   0.60588   0.60868   0.62250   0.63099
 Alpha virt. eigenvalues --    0.63998   0.65627   0.67659   0.69428   0.71612
 Alpha virt. eigenvalues --    0.75287   0.76567   0.77708   0.79574   0.80525
 Alpha virt. eigenvalues --    0.82565   0.83244   0.83781   0.84130   0.85251
 Alpha virt. eigenvalues --    0.86822   0.88200   0.89047   0.89875   0.90480
 Alpha virt. eigenvalues --    0.91342   0.92799   0.93430   0.94190   0.96181
 Alpha virt. eigenvalues --    0.96257   0.97585   0.99168   0.99640   1.01669
 Alpha virt. eigenvalues --    1.05509   1.07739   1.09815   1.12632   1.14920
 Alpha virt. eigenvalues --    1.15538   1.19457   1.24113   1.30226   1.31671
 Alpha virt. eigenvalues --    1.34894   1.37241   1.41223   1.45599   1.46443
 Alpha virt. eigenvalues --    1.47705   1.50655   1.52368   1.56174   1.60206
 Alpha virt. eigenvalues --    1.62500   1.67735   1.73275   1.75755   1.78399
 Alpha virt. eigenvalues --    1.81306   1.83193   1.85359   1.86437   1.89483
 Alpha virt. eigenvalues --    1.90559   1.91780   1.93172   1.96122   2.00051
 Alpha virt. eigenvalues --    2.00976   2.04568   2.06523   2.07212   2.11031
 Alpha virt. eigenvalues --    2.14186   2.15968   2.17615   2.17991   2.19686
 Alpha virt. eigenvalues --    2.23618   2.25902   2.27893   2.28863   2.33344
 Alpha virt. eigenvalues --    2.35024   2.36516   2.37912   2.41231   2.45586
 Alpha virt. eigenvalues --    2.49503   2.53029   2.58960   2.59838   2.62434
 Alpha virt. eigenvalues --    2.64180   2.69407   2.70725   2.74326   2.76827
 Alpha virt. eigenvalues --    2.78155   2.79463   2.88820   3.06538   3.37439
 Alpha virt. eigenvalues --    3.90172   4.09219   4.12733   4.19937   4.24557
 Alpha virt. eigenvalues --    4.25501   4.31593   4.35031   4.42962   4.56483
 Alpha virt. eigenvalues --    4.68777
          Condensed to atoms (all electrons):
               1          2          3          4          5          6
     1  C    5.055811   0.371921   0.376354   0.381433   0.244606  -0.018205
     2  H    0.371921   0.483114  -0.018075  -0.034886  -0.019288  -0.000194
     3  H    0.376354  -0.018075   0.461537  -0.025164  -0.028291  -0.003168
     4  H    0.381433  -0.034886  -0.025164   0.498739  -0.034367   0.002964
     5  N    0.244606  -0.019288  -0.028291  -0.034367   6.735926   0.298763
     6  H   -0.018205  -0.000194  -0.003168   0.002964   0.298763   0.282374
     7  C   -0.033581   0.002476  -0.001043  -0.003981   0.232180  -0.023842
     8  C    0.004474  -0.000137  -0.000097   0.000287  -0.054825   0.001079
     9  H   -0.000032  -0.000007  -0.000004   0.000017  -0.004366  -0.000180
    10  H   -0.000134   0.000002   0.000005  -0.000009   0.004078  -0.000113
    11  H   -0.000052   0.000005   0.000001  -0.000001  -0.001626   0.001444
    12  H   -0.002918   0.000107  -0.000138   0.004649  -0.039858   0.003388
    13  C   -0.001793  -0.000094  -0.000731   0.000172  -0.057912  -0.003126
    14  H    0.000122  -0.000005   0.000101  -0.000001  -0.006898   0.005379
    15  H   -0.000137   0.000005   0.000029   0.000010   0.004666   0.000168
    16  C   -0.003310   0.000399   0.003314  -0.000129  -0.005012  -0.000791
    17  C    0.000477   0.000100  -0.001890   0.000674  -0.000915   0.000134
    18  H   -0.000081   0.000001  -0.000000   0.000014   0.000084  -0.000019
    19  C    0.000218   0.000004  -0.000353   0.000024  -0.000025  -0.000003
    20  H   -0.000002   0.000000  -0.000001  -0.000001  -0.000000   0.000000
    21  C    0.000022  -0.000006   0.000155  -0.000011   0.000005  -0.000001
    22  H   -0.000000  -0.000000   0.000003  -0.000000   0.000000  -0.000000
    23  C   -0.000965  -0.000011   0.002139   0.000016   0.000004   0.000026
    24  H   -0.000003   0.000000   0.000003   0.000000  -0.000000  -0.000001
    25  C   -0.007205   0.000183   0.008435   0.000081   0.002551   0.001352
    26  H    0.000039  -0.000001  -0.000035  -0.000003  -0.000153   0.000773
    27  H   -0.018166  -0.002837   0.002440  -0.000909   0.303229  -0.012338
               7          8          9         10         11         12
     1  C   -0.033581   0.004474  -0.000032  -0.000134  -0.000052  -0.002918
     2  H    0.002476  -0.000137  -0.000007   0.000002   0.000005   0.000107
     3  H   -0.001043  -0.000097  -0.000004   0.000005   0.000001  -0.000138
     4  H   -0.003981   0.000287   0.000017  -0.000009  -0.000001   0.004649
     5  N    0.232180  -0.054825  -0.004366   0.004078  -0.001626  -0.039858
     6  H   -0.023842   0.001079  -0.000180  -0.000113   0.001444   0.003388
     7  C    4.962877   0.363626  -0.035135  -0.027254  -0.031492   0.392418
     8  C    0.363626   5.135597   0.363396   0.373322   0.382426  -0.030221
     9  H   -0.035135   0.363396   0.546983  -0.026068  -0.024257  -0.000551
    10  H   -0.027254   0.373322  -0.026068   0.519067  -0.022650  -0.003767
    11  H   -0.031492   0.382426  -0.024257  -0.022650   0.514463   0.003488
    12  H    0.392418  -0.030221  -0.000551  -0.003767   0.003488   0.487145
    13  C    0.347465  -0.066783   0.005745  -0.004026  -0.008293  -0.032157
    14  H   -0.022438  -0.007113   0.000012   0.000168   0.003886   0.002906
    15  H   -0.037326  -0.004290   0.000310   0.002270  -0.000908  -0.001459
    16  C   -0.046605   0.006233  -0.000222  -0.000066   0.000713  -0.005519
    17  C   -0.002710   0.000158  -0.000003   0.000016   0.000001   0.002793
    18  H    0.001933  -0.000261   0.000015   0.000030  -0.000004   0.003680
    19  C    0.000089   0.000004  -0.000000  -0.000001   0.000000  -0.000018
    20  H   -0.000002  -0.000000   0.000000   0.000000   0.000000   0.000002
    21  C    0.000039  -0.000000   0.000000   0.000000   0.000000   0.000004
    22  H    0.000000  -0.000000   0.000000  -0.000000   0.000000   0.000000
    23  C   -0.000317   0.000006  -0.000000   0.000000   0.000000   0.000001
    24  H    0.000001  -0.000000   0.000000   0.000000  -0.000000   0.000000
    25  C   -0.002390  -0.000060   0.000003  -0.000005  -0.000023   0.000154
    26  H    0.000349  -0.000040   0.000001   0.000000  -0.000005   0.000005
    27  H   -0.023915  -0.004081   0.006633   0.000046  -0.000326  -0.000151
              13         14         15         16         17         18
     1  C   -0.001793   0.000122  -0.000137  -0.003310   0.000477  -0.000081
     2  H   -0.000094  -0.000005   0.000005   0.000399   0.000100   0.000001
     3  H   -0.000731   0.000101   0.000029   0.003314  -0.001890  -0.000000
     4  H    0.000172  -0.000001   0.000010  -0.000129   0.000674   0.000014
     5  N   -0.057912  -0.006898   0.004666  -0.005012  -0.000915   0.000084
     6  H   -0.003126   0.005379   0.000168  -0.000791   0.000134  -0.000019
     7  C    0.347465  -0.022438  -0.037326  -0.046605  -0.002710   0.001933
     8  C   -0.066783  -0.007113  -0.004290   0.006233   0.000158  -0.000261
     9  H    0.005745   0.000012   0.000310  -0.000222  -0.000003   0.000015
    10  H   -0.004026   0.000168   0.002270  -0.000066   0.000016   0.000030
    11  H   -0.008293   0.003886  -0.000908   0.000713   0.000001  -0.000004
    12  H   -0.032157   0.002906  -0.001459  -0.005519   0.002793   0.003680
    13  C    5.259198   0.367300   0.371454   0.338146  -0.069299  -0.008797
    14  H    0.367300   0.518444  -0.027384  -0.034928   0.004389  -0.000042
    15  H    0.371454  -0.027384   0.534781  -0.031643  -0.005228   0.002000
    16  C    0.338146  -0.034928  -0.031643   4.692359   0.524695  -0.050463
    17  C   -0.069299   0.004389  -0.005228   0.524695   4.978253   0.356833
    18  H   -0.008797  -0.000042   0.002000  -0.050463   0.356833   0.586699
    19  C    0.006967  -0.000161   0.000165  -0.018848   0.549400  -0.043182
    20  H   -0.000206   0.000003   0.000001   0.004224  -0.040987  -0.006888
    21  C    0.000306   0.000007   0.000034  -0.033836  -0.041566   0.005789
    22  H    0.000006  -0.000000  -0.000001   0.000707   0.005424  -0.000204
    23  C    0.008921   0.000180  -0.000205  -0.024563  -0.054452   0.000135
    24  H   -0.000240  -0.000013   0.000007   0.003391   0.001066   0.000016
    25  C   -0.057199  -0.004486   0.001623   0.575113  -0.040693   0.006826
    26  H   -0.013895   0.007848   0.000188  -0.045281   0.006801  -0.000208
    27  H    0.004869   0.000023  -0.000135  -0.000005  -0.000025   0.000006
              19         20         21         22         23         24
     1  C    0.000218  -0.000002   0.000022  -0.000000  -0.000965  -0.000003
     2  H    0.000004   0.000000  -0.000006  -0.000000  -0.000011   0.000000
     3  H   -0.000353  -0.000001   0.000155   0.000003   0.002139   0.000003
     4  H    0.000024  -0.000001  -0.000011  -0.000000   0.000016   0.000000
     5  N   -0.000025  -0.000000   0.000005   0.000000   0.000004  -0.000000
     6  H   -0.000003   0.000000  -0.000001  -0.000000   0.000026  -0.000001
     7  C    0.000089  -0.000002   0.000039   0.000000  -0.000317   0.000001
     8  C    0.000004  -0.000000  -0.000000  -0.000000   0.000006  -0.000000
     9  H   -0.000000   0.000000   0.000000   0.000000  -0.000000   0.000000
    10  H   -0.000001   0.000000   0.000000  -0.000000   0.000000   0.000000
    11  H    0.000000   0.000000   0.000000   0.000000   0.000000  -0.000000
    12  H   -0.000018   0.000002   0.000004   0.000000   0.000001   0.000000
    13  C    0.006967  -0.000206   0.000306   0.000006   0.008921  -0.000240
    14  H   -0.000161   0.000003   0.000007  -0.000000   0.000180  -0.000013
    15  H    0.000165   0.000001   0.000034  -0.000001  -0.000205   0.000007
    16  C   -0.018848   0.004224  -0.033836   0.000707  -0.024563   0.003391
    17  C    0.549400  -0.040987  -0.041566   0.005424  -0.054452   0.001066
    18  H   -0.043182  -0.006888   0.005789  -0.000204   0.000135   0.000016
    19  C    4.866585   0.362170   0.520157  -0.043570  -0.018927   0.003917
    20  H    0.362170   0.571279  -0.042303  -0.004868   0.004146  -0.000152
    21  C    0.520157  -0.042303   4.927672   0.363128   0.535422  -0.042281
    22  H   -0.043570  -0.004868   0.363128   0.566589  -0.038290  -0.004174
    23  C   -0.018927   0.004146   0.535422  -0.038290   4.968334   0.359764
    24  H    0.003917  -0.000152  -0.042281  -0.004174   0.359764   0.566459
    25  C   -0.048853   0.000648  -0.036287   0.003987   0.471198  -0.035576
    26  H    0.000178   0.000019   0.003793  -0.000108  -0.042909  -0.004001
    27  H   -0.000000  -0.000000   0.000000   0.000000  -0.000001   0.000000
              25         26         27
     1  C   -0.007205   0.000039  -0.018166
     2  H    0.000183  -0.000001  -0.002837
     3  H    0.008435  -0.000035   0.002440
     4  H    0.000081  -0.000003  -0.000909
     5  N    0.002551  -0.000153   0.303229
     6  H    0.001352   0.000773  -0.012338
     7  C   -0.002390   0.000349  -0.023915
     8  C   -0.000060  -0.000040  -0.004081
     9  H    0.000003   0.000001   0.006633
    10  H   -0.000005   0.000000   0.000046
    11  H   -0.000023  -0.000005  -0.000326
    12  H    0.000154   0.000005  -0.000151
    13  C   -0.057199  -0.013895   0.004869
    14  H   -0.004486   0.007848   0.000023
    15  H    0.001623   0.000188  -0.000135
    16  C    0.575113  -0.045281  -0.000005
    17  C   -0.040693   0.006801  -0.000025
    18  H    0.006826  -0.000208   0.000006
    19  C   -0.048853   0.000178  -0.000000
    20  H    0.000648   0.000019  -0.000000
    21  C   -0.036287   0.003793   0.000000
    22  H    0.003987  -0.000108   0.000000
    23  C    0.471198  -0.042909  -0.000001
    24  H   -0.035576  -0.004001   0.000000
    25  C    5.001926   0.360608  -0.000040
    26  H    0.360608   0.573393   0.000004
    27  H   -0.000040   0.000004   0.281672
 Mulliken charges:
               1
     1  C   -0.348894
     2  H    0.217225
     3  H    0.224474
     4  H    0.210385
     5  N   -0.572555
     6  H    0.464137
     7  C   -0.011423
     8  C   -0.462702
     9  H    0.167710
    10  H    0.185088
    11  H    0.183209
    12  H    0.216018
    13  C   -0.385999
    14  H    0.192702
    15  H    0.191007
    16  C    0.151926
    17  C   -0.173447
    18  H    0.146088
    19  C   -0.135940
    20  H    0.152921
    21  C   -0.160241
    22  H    0.151370
    23  C   -0.169652
    24  H    0.151817
    25  C   -0.201870
    26  H    0.152639
    27  H    0.464006
 Sum of Mulliken charges =   1.00000
 Mulliken charges with hydrogens summed into heavy atoms:
               1
     1  C    0.303190
     5  N    0.355588
     7  C    0.204594
     8  C    0.073306
    13  C   -0.002290
    16  C    0.151926
    17  C   -0.027358
    19  C    0.016981
    21  C   -0.008871
    23  C   -0.017835
    25  C   -0.049231
 Electronic spatial extent (au):  <R**2>=           1956.3840
 Charge=              1.0000 electrons
 Dipole moment (field-independent basis, Debye):
    X=              9.3887    Y=              4.2626    Z=             -0.0945  Tot=             10.3114
 Quadrupole moment (field-independent basis, Debye-Ang):
   XX=            -39.9150   YY=            -56.5611   ZZ=            -57.6063
   XY=              7.4426   XZ=              1.0026   YZ=              1.4307
 Traceless Quadrupole moment (field-independent basis, Debye-Ang):
   XX=             11.4458   YY=             -5.2003   ZZ=             -6.2455
   XY=              7.4426   XZ=              1.0026   YZ=              1.4307
 Octapole moment (field-independent basis, Debye-Ang**2):
  XXX=             52.6552  YYY=             23.3133  ZZZ=             -0.2307  XYY=             30.9146
  XXY=             25.1736  XXZ=             -3.9151  XZZ=              8.5452  YZZ=              5.1263
  YYZ=             -4.8740  XYZ=             -5.5080
 Hexadecapole moment (field-independent basis, Debye-Ang**3):
 XXXX=          -1536.5699 YYYY=           -418.4944 ZZZZ=           -325.3117 XXXY=             58.4913
 XXXZ=              3.1915 YYYX=             35.6502 YYYZ=            -14.2911 ZZZX=             10.0001
 ZZZY=              9.2436 XXYY=           -346.2901 XXZZ=           -326.8122 YYZZ=           -126.0618
 XXYZ=             13.3368 YYXZ=             -6.7389 ZZXY=              6.9605
 N-N= 6.267836730943D+02 E-N=-2.269773313980D+03  KE= 4.411547547995D+02
 No NMR shielding tensors so no spin-rotation constants.
 Leave Link  601 at Sun Jul 18 14:20:09 2021, MaxMem=   104857600 cpu:               0.3 elap:               0.1
 (Enter /prod/apps/gaussian/g16b1/l701.exe)
 ... and contract with generalized density number  0.
 Compute integral first derivatives.
 D1PCM: PCM CHGder 1st derivatives, ID1Alg=3 FixD1E=F DoIter=F DoCFld=F I1PDM=0.
 GePol: Maximum number of non-zero 1st derivatives   =     176
 Leave Link  701 at Sun Jul 18 14:20:10 2021, MaxMem=   104857600 cpu:               4.9 elap:               1.2
 (Enter /prod/apps/gaussian/g16b1/l702.exe)
 L702 exits ... SP integral derivatives will be done elsewhere.
 Leave Link  702 at Sun Jul 18 14:20:10 2021, MaxMem=   104857600 cpu:               0.1 elap:               0.0
 (Enter /prod/apps/gaussian/g16b1/l703.exe)
 Integral derivatives from FoFJK, PRISM(SPDF).
 Compute integral first derivatives, UseDBF=F ICtDFT=           0.
 Calling FoFJK, ICntrl=      2127 FMM=F ISym2X=0 I1Cent= 0 IOpClX= 0 NMat=1 NMatS=1 NMatT=0.
 FoFJK:  IHMeth= 1 ICntrl=    2127 DoSepK=F KAlg= 0 I1Cent=           0 FoldK=F
 IRaf=         0 NMat=       1 IRICut=       1 DoRegI=T DoRafI=F ISym2E= 0 IDoP0=0 IntGTp=1.
 FoFCou: FMM=F IPFlag=           0 FMFlag=      100000 FMFlg1=         800
         NFxFlg=           0 DoJE=F BraDBF=F KetDBF=F FulRan=T
         wScrn=  0.000000 ICntrl=      2127 IOpCl=  0 I1Cent=           0 NGrid=           0
         NMat0=    1 NMatS0=      1 NMatT0=    0 NMatD0=    1 NMtDS0=    0 NMtDT0=    0
 Symmetry not used in FoFCou.
 Leave Link  703 at Sun Jul 18 14:20:17 2021, MaxMem=   104857600 cpu:              25.7 elap:               6.4
 (Enter /prod/apps/gaussian/g16b1/l716.exe)
 Dipole        = 3.69378496D+00 1.67703223D+00-3.71979107D-02
 ***** Axes restored to original set *****
 -------------------------------------------------------------------
 Center     Atomic                   Forces (Hartrees/Bohr)
 Number     Number              X              Y              Z
 -------------------------------------------------------------------
      1        6          -0.009236711    0.011689754    0.018091088
      2        1           0.008025412   -0.014613474   -0.013719574
      3        1          -0.005820241   -0.005366137   -0.004908222
      4        1           0.005916049   -0.006003945    0.004520928
      5        7          -0.009879037    0.048768992    0.010756819
      6        1           0.010519612   -0.008405653   -0.023445102
      7        6           0.039859572   -0.050403096   -0.009149139
      8        6          -0.025414894    0.013121979    0.016833218
      9        1          -0.001213122   -0.009116275   -0.006635873
     10        1           0.004466974   -0.006382790   -0.001943580
     11        1          -0.005476797    0.000509034    0.000268736
     12        1           0.000976612    0.000613562   -0.005109954
     13        6          -0.004032069    0.021134508    0.034686172
     14        1          -0.009109392    0.000320171   -0.002275360
     15        1          -0.003182270   -0.006273284   -0.000779484
     16        6          -0.013867816    0.005335284    0.034732491
     17        6          -0.024797716   -0.042303579   -0.023106215
     18        1           0.005753553   -0.000473413    0.005109560
     19        6           0.010734905    0.012736372    0.012569171
     20        1           0.008056325    0.004543607   -0.001427803
     21        6          -0.012660199    0.004782901   -0.026667166
     22        1           0.002212105   -0.000189481   -0.010123907
     23        6           0.027740398    0.004973366    0.034835503
     24        1          -0.007201692    0.001972074   -0.005252291
     25        6           0.025587161    0.021506362   -0.024889779
     26        1           0.006786730    0.004067146   -0.001161474
     27        1          -0.024743450   -0.006543985   -0.011808764
 -------------------------------------------------------------------
 Cartesian Forces:  Max     0.050403096 RMS     0.016674852
 Leave Link  716 at Sun Jul 18 14:20:17 2021, MaxMem=   104857600 cpu:               0.1 elap:               0.0
 (Enter /prod/apps/gaussian/g16b1/l103.exe)

 GradGradGradGradGradGradGradGradGradGradGradGradGradGradGradGradGradGrad
 Berny optimization.
 FormGI is forming the generalized inverse of G from B-inverse, IUseBI=4.
 Internal  Forces:  Max     0.050930775 RMS     0.010511185
 Search for a local minimum.
 Step number   1 out of a maximum of  151
 All quantities printed in internal units (Hartrees-Bohrs-Radians)
 RMS Force = .10511D-01 SwitMx=.10000D-02 MixMth= 1
 Mixed Optimization -- RFO/linear search
 Second derivative matrix not updated -- first step.
 ITU=  0
     Eigenvalues ---    0.00230   0.00230   0.00339   0.00798   0.00968
     Eigenvalues ---    0.01705   0.01850   0.01930   0.02036   0.02147
     Eigenvalues ---    0.02251   0.02405   0.02445   0.02566   0.03535
     Eigenvalues ---    0.04132   0.04261   0.04612   0.04637   0.04947
     Eigenvalues ---    0.05344   0.05494   0.05575   0.05920   0.06349
     Eigenvalues ---    0.08685   0.09261   0.12437   0.12695   0.13730
     Eigenvalues ---    0.15204   0.15529   0.15824   0.15932   0.15987
     Eigenvalues ---    0.15997   0.16000   0.16000   0.16000   0.16000
     Eigenvalues ---    0.16000   0.16000   0.21681   0.21834   0.21905
     Eigenvalues ---    0.22035   0.23469   0.24963   0.26944   0.29216
     Eigenvalues ---    0.30339   0.34038   0.34401   0.34433   0.34492
     Eigenvalues ---    0.34544   0.34545   0.34570   0.34580   0.34583
     Eigenvalues ---    0.34592   0.35071   0.35107   0.35140   0.35173
     Eigenvalues ---    0.35184   0.36030   0.37890   0.40467   0.42387
     Eigenvalues ---    0.44923   0.47740   0.47755   0.53048   0.54705
 RFO step:  Lambda=-5.55957908D-02 EMin= 2.30000000D-03
 Linear search not attempted -- first point.
 Maximum step size (   0.300) exceeded in Quadratic search.
    -- Step size scaled by   0.798
 Iteration  1 RMS(Cart)=  0.11670440 RMS(Int)=  0.00230638
 Iteration  2 RMS(Cart)=  0.00366619 RMS(Int)=  0.00090288
 Iteration  3 RMS(Cart)=  0.00001110 RMS(Int)=  0.00090287
 Iteration  4 RMS(Cart)=  0.00000001 RMS(Int)=  0.00090287
 ITry= 1 IFail=0 DXMaxC= 3.88D-01 DCOld= 1.00D+10 DXMaxT= 3.00D-01 DXLimC= 3.00D+00 Rises=F
 Variable       Old X    -DE/DX   Delta X   Delta X   Delta X     New X
                                 (Linear)    (Quad)   (Total)
    R1        2.06659  -0.00304   0.00000  -0.00607  -0.00607   2.06052
    R2        2.06606  -0.00724   0.00000  -0.01445  -0.01445   2.05161
    R3        2.06509  -0.00003   0.00000  -0.00005  -0.00005   2.06504
    R4        2.87292  -0.01410   0.00000  -0.03133  -0.03133   2.84159
    R5        1.88901   0.02590   0.00000   0.03876   0.03876   1.92777
    R6        2.77335   0.03311   0.00000   0.06352   0.06352   2.83687
    R7        1.88917   0.02759   0.00000   0.04130   0.04130   1.93047
    R8        2.89555   0.00949   0.00000   0.02178   0.02178   2.91732
    R9        2.06362  -0.00412   0.00000  -0.00818  -0.00818   2.05544
   R10        2.94506   0.00726   0.00000   0.01781   0.01781   2.96287
   R11        2.06421   0.00264   0.00000   0.00525   0.00525   2.06946
   R12        2.06357   0.00075   0.00000   0.00148   0.00148   2.06506
   R13        2.06379  -0.00341   0.00000  -0.00678  -0.00678   2.05702
   R14        2.06343  -0.00124   0.00000  -0.00246  -0.00246   2.06097
   R15        2.06419   0.00206   0.00000   0.00410   0.00410   2.06829
   R16        2.80566   0.02682   0.00000   0.05403   0.05403   2.85969
   R17        2.70877  -0.01653   0.00000  -0.02559  -0.02549   2.68327
   R18        2.54340   0.05093   0.00000   0.06738   0.06758   2.61098
   R19        2.05448  -0.00093   0.00000  -0.00182  -0.00182   2.05265
   R20        2.55021   0.03894   0.00000   0.05259   0.05256   2.60277
   R21        2.05377  -0.00061   0.00000  -0.00120  -0.00120   2.05257
   R22        2.64131   0.00993   0.00000   0.01439   0.01428   2.65559
   R23        2.05396  -0.00161   0.00000  -0.00315  -0.00315   2.05081
   R24        2.70697  -0.03316   0.00000  -0.06080  -0.06100   2.64597
   R25        2.05502  -0.00119   0.00000  -0.00233  -0.00233   2.05269
   R26        2.65748   0.00098   0.00000  -0.00005  -0.00001   2.65746
   R27        2.05559  -0.00100   0.00000  -0.00197  -0.00197   2.05363
    A1        1.98322   0.00663   0.00000   0.00540   0.00236   1.98558
    A2        1.74155   0.01632   0.00000   0.07904   0.07983   1.82137
    A3        2.02632  -0.02079   0.00000  -0.08132  -0.08273   1.94359
    A4        1.88602   0.00347   0.00000   0.02047   0.02058   1.90660
    A5        1.93204  -0.00013   0.00000  -0.00994  -0.01166   1.92037
    A6        1.87697  -0.00270   0.00000   0.00349   0.00392   1.88089
    A7        1.89137  -0.00092   0.00000  -0.00017  -0.00052   1.89085
    A8        2.00336   0.00520   0.00000   0.01908   0.01898   2.02234
    A9        1.89151  -0.00479   0.00000  -0.02280  -0.02292   1.86860
   A10        1.89127   0.00041   0.00000   0.01083   0.01070   1.90197
   A11        1.89244  -0.00191   0.00000  -0.01981  -0.01997   1.87246
   A12        1.89135   0.00166   0.00000   0.01059   0.01076   1.90211
   A13        1.91260  -0.00880   0.00000  -0.02096  -0.02621   1.88639
   A14        1.95311  -0.00163   0.00000  -0.03328  -0.03343   1.91968
   A15        1.84602   0.01042   0.00000   0.06465   0.06437   1.91039
   A16        1.97649  -0.00249   0.00000  -0.02686  -0.02681   1.94968
   A17        1.75582   0.01571   0.00000   0.08610   0.08586   1.84169
   A18        2.00609  -0.01132   0.00000  -0.05396  -0.05272   1.95337
   A19        1.89486   0.01209   0.00000   0.04596   0.04545   1.94031
   A20        1.84034   0.00679   0.00000   0.02892   0.02828   1.86862
   A21        1.96163  -0.00194   0.00000  -0.01315  -0.01297   1.94866
   A22        1.82660  -0.00196   0.00000   0.00722   0.00574   1.83234
   A23        1.99012  -0.00897   0.00000  -0.04040  -0.04019   1.94994
   A24        1.93961  -0.00460   0.00000  -0.02116  -0.02105   1.91856
   A25        2.00552  -0.01858   0.00000  -0.07430  -0.07474   1.93078
   A26        1.87843  -0.00812   0.00000  -0.02272  -0.02537   1.85306
   A27        1.92129   0.03374   0.00000   0.10270   0.10292   2.02421
   A28        1.86916   0.00581   0.00000   0.00300   0.00116   1.87032
   A29        1.93262  -0.00828   0.00000  -0.01605  -0.01400   1.91863
   A30        1.84856  -0.00466   0.00000   0.01001   0.00959   1.85815
   A31        2.12340  -0.00212   0.00000  -0.00937  -0.00937   2.11403
   A32        2.07757   0.01271   0.00000   0.02905   0.02903   2.10661
   A33        2.08097  -0.01045   0.00000  -0.01842  -0.01873   2.06224
   A34        2.03258   0.00811   0.00000   0.02182   0.02194   2.05452
   A35        2.11866  -0.00738   0.00000  -0.01122  -0.01164   2.10702
   A36        2.12797  -0.00064   0.00000  -0.00950  -0.00927   2.11870
   A37        2.03169   0.00674   0.00000   0.02591   0.02617   2.05786
   A38        2.07947   0.00528   0.00000   0.01856   0.01789   2.09736
   A39        2.17115  -0.01193   0.00000  -0.04367  -0.04345   2.12771
   A40        2.03405   0.00773   0.00000   0.03478   0.03478   2.06883
   A41        2.06282   0.00553   0.00000   0.01229   0.01131   2.07413
   A42        2.17607  -0.01268   0.00000  -0.04049  -0.04056   2.13551
   A43        2.03821   0.00309   0.00000   0.02200   0.02141   2.05962
   A44        2.07946   0.00287   0.00000   0.00552   0.00395   2.08342
   A45        2.12004  -0.00367   0.00000  -0.00437  -0.00521   2.11484
   A46        2.09295   0.00697   0.00000   0.02253   0.02232   2.11527
   A47        2.04516   0.00416   0.00000   0.01707   0.01713   2.06230
   A48        2.14487  -0.01111   0.00000  -0.03935  -0.03928   2.10559
    D1        1.49750  -0.00909   0.00000  -0.07105  -0.07000   1.42750
    D2       -2.66932  -0.00577   0.00000  -0.04447  -0.04341  -2.71273
    D3       -0.55274  -0.00370   0.00000  -0.03497  -0.03411  -0.58685
    D4       -0.79709   0.00088   0.00000   0.00711   0.00637  -0.79072
    D5        1.31928   0.00421   0.00000   0.03370   0.03296   1.35223
    D6       -2.84733   0.00627   0.00000   0.04319   0.04226  -2.80507
    D7       -2.85379  -0.00162   0.00000  -0.01410  -0.01423  -2.86802
    D8       -0.73743   0.00171   0.00000   0.01249   0.01236  -0.72507
    D9        1.37915   0.00377   0.00000   0.02198   0.02166   1.40081
   D10        2.82083  -0.01162   0.00000  -0.07694  -0.07636   2.74447
   D11        0.61335  -0.00044   0.00000  -0.00122  -0.00161   0.61174
   D12       -1.58333   0.00748   0.00000   0.04238   0.04213  -1.54120
   D13       -1.34593  -0.00902   0.00000  -0.05637  -0.05570  -1.40163
   D14        2.72977   0.00216   0.00000   0.01935   0.01906   2.74883
   D15        0.53309   0.01009   0.00000   0.06295   0.06280   0.59589
[...]
 Alpha virt. eigenvalues --    0.00074   0.00503   0.01304   0.01547   0.01984
 Alpha virt. eigenvalues --    0.02773   0.03104   0.03932   0.04451   0.04899
 Alpha virt. eigenvalues --    0.05570   0.05672   0.05797   0.06417   0.06735
 Alpha virt. eigenvalues --    0.06889   0.07344   0.07557   0.07797   0.08139
 Alpha virt. eigenvalues --    0.08236   0.08610   0.08785   0.08903   0.09590
 Alpha virt. eigenvalues --    0.10097   0.10412   0.11076   0.11286   0.11483
 Alpha virt. eigenvalues --    0.11804   0.12013   0.12585   0.12936   0.13280
 Alpha virt. eigenvalues --    0.13877   0.14755   0.15135   0.16868   0.17417
 Alpha virt. eigenvalues --    0.17684   0.18675   0.19093   0.19380   0.20023
 Alpha virt. eigenvalues --    0.20389   0.20817   0.21665   0.21959   0.22724
 Alpha virt. eigenvalues --    0.22902   0.23752   0.23942   0.24687   0.24760
 Alpha virt. eigenvalues --    0.25125   0.25588   0.26343   0.27413   0.27995
 Alpha virt. eigenvalues --    0.28328   0.28521   0.28848   0.29528   0.30291
 Alpha virt. eigenvalues --    0.31065   0.31446   0.31927   0.32523   0.33398
 Alpha virt. eigenvalues --    0.33631   0.33828   0.34273   0.34980   0.35137
 Alpha virt. eigenvalues --    0.35807   0.36153   0.36480   0.37056   0.37384
 Alpha virt. eigenvalues --    0.37551   0.38022   0.38963   0.39108   0.40466
 Alpha virt. eigenvalues --    0.40869   0.41224   0.41360   0.42472   0.43080
 Alpha virt. eigenvalues --    0.43605   0.44506   0.45004   0.45368   0.46321
 Alpha virt. eigenvalues --    0.46457   0.47297   0.48402   0.49183   0.49426
 Alpha virt. eigenvalues --    0.50357   0.50418   0.51482   0.51713   0.52396
 Alpha virt. eigenvalues --    0.52685   0.52997   0.53628   0.53814   0.54555
 Alpha virt. eigenvalues --    0.54755   0.55885   0.56325   0.56479   0.57059
 Alpha virt. eigenvalues --    0.57677   0.58080   0.58941   0.59368   0.59632
 Alpha virt. eigenvalues --    0.59953   0.61053   0.61650   0.62092   0.62756
 Alpha virt. eigenvalues --    0.63371   0.64173   0.64515   0.64754   0.65934
 Alpha virt. eigenvalues --    0.66764   0.67022   0.67721   0.67978   0.68882
 Alpha virt. eigenvalues --    0.69073   0.70256   0.71008   0.71302   0.71587
 Alpha virt. eigenvalues --    0.72119   0.72780   0.73335   0.73802   0.75817
 Alpha virt. eigenvalues --    0.75917   0.76536   0.77182   0.77671   0.79024
 Alpha virt. eigenvalues --    0.79990   0.80341   0.81021   0.81986   0.82630
 Alpha virt. eigenvalues --    0.83574   0.84607   0.85050   0.85686   0.86309
 Alpha virt. eigenvalues --    0.86549   0.88507   0.89073   0.89550   0.89849
 Alpha virt. eigenvalues --    0.90908   0.92148   0.92840   0.94184   0.95248
 Alpha virt. eigenvalues --    0.95915   0.96751   0.97302   0.98347   0.99177
 Alpha virt. eigenvalues --    1.00852   1.01620   1.02209   1.02581   1.04266
 Alpha virt. eigenvalues --    1.05699   1.07713   1.08641   1.09440   1.11250
 Alpha virt. eigenvalues --    1.13124   1.14188   1.16665   1.17716   1.18282
 Alpha virt. eigenvalues --    1.21058   1.21988   1.23388   1.24019   1.27855
 Alpha virt. eigenvalues --    1.30503   1.31543   1.34722   1.37075   1.39866
 Alpha virt. eigenvalues --    1.41384   1.41950   1.42507   1.43410   1.44733
 Alpha virt. eigenvalues --    1.45591   1.47238   1.47988   1.49213   1.50101
 Alpha virt. eigenvalues --    1.52058   1.52875   1.53615   1.55070   1.56032
 Alpha virt. eigenvalues --    1.56715   1.57909   1.58265   1.59511   1.60348
 Alpha virt. eigenvalues --    1.62257   1.63548   1.63716   1.65726   1.66383
 Alpha virt. eigenvalues --    1.67410   1.69222   1.70371   1.71541   1.72279
 Alpha virt. eigenvalues --    1.73024   1.75264   1.75624   1.77503   1.77965
 Alpha virt. eigenvalues --    1.79646   1.80174   1.81327   1.82557   1.83394
 Alpha virt. eigenvalues --    1.85193   1.85459   1.86111   1.86505   1.87134
 Alpha virt. eigenvalues --    1.88001   1.88790   1.90390   1.91000   1.92938
 Alpha virt. eigenvalues --    1.94241   1.94782   1.96579   1.97769   1.99083
 Alpha virt. eigenvalues --    1.99705   2.00909   2.02561   2.02851   2.03983
 Alpha virt. eigenvalues --    2.05094   2.07165   2.07609   2.10151   2.10702
 Alpha virt. eigenvalues --    2.11178   2.13016   2.13065   2.15422   2.15634
 Alpha virt. eigenvalues --    2.17248   2.18992   2.19439   2.20549   2.21823
 Alpha virt. eigenvalues --    2.22581   2.23756   2.24286   2.25694   2.26479
 Alpha virt. eigenvalues --    2.26647   2.27712   2.28489   2.31006   2.31890
 Alpha virt. eigenvalues --    2.34364   2.35269   2.36962   2.37503   2.38652
 Alpha virt. eigenvalues --    2.39569   2.41801   2.43583   2.45564   2.48747
 Alpha virt. eigenvalues --    2.51009   2.51780   2.53822   2.55383   2.57204
 Alpha virt. eigenvalues --    2.59593   2.60694   2.61326   2.62516   2.63337
 Alpha virt. eigenvalues --    2.66929   2.68729   2.70965   2.71602   2.72586
 Alpha virt. eigenvalues --    2.73344   2.75168   2.75923   2.77139   2.78916
 Alpha virt. eigenvalues --    2.80348   2.84875   2.86690   2.87276   2.90247
 Alpha virt. eigenvalues --    2.92345   2.94381   2.96628   2.97814   3.01073
 Alpha virt. eigenvalues --    3.05159   3.06002   3.09758   3.14017   3.17796
 Alpha virt. eigenvalues --    3.23633   3.25425   3.28292   3.32199   3.44042
 Alpha virt. eigenvalues --    3.54284   3.59144   3.63502   3.76352   4.07126
 Alpha virt. eigenvalues --    4.75751
          Condensed to atoms (all electrons):
               1          2          3          4          5          6
     1  C    3.928792   0.346567   0.407290   0.315608   0.149246  -0.045388
     2  H    0.346567   1.361134  -0.207650  -0.235857  -0.230626   0.010538
     3  H    0.407290  -0.207650   1.045115  -0.112454   0.066335  -0.011702
     4  H    0.315608  -0.235857  -0.112454   1.159276  -0.035087   0.019681
     5  N    0.149246  -0.230626   0.066335  -0.035087   7.896804   0.376747
     6  H   -0.045388   0.010538  -0.011702   0.019681   0.376747   0.592775
     7  C    0.001843   0.153981  -0.101537  -0.023039  -1.274207  -0.117619
     8  C   -0.014700  -0.028176   0.046794  -0.007450   0.146696   0.003041
     9  H    0.022554   0.001704   0.004212  -0.000327  -0.070441  -0.009021
    10  H   -0.004446  -0.000101  -0.000441  -0.002374   0.018246   0.002822
    11  H   -0.007196  -0.002049  -0.000086   0.002024  -0.025027   0.004861
    12  H    0.013096   0.014020  -0.006644   0.010475  -0.092625   0.021269
    13  C   -0.045409  -0.020173   0.040854  -0.006811   0.325424   0.001653
    14  H    0.017320   0.005945   0.002587  -0.005880  -0.144620   0.002311
    15  H    0.004709  -0.002460   0.005662   0.005039   0.036125   0.014530
    16  C    0.062522   0.043617  -0.033236  -0.027381   0.033902  -0.057858
    17  C   -0.053283   0.003426  -0.077120   0.033113  -0.166792   0.034859
    18  H    0.001376   0.001491   0.008288  -0.002358   0.002823   0.001203
    19  C    0.025513   0.006725  -0.035190  -0.002380   0.056094  -0.008766
    20  H   -0.000396  -0.000532   0.003669   0.000255   0.002339  -0.000135
    21  C   -0.003411  -0.009254   0.036798   0.009207  -0.037340   0.006174
    22  H    0.000227  -0.000190  -0.004166   0.000322  -0.000369   0.000338
    23  C    0.042944   0.008453  -0.018857  -0.016074   0.044341  -0.016775
    24  H    0.000482   0.000455   0.002886  -0.000997   0.000850  -0.000788
    25  C   -0.029856  -0.039440  -0.017103   0.045521  -0.139228   0.046024
    26  H    0.000475  -0.003883  -0.006185   0.005787   0.008020  -0.003952
    27  H   -0.029975  -0.005092   0.012830  -0.027525   0.495972  -0.071319
               7          8          9         10         11         12
     1  C    0.001843  -0.014700   0.022554  -0.004446  -0.007196   0.013096
     2  H    0.153981  -0.028176   0.001704  -0.000101  -0.002049   0.014020
     3  H   -0.101537   0.046794   0.004212  -0.000441  -0.000086  -0.006644
     4  H   -0.023039  -0.007450  -0.000327  -0.002374   0.002024   0.010475
     5  N   -1.274207   0.146696  -0.070441   0.018246  -0.025027  -0.092625
     6  H   -0.117619   0.003041  -0.009021   0.002822   0.004861   0.021269
     7  C    8.419183  -0.109667   0.199589   0.129569  -0.163483  -0.232488
     8  C   -0.109667   4.640713   0.151181   0.252218   0.454406  -0.163969
     9  H    0.199589   0.151181   1.244326  -0.224720  -0.235510  -0.049245
    10  H    0.129569   0.252218  -0.224720   1.083112  -0.118376  -0.062013
    11  H   -0.163483   0.454406  -0.235510  -0.118376   1.036341   0.080697
    12  H   -0.232488  -0.163969  -0.049245  -0.062013   0.080697   1.910165
    13  C   -0.121230   0.166904   0.044832  -0.055123  -0.072007  -0.095108
    14  H    0.246794  -0.097825   0.010242  -0.022863   0.006585   0.078304
    15  H   -0.150017  -0.086348   0.012040  -0.001643  -0.025586  -0.014595
    16  C    0.179250  -0.167054  -0.031552   0.026167   0.062478   0.005073
    17  C   -0.397517  -0.044723  -0.001180  -0.015841   0.014709   0.033922
    18  H    0.033527   0.013065  -0.000945   0.002097   0.002737  -0.035330
    19  C    0.049547   0.014300  -0.002066   0.000886   0.001710   0.026018
    20  H    0.003824   0.000071  -0.000010   0.000348  -0.000098  -0.001610
    21  C   -0.104537   0.000359   0.000310  -0.000419   0.000738  -0.007455
    22  H   -0.002538  -0.000064  -0.000012  -0.000014   0.000020   0.000611
    23  C    0.206255  -0.000075  -0.000979   0.002028  -0.001100   0.010714
    24  H   -0.000963   0.000072  -0.000012   0.000019  -0.000039  -0.000273
    25  C   -0.379016  -0.020201   0.001254   0.007690  -0.002547  -0.000560
    26  H    0.039277   0.001882  -0.001139   0.000466   0.004600   0.002676
    27  H   -0.100352  -0.042594   0.000392   0.008298  -0.007897  -0.010658
              13         14         15         16         17         18
     1  C   -0.045409   0.017320   0.004709   0.062522  -0.053283   0.001376
     2  H   -0.020173   0.005945  -0.002460   0.043617   0.003426   0.001491
     3  H    0.040854   0.002587   0.005662  -0.033236  -0.077120   0.008288
     4  H   -0.006811  -0.005880   0.005039  -0.027381   0.033113  -0.002358
     5  N    0.325424  -0.144620   0.036125   0.033902  -0.166792   0.002823
     6  H    0.001653   0.002311   0.014530  -0.057858   0.034859   0.001203
     7  C   -0.121230   0.246794  -0.150017   0.179250  -0.397517   0.033527
     8  C    0.166904  -0.097825  -0.086348  -0.167054  -0.044723   0.013065
     9  H    0.044832   0.010242   0.012040  -0.031552  -0.001180  -0.000945
    10  H   -0.055123  -0.022863  -0.001643   0.026167  -0.015841   0.002097
    11  H   -0.072007   0.006585  -0.025586   0.062478   0.014709   0.002737
    12  H   -0.095108   0.078304  -0.014595   0.005073   0.033922  -0.035330
    13  C    8.456141  -0.304596   0.101851  -0.738642  -0.917183  -0.057970
    14  H   -0.304596   1.617452  -0.205169   0.056749  -0.221097   0.004653
    15  H    0.101851  -0.205169   1.395486  -0.159643   0.141026  -0.014953
    16  C   -0.738642   0.056749  -0.159643  14.367480  -6.371590   0.650486
    17  C   -0.917183  -0.221097   0.141026  -6.371590  16.443877  -1.252710
    18  H   -0.057970   0.004653  -0.014953   0.650486  -1.252710   2.194760
    19  C   -0.103645  -0.036844   0.034084   2.899095  -4.207215   0.470446
    20  H    0.019450  -0.000150  -0.000099  -0.152035   0.610146  -0.095032
    21  C    0.076667  -0.006596   0.017776  -3.615347   3.344792  -0.187181
    22  H   -0.003784   0.000499   0.000856   0.061712  -0.101693  -0.016010
    23  C   -0.347703   0.115514  -0.042259   3.172036  -3.774868   0.131849
    24  H    0.022131   0.003899   0.000339  -0.165389   0.125458   0.009756
    25  C   -0.989981   0.174536   0.030128  -5.961565   2.376615  -0.124566
    26  H    0.026340  -0.057976   0.014059   0.716192  -0.011645  -0.023367
    27  H    0.003514  -0.003821  -0.000302   0.023025  -0.000679  -0.000105
              19         20         21         22         23         24
     1  C    0.025513  -0.000396  -0.003411   0.000227   0.042944   0.000482
     2  H    0.006725  -0.000532  -0.009254  -0.000190   0.008453   0.000455
     3  H   -0.035190   0.003669   0.036798  -0.004166  -0.018857   0.002886
     4  H   -0.002380   0.000255   0.009207   0.000322  -0.016074  -0.000997
     5  N    0.056094   0.002339  -0.037340  -0.000369   0.044341   0.000850
     6  H   -0.008766  -0.000135   0.006174   0.000338  -0.016775  -0.000788
     7  C    0.049547   0.003824  -0.104537  -0.002538   0.206255  -0.000963
     8  C    0.014300   0.000071   0.000359  -0.000064  -0.000075   0.000072
     9  H   -0.002066  -0.000010   0.000310  -0.000012  -0.000979  -0.000012
    10  H    0.000886   0.000348  -0.000419  -0.000014   0.002028   0.000019
    11  H    0.001710  -0.000098   0.000738   0.000020  -0.001100  -0.000039
    12  H    0.026018  -0.001610  -0.007455   0.000611   0.010714  -0.000273
    13  C   -0.103645   0.019450   0.076667  -0.003784  -0.347703   0.022131
    14  H   -0.036844  -0.000150  -0.006596   0.000499   0.115514   0.003899
    15  H    0.034084  -0.000099   0.017776   0.000856  -0.042259   0.000339
    16  C    2.899095  -0.152035  -3.615347   0.061712   3.172036  -0.165389
    17  C   -4.207215   0.610146   3.344792  -0.101693  -3.774868   0.125458
    18  H    0.470446  -0.095032  -0.187181  -0.016010   0.131849   0.009756
    19  C   10.681552  -0.747990  -3.217755   0.351567   3.648937  -0.218355
    20  H   -0.747990   1.665115   0.327307  -0.058528  -0.234041  -0.018250
    21  C   -3.217755   0.327307   8.898623  -0.602856  -3.271826   0.340394
    22  H    0.351567  -0.058528  -0.602856   1.597896   0.354489  -0.053208
    23  C    3.648937  -0.234041  -3.271826   0.354489  10.334427  -0.702482
    24  H   -0.218355  -0.018250   0.340394  -0.053208  -0.702482   1.646782
    25  C   -3.935857   0.118610   3.496300  -0.085840  -4.117688   0.539497
    26  H    0.113245   0.009453  -0.166997  -0.015549   0.285280  -0.092472
    27  H    0.002702   0.000100  -0.001384   0.000006   0.002310   0.000065
              25         26         27
     1  C   -0.029856   0.000475  -0.029975
     2  H   -0.039440  -0.003883  -0.005092
     3  H   -0.017103  -0.006185   0.012830
     4  H    0.045521   0.005787  -0.027525
     5  N   -0.139228   0.008020   0.495972
     6  H    0.046024  -0.003952  -0.071319
     7  C   -0.379016   0.039277  -0.100352
     8  C   -0.020201   0.001882  -0.042594
     9  H    0.001254  -0.001139   0.000392
    10  H    0.007690   0.000466   0.008298
    11  H   -0.002547   0.004600  -0.007897
    12  H   -0.000560   0.002676  -0.010658
    13  C   -0.989981   0.026340   0.003514
    14  H    0.174536  -0.057976  -0.003821
    15  H    0.030128   0.014059  -0.000302
    16  C   -5.961565   0.716192   0.023025
    17  C    2.376615  -0.011645  -0.000679
    18  H   -0.124566  -0.023367  -0.000105
    19  C   -3.935857   0.113245   0.002702
    20  H    0.118610   0.009453   0.000100
    21  C    3.496300  -0.166997  -0.001384
    22  H   -0.085840  -0.015549   0.000006
    23  C   -4.117688   0.285280   0.002310
    24  H    0.539497  -0.092472   0.000065
    25  C   15.928687  -1.329245  -0.002755
    26  H   -1.329245   2.158888   0.001450
    27  H   -0.002755   0.001450   0.573543
 Mulliken charges:
               1
     1  C    0.893495
     2  H   -0.172574
     3  H   -0.050949
     4  H   -0.100315
     5  N   -0.443604
     6  H    0.204496
     7  C   -0.384429
     8  C    0.891142
     9  H   -0.065477
    10  H   -0.025592
    11  H   -0.010909
    12  H   -0.434471
    13  C    0.593605
    14  H   -0.235955
    15  H   -0.110635
    16  C    1.121507
    17  C    0.453191
    18  H   -0.718030
    19  C    0.133641
    20  H   -0.451780
    21  C    0.676913
    22  H   -0.423723
    23  C    0.185150
    24  H   -0.439855
    25  C    0.410585
    26  H   -0.675680
    27  H    0.180253
 Sum of Mulliken charges =   1.00000
 Mulliken charges with hydrogens summed into heavy atoms:
               1
     1  C    0.569658
     5  N   -0.058855
     7  C   -0.818900
     8  C    0.789163
    13  C    0.247016
    16  C    1.121507
    17  C   -0.264839
    19  C   -0.318139
    21  C    0.253190
    23  C   -0.254705
    25  C   -0.265095
 Electronic spatial extent (au):  <R**2>=           2058.5245
 Charge=              1.0000 electrons
 Dipole moment (field-independent basis, Debye):
    X=              7.1931    Y=              3.5631    Z=             -0.1554  Tot=              8.0287
 Quadrupole moment (field-independent basis, Debye-Ang):
   XX=            -35.0555   YY=            -56.2290   ZZ=            -58.9985
   XY=              4.1143   XZ=              1.4641   YZ=              2.4081
 Traceless Quadrupole moment (field-independent basis, Debye-Ang):
   XX=             15.0388   YY=             -6.1347   ZZ=             -8.9042
   XY=              4.1143   XZ=              1.4641   YZ=              2.4081
 Octapole moment (field-independent basis, Debye-Ang**2):
  XXX=             42.4398  YYY=             22.2417  ZZZ=              0.3222  XYY=             34.0912
  XXY=             24.5475  XXZ=             -4.7475  XZZ=              4.6130  YZZ=              5.2619
  YYZ=             -4.1097  XYZ=             -6.3543
 Hexadecapole moment (field-independent basis, Debye-Ang**3):
 XXXX=          -1579.3385 YYYY=           -428.1797 ZZZZ=           -327.2324 XXXY=             -1.2181
 XXXZ=             16.7826 YYYX=             25.7500 YYYZ=             -3.4997 ZZZX=              7.8919
 ZZZY=             12.3431 XXYY=           -365.1097 XXZZ=           -342.8431 YYZZ=           -132.4599
 XXYZ=             20.3435 YYXZ=             -2.6712 ZZXY=              7.9730
 N-N= 6.157726664369D+02 E-N=-2.247540946565D+03  KE= 4.417676053864D+02
 Leave Link  601 at Sun Jul 18 15:06:11 2021, MaxMem=   262144000 cpu:               0.6 elap:               0.2
 (Enter /prod/apps/gaussian/g16b1/l9999.exe)
 1\1\GINC-PIRINEUS29\SP\RMP2-FC\Aug-CC-pVDZ\C10H16N1(1+)\UBATOR02\18-Ju
 l-2021\0\\#p mp2/aug-cc-pVDZ scf=tight maxdisk=180GB geom=allcheck\\SE
 T_328_BBB30_conf1.geo_060_075_270 geometry\\1,1\C,0,-1.8288449152,0.97
 59156523,-1.0189838765\H,0,-2.1653282741,1.382285769,-1.9708512306\H,0
 ,-0.8568665254,1.3793384267,-0.7533682663\H,0,-2.5586301865,1.18837055
 24,-0.2400142381\N,0,-1.7177977842,-0.5072914027,-1.1648747186\H,0,-1.
 0831735138,-0.7252111671,-1.9474610388\C,0,-1.2724442635,-1.2779418594
 ,0.0700434108\C,0,-1.87229179,-2.678929141,0.0042282112\H,0,-2.9644979
 713,-2.6471106884,-0.0161473918\H,0,-1.5668049355,-3.2438043135,0.8872
 028056\H,0,-1.5205212851,-3.2162743665,-0.8806787579\H,0,-1.6913656528
 ,-0.7289094693,0.9172520786\C,0,0.2628167373,-1.3357643061,0.166984861
 2\H,0,0.6469031998,-1.8500837919,-0.7203956307\H,0,0.4765959558,-1.988
 6628064,1.0197657172\C,0,0.9932269765,-0.0212793612,0.3422654617\C,0,0
 .8950160011,0.7102281101,1.5350201685\H,0,0.2861783621,0.3317264338,2.
 3500850714\C,0,1.5733788955,1.9192985109,1.6863792478\H,0,1.4857453341
 ,2.4728534617,2.6155157405\C,0,2.3684304398,2.4141108249,0.6489821639\
 H,0,2.8973180281,3.3537433958,0.7682271401\C,0,2.4830978701,1.68895755
 48,-0.537809365\H,0,3.1038487603,2.0602781876,-1.3469109244\C,0,1.8007
 040381,0.4796494163,-0.6857488715\H,0,1.8942886709,-0.0862260743,-1.60
 75140328\H,0,-2.6399821721,-0.8602675483,-1.4601937356\\Version=ES64L-
 G16RevB.01\State=1-A\HF=-442.2933516\MP2=-443.8804329\RMSD=4.740e-09\P
 G=C01 [X(C10H16N1)]\\@


 CONTRAIWISE...CONTINUED TWEEDLEDEE, IF IT WAS SO, IT MIGHT BE,
 AND IF IT WERE SO, IT WOULD BE.....
 BUT AS IT ISN'T, IT AIN'T....
 THAT'S LOGIC.....
 ALICE THROUGH THE LOOKING GLASS
 Job cpu time:       0 days  0 hours 27 minutes 14.5 seconds.
 Elapsed time:       0 days  0 hours  7 minutes  3.9 seconds.
 File lengths (MBytes):  RWF=  17645 Int=      0 D2E=      0 Chk=     14 Scr=      1
 Normal termination of Gaussian 16 at Sun Jul 18 15:06:12 2021.
