 Entering Gaussian System, Link 0=g16
 Initial command:
 /prod/apps/gaussian/g16b1/l1.exe "/tmp/ubator02/1839639/Gau-140200.inp" -scrdir="/tmp/ubator02/1839639/"
 Entering Link 1 = /prod/apps/gaussian/g16b1/l1.exe PID=    140201.
  
 Copyright (c) 1988-2017, Gaussian, Inc.  All Rights Reserved.
  
 This is part of the Gaussian(R) 16 program.  It is based on
 the Gaussian(R) 09 system (copyright 2009, Gaussian, Inc.),
 the Gaussian(R) 03 system (copyright 2003, Gaussian, Inc.),
 the Gaussian(R) 98 system (copyright 1998, Gaussian, Inc.),
 the Gaussian(R) 94 system (copyright 1995, Gaussian, Inc.),
 the Gaussian 92(TM) system (copyright 1992, Gaussian, Inc.),
 the Gaussian 90(TM) system (copyright 1990, Gaussian, Inc.),
 the Gaussian 88(TM) system (copyright 1988, Gaussian, Inc.),
 the Gaussian 86(TM) system (copyright 1986, Carnegie Mellon
 University), and the Gaussian 82(TM) system (copyright 1983,
 Carnegie Mellon University). Gaussian is a federally registered
 trademark of Gaussian, Inc.
  
 This software contains proprietary and confidential information,
 including trade secrets, belonging to Gaussian, Inc.
  
 This software is provided under written license and may be
 used, copied, transmitted, or stored only in accord with that
 written license.
  
 The following legend is applicable only to US Government
 contracts under FAR:
  
                    RESTRICTED RIGHTS LEGEND
  
 Use, reproduction and disclosure by the US Government is
 subject to restrictions as set forth in subparagraphs (a)
 and (c) of the Commercial Computer Software - Restricted
 Rights clause in FAR 52.227-19.
  
 Gaussian, Inc.
 340 Quinnipiac St., Bldg. 40, Wallingford CT 06492
  
  
 ---------------------------------------------------------------
 Warning -- This program may not be used in any manner that
 competes with the business of Gaussian, Inc. or will provide
 assistance to any competitor of Gaussian, Inc.  The licensee
 of this program is prohibited from giving any competitor of
 Gaussian, Inc. access to this program.  By using this program,
 the user acknowledges that Gaussian, Inc. is engaged in the
 business of creating and licensing software in the field of
 computational chemistry and represents and warrants to the
 licensee that it is not a competitor of Gaussian, Inc. and that
 it will not use this program in any manner prohibited above.
 ---------------------------------------------------------------
  

 Cite this work as:
 Gaussian 16, Revision B.01,
 M. J. Frisch, G. W. Trucks, H. B. Schlegel, G. E. Scuseria, 
 M. A. Robb, J. R. Cheeseman, G. Scalmani, V. Barone, 
 G. A. Petersson, H. Nakatsuji, X. Li, M. Caricato, A. V. Marenich, 
 J. Bloino, B. G. Janesko, R. Gomperts, B. Mennucci, H. P. Hratchian, 
 J. V. Ortiz, A. F. Izmaylov, J. L. Sonnenberg, D. Williams-Young, 
 F. Ding, F. Lipparini, F. Egidi, J. Goings, B. Peng, A. Petrone, 
 T. Henderson, D. Ranasinghe, V. G. Zakrzewski, J. Gao, N. Rega, 
 G. Zheng, W. Liang, M. Hada, M. Ehara, K. Toyota, R. Fukuda, 
 J. Hasegawa, M. Ishida, T. Nakajima, Y. Honda, O. Kitao, H. Nakai, 
 T. Vreven, K. Throssell, J. A. Montgomery, Jr., J. E. Peralta, 
 F. Ogliaro, M. J. Bearpark, J. J. Heyd, E. N. Brothers, K. N. Kudin, 
 V. N. Staroverov, T. A. Keith, R. Kobayashi, J. Normand, 
 K. Raghavachari, A. P. Rendell, J. C. Burant, S. S. Iyengar, 
 J. Tomasi, M. Cossi, J. M. Millam, M. Klene, C. Adamo, R. Cammi, 
 J. W. Ochterski, R. L. Martin, K. Morokuma, O. Farkas, 
 J. B. Foresman, and D. J. Fox, Gaussian, Inc., Wallingford CT, 2016.
 
 ******************************************
 Gaussian 16:  ES64L-G16RevB.01 20-Dec-2017
                18-Jul-2021 
 ******************************************
 %mem=800MB
 %nproc=4
 Will use up to    4 processors via shared memory.
 %chk=SET_328_BBB301_conf1.geo_165_120_315.chk
 -----------------------------------------------------------
 #p b3lyp/6-31G(d) opt freq scrf=(iefpcm,read,solvent=water)
 -----------------------------------------------------------
 1/18=20,19=15,26=3,38=1,40=2/1,3;
 2/9=110,12=2,17=6,18=5,40=1/2;
 3/5=1,6=6,7=1,11=2,25=1,30=1,70=2203,71=1,72=1,74=-5/1,2,3;
 4//1;
 5/5=2,38=5,53=1/2;
 6/7=2,8=2,9=2,10=2,28=1/1;
 7//1,2,3,16;
 1/18=20,19=15,26=3/3(2);
 2/9=110/2;
 99//99;
 2/9=110/2;
 3/5=1,6=6,7=1,11=2,25=1,30=1,70=2205,71=1,72=1,74=-5/1,2,3;
 4/5=5,16=3,69=1/1;
 5/5=2,38=5,53=1/2;
 7//1,2,3,16;
 1/18=20,19=15,26=3/3(-5);
 2/9=110/2;
 6/7=2,8=2,9=2,10=2,19=2,28=1/1;
 99/9=1/99;
 Leave Link    1 at Sun Jul 18 14:40:06 2021, MaxMem=   104857600 cpu:               0.1 elap:               0.0
 (Enter /prod/apps/gaussian/g16b1/l101.exe)
 ---------------------------------------------
 SET_328_BBB301_conf1.geo_165_120_315 geometry
 ---------------------------------------------
 Symbolic Z-matrix:
 Charge =  1 Multiplicity = 1
 C                    -1.295     4.206    -2.136 
 H                    -1.711     5.167    -1.826 
 H                    -1.569     3.916    -3.153 
 H                    -0.264     4.566    -2.115 
 C                    -1.457     3.115    -1.064 
 C                    -0.995     3.623     0.25 
 H                    -1.601     4.408     0.706 
 H                     0.069     3.864     0.226 
 H                    -1.012     2.768     0.93 
 C                    -2.86      2.71     -0.88 
 H                    -3.479     3.583    -0.662 
 H                    -2.987     1.993    -0.066 
 H                    -3.302     2.266    -1.774 
 N                    -0.8       1.899    -1.546 
 H                    -1.437     1.438    -2.163 
 C                    -0.312     0.845    -0.504 
 H                    -1.063     0.735     0.283 
 H                     0.517     1.335     0.012 
 C                     0.162    -0.575    -1.058 
 O                     1.       -0.271    -2.203 
 H                     0.606     0.582    -2.459 
 H                    -0.77     -1.092    -1.302 
 C                     0.936    -1.325    -0.043 
 C                     0.434    -2.576     0.416 
 H                    -0.522    -2.882    -0.003 
 C                     1.203    -3.37      1.3 
 C                     0.502    -4.634     1.819 
 O                     1.52     -5.744     1.993 
 H                     1.017    -6.536     1.73 
 H                    -0.279    -5.059     1.183 
 H                     0.049    -4.494     2.804 
 C                     2.4      -2.879     1.826 
 O                     3.065    -3.514     2.846 
 H                     2.934    -4.476     2.767 
 C                     2.852    -1.61      1.443 
 H                     3.805    -1.191     1.758 
 C                     2.126    -0.856     0.479 
 H                     2.557     0.088     0.157 
 H                    -0.005     2.18     -2.083 
 
 ITRead=  0  0  0  0  0  0  0  0  0  0  0  0  0  0  0  0  0  0  0  0
 ITRead=  0  0  0  0  0  0  0  0  0  0  0  0  0  0  0  0  0  0  0
 MicOpt= -1 -1 -1 -1 -1 -1 -1 -1 -1 -1 -1 -1 -1 -1 -1 -1 -1 -1 -1 -1
 MicOpt= -1 -1 -1 -1 -1 -1 -1 -1 -1 -1 -1 -1 -1 -1 -1 -1 -1 -1 -1
 NAtoms=     39 NQM=       39 NQMF=       0 NMMI=      0 NMMIF=      0
                NMic=       0 NMicF=      0.
                    Isotopes and Nuclear Properties:
 (Nuclear quadrupole moments (NQMom) in fm**2, nuclear magnetic moments (NMagM)
  in nuclear magnetons)

  Atom         1           2           3           4           5           6           7           8           9          10
 IAtWgt=          12           1           1           1          12          12           1           1           1          12
 AtmWgt=  12.0000000   1.0078250   1.0078250   1.0078250  12.0000000  12.0000000   1.0078250   1.0078250   1.0078250  12.0000000
 NucSpn=           0           1           1           1           0           0           1           1           1           0
 AtZEff=  -0.0000000  -0.0000000  -0.0000000  -0.0000000  -0.0000000  -0.0000000  -0.0000000  -0.0000000  -0.0000000  -0.0000000
 NQMom=    0.0000000   0.0000000   0.0000000   0.0000000   0.0000000   0.0000000   0.0000000   0.0000000   0.0000000   0.0000000
 NMagM=    0.0000000   2.7928460   2.7928460   2.7928460   0.0000000   0.0000000   2.7928460   2.7928460   2.7928460   0.0000000
 AtZNuc=   6.0000000   1.0000000   1.0000000   1.0000000   6.0000000   6.0000000   1.0000000   1.0000000   1.0000000   6.0000000

  Atom        11          12          13          14          15          16          17          18          19          20
 IAtWgt=           1           1           1          14           1          12           1           1          12          16
 AtmWgt=   1.0078250   1.0078250   1.0078250  14.0030740   1.0078250  12.0000000   1.0078250   1.0078250  12.0000000  15.9949146
 NucSpn=           1           1           1           2           1           0           1           1           0           0
 AtZEff=  -0.0000000  -0.0000000  -0.0000000  -0.0000000  -0.0000000  -0.0000000  -0.0000000  -0.0000000  -0.0000000  -0.0000000
 NQMom=    0.0000000   0.0000000   0.0000000   2.0440000   0.0000000   0.0000000   0.0000000   0.0000000   0.0000000   0.0000000
 NMagM=    2.7928460   2.7928460   2.7928460   0.4037610   2.7928460   0.0000000   2.7928460   2.7928460   0.0000000   0.0000000
 AtZNuc=   1.0000000   1.0000000   1.0000000   7.0000000   1.0000000   6.0000000   1.0000000   1.0000000   6.0000000   8.0000000

  Atom        21          22          23          24          25          26          27          28          29          30
 IAtWgt=           1           1          12          12           1          12          12          16           1           1
 AtmWgt=   1.0078250   1.0078250  12.0000000  12.0000000   1.0078250  12.0000000  12.0000000  15.9949146   1.0078250   1.0078250
 NucSpn=           1           1           0           0           1           0           0           0           1           1
 AtZEff=  -0.0000000  -0.0000000  -0.0000000  -0.0000000  -0.0000000  -0.0000000  -0.0000000  -0.0000000  -0.0000000  -0.0000000
 NQMom=    0.0000000   0.0000000   0.0000000   0.0000000   0.0000000   0.0000000   0.0000000   0.0000000   0.0000000   0.0000000
 NMagM=    2.7928460   2.7928460   0.0000000   0.0000000   2.7928460   0.0000000   0.0000000   0.0000000   2.7928460   2.7928460
 AtZNuc=   1.0000000   1.0000000   6.0000000   6.0000000   1.0000000   6.0000000   6.0000000   8.0000000   1.0000000   1.0000000

  Atom        31          32          33          34          35          36          37          38          39
 IAtWgt=           1          12          16           1          12           1          12           1           1
 AtmWgt=   1.0078250  12.0000000  15.9949146   1.0078250  12.0000000   1.0078250  12.0000000   1.0078250   1.0078250
 NucSpn=           1           0           0           1           0           1           0           1           1
 AtZEff=  -0.0000000  -0.0000000  -0.0000000  -0.0000000  -0.0000000  -0.0000000  -0.0000000  -0.0000000  -0.0000000
 NQMom=    0.0000000   0.0000000   0.0000000   0.0000000   0.0000000   0.0000000   0.0000000   0.0000000   0.0000000
 NMagM=    2.7928460   0.0000000   0.0000000   2.7928460   0.0000000   2.7928460   0.0000000   2.7928460   2.7928460
 AtZNuc=   1.0000000   6.0000000   8.0000000   1.0000000   6.0000000   1.0000000   6.0000000   1.0000000   1.0000000
 Leave Link  101 at Sun Jul 18 14:40:06 2021, MaxMem=   104857600 cpu:               0.6 elap:               0.2
 (Enter /prod/apps/gaussian/g16b1/l103.exe)

 GradGradGradGradGradGradGradGradGradGradGradGradGradGradGradGradGradGrad
 Berny optimization.
 Initialization pass.
                           ----------------------------
                           !    Initial Parameters    !
                           ! (Angstroms and Degrees)  !
 --------------------------                            --------------------------
 ! Name  Definition              Value          Derivative Info.                !
 --------------------------------------------------------------------------------
 ! R1    R(1,2)                  1.0921         estimate D2E/DX2                !
 ! R2    R(1,3)                  1.0925         estimate D2E/DX2                !
 ! R3    R(1,4)                  1.0922         estimate D2E/DX2                !
 ! R4    R(1,5)                  1.5381         estimate D2E/DX2                !
 ! R5    R(5,6)                  1.4826         estimate D2E/DX2                !
 ! R6    R(5,10)                 1.4718         estimate D2E/DX2                !
 ! R7    R(5,14)                 1.4638         estimate D2E/DX2                !
 ! R8    R(6,7)                  1.0915         estimate D2E/DX2                !
 ! R9    R(6,8)                  1.0912         estimate D2E/DX2                !
 ! R10   R(6,9)                  1.0926         estimate D2E/DX2                !
 ! R11   R(10,11)                1.0922         estimate D2E/DX2                !
 ! R12   R(10,12)                1.0922         estimate D2E/DX2                !
 ! R13   R(10,13)                1.0917         estimate D2E/DX2                !
 ! R14   R(14,15)                0.9995         estimate D2E/DX2                !
 ! R15   R(14,16)                1.5604         estimate D2E/DX2                !
 ! R16   R(14,39)                0.9997         estimate D2E/DX2                !
 ! R17   R(16,17)                1.0934         estimate D2E/DX2                !
 ! R18   R(16,18)                1.0925         estimate D2E/DX2                !
 ! R19   R(16,19)                1.5962         estimate D2E/DX2                !
 ! R20   R(19,20)                1.4511         estimate D2E/DX2                !
 ! R21   R(19,22)                1.0934         estimate D2E/DX2                !
 ! R22   R(19,23)                1.4805         estimate D2E/DX2                !
 ! R23   R(20,21)                0.9738         estimate D2E/DX2                !
 ! R24   R(23,24)                1.424          estimate D2E/DX2                !
 ! R25   R(23,37)                1.3815         estimate D2E/DX2                !
 ! R26   R(24,25)                1.0877         estimate D2E/DX2                !
 ! R27   R(24,26)                1.4154         estimate D2E/DX2                !
 ! R28   R(26,27)                1.5357         estimate D2E/DX2                !
 ! R29   R(26,32)                1.3966         estimate D2E/DX2                !
 ! R30   R(27,28)                1.5161         estimate D2E/DX2                !
 ! R31   R(27,30)                1.0932         estimate D2E/DX2                !
 ! R32   R(27,31)                1.0932         estimate D2E/DX2                !
 ! R33   R(28,29)                0.9744         estimate D2E/DX2                !
 ! R34   R(32,33)                1.3733         estimate D2E/DX2                !
 ! R35   R(32,35)                1.4005         estimate D2E/DX2                !
 ! R36   R(33,34)                0.9741         estimate D2E/DX2                !
 ! R37   R(35,36)                1.0877         estimate D2E/DX2                !
 ! R38   R(35,37)                1.423          estimate D2E/DX2                !
 ! R39   R(37,38)                1.0865         estimate D2E/DX2                !
 ! A1    A(2,1,3)              113.7222         estimate D2E/DX2                !
 ! A2    A(2,1,4)               93.6735         estimate D2E/DX2                !
 ! A3    A(2,1,5)              112.7191         estimate D2E/DX2                !
 ! A4    A(3,1,4)              110.0072         estimate D2E/DX2                !
 ! A5    A(3,1,5)              115.7292         estimate D2E/DX2                !
 ! A6    A(4,1,5)              108.6514         estimate D2E/DX2                !
 ! A7    A(1,5,6)              109.9894         estimate D2E/DX2                !
 ! A8    A(1,5,10)             112.5019         estimate D2E/DX2                !
 ! A9    A(1,5,14)             108.2087         estimate D2E/DX2                !
 ! A10   A(6,5,10)             106.2917         estimate D2E/DX2                !
 ! A11   A(6,5,14)             115.8882         estimate D2E/DX2                !
 ! A12   A(10,5,14)            103.9116         estimate D2E/DX2                !
 ! A13   A(5,6,7)              116.3387         estimate D2E/DX2                !
 ! A14   A(5,6,8)              111.1017         estimate D2E/DX2                !
 ! A15   A(5,6,9)              106.178          estimate D2E/DX2                !
 ! A16   A(7,6,8)              113.0603         estimate D2E/DX2                !
 ! A17   A(7,6,9)              107.1067         estimate D2E/DX2                !
 ! A18   A(8,6,9)              101.6359         estimate D2E/DX2                !
 ! A19   A(5,10,11)            110.1979         estimate D2E/DX2                !
 ! A20   A(5,10,12)            112.623          estimate D2E/DX2                !
 ! A21   A(5,10,13)            113.2964         estimate D2E/DX2                !
 ! A22   A(11,10,12)           108.0645         estimate D2E/DX2                !
 ! A23   A(11,10,13)           105.016          estimate D2E/DX2                !
 ! A24   A(12,10,13)           107.2336         estimate D2E/DX2                !
 ! A25   A(5,14,15)            107.4803         estimate D2E/DX2                !
 ! A26   A(5,14,16)            118.7909         estimate D2E/DX2                !
 ! A27   A(5,14,39)            107.4766         estimate D2E/DX2                !
 ! A28   A(15,14,16)           107.4575         estimate D2E/DX2                !
 ! A29   A(15,14,39)           107.751          estimate D2E/DX2                !
 ! A30   A(16,14,39)           107.45           estimate D2E/DX2                !
 ! A31   A(14,16,17)           109.5            estimate D2E/DX2                !
 ! A32   A(14,16,18)           104.4627         estimate D2E/DX2                !
 ! A33   A(14,16,19)           117.516          estimate D2E/DX2                !
 ! A34   A(17,16,18)           103.0825         estimate D2E/DX2                !
 ! A35   A(17,16,19)           111.3632         estimate D2E/DX2                !
 ! A36   A(18,16,19)           109.7296         estimate D2E/DX2                !
 ! A37   A(16,19,20)           105.0092         estimate D2E/DX2                !
 ! A38   A(16,19,22)           104.1803         estimate D2E/DX2                !
 ! A39   A(16,19,23)           111.59           estimate D2E/DX2                !
 ! A40   A(20,19,22)           114.5341         estimate D2E/DX2                !
 ! A41   A(20,19,23)           110.193          estimate D2E/DX2                !
 ! A42   A(22,19,23)           111.0451         estimate D2E/DX2                !
 ! A43   A(19,20,21)            99.049          estimate D2E/DX2                !
 ! A44   A(19,23,24)           118.7994         estimate D2E/DX2                !
 ! A45   A(19,23,37)           122.5071         estimate D2E/DX2                !
 ! A46   A(24,23,37)           118.6933         estimate D2E/DX2                !
 ! A47   A(23,24,25)           115.6471         estimate D2E/DX2                !
 ! A48   A(23,24,26)           120.174          estimate D2E/DX2                !
 ! A49   A(25,24,26)           124.0767         estimate D2E/DX2                !
 ! A50   A(24,26,27)           115.1378         estimate D2E/DX2                !
 ! A51   A(24,26,32)           120.2432         estimate D2E/DX2                !
 ! A52   A(27,26,32)           123.5933         estimate D2E/DX2                !
 ! A53   A(26,27,28)           109.5652         estimate D2E/DX2                !
 ! A54   A(26,27,30)           116.7098         estimate D2E/DX2                !
 ! A55   A(26,27,31)           112.8459         estimate D2E/DX2                !
 ! A56   A(28,27,30)           105.1788         estimate D2E/DX2                !
 ! A57   A(28,27,31)           105.5803         estimate D2E/DX2                !
 ! A58   A(30,27,31)           106.1379         estimate D2E/DX2                !
 ! A59   A(27,28,29)           102.5617         estimate D2E/DX2                !
 ! A60   A(26,32,33)           122.1547         estimate D2E/DX2                !
 ! A61   A(26,32,35)           119.4834         estimate D2E/DX2                !
 ! A62   A(33,32,35)           117.7638         estimate D2E/DX2                !
 ! A63   A(32,33,34)           109.3478         estimate D2E/DX2                !
 ! A64   A(32,35,36)           123.5491         estimate D2E/DX2                !
 ! A65   A(32,35,37)           120.0482         estimate D2E/DX2                !
 ! A66   A(36,35,37)           116.0468         estimate D2E/DX2                !
 ! A67   A(23,37,35)           121.0351         estimate D2E/DX2                !
 ! A68   A(23,37,38)           121.6451         estimate D2E/DX2                !
 ! A69   A(35,37,38)           117.3059         estimate D2E/DX2                !
 ! D1    D(2,1,5,6)            -49.1998         estimate D2E/DX2                !
 ! D2    D(2,1,5,10)            69.0814         estimate D2E/DX2                !
 ! D3    D(2,1,5,14)          -176.6996         estimate D2E/DX2                !
 ! D4    D(3,1,5,6)            177.4927         estimate D2E/DX2                !
 ! D5    D(3,1,5,10)           -64.2261         estimate D2E/DX2                !
 ! D6    D(3,1,5,14)            49.9929         estimate D2E/DX2                !
 ! D7    D(4,1,5,6)             53.1945         estimate D2E/DX2                !
 ! D8    D(4,1,5,10)           171.4757         estimate D2E/DX2                !
 ! D9    D(4,1,5,14)           -74.3053         estimate D2E/DX2                !
 ! D10   D(1,5,6,7)             68.2446         estimate D2E/DX2                !
 ! D11   D(1,5,6,8)            -63.02           estimate D2E/DX2                !
 ! D12   D(1,5,6,9)           -172.7177         estimate D2E/DX2                !
 ! D13   D(10,5,6,7)           -53.8013         estimate D2E/DX2                !
 ! D14   D(10,5,6,8)           174.9341         estimate D2E/DX2                !
 ! D15   D(10,5,6,9)            65.2364         estimate D2E/DX2                !
 ! D16   D(14,5,6,7)          -168.6527         estimate D2E/DX2                !
 ! D17   D(14,5,6,8)            60.0827         estimate D2E/DX2                !
 ! D18   D(14,5,6,9)           -49.6149         estimate D2E/DX2                !
 ! D19   D(1,5,10,11)          -54.7586         estimate D2E/DX2                !
 ! D20   D(1,5,10,12)         -175.5062         estimate D2E/DX2                !
 ! D21   D(1,5,10,13)           62.5627         estimate D2E/DX2                !
 ! D22   D(6,5,10,11)           65.6768         estimate D2E/DX2                !
 ! D23   D(6,5,10,12)          -55.0708         estimate D2E/DX2                !
 ! D24   D(6,5,10,13)         -177.0018         estimate D2E/DX2                !
 ! D25   D(14,5,10,11)        -171.5702         estimate D2E/DX2                !
 ! D26   D(14,5,10,12)          67.6823         estimate D2E/DX2                !
 ! D27   D(14,5,10,13)         -54.2488         estimate D2E/DX2                !
 ! D28   D(1,5,14,15)          -81.7623         estimate D2E/DX2                !
 ! D29   D(1,5,14,16)          156.1003         estimate D2E/DX2                !
 ! D30   D(1,5,14,39)           33.9762         estimate D2E/DX2                !
 ! D31   D(6,5,14,15)          154.2057         estimate D2E/DX2                !
 ! D32   D(6,5,14,16)           32.0683         estimate D2E/DX2                !
 ! D33   D(6,5,14,39)          -90.0558         estimate D2E/DX2                !
 ! D34   D(10,5,14,15)          38.0092         estimate D2E/DX2                !
 ! D35   D(10,5,14,16)         -84.1283         estimate D2E/DX2                !
 ! D36   D(10,5,14,39)         153.7476         estimate D2E/DX2                !
 ! D37   D(5,14,16,17)          41.1033         estimate D2E/DX2                !
 ! D38   D(5,14,16,18)         -68.7322         estimate D2E/DX2                !
 ! D39   D(5,14,16,19)         169.4341         estimate D2E/DX2                !
 ! D40   D(15,14,16,17)        -81.0456         estimate D2E/DX2                !
 ! D41   D(15,14,16,18)        169.1189         estimate D2E/DX2                !
 ! D42   D(15,14,16,19)         47.2853         estimate D2E/DX2                !
 ! D43   D(39,14,16,17)        163.2408         estimate D2E/DX2                !
 ! D44   D(39,14,16,18)         53.4052         estimate D2E/DX2                !
 ! D45   D(39,14,16,19)        -68.4284         estimate D2E/DX2                !
 ! D46   D(14,16,19,20)         44.8352         estimate D2E/DX2                !
 ! D47   D(14,16,19,22)        -75.9058         estimate D2E/DX2                !
 ! D48   D(14,16,19,23)        164.205          estimate D2E/DX2                !
 ! D49   D(17,16,19,20)        172.274          estimate D2E/DX2                !
 ! D50   D(17,16,19,22)         51.5329         estimate D2E/DX2                !
 ! D51   D(17,16,19,23)        -68.3563         estimate D2E/DX2                !
 ! D52   D(18,16,19,20)        -74.242          estimate D2E/DX2                !
 ! D53   D(18,16,19,22)        165.0169         estimate D2E/DX2                !
 ! D54   D(18,16,19,23)         45.1277         estimate D2E/DX2                !
 ! D55   D(16,19,20,21)        -27.1407         estimate D2E/DX2                !
 ! D56   D(22,19,20,21)         86.5113         estimate D2E/DX2                !
 ! D57   D(23,19,20,21)       -147.4402         estimate D2E/DX2                !
 ! D58   D(16,19,23,24)        118.4126         estimate D2E/DX2                !
 ! D59   D(16,19,23,37)        -61.4224         estimate D2E/DX2                !
 ! D60   D(20,19,23,24)       -125.3368         estimate D2E/DX2                !
 ! D61   D(20,19,23,37)         54.8282         estimate D2E/DX2                !
 ! D62   D(22,19,23,24)          2.656          estimate D2E/DX2                !
 ! D63   D(22,19,23,37)       -177.179          estimate D2E/DX2                !
 ! D64   D(19,23,24,25)         -1.7938         estimate D2E/DX2                !
 ! D65   D(19,23,24,26)        174.6799         estimate D2E/DX2                !
 ! D66   D(37,23,24,25)        178.0475         estimate D2E/DX2                !
 ! D67   D(37,23,24,26)         -5.4787         estimate D2E/DX2                !
 ! D68   D(19,23,37,35)       -179.3024         estimate D2E/DX2                !
 ! D69   D(19,23,37,38)         -0.6957         estimate D2E/DX2                !
 ! D70   D(24,23,37,35)          0.8624         estimate D2E/DX2                !
 ! D71   D(24,23,37,38)        179.4691         estimate D2E/DX2                !
 ! D72   D(23,24,26,27)        174.8171         estimate D2E/DX2                !
 ! D73   D(23,24,26,32)          5.99           estimate D2E/DX2                !
 ! D74   D(25,24,26,27)         -9.0213         estimate D2E/DX2                !
 ! D75   D(25,24,26,32)       -177.8483         estimate D2E/DX2                !
 ! D76   D(24,26,27,28)        145.7315         estimate D2E/DX2                !
 ! D77   D(24,26,27,30)         26.3981         estimate D2E/DX2                !
 ! D78   D(24,26,27,31)        -96.9431         estimate D2E/DX2                !
 ! D79   D(32,26,27,28)        -45.8617         estimate D2E/DX2                !
 ! D80   D(32,26,27,30)       -165.1951         estimate D2E/DX2                !
 ! D81   D(32,26,27,31)         71.4637         estimate D2E/DX2                !
 ! D82   D(24,26,32,33)        169.1681         estimate D2E/DX2                !
 ! D83   D(24,26,32,35)         -1.7644         estimate D2E/DX2                !
 ! D84   D(27,26,32,33)          1.325          estimate D2E/DX2                !
 ! D85   D(27,26,32,35)       -169.6074         estimate D2E/DX2                !
 ! D86   D(26,27,28,29)       -143.6331         estimate D2E/DX2                !
 ! D87   D(30,27,28,29)        -17.4282         estimate D2E/DX2                !
 ! D88   D(31,27,28,29)         94.5733         estimate D2E/DX2                !
 ! D89   D(26,32,33,34)         33.0794         estimate D2E/DX2                !
 ! D90   D(35,32,33,34)       -155.8396         estimate D2E/DX2                !
 ! D91   D(26,32,35,36)       -175.7249         estimate D2E/DX2                !
 ! D92   D(26,32,35,37)         -2.8507         estimate D2E/DX2                !
 ! D93   D(33,32,35,36)         12.9475         estimate D2E/DX2                !
 ! D94   D(33,32,35,37)       -174.1783         estimate D2E/DX2                !
 ! D95   D(32,35,37,23)          3.3272         estimate D2E/DX2                !
 ! D96   D(32,35,37,38)       -175.3379         estimate D2E/DX2                !
 ! D97   D(36,35,37,23)        176.7195         estimate D2E/DX2                !
 ! D98   D(36,35,37,38)         -1.9456         estimate D2E/DX2                !
 --------------------------------------------------------------------------------
 Trust Radius=3.00D-01 FncErr=1.00D-07 GrdErr=1.00D-06 EigMax=2.50D+02 EigMin=1.00D-04
 Number of steps in this run=    216 maximum allowed number of steps=    234.
 GradGradGradGradGradGradGradGradGradGradGradGradGradGradGradGradGradGrad

 Leave Link  103 at Sun Jul 18 14:40:06 2021, MaxMem=   104857600 cpu:               0.1 elap:               0.0
 (Enter /prod/apps/gaussian/g16b1/l202.exe)
                          Input orientation:                          
 ---------------------------------------------------------------------
 Center     Atomic      Atomic             Coordinates (Angstroms)
 Number     Number       Type             X           Y           Z
 ---------------------------------------------------------------------
      1          6           0       -1.295000    4.206000   -2.136000
      2          1           0       -1.711000    5.167000   -1.826000
      3          1           0       -1.569000    3.916000   -3.153000
      4          1           0       -0.264000    4.566000   -2.115000
      5          6           0       -1.457000    3.115000   -1.064000
      6          6           0       -0.995000    3.623000    0.250000
      7          1           0       -1.601000    4.408000    0.706000
      8          1           0        0.069000    3.864000    0.226000
      9          1           0       -1.012000    2.768000    0.930000
     10          6           0       -2.860000    2.710000   -0.880000
     11          1           0       -3.479000    3.583000   -0.662000
     12          1           0       -2.987000    1.993000   -0.066000
     13          1           0       -3.302000    2.266000   -1.774000
     14          7           0       -0.800000    1.899000   -1.546000
     15          1           0       -1.437000    1.438000   -2.163000
     16          6           0       -0.312000    0.845000   -0.504000
     17          1           0       -1.063000    0.735000    0.283000
     18          1           0        0.517000    1.335000    0.012000
     19          6           0        0.162000   -0.575000   -1.058000
     20          8           0        1.000000   -0.271000   -2.203000
     21          1           0        0.606000    0.582000   -2.459000
     22          1           0       -0.770000   -1.092000   -1.302000
     23          6           0        0.936000   -1.325000   -0.043000
     24          6           0        0.434000   -2.576000    0.416000
     25          1           0       -0.522000   -2.882000   -0.003000
     26          6           0        1.203000   -3.370000    1.300000
     27          6           0        0.502000   -4.634000    1.819000
     28          8           0        1.520000   -5.744000    1.993000
     29          1           0        1.017000   -6.536000    1.730000
     30          1           0       -0.279000   -5.059000    1.183000
     31          1           0        0.049000   -4.494000    2.804000
     32          6           0        2.400000   -2.879000    1.826000
     33          8           0        3.065000   -3.514000    2.846000
     34          1           0        2.934000   -4.476000    2.767000
     35          6           0        2.852000   -1.610000    1.443000
     36          1           0        3.805000   -1.191000    1.758000
     37          6           0        2.126000   -0.856000    0.479000
     38          1           0        2.557000    0.088000    0.157000
     39          1           0       -0.005000    2.180000   -2.083000
 ---------------------------------------------------------------------
                    Distance matrix (angstroms):
                    1          2          3          4          5
     1  C    0.000000
     2  H    1.092098   0.000000
     3  H    1.092458   1.829233   0.000000
     4  H    1.092246   1.593277   1.789684   0.000000
     5  C    1.538086   2.203603   2.240104   2.152499   0.000000
     6  C    2.474446   2.684468   3.463486   2.648931   1.482600
     7  H    2.865555   2.645601   3.890369   3.125792   2.196699
     8  H    2.748910   3.012792   3.755448   2.466571   2.133958
     9  H    3.398277   3.720126   4.277738   3.614462   2.072310
    10  C    2.502954   2.872624   2.878827   3.421867   1.471832
    11  H    2.707519   2.643818   3.156592   3.662475   2.114027
    12  H    3.470610   3.847084   3.903617   4.270065   2.143779
    13  H    2.814728   3.309046   2.761780   3.825667   2.151494
    14  N    2.432154   3.404136   2.691115   2.779199   1.463772
    15  H    2.771771   3.754209   2.671705   3.341050   2.005126
    16  C    3.863423   4.731233   4.245974   4.055054   2.603368
    17  H    4.237125   4.950799   4.709660   4.589702   2.762978
    18  H    4.017448   4.798589   4.585868   3.946321   2.867552
    19  C    5.113012   6.088392   5.249235   5.265796   4.029553
    20  O    5.031406   6.087979   5.003322   5.000201   4.335801
    21  H    4.105059   5.176041   4.040769   4.092370   3.552194
    22  H    5.388876   6.350995   5.398580   5.738464   4.269363
    23  C    6.320599   7.234070   6.589022   6.359014   5.146114
    24  C    7.449676   8.341561   7.674362   7.609292   6.176873
    25  H    7.442242   8.338072   7.565151   7.745955   6.161490
    26  C    8.685728   9.546918   8.977694   8.763242   7.397251
    27  C    9.849712  10.688451  10.105064  10.035094   8.496845
    28  O   11.134423  12.003085  11.372723  11.240748   9.833090
    29  H   11.648256  12.531853  11.822664  11.818604  10.347411
    30  H    9.893849  10.755268  10.050653  10.174363   8.558678
    31  H   10.094550  10.856768  10.432252  10.313977   8.667545
    32  C    8.918951   9.745540   9.312112   8.834953   7.691332
    33  O   10.169972  10.954338  10.614465  10.048889   8.926378
    34  H   10.830557  11.647280  11.213789  10.761919   9.569782
    35  C    7.989537   8.799719   8.438313   7.778933   6.868636
    36  H    8.384560   9.148523   8.892651   8.043627   7.361655
    37  C    6.645699   7.504140   7.043893   6.468309   5.566649
    38  H    6.087173   6.924186   6.529438   5.759558   5.173564
    39  H    2.402412   3.449443   2.569960   2.400229   2.005216
                    6          7          8          9         10
     6  C    0.000000
     7  H    1.091511   0.000000
     8  H    1.091216   1.820779   0.000000
     9  H    1.092572   1.756900   1.692747   0.000000
    10  C    2.364042   2.642666   3.336764   2.587386   0.000000
    11  H    2.646432   2.465549   3.668216   3.047093   1.092160
    12  H    2.593226   2.889499   3.595141   2.343772   1.092160
    13  H    3.355633   3.692149   4.232877   3.578788   1.091667
    14  N    2.497162   3.465283   2.785026   2.632619   2.311899
    15  H    3.285142   4.132669   3.723014   3.393549   2.299783
    16  C    2.958427   3.977511   3.129285   2.498857   3.179922
    17  H    2.888989   3.736215   3.327959   2.134080   2.912457
    18  H    2.752768   3.796168   2.577274   2.287805   3.753721
    19  C    4.546726   5.572267   4.621907   4.062766   4.467146
    20  O    5.016021   6.092661   4.885184   4.806179   5.053344
    21  H    4.376021   5.433815   4.274239   4.345324   4.362887
    22  H    4.968959   5.913766   5.253631   4.465421   4.359058
    23  C    5.319522   6.313847   5.267805   4.636171   5.602804
    24  C    6.363741   7.280218   6.453133   5.559986   6.361749
    25  H    6.527079   7.403447   6.775709   5.747442   6.124201
    26  C    7.405117   8.289303   7.400688   6.535914   7.630647
    27  C    8.537026   9.349820   8.656855   7.607373   8.515984
    28  O    9.854134  10.698603   9.876303   8.944000   9.945283
    29  H   10.461540  11.299276  10.550863   9.556216  10.360104
    30  H    8.761294   9.570752   8.980918   7.865318   8.442446
    31  H    8.573129   9.293530   8.746579   7.574579   8.598358
    32  C    7.502387   8.388252   7.311745   6.658316   8.137995
    33  O    8.611596   9.439769   8.383036   7.730233   9.366263
    34  H    9.346985  10.185254   9.177173   8.451096   9.925202
    35  C    6.603556   7.522546   6.260260   5.861787   7.528989
    36  H    6.963380   7.853683   6.469756   6.289893   8.160825
    37  C    5.463929   6.453817   5.154964   4.814958   6.278808
    38  H    5.012143   6.021027   4.522508   4.529646   6.106893
    39  H    2.916374   3.910207   2.858813   3.230783   3.143109
                   11         12         13         14         15
    11  H    0.000000
    12  H    1.767874   0.000000
    13  H    1.732733   1.758129   0.000000
    14  N    3.285476   2.642386   2.539031   0.000000
    15  H    3.320209   2.666071   2.077289   0.999489   0.000000
    16  C    4.189451   2.943701   3.545736   1.560392   2.090348
    17  H    3.852426   2.325111   3.404164   2.183874   2.572353
    18  H    4.634199   3.566099   4.317559   2.116589   2.925637
    19  C    5.540998   4.182689   4.536875   2.698938   2.798213
    20  O    6.106508   5.058521   5.012745   2.894918   2.976785
    21  H    5.377958   4.541698   4.310168   2.131876   2.234771
    22  H    5.440947   3.994998   4.232017   3.001086   2.754471
    23  C    6.630524   5.138052   5.818272   3.958141   4.214226
    24  C    7.376106   5.728117   6.496057   5.039625   5.124849
    25  H    7.139633   5.463133   6.112834   5.031510   4.915814
    26  C    8.608994   6.941457   7.842767   6.314593   6.486820
    27  C    9.461649   7.722919   8.659680   7.463144   7.515666
    28  O   10.910177   9.187693  10.079785   8.736268   8.808933
    29  H   11.328276   9.591740  10.411867   9.229458   9.206641
    30  H    9.398308   7.656629   8.458014   7.492172   7.399168
    31  H    9.470896   7.715916   8.825241   7.779058   7.878319
    32  C    9.083514   7.505719   8.481971   6.666308   7.019343
    33  O   10.271193   8.685246   9.761736   7.970474   8.359449
    34  H   10.855049   9.215861  10.245142   8.554844   8.853583
    35  C    8.454575   7.025141   7.952621   5.880842   6.378798
    36  H    9.039034   7.719851   8.656519   6.455272   7.054392
    37  C    7.240347   5.878486   6.654779   4.500236   4.993753
    38  H    7.022755   5.866403   6.542196   4.177245   4.812165
    39  H    4.007035   3.604939   3.312565   0.999677   1.614803
                   16         17         18         19         20
    16  C    0.000000
    17  H    1.093376   0.000000
    18  H    1.092519   1.711678   0.000000
    19  C    1.596243   2.239421   2.217888   0.000000
    20  O    2.419380   3.383519   2.778264   1.451098   0.000000
    21  H    2.175757   3.213648   2.584719   1.870451   0.973849
    22  H    2.144420   2.436391   3.045208   1.093366   2.149126
    23  C    2.545373   2.888923   2.693360   1.480473   2.404290
    24  C    3.620243   3.636127   3.932687   2.500132   3.534479
    25  H    3.766382   3.668401   4.343137   2.627381   3.738155
    26  C    4.828651   4.797924   4.926111   3.802088   4.681455
    27  C    6.006527   5.799542   6.236540   4.986804   5.954852
    28  O    7.280533   7.181464   7.419071   6.153968   6.915963
    29  H    7.825354   7.699847   8.071813   6.636075   7.397229
    30  H    6.140381   5.915665   6.548900   5.032178   6.002148
    31  H    6.291113   5.910535   6.480087   5.503306   6.618775
    32  C    5.162559   5.237768   4.959242   4.316771   4.999450
    33  O    6.451938   6.454716   6.167387   5.683867   6.346154
    34  H    7.039105   7.021452   6.870199   6.126370   6.791412
    35  C    4.452946   4.708699   4.021568   3.816062   4.303039
    36  H    5.119729   5.438982   4.498904   4.645510   4.940035
    37  C    3.131060   3.569232   2.758161   2.509706   2.967023
    38  H    3.039923   3.679522   2.395336   2.766192   2.850040
    39  H    2.090386   2.967380   2.318520   2.944238   2.651759
                   21         22         23         24         25
    21  H    0.000000
    22  H    2.456481   0.000000
    23  C    3.095578   2.133027   0.000000
    24  C    4.274128   2.569707   1.423968   0.000000
    25  H    4.393588   2.225535   2.133451   1.087719   0.000000
    26  C    5.486784   3.981509   2.461090   1.415363   2.216208
    27  C    6.746759   4.889211   3.821633   2.491666   2.727226
    28  O    7.789350   6.143470   4.900399   3.701695   4.042873
    29  H    8.269375   6.482556   5.504962   4.212848   4.327069
    30  H    6.772612   4.706739   4.113643   2.694800   2.490979
    31  H    7.333157   5.394775   4.351407   3.086988   3.286919
    32  C    5.792942   4.798609   2.837494   2.438250   3.447221
    33  O    7.139112   6.146480   4.203651   3.702284   4.624153
    34  H    7.636362   6.459708   4.670857   3.922652   4.707194
    35  C    5.007493   4.574083   2.441409   2.799037   3.884942
    36  H    5.582134   5.504909   3.390091   3.883662   4.968252
    37  C    3.606950   3.408001   1.381501   2.413552   3.368813
    38  H    3.300590   3.819687   2.159678   3.416300   4.280974
    39  H    1.751657   3.449807   4.163185   5.390478   5.497048
                   26         27         28         29         30
    26  C    0.000000
    27  C    1.535727   0.000000
    28  O    2.493314   1.516146   0.000000
    29  H    3.200477   1.972498   0.974393   0.000000
    30  H    2.250052   1.093198   2.088475   2.039695   0.000000
    31  H    2.203885   1.093176   2.093815   2.502052   1.747698
    32  C    1.396627   2.585049   3.001752   3.910953   3.513245
    33  O    2.424437   2.979614   2.843859   3.817361   4.041649
    34  H    2.524220   2.615013   2.050926   2.998976   3.629368
    35  C    2.416040   3.848175   4.377977   5.264510   4.665443
    36  H    3.424647   4.771559   5.099633   6.028495   5.654300
    37  C    2.801101   4.325073   5.152861   5.920919   4.893348
    38  H    3.885554   5.411336   6.201491   6.980208   5.965499
    39  H    6.611086   7.868497   9.040419   9.568287   7.946380
                   31         32         33         34         35
    31  H    0.000000
    32  C    3.015279   0.000000
    33  O    3.171501   1.373263   0.000000
    34  H    2.885293   1.929001   0.974087   0.000000
    35  C    4.245773   1.400483   2.374657   3.158110   0.000000
    36  H    5.109937   2.197269   2.669770   3.545130   1.087656
    37  C    4.791096   2.445816   3.680947   4.358005   1.422986
    38  H    5.855886   3.407829   4.523626   5.271084   2.150355
    39  H    8.272119   6.830651   8.132747   8.744287   5.912633
                   36         37         38         39
    36  H    0.000000
    37  C    2.137079   0.000000
    38  H    2.399280   1.086545   0.000000
    39  H    6.374404   4.508026   3.994735   0.000000
 Stoichiometry    C13H22NO3(1+)
 Framework group  C1[X(C13H22NO3)]
 Deg. of freedom   111
 Full point group                 C1      NOp   1
 Largest Abelian subgroup         C1      NOp   1
 Largest concise Abelian subgroup C1      NOp   1
                         Standard orientation:                         
 ---------------------------------------------------------------------
 Center     Atomic      Atomic             Coordinates (Angstroms)
 Number     Number       Type             X           Y           Z
 ---------------------------------------------------------------------
      1          6           0        5.497657    0.330707    0.333935
      2          1           0        6.355370    0.515138   -0.316443
      3          1           0        5.733718   -0.276079    1.211176
      4          1           0        5.400301    1.380145    0.620647
      5          6           0        4.239002   -0.084846   -0.446328
      6          6           0        4.005548    0.854712   -1.569197
      7          1           0        4.732862    0.827477   -2.382627
      8          1           0        3.811511    1.864146   -1.202938
      9          1           0        3.036418    0.584864   -1.995441
     10          6           0        4.364597   -1.422752   -1.046764
     11          1           0        5.259538   -1.473550   -1.670714
     12          1           0        3.504709   -1.687858   -1.665736
     13          1           0        4.488988   -2.217323   -0.308577
     14          7           0        3.136988   -0.228670    0.506304
     15          1           0        3.218953   -1.132039    0.926048
     16          6           0        1.672174   -0.084332   -0.011682
     17          1           0        1.574740   -0.589596   -0.976403
     18          1           0        1.578741    0.971824   -0.275123
     19          6           0        0.494141   -0.497878    0.982909
     20          8           0        0.855136    0.091694    2.258751
     21          1           0        1.822690    0.111578    2.150003
     22          1           0        0.503350   -1.591118    0.969126
     23          6           0       -0.812726    0.028549    0.528184
     24          6           0       -1.849699   -0.893269    0.207836
     25          1           0       -1.587880   -1.945391    0.295142
     26          6           0       -3.143370   -0.422626   -0.121048
     27          6           0       -4.137467   -1.504906   -0.567030
     28          8           0       -5.530833   -1.140853   -0.093008
     29          1           0       -5.911434   -2.008959    0.132771
     30          1           0       -3.962918   -2.516906   -0.192236
     31          1           0       -4.210603   -1.591954   -1.654278
     32          6           0       -3.380402    0.947127   -0.255798
     33          8           0       -4.550091    1.438183   -0.781671
     34          1           0       -5.285024    0.844747   -0.543860
     35          6           0       -2.337224    1.852996   -0.026593
     36          1           0       -2.463719    2.933081   -0.046822
     37          6           0       -1.064221    1.380842    0.399345
     38          1           0       -0.310710    2.126160    0.638725
     39          1           0        3.269728    0.454177    1.224256
 ---------------------------------------------------------------------
 Rotational constants (GHZ):           1.1134160           0.1613412           0.1581136
 Leave Link  202 at Sun Jul 18 14:40:06 2021, MaxMem=   104857600 cpu:               0.1 elap:               0.0
 (Enter /prod/apps/gaussian/g16b1/l301.exe)
 Standard basis: 6-31G(d) (6D, 7F)
 Ernie: Thresh=  0.10000D-02 Tol=  0.10000D-05 Strict=F.
 There are   299 symmetry adapted cartesian basis functions of A   symmetry.
 There are   299 symmetry adapted basis functions of A   symmetry.
   299 basis functions,   564 primitive gaussians,   299 cartesian basis functions
    65 alpha electrons       65 beta electrons
       nuclear repulsion energy      1233.1879378683 Hartrees.
 IExCor=  402 DFT=T Ex+Corr=B3LYP ExCW=0 ScaHFX=  0.200000
 ScaDFX=  0.800000  0.720000  1.000000  0.810000 ScalE2=  1.000000  1.000000
 IRadAn=      5 IRanWt=     -1 IRanGd=            0 ICorTp=0 IEmpDi=  4
 NAtoms=   39 NActive=   39 NUniq=   39 SFac= 1.00D+00 NAtFMM=   60 NAOKFM=F Big=F
 Integral buffers will be    131072 words long.
 Raffenetti 2 integral format.
 Two-electron integral symmetry is turned on.
 Using the following non-standard input for PCM:
 MSTModel=DFT cav MSTCharged
 --- end of non-standard input.
 MST model for solvation energy: B3LYP parametrization.
 MST cavity parameters:
 ISph   IAn     Re0     Alpha   Atom Type   QCorr
 ------------------------------------------------
   1      6     1.50     1.25      CH3        F
   2      1     1.20     1.25      CH3        F
   3      1     1.20     1.25      CH3        F
   4      1     1.20     1.25      CH3        F
   5      6     1.50     1.25      C          F
   6      6     1.50     1.25      CH3        F
   7      1     1.20     1.25      CH3        F
   8      1     1.20     1.25      CH3        F
   9      1     1.20     1.25      CH3        F
  10      6     1.50     1.25      CH3        F
  11      1     1.20     1.25      CH3        F
  12      1     1.20     1.25      CH3        F
  13      1     1.20     1.25      CH3        F
  14      7     1.55     1.15      NH         T
  15      1     0.90     1.15      NH         T
  16      6     1.50     1.25      CH2        F
  17      1     1.20     1.25      CH2        F
  18      1     1.20     1.25      CH2        F
  19      6     1.50     1.25      CH         F
  20      8     1.45     1.25      OH         F
  21      1     0.90     1.25      OH         F
  22      1     1.20     1.25      CH         F
  23      6     1.50     1.25      C          F
  24      6     1.50     1.25      CH         F
  25      1     1.20     1.25      CH         F
  26      6     1.50     1.25      C          F
  27      6     1.50     1.25      CH2        F
  28      8     1.45     1.25      OH         F
  29      1     0.90     1.25      OH         F
  30      1     1.20     1.25      CH2        F
  31      1     1.20     1.25      CH2        F
  32      6     1.50     1.25      C          F
  33      8     1.45     1.25      OH         F
  34      1     0.90     1.25      OH         F
  35      6     1.50     1.25      CH         F
  36      1     1.20     1.25      CH         F
  37      6     1.50     1.25      CH         F
  38      1     1.20     1.25      CH         F
  39      1     0.90     1.15      NH         T
 ------------------------------------------------------------------------------
 Polarizable Continuum Model (PCM)
 =================================
 Model                : PCM.
 Atomic radii         : MST.
 Polarization charges : Total charges.
 Charge compensation  : None.
 Solution method      : On-the-fly selection.
 Cavity type          : Scaled VdW (van der Waals Surface) (Alpha=1.250).
 Cavity algorithm     : GePol (No added spheres)
                        Default sphere list used, NSphG=   39.
                        Lebedev-Laikov grids with approx.  5.0 points / Ang**2.
                        Smoothing algorithm: York/Karplus (Gamma=1.0000).
                        Polarization charges: spherical gaussians, with
                                              point-specific exponents (IZeta= 3).
                        Self-potential: point-specific (ISelfS= 7).
                        Self-field    : sphere-specific E.n sum rule (ISelfD= 2).
 1st derivatives      : Analytical E(r).r(x)/FMM algorithm (CHGder, D1EAlg=3).
                        Cavity 1st derivative terms included.
 Solvent              : Water, Eps=  78.355300 Eps(inf)=   1.777849
 ------------------------------------------------------------------------------
 GePol: Number of generator spheres                  =      39
 GePol: Total number of spheres                      =      39
 GePol: Number of exposed spheres                    =      39 (100.00%)
 GePol: Number of points                             =    2647
 GePol: Average weight of points                     =       0.12
 GePol: Minimum weight of points                     =   0.11D-10
 GePol: Maximum weight of points                     =    0.21416
 GePol: Number of points with low weight             =     193
 GePol: Fraction of low-weight points (<1% of avg)   =       7.29%
 GePol: Cavity surface area                          =    330.712 Ang**2
 GePol: Cavity volume                                =    313.215 Ang**3
 PCM non-electrostatic energy =         0.0007966072 Hartrees.
 Nuclear repulsion after PCM non-electrostatic terms =     1233.1887344755 Hartrees.
 Leave Link  301 at Sun Jul 18 14:40:06 2021, MaxMem=   104857600 cpu:               0.3 elap:               0.1
 (Enter /prod/apps/gaussian/g16b1/l302.exe)
 NPDir=0 NMtPBC=     1 NCelOv=     1 NCel=       1 NClECP=     1 NCelD=      1
         NCelK=      1 NCelE2=     1 NClLst=     1 CellRange=     0.0.
 One-electron integrals computed using PRISM.
 One-electron integral symmetry used in STVInt
 NBasis=   299 RedAO= T EigKep=  4.51D-04  NBF=   299
 NBsUse=   299 1.00D-06 EigRej= -1.00D+00 NBFU=   299
 Precomputing XC quadrature grid using
 IXCGrd= 4 IRadAn=           5 IRanWt=          -1 IRanGd=           0 AccXCQ= 0.00D+00.
 Generated NRdTot=       0 NPtTot=           0 NUsed=           0 NTot=          32
 NSgBfM=   296   296   296   296   296 MxSgAt=    39 MxSgA2=    39.
 Leave Link  302 at Sun Jul 18 14:40:07 2021, MaxMem=   104857600 cpu:               2.6 elap:               0.7
 (Enter /prod/apps/gaussian/g16b1/l303.exe)
 DipDrv:  MaxL=1.
 Leave Link  303 at Sun Jul 18 14:40:07 2021, MaxMem=   104857600 cpu:               0.1 elap:               0.1
 (Enter /prod/apps/gaussian/g16b1/l401.exe)
 ExpMin= 1.61D-01 ExpMax= 5.48D+03 ExpMxC= 8.25D+02 IAcc=3 IRadAn=         5 AccDes= 0.00D+00
 Harris functional with IExCor=  402 and IRadAn=       5 diagonalized for initial guess.
 HarFok:  IExCor=  402 AccDes= 0.00D+00 IRadAn=         5 IDoV= 1 UseB2=F ITyADJ=14
 ICtDFT=  3500011 ScaDFX=  1.000000  1.000000  1.000000  1.000000
 FoFCou: FMM=F IPFlag=           0 FMFlag=      100000 FMFlg1=           0
         NFxFlg=           0 DoJE=T BraDBF=F KetDBF=T FulRan=T
         wScrn=  0.000000 ICntrl=       500 IOpCl=  0 I1Cent=   200000004 NGrid=           0
         NMat0=    1 NMatS0=      1 NMatT0=    0 NMatD0=    1 NMtDS0=    0 NMtDT0=    0
 Petite list used in FoFCou.
 Harris En= -788.814524065039    
 JPrj=0 DoOrth=F DoCkMO=F.
 Leave Link  401 at Sun Jul 18 14:40:09 2021, MaxMem=   104857600 cpu:               9.9 elap:               2.5
 (Enter /prod/apps/gaussian/g16b1/l502.exe)
 Integral symmetry usage will be decided dynamically.
 Closed shell SCF:
 Using DIIS extrapolation, IDIIS=  1040.
 NGot=   104857600 LenX=   104673424 LenY=   104583582
 Requested convergence on RMS density matrix=1.00D-08 within 128 cycles.
 Requested convergence on MAX density matrix=1.00D-06.
 Requested convergence on             energy=1.00D-06.
 No special actions if energy rises.
 Fock matrices will be formed incrementally for  20 cycles.

 Cycle   1  Pass 1  IDiag  1:
 FoFJK:  IHMeth= 1 ICntrl=       0 DoSepK=F KAlg= 0 I1Cent=           0 FoldK=F
 IRaf= 770000000 NMat=       1 IRICut=       1 DoRegI=T DoRafI=F ISym2E= 0 IDoP0=0 IntGTp=1.
 FoFCou: FMM=F IPFlag=           0 FMFlag=      100000 FMFlg1=           0
         NFxFlg=           0 DoJE=F BraDBF=F KetDBF=F FulRan=T
         wScrn=  0.000000 ICntrl=         0 IOpCl=  0 I1Cent=           0 NGrid=           0
         NMat0=    1 NMatS0=      1 NMatT0=    0 NMatD0=    1 NMtDS0=    0 NMtDT0=    0
 Symmetry not used in FoFCou.
 Inv3:  Mode=1 IEnd=    21019827.
 Iteration    1 A*A^-1 deviation from unit magnitude is 2.89D-15 for    973.
 Iteration    1 A*A^-1 deviation from orthogonality  is 2.32D-15 for   2251    240.
 Iteration    1 A^-1*A deviation from unit magnitude is 2.89D-15 for   2174.
 Iteration    1 A^-1*A deviation from orthogonality  is 3.29D-14 for   2376   2361.
 E= -788.449073517686    
 DIIS: error= 3.71D-02 at cycle   1 NSaved=   1.
 NSaved= 1 IEnMin= 1 EnMin= -788.449073517686     IErMin= 1 ErrMin= 3.71D-02
 ErrMax= 3.71D-02  0.00D+00 EMaxC= 1.00D-01 BMatC= 4.40D-01 BMatP= 4.40D-01
 IDIUse=3 WtCom= 6.29D-01 WtEn= 3.71D-01
 Coeff-Com:  0.100D+01
 Coeff-En:   0.100D+01
 Coeff:      0.100D+01
 Gap=     0.221 Goal=   None    Shift=    0.000
 GapD=    0.221 DampG=1.000 DampE=0.500 DampFc=0.5000 IDamp=-1.
 Damping current iteration by 5.00D-01
 RMSDP=4.35D-03 MaxDP=1.33D-01              OVMax= 1.65D-01

 Cycle   2  Pass 1  IDiag  1:
 RMSU=  2.14D-03    CP:  9.81D-01
 E= -788.636578652166     Delta-E=       -0.187505134480 Rises=F Damp=T
 DIIS: error= 6.50D-03 at cycle   2 NSaved=   2.
 NSaved= 2 IEnMin= 2 EnMin= -788.636578652166     IErMin= 2 ErrMin= 6.50D-03
 ErrMax= 6.50D-03  0.00D+00 EMaxC= 1.00D-01 BMatC= 2.46D-02 BMatP= 4.40D-01
 IDIUse=3 WtCom= 9.35D-01 WtEn= 6.50D-02
 Coeff-Com:  0.599D-01 0.940D+00
 Coeff-En:   0.849D-01 0.915D+00
 Coeff:      0.615D-01 0.938D+00
 Gap=     0.226 Goal=   None    Shift=    0.000
 RMSDP=9.74D-04 MaxDP=2.50D-02 DE=-1.88D-01 OVMax= 9.59D-02

 Cycle   3  Pass 1  IDiag  1:
 RMSU=  9.59D-04    CP:  9.75D-01  9.44D-01
 E= -788.850555340938     Delta-E=       -0.213976688772 Rises=F Damp=F
 DIIS: error= 4.16D-03 at cycle   3 NSaved=   3.
 NSaved= 3 IEnMin= 3 EnMin= -788.850555340938     IErMin= 3 ErrMin= 4.16D-03
 ErrMax= 4.16D-03  0.00D+00 EMaxC= 1.00D-01 BMatC= 1.25D-02 BMatP= 2.46D-02
 IDIUse=3 WtCom= 9.58D-01 WtEn= 4.16D-02
 Coeff-Com: -0.166D-01 0.397D+00 0.619D+00
 Coeff-En:   0.000D+00 0.000D+00 0.100D+01
 Coeff:     -0.159D-01 0.381D+00 0.635D+00
 Gap=     0.214 Goal=   None    Shift=    0.000
 RMSDP=4.79D-04 MaxDP=1.93D-02 DE=-2.14D-01 OVMax= 2.89D-02

 Cycle   4  Pass 1  IDiag  1:
 RMSU=  3.83D-04    CP:  9.77D-01  9.66D-01  7.05D-01
 E= -788.858606124763     Delta-E=       -0.008050783826 Rises=F Damp=F
 DIIS: error= 1.97D-03 at cycle   4 NSaved=   4.
 NSaved= 4 IEnMin= 4 EnMin= -788.858606124763     IErMin= 4 ErrMin= 1.97D-03
 ErrMax= 1.97D-03  0.00D+00 EMaxC= 1.00D-01 BMatC= 3.00D-03 BMatP= 1.25D-02
 IDIUse=3 WtCom= 9.80D-01 WtEn= 1.97D-02
 Coeff-Com: -0.119D-01 0.726D-01 0.350D+00 0.590D+00
 Coeff-En:   0.000D+00 0.000D+00 0.203D+00 0.797D+00
 Coeff:     -0.117D-01 0.711D-01 0.347D+00 0.594D+00
 Gap=     0.213 Goal=   None    Shift=    0.000
 RMSDP=1.87D-04 MaxDP=7.94D-03 DE=-8.05D-03 OVMax= 1.44D-02

 Cycle   5  Pass 1  IDiag  1:
 RMSU=  8.65D-05    CP:  9.76D-01  9.68D-01  7.80D-01  6.13D-01
 E= -788.861159351980     Delta-E=       -0.002553227217 Rises=F Damp=F
 DIIS: error= 3.81D-04 at cycle   5 NSaved=   5.
 NSaved= 5 IEnMin= 5 EnMin= -788.861159351980     IErMin= 5 ErrMin= 3.81D-04
 ErrMax= 3.81D-04  0.00D+00 EMaxC= 1.00D-01 BMatC= 1.14D-04 BMatP= 3.00D-03
 IDIUse=3 WtCom= 9.96D-01 WtEn= 3.81D-03
 Coeff-Com: -0.448D-02 0.154D-01 0.137D+00 0.282D+00 0.570D+00
 Coeff-En:   0.000D+00 0.000D+00 0.000D+00 0.000D+00 0.100D+01
 Coeff:     -0.446D-02 0.153D-01 0.137D+00 0.281D+00 0.571D+00
 Gap=     0.213 Goal=   None    Shift=    0.000
 RMSDP=4.56D-05 MaxDP=1.96D-03 DE=-2.55D-03 OVMax= 4.27D-03

 Cycle   6  Pass 1  IDiag  1:
 RMSU=  2.79D-05    CP:  9.76D-01  9.69D-01  7.82D-01  6.37D-01  5.97D-01
 E= -788.861261635677     Delta-E=       -0.000102283697 Rises=F Damp=F
 DIIS: error= 1.36D-04 at cycle   6 NSaved=   6.
 NSaved= 6 IEnMin= 6 EnMin= -788.861261635677     IErMin= 6 ErrMin= 1.36D-04
 ErrMax= 1.36D-04  0.00D+00 EMaxC= 1.00D-01 BMatC= 1.25D-05 BMatP= 1.14D-04
 IDIUse=3 WtCom= 9.99D-01 WtEn= 1.36D-03
 Coeff-Com: -0.131D-02 0.193D-02 0.432D-01 0.995D-01 0.306D+00 0.550D+00
 Coeff-En:   0.000D+00 0.000D+00 0.000D+00 0.000D+00 0.308D-01 0.969D+00
 Coeff:     -0.131D-02 0.193D-02 0.432D-01 0.993D-01 0.306D+00 0.551D+00
 Gap=     0.213 Goal=   None    Shift=    0.000
 RMSDP=1.37D-05 MaxDP=6.89D-04 DE=-1.02D-04 OVMax= 1.39D-03

 Cycle   7  Pass 1  IDiag  1:
 RMSU=  6.20D-06    CP:  9.76D-01  9.68D-01  7.84D-01  6.36D-01  6.65D-01
                    CP:  6.29D-01
 E= -788.861273428967     Delta-E=       -0.000011793290 Rises=F Damp=F
 DIIS: error= 3.46D-05 at cycle   7 NSaved=   7.
 NSaved= 7 IEnMin= 7 EnMin= -788.861273428967     IErMin= 7 ErrMin= 3.46D-05
 ErrMax= 3.46D-05  0.00D+00 EMaxC= 1.00D-01 BMatC= 8.15D-07 BMatP= 1.25D-05
 IDIUse=1 WtCom= 1.00D+00 WtEn= 0.00D+00
 Coeff-Com: -0.473D-03 0.230D-03 0.161D-01 0.389D-01 0.136D+00 0.298D+00
 Coeff-Com:  0.512D+00
 Coeff:     -0.473D-03 0.230D-03 0.161D-01 0.389D-01 0.136D+00 0.298D+00
 Coeff:      0.512D+00
 Gap=     0.213 Goal=   None    Shift=    0.000
 RMSDP=3.40D-06 MaxDP=1.25D-04 DE=-1.18D-05 OVMax= 3.21D-04

 Cycle   8  Pass 1  IDiag  1:
 RMSU=  1.85D-06    CP:  9.76D-01  9.68D-01  7.84D-01  6.38D-01  6.62D-01
                    CP:  6.54D-01  5.78D-01
 E= -788.861274181716     Delta-E=       -0.000000752749 Rises=F Damp=F
 DIIS: error= 6.93D-06 at cycle   8 NSaved=   8.
 NSaved= 8 IEnMin= 8 EnMin= -788.861274181716     IErMin= 8 ErrMin= 6.93D-06
 ErrMax= 6.93D-06  0.00D+00 EMaxC= 1.00D-01 BMatC= 3.21D-08 BMatP= 8.15D-07
 IDIUse=1 WtCom= 1.00D+00 WtEn= 0.00D+00
 Coeff-Com: -0.695D-04-0.967D-04 0.238D-02 0.622D-02 0.252D-01 0.656D-01
 Coeff-Com:  0.208D+00 0.693D+00
 Coeff:     -0.695D-04-0.967D-04 0.238D-02 0.622D-02 0.252D-01 0.656D-01
 Coeff:      0.208D+00 0.693D+00
 Gap=     0.213 Goal=   None    Shift=    0.000
 RMSDP=7.56D-07 MaxDP=3.62D-05 DE=-7.53D-07 OVMax= 6.86D-05

 Cycle   9  Pass 1  IDiag  1:
 RMSU=  4.77D-07    CP:  9.76D-01  9.68D-01  7.84D-01  6.39D-01  6.64D-01
                    CP:  6.54D-01  6.26D-01  7.58D-01
 E= -788.861274207239     Delta-E=       -0.000000025523 Rises=F Damp=F
 DIIS: error= 2.18D-06 at cycle   9 NSaved=   9.
 NSaved= 9 IEnMin= 9 EnMin= -788.861274207239     IErMin= 9 ErrMin= 2.18D-06
 ErrMax= 2.18D-06  0.00D+00 EMaxC= 1.00D-01 BMatC= 4.56D-09 BMatP= 3.21D-08
 IDIUse=1 WtCom= 1.00D+00 WtEn= 0.00D+00
 Coeff-Com:  0.287D-05-0.698D-04-0.760D-04 0.507D-04 0.198D-02 0.938D-02
 Coeff-Com:  0.647D-01 0.347D+00 0.577D+00
 Coeff:      0.287D-05-0.698D-04-0.760D-04 0.507D-04 0.198D-02 0.938D-02
 Coeff:      0.647D-01 0.347D+00 0.577D+00
 Gap=     0.213 Goal=   None    Shift=    0.000
 RMSDP=2.55D-07 MaxDP=1.10D-05 DE=-2.55D-08 OVMax= 2.54D-05

 Cycle  10  Pass 1  IDiag  1:
 RMSU=  1.57D-07    CP:  9.76D-01  9.68D-01  7.84D-01  6.38D-01  6.63D-01
                    CP:  6.56D-01  6.30D-01  8.07D-01  6.62D-01
 E= -788.861274211349     Delta-E=       -0.000000004110 Rises=F Damp=F
 DIIS: error= 6.78D-07 at cycle  10 NSaved=  10.
 NSaved=10 IEnMin=10 EnMin= -788.861274211349     IErMin=10 ErrMin= 6.78D-07
 ErrMax= 6.78D-07  0.00D+00 EMaxC= 1.00D-01 BMatC= 2.94D-10 BMatP= 4.56D-09
 IDIUse=1 WtCom= 1.00D+00 WtEn= 0.00D+00
 Coeff-Com:  0.617D-05-0.204D-04-0.242D-03-0.524D-03-0.135D-02-0.158D-02
 Coeff-Com:  0.109D-01 0.928D-01 0.260D+00 0.640D+00
 Coeff:      0.617D-05-0.204D-04-0.242D-03-0.524D-03-0.135D-02-0.158D-02
 Coeff:      0.109D-01 0.928D-01 0.260D+00 0.640D+00
 Gap=     0.213 Goal=   None    Shift=    0.000
 RMSDP=7.57D-08 MaxDP=2.70D-06 DE=-4.11D-09 OVMax= 8.64D-06

 Cycle  11  Pass 1  IDiag  1:
 RMSU=  4.62D-08    CP:  9.76D-01  9.68D-01  7.84D-01  6.38D-01  6.64D-01
                    CP:  6.56D-01  6.31D-01  8.11D-01  7.32D-01  7.00D-01
 E= -788.861274211616     Delta-E=       -0.000000000267 Rises=F Damp=F
 DIIS: error= 3.23D-07 at cycle  11 NSaved=  11.
 NSaved=11 IEnMin=11 EnMin= -788.861274211616     IErMin=11 ErrMin= 3.23D-07
 ErrMax= 3.23D-07  0.00D+00 EMaxC= 1.00D-01 BMatC= 4.52D-11 BMatP= 2.94D-10
 IDIUse=1 WtCom= 1.00D+00 WtEn= 0.00D+00
 Coeff-Com:  0.314D-05-0.644D-05-0.134D-03-0.305D-03-0.908D-03-0.156D-02
 Coeff-Com:  0.180D-02 0.288D-01 0.110D+00 0.365D+00 0.498D+00
 Coeff:      0.314D-05-0.644D-05-0.134D-03-0.305D-03-0.908D-03-0.156D-02
 Coeff:      0.180D-02 0.288D-01 0.110D+00 0.365D+00 0.498D+00
 Gap=     0.213 Goal=   None    Shift=    0.000
 RMSDP=2.51D-08 MaxDP=1.26D-06 DE=-2.67D-10 OVMax= 3.09D-06

 Cycle  12  Pass 1  IDiag  1:
 RMSU=  1.24D-08    CP:  9.76D-01  9.68D-01  7.84D-01  6.38D-01  6.64D-01
                    CP:  6.56D-01  6.31D-01  8.13D-01  7.27D-01  7.62D-01
                    CP:  5.95D-01
 E= -788.861274211654     Delta-E=       -0.000000000038 Rises=F Damp=F
 DIIS: error= 3.34D-08 at cycle  12 NSaved=  12.
 NSaved=12 IEnMin=12 EnMin= -788.861274211654     IErMin=12 ErrMin= 3.34D-08
 ErrMax= 3.34D-08  0.00D+00 EMaxC= 1.00D-01 BMatC= 9.55D-13 BMatP= 4.52D-11
 IDIUse=1 WtCom= 1.00D+00 WtEn= 0.00D+00
 Coeff-Com:  0.251D-06 0.258D-06-0.177D-04-0.429D-04-0.139D-03-0.316D-03
 Coeff-Com: -0.433D-03-0.265D-03 0.862D-02 0.458D-01 0.149D+00 0.798D+00
 Coeff:      0.251D-06 0.258D-06-0.177D-04-0.429D-04-0.139D-03-0.316D-03
 Coeff:     -0.433D-03-0.265D-03 0.862D-02 0.458D-01 0.149D+00 0.798D+00
 Gap=     0.213 Goal=   None    Shift=    0.000
 RMSDP=4.89D-09 MaxDP=2.76D-07 DE=-3.77D-11 OVMax= 6.60D-07

 Error on total polarization charges =  0.01826
 SCF Done:  E(RB3LYP) =  -788.861274212     A.U. after   12 cycles
            NFock= 12  Conv=0.49D-08     -V/T= 2.0094
 KE= 7.815115347374D+02 PE=-4.283480140215D+03 EE= 1.479918596790D+03
 Leave Link  502 at Sun Jul 18 14:41:13 2021, MaxMem=   104857600 cpu:             255.8 elap:              64.1
 (Enter /prod/apps/gaussian/g16b1/l601.exe)
 Copying SCF densities to generalized density rwf, IOpCl= 0 IROHF=0.

 **********************************************************************

            Population analysis using the SCF Density.

 **********************************************************************

 Orbital symmetries:
       Occupied  (A) (A) (A) (A) (A) (A) (A) (A) (A) (A) (A) (A)
                 (A) (A) (A) (A) (A) (A) (A) (A) (A) (A) (A) (A)
                 (A) (A) (A) (A) (A) (A) (A) (A) (A) (A) (A) (A)
                 (A) (A) (A) (A) (A) (A) (A) (A) (A) (A) (A) (A)
                 (A) (A) (A) (A) (A) (A) (A) (A) (A) (A) (A) (A)
                 (A) (A) (A) (A) (A)
       Virtual   (A) (A) (A) (A) (A) (A) (A) (A) (A) (A) (A) (A)
                 (A) (A) (A) (A) (A) (A) (A) (A) (A) (A) (A) (A)
                 (A) (A) (A) (A) (A) (A) (A) (A) (A) (A) (A) (A)
                 (A) (A) (A) (A) (A) (A) (A) (A) (A) (A) (A) (A)
                 (A) (A) (A) (A) (A) (A) (A) (A) (A) (A) (A) (A)
                 (A) (A) (A) (A) (A) (A) (A) (A) (A) (A) (A) (A)
                 (A) (A) (A) (A) (A) (A) (A) (A) (A) (A) (A) (A)
                 (A) (A) (A) (A) (A) (A) (A) (A) (A) (A) (A) (A)
                 (A) (A) (A) (A) (A) (A) (A) (A) (A) (A) (A) (A)
                 (A) (A) (A) (A) (A) (A) (A) (A) (A) (A) (A) (A)
                 (A) (A) (A) (A) (A) (A) (A) (A) (A) (A) (A) (A)
                 (A) (A) (A) (A) (A) (A) (A) (A) (A) (A) (A) (A)
                 (A) (A) (A) (A) (A) (A) (A) (A) (A) (A) (A) (A)
                 (A) (A) (A) (A) (A) (A) (A) (A) (A) (A) (A) (A)
                 (A) (A) (A) (A) (A) (A) (A) (A) (A) (A) (A) (A)
                 (A) (A) (A) (A) (A) (A) (A) (A) (A) (A) (A) (A)
                 (A) (A) (A) (A) (A) (A) (A) (A) (A) (A) (A) (A)
                 (A) (A) (A) (A) (A) (A) (A) (A) (A) (A) (A) (A)
                 (A) (A) (A) (A) (A) (A) (A) (A) (A) (A) (A) (A)
                 (A) (A) (A) (A) (A) (A)
 The electronic state is 1-A.
 Alpha  occ. eigenvalues --  -19.17233 -19.16189 -19.14762 -14.45180 -10.26550
 Alpha  occ. eigenvalues --  -10.25926 -10.25794 -10.25664 -10.24476 -10.20799
 Alpha  occ. eigenvalues --  -10.20457 -10.20017 -10.19917 -10.19592 -10.18919
 Alpha  occ. eigenvalues --  -10.18737 -10.18268  -1.05252  -1.04062  -1.01584
 Alpha  occ. eigenvalues --   -0.99633  -0.86137  -0.83334  -0.78893  -0.76490
 Alpha  occ. eigenvalues --   -0.73944  -0.71779  -0.70563  -0.67886  -0.65598
 Alpha  occ. eigenvalues --   -0.61831  -0.61333  -0.59229  -0.58077  -0.53877
 Alpha  occ. eigenvalues --   -0.52915  -0.51323  -0.51223  -0.49800  -0.47243
 Alpha  occ. eigenvalues --   -0.46782  -0.45680  -0.45400  -0.44794  -0.44607
 Alpha  occ. eigenvalues --   -0.43335  -0.41773  -0.41442  -0.41427  -0.40316
 Alpha  occ. eigenvalues --   -0.39012  -0.38742  -0.37961  -0.37408  -0.36735
 Alpha  occ. eigenvalues --   -0.36050  -0.35278  -0.35062  -0.34680  -0.34094
 Alpha  occ. eigenvalues --   -0.32646  -0.28914  -0.27521  -0.25327  -0.23137
 Alpha virt. eigenvalues --   -0.01843  -0.01469   0.04781   0.06616   0.07813
 Alpha virt. eigenvalues --    0.08788   0.09533   0.10397   0.10879   0.11695
 Alpha virt. eigenvalues --    0.12016   0.13217   0.13370   0.13901   0.14398
 Alpha virt. eigenvalues --    0.14822   0.15535   0.16195   0.16312   0.17660
 Alpha virt. eigenvalues --    0.18138   0.18571   0.18925   0.19546   0.20198
 Alpha virt. eigenvalues --    0.20733   0.21696   0.21927   0.22589   0.23727
 Alpha virt. eigenvalues --    0.24320   0.25166   0.25969   0.26328   0.28075
 Alpha virt. eigenvalues --    0.28773   0.33093   0.33887   0.35741   0.37651
 Alpha virt. eigenvalues --    0.46616   0.47606   0.49274   0.49683   0.50157
 Alpha virt. eigenvalues --    0.50648   0.51182   0.53048   0.53771   0.54157
 Alpha virt. eigenvalues --    0.54606   0.56677   0.57371   0.58267   0.58836
 Alpha virt. eigenvalues --    0.59823   0.60319   0.61133   0.61508   0.62370
 Alpha virt. eigenvalues --    0.63555   0.64620   0.65661   0.66870   0.68371
 Alpha virt. eigenvalues --    0.70532   0.71747   0.72090   0.72836   0.73599
 Alpha virt. eigenvalues --    0.74900   0.75701   0.77488   0.78773   0.79751
 Alpha virt. eigenvalues --    0.80566   0.81300   0.81564   0.82861   0.84257
 Alpha virt. eigenvalues --    0.84695   0.86331   0.86409   0.86836   0.88037
 Alpha virt. eigenvalues --    0.88242   0.88621   0.89519   0.89958   0.90728
 Alpha virt. eigenvalues --    0.91773   0.92155   0.92511   0.93249   0.93857
 Alpha virt. eigenvalues --    0.95309   0.96501   0.96523   0.97674   0.97968
 Alpha virt. eigenvalues --    0.99111   0.99716   1.01091   1.01466   1.02094
 Alpha virt. eigenvalues --    1.04376   1.05550   1.05902   1.07116   1.10206
 Alpha virt. eigenvalues --    1.11469   1.13716   1.15615   1.17202   1.19034
 Alpha virt. eigenvalues --    1.19461   1.21833   1.23582   1.24123   1.26403
 Alpha virt. eigenvalues --    1.27779   1.30123   1.34729   1.35580   1.39522
 Alpha virt. eigenvalues --    1.42090   1.43030   1.44104   1.46141   1.47151
 Alpha virt. eigenvalues --    1.47860   1.49851   1.51396   1.55412   1.56145
 Alpha virt. eigenvalues --    1.62178   1.62792   1.64282   1.65616   1.68344
 Alpha virt. eigenvalues --    1.69543   1.71442   1.71795   1.73610   1.73994
 Alpha virt. eigenvalues --    1.76314   1.78597   1.79333   1.80408   1.82892
 Alpha virt. eigenvalues --    1.84670   1.86362   1.86584   1.87322   1.88380
 Alpha virt. eigenvalues --    1.89458   1.91290   1.92329   1.94411   1.94791
 Alpha virt. eigenvalues --    1.96181   1.98527   1.99616   1.99652   2.01274
 Alpha virt. eigenvalues --    2.03515   2.04243   2.06061   2.07712   2.09825
 Alpha virt. eigenvalues --    2.09976   2.12195   2.14080   2.15046   2.19325
 Alpha virt. eigenvalues --    2.20398   2.22466   2.23030   2.23653   2.24838
 Alpha virt. eigenvalues --    2.25572   2.26139   2.26398   2.26737   2.27991
 Alpha virt. eigenvalues --    2.30282   2.32068   2.34221   2.34993   2.38369
 Alpha virt. eigenvalues --    2.41779   2.43789   2.45552   2.46501   2.47373
 Alpha virt. eigenvalues --    2.53024   2.56112   2.58323   2.59197   2.60715
 Alpha virt. eigenvalues --    2.63545   2.64069   2.67308   2.68193   2.71891
 Alpha virt. eigenvalues --    2.73752   2.75006   2.76873   2.79580   2.80091
 Alpha virt. eigenvalues --    2.86867   2.88718   2.92550   2.94278   2.99244
 Alpha virt. eigenvalues --    3.16322   3.38252   3.73425   3.78223   3.96743
 Alpha virt. eigenvalues --    3.97266   4.09795   4.10520   4.19662   4.21890
 Alpha virt. eigenvalues --    4.25444   4.30077   4.30591   4.32151   4.40905
 Alpha virt. eigenvalues --    4.44179   4.53445   4.65700   4.75811
          Condensed to atoms (all electrons):
               1          2          3          4          5          6
     1  C    5.178376   0.372437   0.369921   0.360279   0.405183  -0.070121
     2  H    0.372437   0.524283  -0.017764  -0.044486  -0.022789  -0.001642
     3  H    0.369921  -0.017764   0.516271  -0.025137  -0.025377   0.004926
     4  H    0.360279  -0.044486  -0.025137   0.557325  -0.026750  -0.005909
     5  C    0.405183  -0.022789  -0.025377  -0.026750   4.691782   0.408487
     6  C   -0.070121  -0.001642   0.004926  -0.005909   0.408487   5.167915
     7  H   -0.003599   0.001595   0.000020  -0.000086  -0.021587   0.379734
     8  H   -0.006963  -0.000127   0.000001   0.004762  -0.031663   0.366806
     9  H    0.006960   0.000005  -0.000217  -0.000098  -0.029114   0.360685
    10  C   -0.065890  -0.004497  -0.003619   0.006015   0.405837  -0.088341
    11  H   -0.004933   0.002145  -0.000009   0.000042  -0.028526  -0.004685
    12  H    0.005926   0.000051  -0.000083  -0.000215  -0.028128  -0.009103
    13  H   -0.004730  -0.000024   0.002465  -0.000083  -0.028187   0.007326
    14  N   -0.060780   0.004219  -0.002144  -0.005082   0.205831  -0.051648
    15  H   -0.001516  -0.000094   0.001771  -0.000210  -0.018767   0.004810
    16  C    0.003449  -0.000079  -0.000022  -0.000084  -0.018725  -0.004848
    17  H    0.000085   0.000002  -0.000002   0.000001   0.002551  -0.005844
    18  H   -0.000168  -0.000001   0.000002   0.000002  -0.006159   0.003999
    19  C   -0.000061   0.000001  -0.000001  -0.000002   0.002238   0.000453
    20  O   -0.000008  -0.000000   0.000001  -0.000001   0.000338  -0.000019
    21  H   -0.000091   0.000001   0.000008  -0.000018   0.000538  -0.000008
    22  H   -0.000002  -0.000000   0.000000   0.000000  -0.000274   0.000009
    23  C    0.000001  -0.000000  -0.000000  -0.000000   0.000008  -0.000005
    24  C   -0.000000  -0.000000   0.000000   0.000000  -0.000000  -0.000000
    25  H   -0.000000   0.000000  -0.000000   0.000000   0.000000   0.000000
    26  C    0.000000  -0.000000   0.000000  -0.000000  -0.000000   0.000000
    27  C   -0.000000   0.000000  -0.000000  -0.000000   0.000000   0.000000
    28  O    0.000000   0.000000   0.000000   0.000000  -0.000000   0.000000
    29  H   -0.000000   0.000000  -0.000000  -0.000000   0.000000  -0.000000
    30  H   -0.000000   0.000000   0.000000  -0.000000   0.000000   0.000000
    31  H    0.000000  -0.000000  -0.000000   0.000000   0.000000  -0.000000
    32  C   -0.000000   0.000000  -0.000000  -0.000000   0.000000  -0.000000
    33  O    0.000000  -0.000000  -0.000000   0.000000  -0.000000   0.000000
    34  H   -0.000000   0.000000  -0.000000  -0.000000   0.000000  -0.000000
    35  C   -0.000000  -0.000000   0.000000   0.000000  -0.000000  -0.000000
    36  H   -0.000000   0.000000  -0.000000  -0.000000  -0.000000   0.000000
    37  C    0.000000  -0.000000   0.000000   0.000000  -0.000005  -0.000007
    38  H   -0.000000   0.000000   0.000000   0.000000   0.000003  -0.000004
    39  H   -0.002357  -0.000174   0.000375   0.005256  -0.020851  -0.001184
               7          8          9         10         11         12
     1  C   -0.003599  -0.006963   0.006960  -0.065890  -0.004933   0.005926
     2  H    0.001595  -0.000127   0.000005  -0.004497   0.002145   0.000051
     3  H    0.000020   0.000001  -0.000217  -0.003619  -0.000009  -0.000083
     4  H   -0.000086   0.004762  -0.000098   0.006015   0.000042  -0.000215
     5  C   -0.021587  -0.031663  -0.029114   0.405837  -0.028526  -0.028128
     6  C    0.379734   0.366806   0.360685  -0.088341  -0.004685  -0.009103
     7  H    0.491415  -0.019659  -0.024541  -0.004996   0.002516  -0.000132
     8  H   -0.019659   0.541623  -0.035736   0.007593   0.000033   0.000059
     9  H   -0.024541  -0.035736   0.562004  -0.009300  -0.000058   0.004607
    10  C   -0.004996   0.007593  -0.009300   5.202519   0.376485   0.369492
    11  H    0.002516   0.000033  -0.000058   0.376485   0.517701  -0.022402
    12  H   -0.000132   0.000059   0.004607   0.369492  -0.022402   0.537781
    13  H    0.000129  -0.000269  -0.000041   0.365243  -0.024848  -0.030504
    14  N    0.003796  -0.001336  -0.009198  -0.086993   0.005871  -0.003839
    15  H   -0.000056  -0.000208  -0.000170  -0.006752   0.000072  -0.000458
    16  C    0.000124  -0.001162   0.006809  -0.004147   0.000008   0.001273
    17  H   -0.000052   0.000279   0.001641   0.001912  -0.000096   0.002869
    18  H    0.000069   0.001285  -0.001597   0.000256  -0.000001   0.000041
    19  C   -0.000005  -0.000047   0.000269  -0.000370   0.000004  -0.000123
    20  O    0.000000   0.000001   0.000002  -0.000016   0.000000   0.000000
    21  H   -0.000000   0.000005  -0.000001   0.000042  -0.000001  -0.000004
    22  H    0.000000  -0.000001  -0.000006   0.000052  -0.000000   0.000019
    23  C   -0.000000   0.000002   0.000004  -0.000005   0.000000   0.000003
    24  C    0.000000   0.000000  -0.000001   0.000000  -0.000000  -0.000000
    25  H    0.000000  -0.000000  -0.000000  -0.000000   0.000000  -0.000000
    26  C    0.000000  -0.000000   0.000000  -0.000000   0.000000  -0.000000
    27  C    0.000000  -0.000000  -0.000000   0.000000   0.000000  -0.000000
    28  O    0.000000   0.000000  -0.000000   0.000000  -0.000000  -0.000000
    29  H   -0.000000  -0.000000   0.000000  -0.000000   0.000000  -0.000000
    30  H    0.000000  -0.000000  -0.000000   0.000000   0.000000  -0.000000
    31  H   -0.000000  -0.000000   0.000000  -0.000000  -0.000000   0.000000
    32  C   -0.000000   0.000000   0.000000  -0.000000   0.000000   0.000000
    33  O    0.000000   0.000000   0.000000   0.000000  -0.000000   0.000000
    34  H   -0.000000  -0.000000   0.000000  -0.000000   0.000000   0.000000
    35  C    0.000000  -0.000000   0.000000   0.000000  -0.000000   0.000000
    36  H    0.000000  -0.000000  -0.000000   0.000000   0.000000  -0.000000
    37  C    0.000000  -0.000003   0.000008  -0.000000   0.000000   0.000000
    38  H   -0.000000  -0.000000  -0.000003  -0.000000   0.000000  -0.000000
    39  H   -0.000077   0.001449  -0.000300   0.006587  -0.000174  -0.000159
              13         14         15         16         17         18
     1  C   -0.004730  -0.060780  -0.001516   0.003449   0.000085  -0.000168
     2  H   -0.000024   0.004219  -0.000094  -0.000079   0.000002  -0.000001
     3  H    0.002465  -0.002144   0.001771  -0.000022  -0.000002   0.000002
     4  H   -0.000083  -0.005082  -0.000210  -0.000084   0.000001   0.000002
     5  C   -0.028187   0.205831  -0.018767  -0.018725   0.002551  -0.006159
     6  C    0.007326  -0.051648   0.004810  -0.004848  -0.005844   0.003999
     7  H    0.000129   0.003796  -0.000056   0.000124  -0.000052   0.000069
     8  H   -0.000269  -0.001336  -0.000208  -0.001162   0.000279   0.001285
     9  H   -0.000041  -0.009198  -0.000170   0.006809   0.001641  -0.001597
    10  C    0.365243  -0.086993  -0.006752  -0.004147   0.001912   0.000256
    11  H   -0.024848   0.005871   0.000072   0.000008  -0.000096  -0.000001
    12  H   -0.030504  -0.003839  -0.000458   0.001273   0.002869   0.000041
    13  H    0.541995  -0.007226   0.008498  -0.000046   0.000017  -0.000022
    14  N   -0.007226   6.984999   0.294717   0.182783  -0.032249  -0.032359
    15  H    0.008498   0.294717   0.280849  -0.022704  -0.001854   0.003201
    16  C   -0.000046   0.182783  -0.022704   5.215670   0.356324   0.369160
    17  H    0.000017  -0.032249  -0.001854   0.356324   0.493480  -0.032569
    18  H   -0.000022  -0.032359   0.003201   0.369160  -0.032569   0.500751
    19  C   -0.000002  -0.015811   0.000078   0.309465  -0.017867  -0.031015
    20  O   -0.000000  -0.005325   0.000272  -0.041820   0.002919  -0.000405
    21  H   -0.000004   0.012074   0.000010  -0.016330   0.000312  -0.000411
    22  H    0.000009  -0.002269   0.001609  -0.056049   0.000171   0.004641
    23  C   -0.000000   0.002361   0.000068  -0.025920  -0.000424  -0.005998
    24  C    0.000000  -0.000023  -0.000002   0.000505   0.000696   0.000216
    25  H   -0.000000  -0.000006   0.000001   0.000097  -0.000002   0.000009
[...]
    37  C   -0.003793  -0.000618  -0.005724   0.001419   0.003164  -0.007837
    38  H    0.000893  -0.001132  -0.000258   0.000679  -0.000113  -0.000950
    39  H    0.012047   0.010742  -0.030172  -0.021036  -0.008251   0.015488
              13         14         15         16         17         18
     1  C   -0.063722   0.141149  -0.015999   0.020403   0.002572   0.036063
     2  H   -0.000066   0.054057   0.003246   0.034209  -0.002223  -0.004695
     3  H   -0.038950  -0.100012  -0.007991   0.013179   0.004589   0.004056
     4  H    0.011345  -0.037320  -0.002771   0.005463  -0.000078   0.006955
     5  C    0.151778  -1.586776  -0.071838  -0.327668   0.100846   0.031596
     6  C    0.016914   0.164416  -0.014017  -0.076886   0.038595  -0.073562
     7  H    0.005056   0.073634  -0.008536  -0.018548   0.009966  -0.007346
     8  H   -0.008700  -0.063378   0.001438   0.056171  -0.009202   0.007293
     9  H    0.018740  -0.066068   0.013840   0.113919  -0.024237  -0.010081
    10  C    0.096711   0.219222   0.007357  -0.148238  -0.091834   0.048686
    11  H   -0.276595   0.003950   0.013217  -0.013617  -0.011220   0.010878
    12  H   -0.266072  -0.039016  -0.028689   0.092494   0.013103  -0.016838
    13  H    1.332966  -0.021884   0.008048   0.061733   0.005059  -0.013938
    14  N   -0.021884  10.030831   0.252203  -1.237598  -0.246119  -0.184006
    15  H    0.008048   0.252203   0.692039   0.077871  -0.054468   0.040012
    16  C    0.061733  -1.237598   0.077871   7.512104  -0.022687   0.188430
    17  H    0.005059  -0.246119  -0.054468  -0.022687   1.821899  -0.213544
    18  H   -0.013938  -0.184006   0.040012   0.188430  -0.213544   1.734462
    19  C   -0.002136  -0.901587   0.048211   0.204156   0.098319  -0.476554
    20  O    0.000155   0.035325  -0.001667  -0.069157   0.034877   0.046090
    21  H   -0.000124  -0.004138   0.000011  -0.020794   0.001205  -0.013163
    22  H    0.002551  -0.036925  -0.028525   0.193710  -0.084120   0.100192
    23  C    0.005372   1.083059  -0.097667  -0.805583  -0.135832  -0.136148
    24  C    0.000720  -0.239310  -0.010118  -0.195684   0.021594   0.002437
    25  H   -0.002771   0.008146   0.009877   0.128796  -0.029370   0.025933
    26  C    0.003939   0.021588  -0.013916   0.030916   0.024891  -0.045217
    27  C    0.000254   0.005886  -0.000777  -0.080347  -0.003286  -0.005640
    28  O    0.000001  -0.000058  -0.000098  -0.001653   0.000473  -0.000453
    29  H    0.000001  -0.000013  -0.000018  -0.000214  -0.000009  -0.000045
    30  H    0.000132   0.000882  -0.000271  -0.008198   0.000537  -0.000200
    31  H   -0.000007  -0.000082   0.000092  -0.005571   0.000011   0.000392
    32  C   -0.000675  -0.007360   0.002292  -0.092061  -0.009306   0.019532
    33  O    0.000005  -0.000050  -0.000039  -0.000266   0.000899  -0.000105
    34  H   -0.000004   0.000223   0.000079   0.001037  -0.000097   0.000053
    35  C    0.000280   0.061513  -0.002679   0.275516   0.001404   0.020394
    36  H    0.000010   0.000813  -0.000247  -0.007923  -0.000854  -0.002559
    37  C   -0.003086   0.041425   0.060263  -0.774568  -0.077309   0.182185
    38  H    0.000328   0.013934  -0.003536   0.096255   0.013247  -0.026935
    39  H   -0.003184   0.297177  -0.094947   0.069844   0.076570  -0.055459
              19         20         21         22         23         24
     1  C   -0.106563   0.004139  -0.001937   0.007628   0.006077   0.003876
     2  H   -0.000944   0.000565   0.000050   0.000405   0.000395  -0.000815
     3  H   -0.007529  -0.001360  -0.000322   0.003464  -0.003217   0.003478
     4  H   -0.000613   0.000022  -0.000189   0.000861  -0.007181   0.000312
     5  C   -0.057110   0.051759  -0.004894   0.030386  -0.074592  -0.057973
     6  C   -0.049744   0.004363  -0.000628  -0.005016   0.106932   0.001049
     7  H   -0.008260   0.003079  -0.000289   0.000362   0.011047   0.000382
     8  H   -0.020184   0.000642   0.000777  -0.004904   0.006939  -0.002722
     9  H    0.085855  -0.012882   0.000654   0.003459  -0.054949   0.006634
    10  C   -0.062582  -0.002628   0.000074  -0.003594   0.090955  -0.009583
    11  H    0.019302  -0.000675   0.000188  -0.000041  -0.003994  -0.001441
    12  H   -0.047008   0.001541  -0.000251  -0.000442   0.001703   0.017680
    13  H   -0.002136   0.000155  -0.000124   0.002551   0.005372   0.000720
    14  N   -0.901587   0.035325  -0.004138  -0.036925   1.083059  -0.239310
    15  H    0.048211  -0.001667   0.000011  -0.028525  -0.097667  -0.010118
    16  C    0.204156  -0.069157  -0.020794   0.193710  -0.805583  -0.195684
    17  H    0.098319   0.034877   0.001205  -0.084120  -0.135832   0.021594
    18  H   -0.476554   0.046090  -0.013163   0.100192  -0.136148   0.002437
    19  C   14.934684  -0.814231   0.196845  -0.819103  -5.329204  -0.754718
    20  O   -0.814231   8.986521   0.309892   0.005683   0.283490  -0.175836
    21  H    0.196845   0.309892   0.523083  -0.067867  -0.108685  -0.003244
    22  H   -0.819103   0.005683  -0.067867   1.727690   0.487674  -0.011403
    23  C   -5.329204   0.283490  -0.108685   0.487674  25.146052  -7.115739
    24  C   -0.754718  -0.175836  -0.003244  -0.011403  -7.115739  25.566984
    25  H   -0.267835   0.015504   0.001829  -0.077159   1.013891  -1.952593
    26  C   -1.407981  -0.017978  -0.007483  -0.002316   1.933104  -3.808599
    27  C   -0.268783   0.000746  -0.003150   0.011802  -1.077088  -1.112662
    28  O   -0.004910  -0.000098  -0.000035   0.000614  -0.066582   0.056827
    29  H    0.000274   0.000006  -0.000015   0.000080   0.003359  -0.000809
    30  H    0.028431  -0.000814  -0.000069   0.004320   0.131010   0.152453
    31  H    0.003122   0.000457   0.000018  -0.000378   0.036458  -0.084351
    32  C    0.381183  -0.004350  -0.001280   0.005099  -4.943564   0.272699
    33  O    0.000741  -0.000144   0.000078   0.000599   0.093798   0.008672
    34  H    0.003950  -0.000062  -0.000009   0.000049   0.064109   0.037971
    35  C    0.205676  -0.040736   0.007122  -0.009757   2.155499  -4.524170
    36  H    0.006573   0.000551   0.000073  -0.001101  -0.544830   0.177776
    37  C   -0.495554   0.283487   0.001101  -0.150933  -7.596554  -0.713630
    38  H    0.143853  -0.039838  -0.005599   0.021884   0.778881  -0.010968
    39  H   -0.030994   0.021513  -0.003714  -0.006989  -0.037189   0.021409
              25         26         27         28         29         30
     1  C    0.001824   0.000141  -0.000001  -0.000000  -0.000000  -0.000048
     2  H   -0.000047  -0.000130   0.000010  -0.000000   0.000000   0.000002
     3  H    0.000026   0.000672  -0.000030   0.000001   0.000000  -0.000006
     4  H    0.000110  -0.000371   0.000004  -0.000001  -0.000000  -0.000009
     5  C   -0.007581  -0.033290   0.000253  -0.000026  -0.000012   0.000338
     6  C   -0.002258   0.014999   0.000503   0.000004   0.000006   0.000095
     7  H   -0.000153   0.001213   0.000112  -0.000000   0.000000   0.000017
     8  H    0.000559   0.000448  -0.000138   0.000001   0.000000  -0.000020
     9  H   -0.002000  -0.002284   0.000104   0.000020   0.000004   0.000042
    10  C    0.006942   0.006501  -0.000620  -0.000003  -0.000003  -0.000321
    11  H    0.001368  -0.000819  -0.000114  -0.000000  -0.000001  -0.000055
    12  H   -0.000696  -0.000012  -0.000041  -0.000031  -0.000006   0.000033
    13  H   -0.002771   0.003939   0.000254   0.000001   0.000001   0.000132
    14  N    0.008146   0.021588   0.005886  -0.000058  -0.000013   0.000882
    15  H    0.009877  -0.013916  -0.000777  -0.000098  -0.000018  -0.000271
    16  C    0.128796   0.030916  -0.080347  -0.001653  -0.000214  -0.008198
    17  H   -0.029370   0.024891  -0.003286   0.000473  -0.000009   0.000537
    18  H    0.025933  -0.045217  -0.005640  -0.000453  -0.000045  -0.000200
    19  C   -0.267835  -1.407981  -0.268783  -0.004910   0.000274   0.028431
    20  O    0.015504  -0.017978   0.000746  -0.000098   0.000006  -0.000814
    21  H    0.001829  -0.007483  -0.003150  -0.000035  -0.000015  -0.000069
    22  H   -0.077159  -0.002316   0.011802   0.000614   0.000080   0.004320
    23  C    1.013891   1.933104  -1.077088  -0.066582   0.003359   0.131010
    24  C   -1.952593  -3.808599  -1.112662   0.056827  -0.000809   0.152453
    25  H    2.444654   0.422061  -0.034867  -0.016892   0.001087  -0.053304
    26  C    0.422061  17.608449  -1.690944  -0.089485   0.073916   0.192243
    27  C   -0.034867  -1.690944   7.564591   0.278638  -0.141243  -0.135044
    28  O   -0.016892  -0.089485   0.278638   8.505766   0.396544  -0.068939
    29  H    0.001087   0.073916  -0.141243   0.396544   0.490268   0.003041
    30  H   -0.053304   0.192243  -0.135044  -0.068939   0.003041   1.251321
    31  H    0.006212   0.120045   0.221545  -0.017532  -0.035372  -0.129510
    32  C   -0.043108  -4.056455   0.509463  -0.023506  -0.008543  -0.117843
    33  O   -0.006878   0.291542   0.116800  -0.072982  -0.009022   0.006854
    34  H   -0.002042   0.340383  -0.127421  -0.032698   0.007394   0.011893
    35  C    0.070297   0.488631   0.269452  -0.030668   0.005641  -0.062280
    36  H    0.008659  -0.136305   0.014876   0.002248  -0.000475  -0.000102
    37  C    0.118858  -4.032472   0.515651  -0.018479  -0.001444   0.011454
    38  H   -0.028668  -0.032272  -0.008859  -0.000406   0.000095  -0.000972
    39  H   -0.003801   0.002363   0.000418   0.000026   0.000005   0.000242
              31         32         33         34         35         36
     1  C    0.000021   0.000523  -0.000002  -0.000000  -0.003200  -0.000046
     2  H   -0.000001   0.000011  -0.000000   0.000000   0.000093  -0.000000
     3  H   -0.000004   0.000061  -0.000000  -0.000002  -0.000481   0.000015
     4  H    0.000009   0.000192  -0.000001   0.000001  -0.000301  -0.000040
     5  C    0.000018   0.007009  -0.000021   0.000115   0.014742  -0.000686
     6  C   -0.000095  -0.008074   0.000035  -0.000027   0.005670   0.000610
     7  H    0.000000  -0.000528   0.000004  -0.000001  -0.000117   0.000020
     8  H   -0.000013  -0.000857   0.000005  -0.000005   0.003073   0.000092
     9  H    0.000005   0.000892   0.000025  -0.000006  -0.001246  -0.000083
    10  C    0.000048   0.000281  -0.000025   0.000015  -0.003349  -0.000033
    11  H    0.000017   0.000148  -0.000003   0.000003   0.000234  -0.000005
    12  H   -0.000073   0.002892  -0.000061   0.000017  -0.007599  -0.000089
    13  H   -0.000007  -0.000675   0.000005  -0.000004   0.000280   0.000010
    14  N   -0.000082  -0.007360  -0.000050   0.000223   0.061513   0.000813
    15  H    0.000092   0.002292  -0.000039   0.000079  -0.002679  -0.000247
    16  C   -0.005571  -0.092061  -0.000266   0.001037   0.275516  -0.007923
    17  H    0.000011  -0.009306   0.000899  -0.000097   0.001404  -0.000854
    18  H    0.000392   0.019532  -0.000105   0.000053   0.020394  -0.002559
    19  C    0.003122   0.381183   0.000741   0.003950   0.205676   0.006573
    20  O    0.000457  -0.004350  -0.000144  -0.000062  -0.040736   0.000551
    21  H    0.000018  -0.001280   0.000078  -0.000009   0.007122   0.000073
    22  H   -0.000378   0.005099   0.000599   0.000049  -0.009757  -0.001101
    23  C    0.036458  -4.943564   0.093798   0.064109   2.155499  -0.544830
    24  C   -0.084351   0.272699   0.008672   0.037971  -4.524170   0.177776
    25  H    0.006212  -0.043108  -0.006878  -0.002042   0.070297   0.008659
    26  C    0.120045  -4.056455   0.291542   0.340383   0.488631  -0.136305
    27  C    0.221545   0.509463   0.116800  -0.127421   0.269452   0.014876
    28  O   -0.017532  -0.023506  -0.072982  -0.032698  -0.030668   0.002248
    29  H   -0.035372  -0.008543  -0.009022   0.007394   0.005641  -0.000475
    30  H   -0.129510  -0.117843   0.006854   0.011893  -0.062280  -0.000102
    31  H    0.925344  -0.062207   0.013793  -0.012175   0.001755   0.000827
    32  C   -0.062207  15.485018  -0.927783  -0.140302  -4.348477   1.340899
    33  O    0.013793  -0.927783   9.117012   0.303353   0.129760  -0.073419
    34  H   -0.012175  -0.140302   0.303353   0.506909  -0.192665  -0.000228
    35  C    0.001755  -4.348477   0.129760  -0.192665  17.917155  -1.727935
    36  H    0.000827   1.340899  -0.073419  -0.000228  -1.727935   1.876519
    37  C   -0.007332   2.573314  -0.018984  -0.034275  -5.820481   0.693527
    38  H   -0.000797  -0.294621  -0.002601  -0.001560   0.826910  -0.109345
    39  H   -0.000105  -0.000716   0.000031  -0.000016   0.000418   0.000182
              37         38         39
     1  C   -0.010158   0.000042  -0.003429
     2  H    0.000307  -0.000056   0.004516
     3  H   -0.004596  -0.000077  -0.006884
     4  H    0.001946  -0.000027  -0.017100
     5  C    0.107155  -0.005425  -0.085622
     6  C   -0.070675   0.004987   0.006402
     7  H   -0.003793   0.000893   0.012047
     8  H   -0.000618  -0.001132   0.010742
     9  H   -0.005724  -0.000258  -0.030172
    10  C    0.001419   0.000679  -0.021036
    11  H    0.003164  -0.000113  -0.008251
    12  H   -0.007837  -0.000950   0.015488
    13  H   -0.003086   0.000328  -0.003184
    14  N    0.041425   0.013934   0.297177
    15  H    0.060263  -0.003536  -0.094947
    16  C   -0.774568   0.096255   0.069844
    17  H   -0.077309   0.013247   0.076570
    18  H    0.182185  -0.026935  -0.055459
    19  C   -0.495554   0.143853  -0.030994
    20  O    0.283487  -0.039838   0.021513
    21  H    0.001101  -0.005599  -0.003714
    22  H   -0.150933   0.021884  -0.006989
    23  C   -7.596554   0.778881  -0.037189
    24  C   -0.713630  -0.010968   0.021409
    25  H    0.118858  -0.028668  -0.003801
    26  C   -4.032472  -0.032272   0.002363
    27  C    0.515651  -0.008859   0.000418
    28  O   -0.018479  -0.000406   0.000026
    29  H   -0.001444   0.000095   0.000005
    30  H    0.011454  -0.000972   0.000242
    31  H   -0.007332  -0.000797  -0.000105
    32  C    2.573314  -0.294621  -0.000716
    33  O   -0.018984  -0.002601   0.000031
    34  H   -0.034275  -0.001560  -0.000016
    35  C   -5.820481   0.826910   0.000418
    36  H    0.693527  -0.109345   0.000182
    37  C   22.631519  -1.879506  -0.037796
    38  H   -1.879506   2.298797   0.005126
    39  H   -0.037796   0.005126   0.619943
 Mulliken charges:
               1
     1  C    1.315139
     2  H    0.037532
     3  H   -0.010986
     4  H   -0.004767
     5  C   -3.435089
     6  C    1.306564
     7  H   -0.010594
     8  H    0.000798
     9  H   -0.020486
    10  C    1.308136
    11  H    0.008801
    12  H   -0.032671
    13  H   -0.020183
    14  N   -0.737735
    15  H    0.228717
    16  C    0.731055
    17  H   -0.254861
    18  H   -0.219149
    19  C    1.572952
    20  O   -0.907955
    21  H    0.204881
    22  H   -0.297942
    23  C    0.698792
    24  C    0.433412
    25  H   -0.754611
    26  C   -0.199720
    27  C    1.179949
    28  O   -0.795629
    29  H    0.215521
    30  H   -0.217335
    31  H    0.025416
    32  C    0.490108
    33  O   -0.971618
    34  H    0.266042
    35  C    0.314906
    36  H   -0.517965
    37  C    0.539028
    38  H   -0.751392
    39  H    0.282941
 Sum of Mulliken charges =   1.00000
 Mulliken charges with hydrogens summed into heavy atoms:
               1
     1  C    1.336918
     5  C   -3.435089
     6  C    1.276282
    10  C    1.264083
    14  N   -0.226077
    16  C    0.257045
    19  C    1.275010
    20  O   -0.703073
    23  C    0.698792
    24  C   -0.321199
    26  C   -0.199720
    27  C    0.988030
    28  O   -0.580108
    32  C    0.490108
    33  O   -0.705577
    35  C   -0.203059
    37  C   -0.212364
 Electronic spatial extent (au):  <R**2>=           6742.8843
 Charge=              1.0000 electrons
 Dipole moment (field-independent basis, Debye):
    X=             10.7962    Y=             -4.1910    Z=              1.7712  Tot=             11.7158
 Quadrupole moment (field-independent basis, Debye-Ang):
   XX=            -34.6201   YY=            -87.7118   ZZ=            -95.9993
   XY=             11.0490   XZ=              0.7773   YZ=              1.0627
 Traceless Quadrupole moment (field-independent basis, Debye-Ang):
   XX=             38.1570   YY=            -14.9347   ZZ=            -23.2222
   XY=             11.0490   XZ=              0.7773   YZ=              1.0627
 Octapole moment (field-independent basis, Debye-Ang**2):
  XXX=            141.0635  YYY=            -13.4214  ZZZ=             22.3505  XYY=            -30.7745
  XXY=           -116.4256  XXZ=            -16.4252  XZZ=             33.5438  YZZ=              3.3369
  YYZ=              3.7908  XYZ=             -5.0911
 Hexadecapole moment (field-independent basis, Debye-Ang**3):
 XXXX=          -5381.2701 YYYY=           -856.7180 ZZZZ=           -519.9463 XXXY=            470.3096
 XXXZ=             -1.3247 YYYX=             96.5032 YYYZ=              1.8455 ZZZX=              1.8061
 ZZZY=             34.9531 XXYY=          -1096.7930 XXZZ=          -1280.7393 YYZZ=           -217.0093
 XXYZ=             45.3382 YYXZ=              8.7407 ZZXY=              5.7743
 N-N= 1.242410296471D+03 E-N=-4.302120840061D+03  KE= 7.830129290705D+02
 Leave Link  601 at Sun Jul 18 16:23:02 2021, MaxMem=   262144000 cpu:               0.9 elap:               0.3
 (Enter /prod/apps/gaussian/g16b1/l9999.exe)
 1\1\GINC-PIRINEUS38\SP\RMP2-FC\Aug-CC-pVDZ\C13H22N1O3(1+)\UBATOR02\18-
 Jul-2021\0\\#p mp2/aug-cc-pVDZ scf=tight maxdisk=180GB geom=allcheck\\
 SET_328_BBB301_conf1.geo_165_120_315 geometry\\1,1\C,0,-1.9431274725,3
 .8208683848,-2.2265766965\H,0,-2.5345163858,4.696902468,-1.9511785588\
 H,0,-2.5400562585,3.2101098641,-2.9091652707\H,0,-1.052053008,4.166137
 3782,-2.7559287388\C,0,-1.5696611663,3.043651688,-0.9610083943\C,0,-0.
 6908778163,3.8919915329,-0.0373765578\H,0,-1.2483444787,4.7847781745,0
 .2547395853\H,0,0.2250182063,4.2140463177,-0.5427500589\H,0,-0.4191645
 784,3.3569437498,0.8745669969\C,0,-2.8181986445,2.5268914237,-0.244277
 9512\H,0,-3.4283688099,3.3790849198,0.0598391656\H,0,-2.5687110527,1.9
 587871084,0.6544074593\H,0,-3.4232048424,1.8959779687,-0.9018261545\N,
 0,-0.7552210802,1.8361350244,-1.4420066109\H,0,-1.3310452769,1.3091570
 063,-2.1154498632\C,0,-0.237548364,0.8757664911,-0.4149914452\H,0,-1.0
 856504253,0.4305704497,0.0999160763\H,0,0.3660419088,1.440236358,0.294
 7471427\C,0,0.6117146074,-0.1912780786,-1.1016795419\O,0,1.6099793679,
 0.5316424315,-1.8147658233\H,0,2.1136588488,-0.1046108407,-2.354025788
 3\H,0,-0.0281464626,-0.748821793,-1.7991221002\C,0,1.1842574629,-1.159
 1095458,-0.0890901061\C,0,0.519994285,-2.3523808329,0.2040572517\H,0,-
 0.4023681393,-2.5929933157,-0.3190391585\C,0,1.0025659911,-3.250172571
 1,1.1573772395\C,0,0.212592257,-4.4820238226,1.5249351415\O,0,1.114319
 2659,-5.59578351,1.6722961005\H,0,0.6502952289,-6.2867503656,2.1777995
 354\H,0,-0.5351288477,-4.6921270359,0.7514540734\H,0,-0.3213231082,-4.
 3188683513,2.4696271406\C,0,2.215797982,-2.9521171431,1.8123344651\O,0
 ,2.7587351632,-3.7916322197,2.7358528456\H,0,2.3053887894,-4.663319607
 8,2.6344110047\C,0,2.8961002494,-1.7641938446,1.5172060592\H,0,3.83308
 25737,-1.5599223932,2.026360191\C,0,2.3776876198,-0.8732129849,0.58210
 92119\H,0,2.9144381525,0.0393855996,0.3444661649\H,0,0.055048258,2.173
 253917,-1.9802440319\\Version=ES64L-G16RevB.01\State=1-A\HF=-784.03763
 79\MP2=-786.6732312\RMSD=8.710e-09\PG=C01 [X(C13H22N1O3)]\\@


 ... UNTIL SCIENCE IS MIXED WITH EMOTION AND APPEALS TO THE HEART AND
 IMAGINATION , IT IS LIKE DEAD INORGANIC MATTER; AND WHEN IT IS SO MIXED
 AND SO TRANSFORMED IT IS LITERATURE.

                                  -- JOHN BURROUGHS
 Job cpu time:       0 days  2 hours 20 minutes 56.4 seconds.
 Elapsed time:       0 days  0 hours 37 minutes 38.4 seconds.
 File lengths (MBytes):  RWF=  98474 Int=      0 D2E=      0 Chk=     28 Scr=      1
 Normal termination of Gaussian 16 at Sun Jul 18 16:23:04 2021.
