 Entering Gaussian System, Link 0=g16
 Initial command:
 /prod/apps/gaussian/g16b1/l1.exe "/tmp/ubator02/1839492/Gau-221210.inp" -scrdir="/tmp/ubator02/1839492/"
 Entering Link 1 = /prod/apps/gaussian/g16b1/l1.exe PID=    221212.
  
 Copyright (c) 1988-2017, Gaussian, Inc.  All Rights Reserved.
  
 This is part of the Gaussian(R) 16 program.  It is based on
 the Gaussian(R) 09 system (copyright 2009, Gaussian, Inc.),
 the Gaussian(R) 03 system (copyright 2003, Gaussian, Inc.),
 the Gaussian(R) 98 system (copyright 1998, Gaussian, Inc.),
 the Gaussian(R) 94 system (copyright 1995, Gaussian, Inc.),
 the Gaussian 92(TM) system (copyright 1992, Gaussian, Inc.),
 the Gaussian 90(TM) system (copyright 1990, Gaussian, Inc.),
 the Gaussian 88(TM) system (copyright 1988, Gaussian, Inc.),
 the Gaussian 86(TM) system (copyright 1986, Carnegie Mellon
 University), and the Gaussian 82(TM) system (copyright 1983,
 Carnegie Mellon University). Gaussian is a federally registered
 trademark of Gaussian, Inc.
  
 This software contains proprietary and confidential information,
 including trade secrets, belonging to Gaussian, Inc.
  
 This software is provided under written license and may be
 used, copied, transmitted, or stored only in accord with that
 written license.
  
 The following legend is applicable only to US Government
 contracts under FAR:
  
                    RESTRICTED RIGHTS LEGEND
  
 Use, reproduction and disclosure by the US Government is
 subject to restrictions as set forth in subparagraphs (a)
 and (c) of the Commercial Computer Software - Restricted
 Rights clause in FAR 52.227-19.
  
 Gaussian, Inc.
 340 Quinnipiac St., Bldg. 40, Wallingford CT 06492
  
  
 ---------------------------------------------------------------
 Warning -- This program may not be used in any manner that
 competes with the business of Gaussian, Inc. or will provide
 assistance to any competitor of Gaussian, Inc.  The licensee
 of this program is prohibited from giving any competitor of
 Gaussian, Inc. access to this program.  By using this program,
 the user acknowledges that Gaussian, Inc. is engaged in the
 business of creating and licensing software in the field of
 computational chemistry and represents and warrants to the
 licensee that it is not a competitor of Gaussian, Inc. and that
 it will not use this program in any manner prohibited above.
 ---------------------------------------------------------------
  

 Cite this work as:
 Gaussian 16, Revision B.01,
 M. J. Frisch, G. W. Trucks, H. B. Schlegel, G. E. Scuseria, 
 M. A. Robb, J. R. Cheeseman, G. Scalmani, V. Barone, 
 G. A. Petersson, H. Nakatsuji, X. Li, M. Caricato, A. V. Marenich, 
 J. Bloino, B. G. Janesko, R. Gomperts, B. Mennucci, H. P. Hratchian, 
 J. V. Ortiz, A. F. Izmaylov, J. L. Sonnenberg, D. Williams-Young, 
 F. Ding, F. Lipparini, F. Egidi, J. Goings, B. Peng, A. Petrone, 
 T. Henderson, D. Ranasinghe, V. G. Zakrzewski, J. Gao, N. Rega, 
 G. Zheng, W. Liang, M. Hada, M. Ehara, K. Toyota, R. Fukuda, 
 J. Hasegawa, M. Ishida, T. Nakajima, Y. Honda, O. Kitao, H. Nakai, 
 T. Vreven, K. Throssell, J. A. Montgomery, Jr., J. E. Peralta, 
 F. Ogliaro, M. J. Bearpark, J. J. Heyd, E. N. Brothers, K. N. Kudin, 
 V. N. Staroverov, T. A. Keith, R. Kobayashi, J. Normand, 
 K. Raghavachari, A. P. Rendell, J. C. Burant, S. S. Iyengar, 
 J. Tomasi, M. Cossi, J. M. Millam, M. Klene, C. Adamo, R. Cammi, 
 J. W. Ochterski, R. L. Martin, K. Morokuma, O. Farkas, 
 J. B. Foresman, and D. J. Fox, Gaussian, Inc., Wallingford CT, 2016.
 
 ******************************************
 Gaussian 16:  ES64L-G16RevB.01 20-Dec-2017
                18-Jul-2021 
 ******************************************
 %mem=800MB
 %nproc=4
 Will use up to    4 processors via shared memory.
 %chk=SET_328_BBB20_conf1.geo_120_180_060.chk
 -----------------------------------------------------------
 #p b3lyp/6-31G(d) opt freq scrf=(iefpcm,read,solvent=water)
 -----------------------------------------------------------
 1/18=20,19=15,26=3,38=1,40=2/1,3;
 2/9=110,12=2,17=6,18=5,40=1/2;
 3/5=1,6=6,7=1,11=2,25=1,30=1,70=2203,71=1,72=1,74=-5/1,2,3;
 4//1;
 5/5=2,38=5,53=1/2;
 6/7=2,8=2,9=2,10=2,28=1/1;
 7//1,2,3,16;
 1/18=20,19=15,26=3/3(2);
 2/9=110/2;
 99//99;
 2/9=110/2;
 3/5=1,6=6,7=1,11=2,25=1,30=1,70=2205,71=1,72=1,74=-5/1,2,3;
 4/5=5,16=3,69=1/1;
 5/5=2,38=5,53=1/2;
 7//1,2,3,16;
 1/18=20,19=15,26=3/3(-5);
 2/9=110/2;
 6/7=2,8=2,9=2,10=2,19=2,28=1/1;
 99/9=1/99;
 Leave Link    1 at Sun Jul 18 13:28:51 2021, MaxMem=   104857600 cpu:               0.1 elap:               0.0
 (Enter /prod/apps/gaussian/g16b1/l101.exe)
 --------------------------------------------
 SET_328_BBB20_conf1.geo_120_180_060 geometry
 --------------------------------------------
 Symbolic Z-matrix:
 Charge =  1 Multiplicity = 1
 N                    -1.086     0.235     4.306 
 H                    -0.422    -0.51      4.371 
 H                    -1.846    -0.046     3.719 
 C                    -0.44      1.414     3.735 
 H                     0.402     1.811     4.309 
 H                    -1.214     2.167     3.567 
 C                     0.098     0.998     2.314 
 H                     0.987     0.388     2.488 
 H                     0.417     1.961     1.91 
 C                    -0.974     0.531     1.347 
 H                    -1.708     1.325     1.184 
 H                    -1.423    -0.324     1.86 
 N                    -0.499     0.146     0.013 
 C                    -0.735    -1.144    -0.368 
 C                    -2.063    -1.49     -0.608 
 H                    -2.837    -0.802    -0.279 
 C                    -2.295    -2.716    -1.24 
 H                    -3.314    -3.087    -1.318 
 C                    -1.329    -3.604    -1.576 
 H                    -1.62     -4.535    -2.057 
 C                     0.011    -3.28     -1.272 
 H                     0.742    -4.065    -1.446 
 C                     0.307    -2.027    -0.687 
 C                     1.709    -1.595    -0.374 
 H                     2.423    -2.421    -0.387 
 H                     1.721    -1.301     0.677 
 C                     2.24     -0.49     -1.243 
 H                     2.344    -0.85     -2.269 
 H                     3.256    -0.282    -0.901 
 C                     1.391     0.812    -1.41 
 C                     1.886     1.696    -2.291 
 H                     2.895     1.594    -2.683 
 C                     1.283     2.873    -2.655 
 H                     1.703     3.552    -3.393 
 C                     0.076     3.153    -2.123 
 H                    -0.333     4.117    -2.415 
 C                    -0.495     2.245    -1.208 
 H                    -1.413     2.511    -0.691 
 C                     0.136     1.048    -0.814 
 H                    -1.433     0.454     5.218 
 
 ITRead=  0  0  0  0  0  0  0  0  0  0  0  0  0  0  0  0  0  0  0  0
 ITRead=  0  0  0  0  0  0  0  0  0  0  0  0  0  0  0  0  0  0  0  0
 MicOpt= -1 -1 -1 -1 -1 -1 -1 -1 -1 -1 -1 -1 -1 -1 -1 -1 -1 -1 -1 -1
 MicOpt= -1 -1 -1 -1 -1 -1 -1 -1 -1 -1 -1 -1 -1 -1 -1 -1 -1 -1 -1 -1
 NAtoms=     40 NQM=       40 NQMF=       0 NMMI=      0 NMMIF=      0
                NMic=       0 NMicF=      0.
                    Isotopes and Nuclear Properties:
 (Nuclear quadrupole moments (NQMom) in fm**2, nuclear magnetic moments (NMagM)
  in nuclear magnetons)

  Atom         1           2           3           4           5           6           7           8           9          10
 IAtWgt=          14           1           1          12           1           1          12           1           1          12
 AtmWgt=  14.0030740   1.0078250   1.0078250  12.0000000   1.0078250   1.0078250  12.0000000   1.0078250   1.0078250  12.0000000
 NucSpn=           2           1           1           0           1           1           0           1           1           0
 AtZEff=  -0.0000000  -0.0000000  -0.0000000  -0.0000000  -0.0000000  -0.0000000  -0.0000000  -0.0000000  -0.0000000  -0.0000000
 NQMom=    2.0440000   0.0000000   0.0000000   0.0000000   0.0000000   0.0000000   0.0000000   0.0000000   0.0000000   0.0000000
 NMagM=    0.4037610   2.7928460   2.7928460   0.0000000   2.7928460   2.7928460   0.0000000   2.7928460   2.7928460   0.0000000
 AtZNuc=   7.0000000   1.0000000   1.0000000   6.0000000   1.0000000   1.0000000   6.0000000   1.0000000   1.0000000   6.0000000

  Atom        11          12          13          14          15          16          17          18          19          20
 IAtWgt=           1           1          14          12          12           1          12           1          12           1
 AtmWgt=   1.0078250   1.0078250  14.0030740  12.0000000  12.0000000   1.0078250  12.0000000   1.0078250  12.0000000   1.0078250
 NucSpn=           1           1           2           0           0           1           0           1           0           1
 AtZEff=  -0.0000000  -0.0000000  -0.0000000  -0.0000000  -0.0000000  -0.0000000  -0.0000000  -0.0000000  -0.0000000  -0.0000000
 NQMom=    0.0000000   0.0000000   2.0440000   0.0000000   0.0000000   0.0000000   0.0000000   0.0000000   0.0000000   0.0000000
 NMagM=    2.7928460   2.7928460   0.4037610   0.0000000   0.0000000   2.7928460   0.0000000   2.7928460   0.0000000   2.7928460
 AtZNuc=   1.0000000   1.0000000   7.0000000   6.0000000   6.0000000   1.0000000   6.0000000   1.0000000   6.0000000   1.0000000

  Atom        21          22          23          24          25          26          27          28          29          30
 IAtWgt=          12           1          12          12           1           1          12           1           1          12
 AtmWgt=  12.0000000   1.0078250  12.0000000  12.0000000   1.0078250   1.0078250  12.0000000   1.0078250   1.0078250  12.0000000
 NucSpn=           0           1           0           0           1           1           0           1           1           0
 AtZEff=  -0.0000000  -0.0000000  -0.0000000  -0.0000000  -0.0000000  -0.0000000  -0.0000000  -0.0000000  -0.0000000  -0.0000000
 NQMom=    0.0000000   0.0000000   0.0000000   0.0000000   0.0000000   0.0000000   0.0000000   0.0000000   0.0000000   0.0000000
 NMagM=    0.0000000   2.7928460   0.0000000   0.0000000   2.7928460   2.7928460   0.0000000   2.7928460   2.7928460   0.0000000
 AtZNuc=   6.0000000   1.0000000   6.0000000   6.0000000   1.0000000   1.0000000   6.0000000   1.0000000   1.0000000   6.0000000

  Atom        31          32          33          34          35          36          37          38          39          40
 IAtWgt=          12           1          12           1          12           1          12           1          12           1
 AtmWgt=  12.0000000   1.0078250  12.0000000   1.0078250  12.0000000   1.0078250  12.0000000   1.0078250  12.0000000   1.0078250
 NucSpn=           0           1           0           1           0           1           0           1           0           1
 AtZEff=  -0.0000000  -0.0000000  -0.0000000  -0.0000000  -0.0000000  -0.0000000  -0.0000000  -0.0000000  -0.0000000  -0.0000000
 NQMom=    0.0000000   0.0000000   0.0000000   0.0000000   0.0000000   0.0000000   0.0000000   0.0000000   0.0000000   0.0000000
 NMagM=    0.0000000   2.7928460   0.0000000   2.7928460   0.0000000   2.7928460   0.0000000   2.7928460   0.0000000   2.7928460
 AtZNuc=   6.0000000   1.0000000   6.0000000   1.0000000   6.0000000   1.0000000   6.0000000   1.0000000   6.0000000   1.0000000
 Leave Link  101 at Sun Jul 18 13:28:51 2021, MaxMem=   104857600 cpu:               0.5 elap:               0.1
 (Enter /prod/apps/gaussian/g16b1/l103.exe)

 GradGradGradGradGradGradGradGradGradGradGradGradGradGradGradGradGradGrad
 Berny optimization.
 Initialization pass.
                           ----------------------------
                           !    Initial Parameters    !
                           ! (Angstroms and Degrees)  !
 --------------------------                            --------------------------
 ! Name  Definition              Value          Derivative Info.                !
 --------------------------------------------------------------------------------
 ! R1    R(1,2)                  1.0001         estimate D2E/DX2                !
 ! R2    R(1,3)                  1.0006         estimate D2E/DX2                !
 ! R3    R(1,4)                  1.4606         estimate D2E/DX2                !
 ! R4    R(1,40)                 1.0001         estimate D2E/DX2                !
 ! R5    R(4,5)                  1.0936         estimate D2E/DX2                !
 ! R6    R(4,6)                  1.0928         estimate D2E/DX2                !
 ! R7    R(4,7)                  1.5754         estimate D2E/DX2                !
 ! R8    R(7,8)                  1.0921         estimate D2E/DX2                !
 ! R9    R(7,9)                  1.0919         estimate D2E/DX2                !
 ! R10   R(7,10)                 1.5174         estimate D2E/DX2                !
 ! R11   R(10,11)                1.0935         estimate D2E/DX2                !
 ! R12   R(10,12)                1.0935         estimate D2E/DX2                !
 ! R13   R(10,13)                1.4674         estimate D2E/DX2                !
 ! R14   R(13,14)                1.3656         estimate D2E/DX2                !
 ! R15   R(13,39)                1.3787         estimate D2E/DX2                !
 ! R16   R(14,15)                1.3932         estimate D2E/DX2                !
 ! R17   R(14,23)                1.4026         estimate D2E/DX2                !
 ! R18   R(15,16)                1.0866         estimate D2E/DX2                !
 ! R19   R(15,17)                1.3987         estimate D2E/DX2                !
 ! R20   R(17,18)                1.0872         estimate D2E/DX2                !
 ! R21   R(17,19)                1.3545         estimate D2E/DX2                !
 ! R22   R(19,20)                1.0876         estimate D2E/DX2                !
 ! R23   R(19,21)                1.4117         estimate D2E/DX2                !
 ! R24   R(21,22)                1.0867         estimate D2E/DX2                !
 ! R25   R(21,23)                1.4142         estimate D2E/DX2                !
 ! R26   R(23,24)                1.5001         estimate D2E/DX2                !
 ! R27   R(24,25)                1.0919         estimate D2E/DX2                !
 ! R28   R(24,26)                1.0914         estimate D2E/DX2                !
 ! R29   R(24,27)                1.5027         estimate D2E/DX2                !
 ! R30   R(27,28)                1.0923         estimate D2E/DX2                !
 ! R31   R(27,29)                1.092          estimate D2E/DX2                !
 ! R32   R(27,30)                1.5633         estimate D2E/DX2                !
 ! R33   R(30,31)                1.3426         estimate D2E/DX2                !
 ! R34   R(30,39)                1.4092         estimate D2E/DX2                !
 ! R35   R(31,32)                1.0873         estimate D2E/DX2                !
 ! R36   R(31,33)                1.3717         estimate D2E/DX2                !
 ! R37   R(33,34)                1.0872         estimate D2E/DX2                !
 ! R38   R(33,35)                1.3484         estimate D2E/DX2                !
 ! R39   R(35,36)                1.0871         estimate D2E/DX2                !
 ! R40   R(35,37)                1.4099         estimate D2E/DX2                !
 ! R41   R(37,38)                1.0866         estimate D2E/DX2                !
 ! R42   R(37,39)                1.4093         estimate D2E/DX2                !
 ! A1    A(2,1,3)              109.4654         estimate D2E/DX2                !
 ! A2    A(2,1,4)              109.4554         estimate D2E/DX2                !
 ! A3    A(2,1,40)             109.5263         estimate D2E/DX2                !
 ! A4    A(3,1,4)              109.4685         estimate D2E/DX2                !
 ! A5    A(3,1,40)             109.4483         estimate D2E/DX2                !
 ! A6    A(4,1,40)             109.4635         estimate D2E/DX2                !
 ! A7    A(1,4,5)              115.3629         estimate D2E/DX2                !
 ! A8    A(1,4,6)              107.6399         estimate D2E/DX2                !
 ! A9    A(1,4,7)              106.8889         estimate D2E/DX2                !
 ! A10   A(5,4,6)              112.0764         estimate D2E/DX2                !
 ! A11   A(5,4,7)              107.8397         estimate D2E/DX2                !
 ! A12   A(6,4,7)              106.5683         estimate D2E/DX2                !
 ! A13   A(4,7,8)              106.3664         estimate D2E/DX2                !
 ! A14   A(4,7,9)              101.5729         estimate D2E/DX2                !
 ! A15   A(4,7,10)             114.5098         estimate D2E/DX2                !
 ! A16   A(8,7,9)              108.2844         estimate D2E/DX2                !
 ! A17   A(8,7,10)             120.3135         estimate D2E/DX2                !
 ! A18   A(9,7,10)             104.0067         estimate D2E/DX2                !
 ! A19   A(7,10,11)            110.2272         estimate D2E/DX2                !
 ! A20   A(7,10,12)            103.4004         estimate D2E/DX2                !
 ! A21   A(7,10,13)            115.5565         estimate D2E/DX2                !
 ! A22   A(11,10,12)           111.2257         estimate D2E/DX2                !
 ! A23   A(11,10,13)           105.7992         estimate D2E/DX2                !
 ! A24   A(12,10,13)           110.7467         estimate D2E/DX2                !
 ! A25   A(10,13,14)           116.4561         estimate D2E/DX2                !
 ! A26   A(10,13,39)           121.5161         estimate D2E/DX2                !
 ! A27   A(14,13,39)           122.0228         estimate D2E/DX2                !
 ! A28   A(13,14,15)           116.5766         estimate D2E/DX2                !
 ! A29   A(13,14,23)           121.989          estimate D2E/DX2                !
 ! A30   A(15,14,23)           120.8396         estimate D2E/DX2                !
 ! A31   A(14,15,16)           118.0079         estimate D2E/DX2                !
 ! A32   A(14,15,17)           116.9778         estimate D2E/DX2                !
 ! A33   A(16,15,17)           125.0061         estimate D2E/DX2                !
 ! A34   A(15,17,18)           119.1422         estimate D2E/DX2                !
 ! A35   A(15,17,19)           124.6426         estimate D2E/DX2                !
 ! A36   A(18,17,19)           115.2723         estimate D2E/DX2                !
 ! A37   A(17,19,20)           118.6925         estimate D2E/DX2                !
 ! A38   A(17,19,21)           118.2338         estimate D2E/DX2                !
 ! A39   A(20,19,21)           123.0709         estimate D2E/DX2                !
 ! A40   A(19,21,22)           115.9917         estimate D2E/DX2                !
 ! A41   A(19,21,23)           119.4133         estimate D2E/DX2                !
 ! A42   A(22,21,23)           124.4369         estimate D2E/DX2                !
 ! A43   A(14,23,21)           119.7618         estimate D2E/DX2                !
 ! A44   A(14,23,24)           117.7485         estimate D2E/DX2                !
 ! A45   A(21,23,24)           122.4872         estimate D2E/DX2                !
 ! A46   A(23,24,25)           113.0054         estimate D2E/DX2                !
 ! A47   A(23,24,26)           106.7852         estimate D2E/DX2                !
 ! A48   A(23,24,27)           114.9207         estimate D2E/DX2                !
 ! A49   A(25,24,26)           102.0083         estimate D2E/DX2                !
 ! A50   A(25,24,27)           108.5612         estimate D2E/DX2                !
 ! A51   A(26,24,27)           110.7878         estimate D2E/DX2                !
 ! A52   A(24,27,28)           109.5411         estimate D2E/DX2                !
 ! A53   A(24,27,29)           106.7214         estimate D2E/DX2                !
 ! A54   A(24,27,30)           118.8358         estimate D2E/DX2                !
 ! A55   A(28,27,29)           105.5673         estimate D2E/DX2                !
 ! A56   A(28,27,30)           103.0535         estimate D2E/DX2                !
 ! A57   A(29,27,30)           112.3399         estimate D2E/DX2                !
 ! A58   A(27,30,31)           114.7231         estimate D2E/DX2                !
 ! A59   A(27,30,39)           125.306          estimate D2E/DX2                !
 ! A60   A(31,30,39)           119.7082         estimate D2E/DX2                !
 ! A61   A(30,31,32)           121.1279         estimate D2E/DX2                !
 ! A62   A(30,31,33)           125.2419         estimate D2E/DX2                !
 ! A63   A(32,31,33)           113.1284         estimate D2E/DX2                !
 ! A64   A(31,33,34)           123.1067         estimate D2E/DX2                !
 ! A65   A(31,33,35)           117.8389         estimate D2E/DX2                !
 ! A66   A(34,33,35)           118.9407         estimate D2E/DX2                !
 ! A67   A(33,35,36)           114.5143         estimate D2E/DX2                !
 ! A68   A(33,35,37)           119.002          estimate D2E/DX2                !
 ! A69   A(36,35,37)           126.373          estimate D2E/DX2                !
 ! A70   A(35,37,38)           119.5562         estimate D2E/DX2                !
 ! A71   A(35,37,39)           123.1688         estimate D2E/DX2                !
 ! A72   A(38,37,39)           116.9459         estimate D2E/DX2                !
 ! A73   A(13,39,30)           123.6627         estimate D2E/DX2                !
 ! A74   A(13,39,37)           121.1419         estimate D2E/DX2                !
 ! A75   A(30,39,37)           115.0071         estimate D2E/DX2                !
 ! D1    D(2,1,4,5)            -60.6552         estimate D2E/DX2                !
 ! D2    D(2,1,4,6)            173.3867         estimate D2E/DX2                !
 ! D3    D(2,1,4,7)             59.2284         estimate D2E/DX2                !
 ! D4    D(3,1,4,5)            179.3633         estimate D2E/DX2                !
 ! D5    D(3,1,4,6)             53.4052         estimate D2E/DX2                !
 ! D6    D(3,1,4,7)            -60.7531         estimate D2E/DX2                !
 ! D7    D(40,1,4,5)            59.3978         estimate D2E/DX2                !
 ! D8    D(40,1,4,6)           -66.5603         estimate D2E/DX2                !
 ! D9    D(40,1,4,7)           179.2814         estimate D2E/DX2                !
 ! D10   D(1,4,7,8)            -75.1704         estimate D2E/DX2                !
 ! D11   D(1,4,7,9)            171.6317         estimate D2E/DX2                !
 ! D12   D(1,4,7,10)            60.2308         estimate D2E/DX2                !
 ! D13   D(5,4,7,8)             49.4391         estimate D2E/DX2                !
 ! D14   D(5,4,7,9)            -63.7588         estimate D2E/DX2                !
 ! D15   D(5,4,7,10)          -175.1597         estimate D2E/DX2                !
 ! D16   D(6,4,7,8)            169.9483         estimate D2E/DX2                !
 ! D17   D(6,4,7,9)             56.7504         estimate D2E/DX2                !
 ! D18   D(6,4,7,10)           -54.6504         estimate D2E/DX2                !
 ! D19   D(4,7,10,11)           59.7626         estimate D2E/DX2                !
 ! D20   D(4,7,10,12)          -59.212          estimate D2E/DX2                !
 ! D21   D(4,7,10,13)          179.6188         estimate D2E/DX2                !
 ! D22   D(8,7,10,11)         -171.5331         estimate D2E/DX2                !
 ! D23   D(8,7,10,12)           69.4924         estimate D2E/DX2                !
 ! D24   D(8,7,10,13)          -51.6769         estimate D2E/DX2                !
 ! D25   D(9,7,10,11)          -50.1736         estimate D2E/DX2                !
 ! D26   D(9,7,10,12)         -169.1481         estimate D2E/DX2                !
 ! D27   D(9,7,10,13)           69.6826         estimate D2E/DX2                !
 ! D28   D(7,10,13,14)         119.5572         estimate D2E/DX2                !
 ! D29   D(7,10,13,39)         -61.2442         estimate D2E/DX2                !
 ! D30   D(11,10,13,14)       -118.1943         estimate D2E/DX2                !
 ! D31   D(11,10,13,39)         61.0042         estimate D2E/DX2                !
 ! D32   D(12,10,13,14)          2.4383         estimate D2E/DX2                !
 ! D33   D(12,10,13,39)       -178.3631         estimate D2E/DX2                !
 ! D34   D(10,13,14,15)         69.0636         estimate D2E/DX2                !
 ! D35   D(10,13,14,23)       -119.7152         estimate D2E/DX2                !
 ! D36   D(39,13,14,15)       -110.1305         estimate D2E/DX2                !
 ! D37   D(39,13,14,23)         61.0907         estimate D2E/DX2                !
 ! D38   D(10,13,39,30)        126.9896         estimate D2E/DX2                !
 ! D39   D(10,13,39,37)        -58.2491         estimate D2E/DX2                !
 ! D40   D(14,13,39,30)        -53.8567         estimate D2E/DX2                !
 ! D41   D(14,13,39,37)        120.9046         estimate D2E/DX2                !
 ! D42   D(13,14,15,16)        -12.9287         estimate D2E/DX2                !
 ! D43   D(13,14,15,17)        168.0552         estimate D2E/DX2                !
 ! D44   D(23,14,15,16)        175.7423         estimate D2E/DX2                !
 ! D45   D(23,14,15,17)         -3.2738         estimate D2E/DX2                !
 ! D46   D(13,14,23,21)       -170.2219         estimate D2E/DX2                !
 ! D47   D(13,14,23,24)         10.3426         estimate D2E/DX2                !
 ! D48   D(15,14,23,21)          0.6309         estimate D2E/DX2                !
 ! D49   D(15,14,23,24)       -178.8046         estimate D2E/DX2                !
 ! D50   D(14,15,17,18)        171.3859         estimate D2E/DX2                !
 ! D51   D(14,15,17,19)          3.0444         estimate D2E/DX2                !
 ! D52   D(16,15,17,18)         -7.5536         estimate D2E/DX2                !
 ! D53   D(16,15,17,19)       -175.8951         estimate D2E/DX2                !
 ! D54   D(15,17,19,20)        179.3969         estimate D2E/DX2                !
 ! D55   D(15,17,19,21)         -0.0129         estimate D2E/DX2                !
 ! D56   D(18,17,19,20)         10.6521         estimate D2E/DX2                !
 ! D57   D(18,17,19,21)       -168.7578         estimate D2E/DX2                !
 ! D58   D(17,19,21,22)        172.8538         estimate D2E/DX2                !
 ! D59   D(17,19,21,23)         -2.7784         estimate D2E/DX2                !
 ! D60   D(20,19,21,22)         -6.5284         estimate D2E/DX2                !
 ! D61   D(20,19,21,23)        177.8394         estimate D2E/DX2                !
 ! D62   D(19,21,23,14)          2.482          estimate D2E/DX2                !
 ! D63   D(19,21,23,24)       -178.1104         estimate D2E/DX2                !
 ! D64   D(22,21,23,14)       -172.7569         estimate D2E/DX2                !
 ! D65   D(22,21,23,24)          6.6508         estimate D2E/DX2                !
 ! D66   D(14,23,24,25)        163.9332         estimate D2E/DX2                !
 ! D67   D(14,23,24,26)         52.5774         estimate D2E/DX2                !
 ! D68   D(14,23,24,27)        -70.7148         estimate D2E/DX2                !
 ! D69   D(21,23,24,25)        -15.4858         estimate D2E/DX2                !
 ! D70   D(21,23,24,26)       -126.8416         estimate D2E/DX2                !
 ! D71   D(21,23,24,27)        109.8662         estimate D2E/DX2                !
 ! D72   D(23,24,27,28)        -66.3488         estimate D2E/DX2                !
 ! D73   D(23,24,27,29)        179.8245         estimate D2E/DX2                !
 ! D74   D(23,24,27,30)         51.6206         estimate D2E/DX2                !
 ! D75   D(25,24,27,28)         61.2842         estimate D2E/DX2                !
 ! D76   D(25,24,27,29)        -52.5425         estimate D2E/DX2                !
 ! D77   D(25,24,27,30)        179.2536         estimate D2E/DX2                !
 ! D78   D(26,24,27,28)        172.5209         estimate D2E/DX2                !
 ! D79   D(26,24,27,29)         58.6941         estimate D2E/DX2                !
 ! D80   D(26,24,27,30)        -69.5097         estimate D2E/DX2                !
 ! D81   D(24,27,30,31)       -174.5976         estimate D2E/DX2                !
 ! D82   D(24,27,30,39)         -0.5358         estimate D2E/DX2                !
 ! D83   D(28,27,30,31)        -53.2918         estimate D2E/DX2                !
 ! D84   D(28,27,30,39)        120.77           estimate D2E/DX2                !
 ! D85   D(29,27,30,31)         59.8571         estimate D2E/DX2                !
 ! D86   D(29,27,30,39)       -126.0812         estimate D2E/DX2                !
 ! D87   D(27,30,31,32)        -12.2621         estimate D2E/DX2                !
 ! D88   D(27,30,31,33)        176.4356         estimate D2E/DX2                !
 ! D89   D(39,30,31,32)        173.3162         estimate D2E/DX2                !
 ! D90   D(39,30,31,33)          2.0138         estimate D2E/DX2                !
 ! D91   D(27,30,39,13)          0.6216         estimate D2E/DX2                !
 ! D92   D(27,30,39,37)       -174.4315         estimate D2E/DX2                !
 ! D93   D(31,30,39,13)        174.4104         estimate D2E/DX2                !
 ! D94   D(31,30,39,37)         -0.6427         estimate D2E/DX2                !
 ! D95   D(30,31,33,34)       -178.3293         estimate D2E/DX2                !
 ! D96   D(30,31,33,35)         -2.2518         estimate D2E/DX2                !
 ! D97   D(32,31,33,34)          9.7626         estimate D2E/DX2                !
 ! D98   D(32,31,33,35)       -174.16           estimate D2E/DX2                !
 ! D99   D(31,33,35,36)        177.5389         estimate D2E/DX2                !
 ! D100  D(31,33,35,37)          1.1208         estimate D2E/DX2                !
 ! D101  D(34,33,35,36)         -6.2154         estimate D2E/DX2                !
 ! D102  D(34,33,35,37)        177.3665         estimate D2E/DX2                !
 ! D103  D(33,35,37,38)        173.2915         estimate D2E/DX2                !
 ! D104  D(33,35,37,39)          0.0851         estimate D2E/DX2                !
 ! D105  D(36,35,37,38)         -2.6602         estimate D2E/DX2                !
 ! D106  D(36,35,37,39)       -175.8666         estimate D2E/DX2                !
 ! D107  D(35,37,39,13)       -175.5302         estimate D2E/DX2                !
 ! D108  D(35,37,39,30)         -0.3404         estimate D2E/DX2                !
 ! D109  D(38,37,39,13)         11.0983         estimate D2E/DX2                !
 ! D110  D(38,37,39,30)       -173.7119         estimate D2E/DX2                !
 --------------------------------------------------------------------------------
 Trust Radius=3.00D-01 FncErr=1.00D-07 GrdErr=1.00D-06 EigMax=2.50D+02 EigMin=1.00D-04
 Number of steps in this run=    237 maximum allowed number of steps=    240.
 GradGradGradGradGradGradGradGradGradGradGradGradGradGradGradGradGradGrad

 Leave Link  103 at Sun Jul 18 13:28:51 2021, MaxMem=   104857600 cpu:               0.1 elap:               0.0
 (Enter /prod/apps/gaussian/g16b1/l202.exe)
                          Input orientation:                          
 ---------------------------------------------------------------------
 Center     Atomic      Atomic             Coordinates (Angstroms)
 Number     Number       Type             X           Y           Z
 ---------------------------------------------------------------------
      1          7           0       -1.086000    0.235000    4.306000
      2          1           0       -0.422000   -0.510000    4.371000
      3          1           0       -1.846000   -0.046000    3.719000
      4          6           0       -0.440000    1.414000    3.735000
      5          1           0        0.402000    1.811000    4.309000
      6          1           0       -1.214000    2.167000    3.567000
      7          6           0        0.098000    0.998000    2.314000
      8          1           0        0.987000    0.388000    2.488000
      9          1           0        0.417000    1.961000    1.910000
     10          6           0       -0.974000    0.531000    1.347000
     11          1           0       -1.708000    1.325000    1.184000
     12          1           0       -1.423000   -0.324000    1.860000
     13          7           0       -0.499000    0.146000    0.013000
     14          6           0       -0.735000   -1.144000   -0.368000
     15          6           0       -2.063000   -1.490000   -0.608000
     16          1           0       -2.837000   -0.802000   -0.279000
     17          6           0       -2.295000   -2.716000   -1.240000
     18          1           0       -3.314000   -3.087000   -1.318000
     19          6           0       -1.329000   -3.604000   -1.576000
     20          1           0       -1.620000   -4.535000   -2.057000
     21          6           0        0.011000   -3.280000   -1.272000
     22          1           0        0.742000   -4.065000   -1.446000
     23          6           0        0.307000   -2.027000   -0.687000
     24          6           0        1.709000   -1.595000   -0.374000
     25          1           0        2.423000   -2.421000   -0.387000
     26          1           0        1.721000   -1.301000    0.677000
     27          6           0        2.240000   -0.490000   -1.243000
     28          1           0        2.344000   -0.850000   -2.269000
     29          1           0        3.256000   -0.282000   -0.901000
     30          6           0        1.391000    0.812000   -1.410000
     31          6           0        1.886000    1.696000   -2.291000
     32          1           0        2.895000    1.594000   -2.683000
     33          6           0        1.283000    2.873000   -2.655000
     34          1           0        1.703000    3.552000   -3.393000
     35          6           0        0.076000    3.153000   -2.123000
     36          1           0       -0.333000    4.117000   -2.415000
     37          6           0       -0.495000    2.245000   -1.208000
     38          1           0       -1.413000    2.511000   -0.691000
     39          6           0        0.136000    1.048000   -0.814000
     40          1           0       -1.433000    0.454000    5.218000
 ---------------------------------------------------------------------
                    Distance matrix (angstroms):
                    1          2          3          4          5
     1  N    0.000000
     2  H    1.000073   0.000000
     3  H    1.000565   1.633455   0.000000
     4  C    1.460616   2.026474   2.026991   0.000000
     5  H    2.167471   2.463709   2.974904   1.093640   0.000000
     6  H    2.072469   2.905169   2.306490   1.092844   1.813493
     7  C    2.439690   2.603020   2.615931   1.575354   2.175640
     8  H    2.761496   2.517414   3.119232   2.154997   2.383945
     9  H    3.313442   3.586960   3.524443   2.089087   2.403732
    10  C    2.975877   3.245452   2.592238   2.601421   3.507880
    11  H    3.364798   3.895894   2.885292   2.850148   3.801831
    12  H    2.531594   2.709560   1.926680   2.739080   3.726453
    13  N    4.333860   4.407769   3.947874   3.932504   4.694640
    14  C    4.885808   4.791456   4.375328   4.844068   5.647931
    15  C    5.298825   5.333266   4.566744   5.470740   6.414804
    16  H    5.016333   5.247856   4.187794   5.173825   6.194242
    17  C    6.397515   6.313310   5.649972   6.726704   7.652381
    18  H    6.901380   6.882537   6.064163   7.351985   8.334398
    19  C    7.028150   6.764783   6.400287   7.360528   8.182409
    20  H    7.970309   7.678217   7.318769   8.386314   9.213368
    21  C    6.683765   6.301098   6.230352   6.878015   7.564306
    22  H    7.410606   6.915953   7.037566   7.632780   8.231829
    23  C    5.655718   5.330675   5.288913   5.652661   6.300737
    24  C    5.750072   5.313512   5.638269   5.527763   5.936293
    25  H    6.433636   5.863831   6.381553   6.316239   6.636767
    26  H    4.838201   4.343244   4.853069   4.625204   4.961424
    27  C    6.509939   6.213183   6.443134   5.965576   6.284708
    28  H    7.494848   7.201108   7.352459   6.994596   7.356791
    29  H    6.799493   6.432235   6.886980   6.166792   6.298418
    30  C    6.256286   6.201178   6.125437   5.494178   5.889235
    31  C    7.381579   7.387526   7.285773   6.465483   6.765758
    32  H    8.157289   8.073922   8.133405   7.235009   7.426318
    33  C    7.811960   7.982255   7.677179   6.777131   7.099387
    34  H    8.834909   9.016383   8.724766   7.744151   8.002780
    35  C    7.155209   7.472457   6.932290   6.132417   6.578591
    36  H    7.797998   8.213820   7.566088   6.718643   7.146330
    37  C    5.898608   6.222587   5.599037   5.012667   5.606269
    38  H    5.500647   5.977656   5.116037   4.662576   5.365093
    39  C    5.326223   5.442697   5.066878   4.599906   5.186333
    40  H    1.000057   1.633654   1.633270   2.026558   2.456615
                    6          7          8          9         10
     6  H    0.000000
     7  C    2.158220   0.000000
     8  H    3.028776   1.092107   0.000000
     9  H    2.334148   1.091946   1.770117   0.000000
    10  C    2.768121   1.517354   2.273291   2.072860   0.000000
    11  H    2.575207   2.155334   3.137102   2.333923   1.093509
    12  H    3.026981   2.065730   2.590256   2.934165   1.093524
    13  N    4.150492   2.525255   2.896961   2.780628   1.467449
    14  C    5.164919   3.532022   3.670020   4.019628   2.409143
    15  C    5.614719   4.404333   4.734406   4.939648   3.015359
    16  H    5.122578   4.310206   4.867789   4.797333   2.809187
    17  C    6.936822   5.670199   5.856989   6.257138   4.356675
    18  H    7.475142   6.443632   6.712664   7.058516   5.066335
    19  C    7.730984   6.192482   6.149473   6.794846   5.076237
    20  H    8.758483   7.257496   7.189534   7.879370   6.137499
    21  C    7.388258   5.582853   5.342696   6.144757   4.727907
    22  H    8.233707   6.339267   5.946898   6.905146   5.645239
    23  C    6.164381   4.266182   4.046634   4.760321   3.510197
    24  C    6.182884   4.067470   3.555927   4.419395   3.831476
    25  H    7.064816   4.938683   4.268279   5.338742   4.822932
    26  H    5.384547   3.255656   2.582866   3.723083   3.326883
    27  C    6.490444   4.410732   4.032525   4.390004   4.252098
    28  H    7.471315   5.428030   5.099328   5.392503   5.098210
    29  H    6.778018   4.684825   4.133108   4.581778   4.858742
    30  C    5.778631   3.946469   3.941750   3.645720   3.643245
    31  C    6.644397   4.989005   5.035663   4.458317   4.771988
    32  H    7.501647   5.757468   5.642175   5.231713   5.686830
    33  C    6.741419   5.441582   5.719553   4.735074   5.157036
    34  H    7.672595   6.455137   6.716376   5.683915   6.225783
    35  C    5.917127   4.932695   5.453115   4.219269   4.474180
    36  H    6.353187   5.681317   6.299782   4.890446   5.236690
    37  C    4.829459   3.783007   4.393767   3.261031   3.113722
    38  H    4.276506   3.688132   4.513665   3.227476   2.875163
    39  C    4.718879   3.128630   3.473184   2.886643   2.483810
    40  H    2.389170   3.327629   3.648788   4.078776   3.898878
                   11         12         13         14         15
    11  H    0.000000
    12  H    1.804827   0.000000
    13  N    2.054985   2.118038   0.000000
    14  C    3.074312   2.471786   1.365634   0.000000
    15  C    3.355818   2.803601   2.346963   1.393162   0.000000
    16  H    2.817648   2.608295   2.539727   2.131499   1.086582
    17  C    4.748687   4.011489   3.603702   2.380161   1.398687
    18  H    5.320243   4.616247   4.488661   3.365857   2.149305
    19  C    5.661827   4.751140   4.156479   2.804229   2.438191
    20  H    6.697121   5.754496   5.239590   3.890350   3.401158
    21  C    5.494809   4.539132   3.694428   2.436438   2.818949
    22  H    6.478542   5.441686   4.626152   3.446136   3.898832
    23  C    4.335524   3.518568   2.421067   1.402574   2.431360
    24  C    4.757063   4.051620   2.838329   2.485271   3.780710
    25  H    5.793593   4.923224   3.909933   3.406472   4.586916
    26  H    4.348674   3.498393   2.731868   2.673688   4.000700
    27  C    4.977073   4.803513   3.079635   3.169222   4.463075
    28  H    5.750873   5.613876   3.779178   3.630493   4.752912
    29  H    5.618805   5.433040   3.888265   4.117671   5.462314
    30  C    4.073795   4.461165   2.457760   3.071087   4.227591
    31  C    5.012993   5.679849   3.660484   4.316616   5.345810
    32  H    6.017779   6.554594   4.569940   5.102232   6.196648
    33  C    5.106888   6.158609   4.210734   5.043707   5.867000
    34  H    6.127265   7.238043   5.296270   6.094824   6.881914
    35  C    4.178575   5.495527   3.732984   4.711895   5.331791
    36  H    4.758013   6.259889   4.657422   5.659499   6.139756
    37  C    2.835389   4.107745   2.428304   3.499789   4.094979
    38  H    2.238134   3.813781   2.631394   3.731359   4.054305
    39  C    2.732960   3.385726   1.378680   2.400504   3.364444
    40  H    4.136112   3.446962   5.297098   5.851855   6.174003
                   16         17         18         19         20
    16  H    0.000000
    17  C    2.209226   0.000000
    18  H    2.555049   1.087238   0.000000
    19  C    3.436201   1.354473   2.067384   0.000000
    20  H    4.310181   2.105202   2.347863   1.087567   0.000000
    21  C    3.903542   2.374185   3.330914   1.411734   2.202592
    22  H    4.981797   3.329505   4.174207   2.125667   2.484606
    23  C    3.398798   2.747896   3.825363   2.440030   3.446780
    24  C    4.615625   4.247189   5.324259   3.835405   4.749561
    25  H    5.504582   4.803557   5.850084   4.109831   4.858369
    26  H    4.683834   4.669622   5.702723   4.436476   5.394052
    27  C    5.177120   5.051862   6.131635   4.748226   5.650152
    28  H    5.550240   5.105009   6.158046   4.642811   5.416407
    29  H    6.146701   6.070657   7.155894   5.702064   6.572649
    30  C    4.664777   5.105123   6.111276   5.189124   6.170506
    31  C    5.709192   6.168558   7.131887   6.239988   7.153471
    32  H    6.661521   6.898873   7.894724   6.788728   7.638177
    33  C    6.010441   6.785369   7.644709   7.066705   7.978940
    34  H    7.018968   7.739977   8.576260   7.981406   8.844591
    35  C    5.246707   6.391126   7.146868   6.923170   7.873126
    36  H    5.918536   7.205550   7.873207   7.830056   8.754521
    37  C    3.953759   5.277551   6.032337   5.919610   6.924942
    38  H    3.629530   5.329245   5.945127   6.179280   7.180176
    39  C    3.542239   4.500992   5.408765   4.936393   5.983183
    40  H    5.810831   7.245530   7.667864   7.914330   8.823305
                   21         22         23         24         25
    21  C    0.000000
    22  H    1.086675   0.000000
    23  C    1.414161   2.217826   0.000000
    24  C    2.555158   2.860974   1.500066   0.000000
    25  H    2.709031   2.578755   2.173176   1.091898   0.000000
    26  H    3.261770   3.620120   2.094509   1.091412   1.696850
    27  C    3.571188   3.881474   2.531402   1.502713   2.120138
    28  H    3.513090   3.685099   2.835035   2.132903   2.452796
    29  H    4.433472   4.574747   3.433282   2.096403   2.352319
    30  C    4.320637   4.920125   3.123733   2.639710   3.544551
    31  C    5.414292   5.933960   4.350493   3.812729   4.567633
    32  H    5.836459   6.179794   4.877848   4.111909   4.649153
    33  C    6.433512   7.063300   5.369879   5.034626   5.871104
    34  H    7.351036   7.920418   6.355824   5.967077   6.725412
    35  C    6.489369   7.280207   5.380321   5.316878   6.292184
    36  H    7.492689   8.309014   6.414384   6.400187   7.379279
    37  C    5.548491   6.434510   4.377742   4.505416   5.564200
    38  H    5.991746   6.961166   4.853026   5.167844   6.255552
    39  C    4.353961   5.187430   3.082368   3.106989   4.176920
    40  H    7.625483   8.340317   6.637167   6.733575   7.385823
                   26         27         28         29         30
    26  H    0.000000
    27  C    2.147902   0.000000
    28  H    3.044741   1.092288   0.000000
    29  H    2.425834   1.092009   1.739480   0.000000
    30  C    2.988183   1.563296   2.099603   2.221293   0.000000
    31  C    4.221168   2.449942   2.586960   2.778756   1.342625
    32  H    4.587908   2.616425   2.539317   2.612512   2.119922
    33  C    5.358763   3.770857   3.890430   4.113790   2.410272
    34  H    6.333785   4.609624   4.588231   4.829227   3.396650
    35  C    5.512181   4.327672   4.603167   4.837862   2.778106
    36  H    6.567656   5.405401   5.644354   5.875740   3.860729
    37  C    4.586720   3.868032   4.331820   4.533208   2.377244
    38  H    5.121008   4.759739   5.282183   5.444677   3.356483
    39  C    3.202047   2.641269   3.254949   3.392767   1.409233
    40  H    5.800726   7.491768   8.486537   7.744067   7.213427
                   31         32         33         34         35
    31  C    0.000000
    32  H    1.087267   0.000000
    33  C    1.371654   2.057953   0.000000
    34  H    2.166248   2.399735   1.087237   0.000000
    35  C    2.329629   3.269685   1.348434   2.102196   0.000000
    36  H    3.286423   4.105769   2.053434   2.328305   1.087125
    37  C    2.672724   3.753868   2.376863   3.363581   1.409869
    38  H    3.756012   4.834027   3.355109   4.253697   2.163310
    39  C    2.379902   3.376886   2.834698   3.921319   2.479537
    40  H    8.303217   9.080583   8.672505   9.673749   7.965674
                   36         37         38         39         40
    36  H    0.000000
    37  C    2.233266   0.000000
    38  H    2.591874   1.086632   0.000000
    39  C    3.493125   1.409328   2.134221   0.000000
    40  H    8.537579   6.736542   6.256831   6.260960   0.000000
 Stoichiometry    C17H21N2(1+)
 Framework group  C1[X(C17H21N2)]
 Deg. of freedom   114
 Full point group                 C1      NOp   1
 Largest Abelian subgroup         C1      NOp   1
 Largest concise Abelian subgroup C1      NOp   1
                         Standard orientation:                         
 ---------------------------------------------------------------------
 Center     Atomic      Atomic             Coordinates (Angstroms)
 Number     Number       Type             X           Y           Z
 ---------------------------------------------------------------------
      1          7           0        4.561685   -0.332889    0.347708
      2          1           0        4.403944    0.186787    1.187471
      3          1           0        4.242070    0.197947   -0.437906
      4          6           0        3.830112   -1.595440    0.412240
      5          1           0        4.112867   -2.259222    1.234123
      6          1           0        3.925083   -2.083337   -0.561025
      7          6           0        2.306868   -1.233367    0.586513
      8          1           0        2.182943   -0.915082    1.623833
      9          1           0        1.834555   -2.210883    0.469347
     10          6           0        1.723312   -0.405723   -0.543456
     11          1           0        1.810867   -0.944500   -1.490987
     12          1           0        2.341497    0.496298   -0.542337
     13          7           0        0.302913   -0.062629   -0.408701
     14          6           0        0.000361    1.268206   -0.360766
     15          6           0        0.188890    1.992968   -1.535533
     16          1           0        0.754456    1.526611   -2.337596
     17          6           0       -0.352209    3.281998   -1.579579
     18          1           0       -0.108159    3.930311   -2.417562
     19          6           0       -0.987663    3.885988   -0.547111
     20          1           0       -1.363228    4.897310   -0.684883
     21          6           0       -1.119559    3.173645    0.664566
     22          1           0       -1.525692    3.732192    1.503580
     23          6           0       -0.642968    1.844601    0.744272
     24          6           0       -0.784625    1.010801    1.983186
     25          1           0       -1.033176    1.600183    2.868111
     26          1           0        0.212054    0.640517    2.229562
     27          6           0       -1.763350   -0.124246    1.874041
     28          1           0       -2.773855    0.274384    1.759734
     29          1           0       -1.758059   -0.637458    2.837924
     30          6           0       -1.636923   -1.115899    0.672153
     31          6           0       -2.618356   -2.028551    0.591541
     32          1           0       -3.310854   -2.183487    1.415306
     33          6           0       -2.758200   -2.953971   -0.411192
     34          1           0       -3.582781   -3.661189   -0.455838
     35          6           0       -1.868036   -2.924808   -1.423630
     36          1           0       -2.003632   -3.707186   -2.166153
     37          6           0       -0.830590   -1.970564   -1.394405
     38          1           0       -0.046320   -2.008269   -2.145583
     39          6           0       -0.671402   -1.036369   -0.351264
     40          1           0        5.539256   -0.518910    0.248384
 ---------------------------------------------------------------------
 Rotational constants (GHZ):           0.3765868           0.3682224           0.2386296
 Leave Link  202 at Sun Jul 18 13:28:51 2021, MaxMem=   104857600 cpu:               0.1 elap:               0.0
 (Enter /prod/apps/gaussian/g16b1/l301.exe)
 Standard basis: 6-31G(d) (6D, 7F)
 Ernie: Thresh=  0.10000D-02 Tol=  0.10000D-05 Strict=F.
 There are   327 symmetry adapted cartesian basis functions of A   symmetry.
 There are   327 symmetry adapted basis functions of A   symmetry.
   327 basis functions,   616 primitive gaussians,   327 cartesian basis functions
    68 alpha electrons       68 beta electrons
       nuclear repulsion energy      1433.8190573988 Hartrees.
 IExCor=  402 DFT=T Ex+Corr=B3LYP ExCW=0 ScaHFX=  0.200000
 ScaDFX=  0.800000  0.720000  1.000000  0.810000 ScalE2=  1.000000  1.000000
 IRadAn=      5 IRanWt=     -1 IRanGd=            0 ICorTp=0 IEmpDi=  4
 NAtoms=   40 NActive=   40 NUniq=   40 SFac= 1.00D+00 NAtFMM=   60 NAOKFM=F Big=F
 Integral buffers will be    131072 words long.
 Raffenetti 2 integral format.
 Two-electron integral symmetry is turned on.
 Using the following non-standard input for PCM:
 MSTModel=DFT cav MSTCharged
 --- end of non-standard input.
 MST model for solvation energy: B3LYP parametrization.
 MST cavity parameters:
 ISph   IAn     Re0     Alpha   Atom Type   QCorr
 ------------------------------------------------
   1      7     1.70     1.15      NH         T
   2      1     0.90     1.15      NH         T
   3      1     0.90     1.15      NH         T
   4      6     1.50     1.25      CH2        F
   5      1     1.20     1.25      CH2        F
   6      1     1.20     1.25      CH2        F
   7      6     1.50     1.25      CH2        F
   8      1     1.20     1.25      CH2        F
   9      1     1.20     1.25      CH2        F
  10      6     1.50     1.25      CH2        F
  11      1     1.20     1.25      CH2        F
  12      1     1.20     1.25      CH2        F
  13      7     1.40     1.25      N          F
  14      6     1.50     1.25      C          F
  15      6     1.50     1.25      CH         F
  16      1     1.20     1.25      CH         F
  17      6     1.50     1.25      CH         F
  18      1     1.20     1.25      CH         F
  19      6     1.50     1.25      CH         F
  20      1     1.20     1.25      CH         F
  21      6     1.50     1.25      CH         F
  22      1     1.20     1.25      CH         F
  23      6     1.50     1.25      C          F
  24      6     1.50     1.25      CH2        F
  25      1     1.20     1.25      CH2        F
  26      1     1.20     1.25      CH2        F
  27      6     1.50     1.25      CH2        F
  28      1     1.20     1.25      CH2        F
  29      1     1.20     1.25      CH2        F
  30      6     1.50     1.25      C          F
  31      6     1.50     1.25      CH         F
  32      1     1.20     1.25      CH         F
  33      6     1.50     1.25      CH         F
  34      1     1.20     1.25      CH         F
  35      6     1.50     1.25      CH         F
  36      1     1.20     1.25      CH         F
  37      6     1.50     1.25      CH         F
  38      1     1.20     1.25      CH         F
  39      6     1.50     1.25      C          F
  40      1     0.90     1.15      NH         T
 ------------------------------------------------------------------------------
 Polarizable Continuum Model (PCM)
 =================================
 Model                : PCM.
 Atomic radii         : MST.
 Polarization charges : Total charges.
 Charge compensation  : None.
 Solution method      : On-the-fly selection.
 Cavity type          : Scaled VdW (van der Waals Surface) (Alpha=1.250).
 Cavity algorithm     : GePol (No added spheres)
                        Default sphere list used, NSphG=   40.
                        Lebedev-Laikov grids with approx.  5.0 points / Ang**2.
                        Smoothing algorithm: York/Karplus (Gamma=1.0000).
                        Polarization charges: spherical gaussians, with
                                              point-specific exponents (IZeta= 3).
                        Self-potential: point-specific (ISelfS= 7).
                        Self-field    : sphere-specific E.n sum rule (ISelfD= 2).
 1st derivatives      : Analytical E(r).r(x)/FMM algorithm (CHGder, D1EAlg=3).
                        Cavity 1st derivative terms included.
 Solvent              : Water, Eps=  78.355300 Eps(inf)=   1.777849
 ------------------------------------------------------------------------------
 GePol: Number of generator spheres                  =      40
 GePol: Total number of spheres                      =      40
 GePol: Number of exposed spheres                    =      40 (100.00%)
 GePol: Number of points                             =    2645
 GePol: Average weight of points                     =       0.13
 GePol: Minimum weight of points                     =   0.19D-11
 GePol: Maximum weight of points                     =    0.21416
 GePol: Number of points with low weight             =     183
 GePol: Fraction of low-weight points (<1% of avg)   =       6.92%
 GePol: Cavity surface area                          =    335.955 Ang**2
 GePol: Cavity volume                                =    328.867 Ang**3
 PCM non-electrostatic energy =         0.0016510305 Hartrees.
 Nuclear repulsion after PCM non-electrostatic terms =     1433.8207084292 Hartrees.
 Leave Link  301 at Sun Jul 18 13:28:51 2021, MaxMem=   104857600 cpu:               0.3 elap:               0.1
 (Enter /prod/apps/gaussian/g16b1/l302.exe)
 NPDir=0 NMtPBC=     1 NCelOv=     1 NCel=       1 NClECP=     1 NCelD=      1
         NCelK=      1 NCelE2=     1 NClLst=     1 CellRange=     0.0.
 One-electron integrals computed using PRISM.
 One-electron integral symmetry used in STVInt
 NBasis=   327 RedAO= T EigKep=  3.58D-04  NBF=   327
 NBsUse=   327 1.00D-06 EigRej= -1.00D+00 NBFU=   327
 Precomputing XC quadrature grid using
 IXCGrd= 4 IRadAn=           5 IRanWt=          -1 IRanGd=           0 AccXCQ= 0.00D+00.
 Generated NRdTot=       0 NPtTot=           0 NUsed=           0 NTot=          32
 NSgBfM=   326   326   326   326   326 MxSgAt=    40 MxSgA2=    40.
 Leave Link  302 at Sun Jul 18 13:28:52 2021, MaxMem=   104857600 cpu:               2.1 elap:               0.5
 (Enter /prod/apps/gaussian/g16b1/l303.exe)
 DipDrv:  MaxL=1.
 Leave Link  303 at Sun Jul 18 13:28:52 2021, MaxMem=   104857600 cpu:               0.2 elap:               0.1
 (Enter /prod/apps/gaussian/g16b1/l401.exe)
 ExpMin= 1.61D-01 ExpMax= 4.17D+03 ExpMxC= 6.27D+02 IAcc=3 IRadAn=         5 AccDes= 0.00D+00
 Harris functional with IExCor=  402 and IRadAn=       5 diagonalized for initial guess.
 HarFok:  IExCor=  402 AccDes= 0.00D+00 IRadAn=         5 IDoV= 1 UseB2=F ITyADJ=14
 ICtDFT=  3500011 ScaDFX=  1.000000  1.000000  1.000000  1.000000
 FoFCou: FMM=F IPFlag=           0 FMFlag=      100000 FMFlg1=           0
         NFxFlg=           0 DoJE=T BraDBF=F KetDBF=T FulRan=T
         wScrn=  0.000000 ICntrl=       500 IOpCl=  0 I1Cent=   200000004 NGrid=           0
         NMat0=    1 NMatS0=      1 NMatT0=    0 NMatD0=    1 NMtDS0=    0 NMtDT0=    0
 Petite list used in FoFCou.
 Harris En= -769.734642732686    
 JPrj=0 DoOrth=F DoCkMO=F.
 Leave Link  401 at Sun Jul 18 13:28:55 2021, MaxMem=   104857600 cpu:              12.8 elap:               3.2
 (Enter /prod/apps/gaussian/g16b1/l502.exe)
 Integral symmetry usage will be decided dynamically.
 Closed shell SCF:
 Using DIIS extrapolation, IDIIS=  1040.
 NGot=   104857600 LenX=   104637967 LenY=   104530597
 Requested convergence on RMS density matrix=1.00D-08 within 128 cycles.
 Requested convergence on MAX density matrix=1.00D-06.
 Requested convergence on             energy=1.00D-06.
 No special actions if energy rises.
 Fock matrices will be formed incrementally for  20 cycles.

 Cycle   1  Pass 1  IDiag  1:
 FoFJK:  IHMeth= 1 ICntrl=       0 DoSepK=F KAlg= 0 I1Cent=           0 FoldK=F
 IRaf= 840000000 NMat=       1 IRICut=       1 DoRegI=T DoRafI=F ISym2E= 0 IDoP0=0 IntGTp=1.
 FoFCou: FMM=F IPFlag=           0 FMFlag=      100000 FMFlg1=           0
         NFxFlg=           0 DoJE=F BraDBF=F KetDBF=F FulRan=T
         wScrn=  0.000000 ICntrl=         0 IOpCl=  0 I1Cent=           0 NGrid=           0
         NMat0=    1 NMatS0=      1 NMatT0=    0 NMatD0=    1 NMtDS0=    0 NMtDT0=    0
 Symmetry not used in FoFCou.
 Inv3:  Mode=1 IEnd=    20988075.
 Iteration    1 A*A^-1 deviation from unit magnitude is 3.11D-15 for    200.
 Iteration    1 A*A^-1 deviation from orthogonality  is 2.82D-15 for   1505   1004.
 Iteration    1 A^-1*A deviation from unit magnitude is 3.11D-15 for    200.
 Iteration    1 A^-1*A deviation from orthogonality  is 6.57D-15 for   1395   1393.
 E= -769.354203048736    
 DIIS: error= 2.79D-02 at cycle   1 NSaved=   1.
 NSaved= 1 IEnMin= 1 EnMin= -769.354203048736     IErMin= 1 ErrMin= 2.79D-02
 ErrMax= 2.79D-02  0.00D+00 EMaxC= 1.00D-01 BMatC= 3.88D-01 BMatP= 3.88D-01
 IDIUse=3 WtCom= 7.21D-01 WtEn= 2.79D-01
 Coeff-Com:  0.100D+01
 Coeff-En:   0.100D+01
 Coeff:      0.100D+01
 Gap=     0.213 Goal=   None    Shift=    0.000
 GapD=    0.213 DampG=1.000 DampE=0.500 DampFc=0.5000 IDamp=-1.
 Damping current iteration by 5.00D-01
 RMSDP=4.20D-03 MaxDP=1.12D-01              OVMax= 1.57D-01

 Cycle   2  Pass 1  IDiag  1:
 RMSU=  2.05D-03    CP:  9.74D-01
 E= -769.560029819055     Delta-E=       -0.205826770319 Rises=F Damp=T
 DIIS: error= 5.90D-03 at cycle   2 NSaved=   2.
 NSaved= 2 IEnMin= 2 EnMin= -769.560029819055     IErMin= 2 ErrMin= 5.90D-03
 ErrMax= 5.90D-03  0.00D+00 EMaxC= 1.00D-01 BMatC= 2.29D-02 BMatP= 3.88D-01
 IDIUse=3 WtCom= 9.41D-01 WtEn= 5.90D-02
 Coeff-Com: -0.242D-01 0.102D+01
 Coeff-En:   0.000D+00 0.100D+01
 Coeff:     -0.228D-01 0.102D+01
 Gap=     0.212 Goal=   None    Shift=    0.000
 RMSDP=1.12D-03 MaxDP=3.70D-02 DE=-2.06D-01 OVMax= 1.07D-01

 Cycle   3  Pass 1  IDiag  1:
 RMSU=  1.10D-03    CP:  9.63D-01  1.02D+00
 E= -769.759196904805     Delta-E=       -0.199167085751 Rises=F Damp=F
 DIIS: error= 3.88D-03 at cycle   3 NSaved=   3.
 NSaved= 3 IEnMin= 3 EnMin= -769.759196904805     IErMin= 3 ErrMin= 3.88D-03
 ErrMax= 3.88D-03  0.00D+00 EMaxC= 1.00D-01 BMatC= 1.54D-02 BMatP= 2.29D-02
 IDIUse=3 WtCom= 9.61D-01 WtEn= 3.88D-02
 Coeff-Com: -0.553D-01 0.472D+00 0.583D+00
 Coeff-En:   0.000D+00 0.000D+00 0.100D+01
 Coeff:     -0.531D-01 0.454D+00 0.600D+00
 Gap=     0.198 Goal=   None    Shift=    0.000
 RMSDP=6.80D-04 MaxDP=2.96D-02 DE=-1.99D-01 OVMax= 6.92D-02

 Cycle   4  Pass 1  IDiag  1:
 RMSU=  5.72D-04    CP:  9.63D-01  1.06D+00  6.73D-01
 E= -769.769391314231     Delta-E=       -0.010194409425 Rises=F Damp=F
 DIIS: error= 2.37D-03 at cycle   4 NSaved=   4.
 NSaved= 4 IEnMin= 4 EnMin= -769.769391314231     IErMin= 4 ErrMin= 2.37D-03
 ErrMax= 2.37D-03  0.00D+00 EMaxC= 1.00D-01 BMatC= 5.49D-03 BMatP= 1.54D-02
 IDIUse=3 WtCom= 9.76D-01 WtEn= 2.37D-02
 Coeff-Com: -0.260D-01 0.104D+00 0.390D+00 0.532D+00
 Coeff-En:   0.000D+00 0.000D+00 0.302D+00 0.698D+00
 Coeff:     -0.254D-01 0.102D+00 0.388D+00 0.536D+00
 Gap=     0.186 Goal=   None    Shift=    0.000
 RMSDP=3.13D-04 MaxDP=1.34D-02 DE=-1.02D-02 OVMax= 2.81D-02

 Cycle   5  Pass 1  IDiag  1:
 RMSU=  1.03D-04    CP:  9.63D-01  1.06D+00  7.70D-01  5.18D-01
 E= -769.775254016213     Delta-E=       -0.005862701982 Rises=F Damp=F
 DIIS: error= 2.91D-04 at cycle   5 NSaved=   5.
 NSaved= 5 IEnMin= 5 EnMin= -769.775254016213     IErMin= 5 ErrMin= 2.91D-04
 ErrMax= 2.91D-04  0.00D+00 EMaxC= 1.00D-01 BMatC= 1.14D-04 BMatP= 5.49D-03
 IDIUse=3 WtCom= 9.97D-01 WtEn= 2.91D-03
 Coeff-Com: -0.812D-02 0.209D-01 0.138D+00 0.232D+00 0.617D+00
 Coeff-En:   0.000D+00 0.000D+00 0.000D+00 0.000D+00 0.100D+01
 Coeff:     -0.809D-02 0.209D-01 0.137D+00 0.232D+00 0.618D+00
 Gap=     0.187 Goal=   None    Shift=    0.000
 RMSDP=4.75D-05 MaxDP=1.69D-03 DE=-5.86D-03 OVMax= 3.32D-03

 Cycle   6  Pass 1  IDiag  1:
 RMSU=  3.20D-05    CP:  9.63D-01  1.06D+00  7.74D-01  5.53D-01  7.26D-01
 E= -769.775352384120     Delta-E=       -0.000098367908 Rises=F Damp=F
 DIIS: error= 1.04D-04 at cycle   6 NSaved=   6.
 NSaved= 6 IEnMin= 6 EnMin= -769.775352384120     IErMin= 6 ErrMin= 1.04D-04
 ErrMax= 1.04D-04  0.00D+00 EMaxC= 1.00D-01 BMatC= 1.61D-05 BMatP= 1.14D-04
 IDIUse=3 WtCom= 9.99D-01 WtEn= 1.04D-03
 Coeff-Com: -0.244D-02 0.357D-02 0.438D-01 0.826D-01 0.334D+00 0.538D+00
 Coeff-En:   0.000D+00 0.000D+00 0.000D+00 0.000D+00 0.563D-01 0.944D+00
 Coeff:     -0.243D-02 0.356D-02 0.438D-01 0.826D-01 0.334D+00 0.539D+00
 Gap=     0.186 Goal=   None    Shift=    0.000
 RMSDP=1.38D-05 MaxDP=6.53D-04 DE=-9.84D-05 OVMax= 9.56D-04

 Cycle   7  Pass 1  IDiag  1:
 RMSU=  6.48D-06    CP:  9.63D-01  1.06D+00  7.75D-01  5.55D-01  7.63D-01
                    CP:  6.43D-01
 E= -769.775367870652     Delta-E=       -0.000015486532 Rises=F Damp=F
 DIIS: error= 2.33D-05 at cycle   7 NSaved=   7.
 NSaved= 7 IEnMin= 7 EnMin= -769.775367870652     IErMin= 7 ErrMin= 2.33D-05
 ErrMax= 2.33D-05  0.00D+00 EMaxC= 1.00D-01 BMatC= 4.72D-07 BMatP= 1.61D-05
 IDIUse=1 WtCom= 1.00D+00 WtEn= 0.00D+00
 Coeff-Com: -0.744D-03 0.741D-03 0.137D-01 0.261D-01 0.123D+00 0.237D+00
 Coeff-Com:  0.601D+00
 Coeff:     -0.744D-03 0.741D-03 0.137D-01 0.261D-01 0.123D+00 0.237D+00
 Coeff:      0.601D+00
 Gap=     0.186 Goal=   None    Shift=    0.000
 RMSDP=3.20D-06 MaxDP=1.11D-04 DE=-1.55D-05 OVMax= 2.66D-04

 Cycle   8  Pass 1  IDiag  1:
 RMSU=  2.39D-06    CP:  9.63D-01  1.06D+00  7.75D-01  5.55D-01  7.65D-01
                    CP:  6.62D-01  7.03D-01
 E= -769.775368271168     Delta-E=       -0.000000400516 Rises=F Damp=F
 DIIS: error= 1.02D-05 at cycle   8 NSaved=   8.
 NSaved= 8 IEnMin= 8 EnMin= -769.775368271168     IErMin= 8 ErrMin= 1.02D-05
 ErrMax= 1.02D-05  0.00D+00 EMaxC= 1.00D-01 BMatC= 9.89D-08 BMatP= 4.72D-07
 IDIUse=1 WtCom= 1.00D+00 WtEn= 0.00D+00
 Coeff-Com:  0.107D-04-0.239D-03 0.958D-04-0.520D-04 0.116D-01 0.377D-01
 Coeff-Com:  0.330D+00 0.620D+00
 Coeff:      0.107D-04-0.239D-03 0.958D-04-0.520D-04 0.116D-01 0.377D-01
 Coeff:      0.330D+00 0.620D+00
 Gap=     0.186 Goal=   None    Shift=    0.000
 RMSDP=1.16D-06 MaxDP=3.78D-05 DE=-4.01D-07 OVMax= 8.93D-05

 Cycle   9  Pass 1  IDiag  1:
 RMSU=  5.93D-07    CP:  9.63D-01  1.06D+00  7.75D-01  5.55D-01  7.68D-01
                    CP:  6.66D-01  7.93D-01  7.03D-01
 E= -769.775368373173     Delta-E=       -0.000000102005 Rises=F Damp=F
 DIIS: error= 1.82D-06 at cycle   9 NSaved=   9.
 NSaved= 9 IEnMin= 9 EnMin= -769.775368373173     IErMin= 9 ErrMin= 1.82D-06
 ErrMax= 1.82D-06  0.00D+00 EMaxC= 1.00D-01 BMatC= 3.39D-09 BMatP= 9.89D-08
 IDIUse=1 WtCom= 1.00D+00 WtEn= 0.00D+00
 Coeff-Com:  0.418D-04-0.133D-03-0.620D-03-0.148D-02-0.121D-02 0.302D-02
 Coeff-Com:  0.103D+00 0.247D+00 0.651D+00
 Coeff:      0.418D-04-0.133D-03-0.620D-03-0.148D-02-0.121D-02 0.302D-02
 Coeff:      0.103D+00 0.247D+00 0.651D+00
 Gap=     0.186 Goal=   None    Shift=    0.000
 RMSDP=2.55D-07 MaxDP=7.23D-06 DE=-1.02D-07 OVMax= 1.53D-05

 Cycle  10  Pass 1  IDiag  1:
 RMSU=  1.84D-07    CP:  9.63D-01  1.06D+00  7.75D-01  5.55D-01  7.69D-01
                    CP:  6.68D-01  8.00D-01  7.47D-01  8.48D-01
 E= -769.775368376160     Delta-E=       -0.000000002986 Rises=F Damp=F
 DIIS: error= 6.83D-07 at cycle  10 NSaved=  10.
 NSaved=10 IEnMin=10 EnMin= -769.775368376160     IErMin=10 ErrMin= 6.83D-07
 ErrMax= 6.83D-07  0.00D+00 EMaxC= 1.00D-01 BMatC= 5.67D-10 BMatP= 3.39D-09
 IDIUse=1 WtCom= 1.00D+00 WtEn= 0.00D+00
 Coeff-Com:  0.201D-04-0.411D-04-0.310D-03-0.789D-03-0.167D-02-0.231D-02
 Coeff-Com:  0.188D-01 0.629D-01 0.335D+00 0.589D+00
 Coeff:      0.201D-04-0.411D-04-0.310D-03-0.789D-03-0.167D-02-0.231D-02
 Coeff:      0.188D-01 0.629D-01 0.335D+00 0.589D+00
 Gap=     0.186 Goal=   None    Shift=    0.000
 RMSDP=8.38D-08 MaxDP=3.07D-06 DE=-2.99D-09 OVMax= 5.59D-06

 Cycle  11  Pass 1  IDiag  1:
 RMSU=  5.33D-08    CP:  9.63D-01  1.06D+00  7.75D-01  5.55D-01  7.69D-01
                    CP:  6.68D-01  8.04D-01  7.53D-01  8.98D-01  7.75D-01
 E= -769.775368376729     Delta-E=       -0.000000000569 Rises=F Damp=F
 DIIS: error= 1.45D-07 at cycle  11 NSaved=  11.
 NSaved=11 IEnMin=11 EnMin= -769.775368376729     IErMin=11 ErrMin= 1.45D-07
 ErrMax= 1.45D-07  0.00D+00 EMaxC= 1.00D-01 BMatC= 2.13D-11 BMatP= 5.67D-10
 IDIUse=1 WtCom= 1.00D+00 WtEn= 0.00D+00
 Coeff-Com:  0.341D-05-0.288D-05-0.461D-04-0.149D-03-0.408D-03-0.104D-02
 Coeff-Com: -0.272D-02-0.652D-03 0.510D-01 0.179D+00 0.775D+00
 Coeff:      0.341D-05-0.288D-05-0.461D-04-0.149D-03-0.408D-03-0.104D-02
 Coeff:     -0.272D-02-0.652D-03 0.510D-01 0.179D+00 0.775D+00
 Gap=     0.186 Goal=   None    Shift=    0.000
 RMSDP=2.50D-08 MaxDP=7.44D-07 DE=-5.69D-10 OVMax= 2.41D-06

 Cycle  12  Pass 1  IDiag  1:
 RMSU=  1.55D-08    CP:  9.63D-01  1.06D+00  7.75D-01  5.55D-01  7.69D-01
                    CP:  6.68D-01  8.04D-01  7.56D-01  9.16D-01  8.30D-01
                    CP:  9.20D-01
 E= -769.775368376759     Delta-E=       -0.000000000031 Rises=F Damp=F
 DIIS: error= 5.15D-08 at cycle  12 NSaved=  12.
 NSaved=12 IEnMin=12 EnMin= -769.775368376759     IErMin=12 ErrMin= 5.15D-08
 ErrMax= 5.15D-08  0.00D+00 EMaxC= 1.00D-01 BMatC= 3.72D-12 BMatP= 2.13D-11
 IDIUse=1 WtCom= 1.00D+00 WtEn= 0.00D+00
 Coeff-Com: -0.928D-08 0.209D-05 0.562D-05-0.624D-05-0.464D-04-0.314D-03
 Coeff-Com: -0.302D-02-0.580D-02-0.508D-02 0.331D-01 0.379D+00 0.602D+00
 Coeff:     -0.928D-08 0.209D-05 0.562D-05-0.624D-05-0.464D-04-0.314D-03
 Coeff:     -0.302D-02-0.580D-02-0.508D-02 0.331D-01 0.379D+00 0.602D+00
 Gap=     0.186 Goal=   None    Shift=    0.000
 RMSDP=7.99D-09 MaxDP=2.68D-07 DE=-3.09D-11 OVMax= 6.83D-07

 Error on total polarization charges =  0.01956
 SCF Done:  E(RB3LYP) =  -769.775368377     A.U. after   12 cycles
            NFock= 12  Conv=0.80D-08     -V/T= 2.0088
 KE= 7.630495891883D+02 PE=-4.634508330082D+03 EE= 1.667862664088D+03
 Leave Link  502 at Sun Jul 18 13:30:30 2021, MaxMem=   104857600 cpu:             381.7 elap:              95.5
 (Enter /prod/apps/gaussian/g16b1/l601.exe)
 Copying SCF densities to generalized density rwf, IOpCl= 0 IROHF=0.

 **********************************************************************

            Population analysis using the SCF Density.

 **********************************************************************

 Orbital symmetries:
       Occupied  (A) (A) (A) (A) (A) (A) (A) (A) (A) (A) (A) (A)
                 (A) (A) (A) (A) (A) (A) (A) (A) (A) (A) (A) (A)
                 (A) (A) (A) (A) (A) (A) (A) (A) (A) (A) (A) (A)
                 (A) (A) (A) (A) (A) (A) (A) (A) (A) (A) (A) (A)
                 (A) (A) (A) (A) (A) (A) (A) (A) (A) (A) (A) (A)
                 (A) (A) (A) (A) (A) (A) (A) (A)
       Virtual   (A) (A) (A) (A) (A) (A) (A) (A) (A) (A) (A) (A)
                 (A) (A) (A) (A) (A) (A) (A) (A) (A) (A) (A) (A)
                 (A) (A) (A) (A) (A) (A) (A) (A) (A) (A) (A) (A)
                 (A) (A) (A) (A) (A) (A) (A) (A) (A) (A) (A) (A)
                 (A) (A) (A) (A) (A) (A) (A) (A) (A) (A) (A) (A)
                 (A) (A) (A) (A) (A) (A) (A) (A) (A) (A) (A) (A)
                 (A) (A) (A) (A) (A) (A) (A) (A) (A) (A) (A) (A)
                 (A) (A) (A) (A) (A) (A) (A) (A) (A) (A) (A) (A)
                 (A) (A) (A) (A) (A) (A) (A) (A) (A) (A) (A) (A)
                 (A) (A) (A) (A) (A) (A) (A) (A) (A) (A) (A) (A)
                 (A) (A) (A) (A) (A) (A) (A) (A) (A) (A) (A) (A)
                 (A) (A) (A) (A) (A) (A) (A) (A) (A) (A) (A) (A)
                 (A) (A) (A) (A) (A) (A) (A) (A) (A) (A) (A) (A)
                 (A) (A) (A) (A) (A) (A) (A) (A) (A) (A) (A) (A)
                 (A) (A) (A) (A) (A) (A) (A) (A) (A) (A) (A) (A)
                 (A) (A) (A) (A) (A) (A) (A) (A) (A) (A) (A) (A)
                 (A) (A) (A) (A) (A) (A) (A) (A) (A) (A) (A) (A)
                 (A) (A) (A) (A) (A) (A) (A) (A) (A) (A) (A) (A)
                 (A) (A) (A) (A) (A) (A) (A) (A) (A) (A) (A) (A)
                 (A) (A) (A) (A) (A) (A) (A) (A) (A) (A) (A) (A)
                 (A) (A) (A) (A) (A) (A) (A) (A) (A) (A) (A) (A)
                 (A) (A) (A) (A) (A) (A) (A)
 The electronic state is 1-A.
 Alpha  occ. eigenvalues --  -14.44994 -14.33995 -10.25176 -10.22783 -10.22634
 Alpha  occ. eigenvalues --  -10.21622 -10.19847 -10.19319 -10.19107 -10.19068
 Alpha  occ. eigenvalues --  -10.18753 -10.18674 -10.18515 -10.18379 -10.18313
 Alpha  occ. eigenvalues --  -10.18179 -10.18141 -10.17559 -10.17451  -1.01999
 Alpha  occ. eigenvalues --   -0.96699  -0.86184  -0.84951  -0.80143  -0.79494
 Alpha  occ. eigenvalues --   -0.76188  -0.75247  -0.73095  -0.71753  -0.68894
 Alpha  occ. eigenvalues --   -0.64643  -0.63102  -0.61366  -0.60480  -0.59666
 Alpha  occ. eigenvalues --   -0.58734  -0.57997  -0.56013  -0.51709  -0.50913
 Alpha  occ. eigenvalues --   -0.50750  -0.48391  -0.48252  -0.47567  -0.46038
 Alpha  occ. eigenvalues --   -0.45319  -0.44383  -0.43575  -0.43192  -0.42023
 Alpha  occ. eigenvalues --   -0.41063  -0.39693  -0.38868  -0.38370  -0.37993
 Alpha  occ. eigenvalues --   -0.36964  -0.36527  -0.35964  -0.34877  -0.34367
 Alpha  occ. eigenvalues --   -0.34154  -0.32630  -0.31723  -0.27892  -0.24703
 Alpha  occ. eigenvalues --   -0.24519  -0.24006  -0.19842
 Alpha virt. eigenvalues --   -0.01202   0.00079   0.00328   0.00697   0.05033
 Alpha virt. eigenvalues --    0.08974   0.09144   0.10254   0.10556   0.10843
 Alpha virt. eigenvalues --    0.11994   0.12087   0.13619   0.14140   0.14732
 Alpha virt. eigenvalues --    0.15220   0.15621   0.16035   0.16509   0.16842
 Alpha virt. eigenvalues --    0.17715   0.17928   0.18253   0.19428   0.19872
 Alpha virt. eigenvalues --    0.20039   0.20562   0.22070   0.22774   0.24246
 Alpha virt. eigenvalues --    0.24532   0.25359   0.26154   0.28111   0.29051
 Alpha virt. eigenvalues --    0.30526   0.31679   0.33021   0.33401   0.35312
 Alpha virt. eigenvalues --    0.35928   0.37944   0.38834   0.42197   0.47302
 Alpha virt. eigenvalues --    0.48676   0.48914   0.49707   0.50447   0.51572
 Alpha virt. eigenvalues --    0.52341   0.52592   0.53751   0.54110   0.54195
 Alpha virt. eigenvalues --    0.54772   0.55193   0.56062   0.56385   0.57464
 Alpha virt. eigenvalues --    0.58591   0.59684   0.60399   0.60795   0.60864
 Alpha virt. eigenvalues --    0.61526   0.61848   0.62278   0.62927   0.63506
 Alpha virt. eigenvalues --    0.63960   0.64483   0.64963   0.65909   0.66650
 Alpha virt. eigenvalues --    0.68017   0.69863   0.70429   0.71082   0.72444
 Alpha virt. eigenvalues --    0.72628   0.74383   0.75608   0.76564   0.79143
 Alpha virt. eigenvalues --    0.80055   0.80343   0.82132   0.82951   0.83381
 Alpha virt. eigenvalues --    0.83631   0.84560   0.84623   0.85240   0.85342
 Alpha virt. eigenvalues --    0.86487   0.86542   0.87145   0.88146   0.89110
 Alpha virt. eigenvalues --    0.89330   0.90280   0.90974   0.91695   0.93045
 Alpha virt. eigenvalues --    0.93365   0.94615   0.95681   0.96135   0.97075
 Alpha virt. eigenvalues --    0.98160   0.98841   0.99546   1.01999   1.02569
 Alpha virt. eigenvalues --    1.03957   1.04267   1.06209   1.06304   1.08735
 Alpha virt. eigenvalues --    1.10583   1.11006   1.12965   1.14815   1.16427
 Alpha virt. eigenvalues --    1.18020   1.19335   1.21297   1.22710   1.23956
 Alpha virt. eigenvalues --    1.24326   1.25872   1.26563   1.27996   1.33490
 Alpha virt. eigenvalues --    1.34195   1.36016   1.37872   1.40486   1.41904
 Alpha virt. eigenvalues --    1.42624   1.45266   1.47409   1.48380   1.48969
 Alpha virt. eigenvalues --    1.49559   1.51085   1.54359   1.55653   1.56658
 Alpha virt. eigenvalues --    1.58036   1.63195   1.66620   1.68454   1.69298
 Alpha virt. eigenvalues --    1.70956   1.74256   1.75044   1.76873   1.77170
 Alpha virt. eigenvalues --    1.79046   1.80146   1.82190   1.83716   1.84663
 Alpha virt. eigenvalues --    1.86069   1.86506   1.88350   1.89779   1.91682
 Alpha virt. eigenvalues --    1.92217   1.92754   1.93070   1.93712   1.95426
 Alpha virt. eigenvalues --    1.97137   1.97854   1.98658   1.99603   2.01706
 Alpha virt. eigenvalues --    2.03565   2.04041   2.06697   2.08504   2.09455
 Alpha virt. eigenvalues --    2.11227   2.14614   2.15786   2.17271   2.17575
 Alpha virt. eigenvalues --    2.20118   2.20580   2.21217   2.22992   2.23745
 Alpha virt. eigenvalues --    2.26181   2.27667   2.28800   2.29796   2.31013
 Alpha virt. eigenvalues --    2.31922   2.33014   2.33726   2.35428   2.36079
 Alpha virt. eigenvalues --    2.37023   2.38497   2.40157   2.41894   2.42908
 Alpha virt. eigenvalues --    2.45513   2.47937   2.51662   2.56337   2.57957
 Alpha virt. eigenvalues --    2.60468   2.61968   2.62326   2.64332   2.64612
 Alpha virt. eigenvalues --    2.67083   2.67936   2.70122   2.70811   2.73274
 Alpha virt. eigenvalues --    2.76655   2.78076   2.78983   2.79917   2.82158
 Alpha virt. eigenvalues --    2.84981   2.85546   2.88500   2.91669   3.00066
 Alpha virt. eigenvalues --    3.04931   3.18402   3.21110   3.42749   3.45919
 Alpha virt. eigenvalues --    3.77467   4.09746   4.10610   4.11090   4.12961
 Alpha virt. eigenvalues --    4.13590   4.15436   4.20314   4.24560   4.30736
 Alpha virt. eigenvalues --    4.36010   4.38165   4.41991   4.42158   4.43880
 Alpha virt. eigenvalues --    4.49175   4.57248   4.76935   4.77868
          Condensed to atoms (all electrons):
               1          2          3          4          5          6
     1  N    6.696310   0.302879   0.302478   0.232625  -0.027645  -0.039382
     2  H    0.302879   0.274479  -0.010895  -0.021461  -0.002077   0.004026
     3  H    0.302478  -0.010895   0.269313  -0.020900   0.002796  -0.003052
     4  C    0.232625  -0.021461  -0.020900   5.031314   0.384953   0.387314
     5  H   -0.027645  -0.002077   0.002796   0.384953   0.470374  -0.022910
     6  H   -0.039382   0.004026  -0.003052   0.387314  -0.022910   0.497890
     7  C   -0.061110  -0.001841  -0.007767   0.339415  -0.027572  -0.038134
     8  H   -0.003106   0.003970  -0.000041  -0.035346  -0.003173   0.004601
     9  H    0.004612  -0.000054   0.000199  -0.035789  -0.001774  -0.004055
    10  C   -0.004635  -0.000624   0.005650  -0.035629   0.002883  -0.003184
    11  H   -0.000570   0.000078   0.000294   0.002120  -0.000058   0.004979
    12  H    0.003738   0.000096   0.007390  -0.009674  -0.000020  -0.000231
    13  N    0.000042  -0.000029  -0.000153   0.003875  -0.000067  -0.000031
    14  C   -0.000028   0.000007  -0.000040  -0.000010   0.000000   0.000004
    15  C    0.000002   0.000000  -0.000016   0.000004   0.000000   0.000001
    16  H   -0.000000  -0.000000   0.000004  -0.000000  -0.000000  -0.000000
    17  C    0.000000  -0.000000  -0.000000  -0.000000   0.000000  -0.000000
    18  H   -0.000000  -0.000000  -0.000000   0.000000  -0.000000   0.000000
    19  C   -0.000000  -0.000000   0.000000   0.000000  -0.000000   0.000000
    20  H   -0.000000   0.000000   0.000000  -0.000000   0.000000   0.000000
    21  C    0.000000  -0.000000   0.000000   0.000000   0.000000  -0.000000
    22  H    0.000000  -0.000000  -0.000000  -0.000000  -0.000000  -0.000000
    23  C    0.000000   0.000001  -0.000002  -0.000020   0.000000  -0.000000
    24  C    0.000000  -0.000002   0.000000   0.000019  -0.000000  -0.000000
    25  H   -0.000000   0.000000  -0.000000   0.000000  -0.000000   0.000000
    26  H   -0.000002   0.000007   0.000000   0.000009  -0.000001   0.000001
    27  C    0.000000  -0.000000  -0.000000  -0.000002   0.000000  -0.000000
    28  H   -0.000000   0.000000   0.000000   0.000000   0.000000  -0.000000
    29  H    0.000000  -0.000000  -0.000000   0.000000  -0.000000   0.000000
    30  C   -0.000000   0.000000  -0.000000  -0.000015   0.000000  -0.000001
    31  C   -0.000000   0.000000   0.000000   0.000001  -0.000000   0.000000
    32  H    0.000000  -0.000000  -0.000000  -0.000000  -0.000000  -0.000000
    33  C    0.000000  -0.000000   0.000000   0.000000  -0.000000  -0.000000
    34  H   -0.000000   0.000000   0.000000  -0.000000   0.000000   0.000000
    35  C   -0.000000   0.000000   0.000000  -0.000001   0.000000   0.000000
    36  H   -0.000000  -0.000000  -0.000000   0.000000  -0.000000   0.000000
    37  C   -0.000001  -0.000000   0.000000  -0.000019   0.000001  -0.000003
    38  H    0.000000  -0.000000  -0.000000  -0.000016  -0.000000  -0.000011
    39  C    0.000001  -0.000001   0.000005  -0.000045   0.000003  -0.000009
    40  H    0.304911  -0.010423  -0.010277  -0.018663  -0.001940  -0.002428
               7          8          9         10         11         12
     1  N   -0.061110  -0.003106   0.004612  -0.004635  -0.000570   0.003738
     2  H   -0.001841   0.003970  -0.000054  -0.000624   0.000078   0.000096
     3  H   -0.007767  -0.000041   0.000199   0.005650   0.000294   0.007390
     4  C    0.339415  -0.035346  -0.035789  -0.035629   0.002120  -0.009674
     5  H   -0.027572  -0.003173  -0.001774   0.002883  -0.000058  -0.000020
     6  H   -0.038134   0.004601  -0.004055  -0.003184   0.004979  -0.000231
     7  C    5.146547   0.370199   0.372003   0.360125  -0.053155  -0.051685
     8  H    0.370199   0.526120  -0.027011  -0.027379   0.004386  -0.002591
     9  H    0.372003  -0.027011   0.555763  -0.040258  -0.008605   0.006771
    10  C    0.360125  -0.027379  -0.040258   4.920472   0.378446   0.372865
    11  H   -0.053155   0.004386  -0.008605   0.378446   0.581092  -0.030313
    12  H   -0.051685  -0.002591   0.006771   0.372865  -0.030313   0.561451
    13  N   -0.049141   0.000650  -0.005649   0.302987  -0.054877  -0.031966
    14  C   -0.000780   0.000584  -0.000054  -0.038661   0.002382   0.006366
    15  C    0.000257   0.000045  -0.000028  -0.012947   0.001737   0.001282
    16  H    0.000031  -0.000001   0.000001   0.004170  -0.000378   0.000816
    17  C    0.000009  -0.000000   0.000000   0.000027  -0.000046  -0.000096
    18  H   -0.000000  -0.000000  -0.000000  -0.000003   0.000001   0.000004
    19  C   -0.000001   0.000000  -0.000000   0.000006   0.000002  -0.000009
    20  H   -0.000000   0.000000   0.000000   0.000000   0.000000  -0.000000
    21  C   -0.000002   0.000002  -0.000000  -0.000122   0.000006  -0.000086
    22  H    0.000000  -0.000000   0.000000   0.000003  -0.000000   0.000000
[...]
     23          6           0       -2.047872    0.734509    0.636923
     24          6           0       -1.874428   -0.243024    1.760595
     25          1           0       -2.703799   -0.142062    2.465107
     26          1           0       -0.950093   -0.024167    2.307721
     27          6           0       -1.838974   -1.684399    1.250895
     28          1           0       -2.775418   -1.876387    0.711569
     29          1           0       -1.847912   -2.366098    2.108626
     30          6           0       -0.670253   -2.080057    0.364698
     31          6           0       -0.528497   -3.457780    0.145269
     32          1           0       -1.255415   -4.114520    0.614735
     33          6           0        0.498691   -4.005901   -0.617008
     34          1           0        0.573648   -5.079833   -0.750699
     35          6           0        1.430680   -3.142883   -1.190107
     36          1           0        2.247867   -3.527969   -1.790856
     37          6           0        1.310887   -1.770227   -1.001042
     38          1           0        2.035613   -1.120787   -1.473333
     39          6           0        0.271308   -1.205379   -0.233205
     40          1           0        4.641024    3.340687    0.518597
 ---------------------------------------------------------------------
 Rotational constants (GHZ):           0.3844683           0.3583795           0.2194608
 Leave Link  202 at Sun Jul 18 14:30:46 2021, MaxMem=   262144000 cpu:               0.0 elap:               0.0
 (Enter /prod/apps/gaussian/g16b1/l301.exe)
 Standard basis: Aug-CC-pVDZ (5D, 7F)
 Ernie: Thresh=  0.10000D-02 Tol=  0.10000D-05 Strict=F.
 Ernie:  38 primitive shells out of 622 were deleted.
 There are   664 symmetry adapted cartesian basis functions of A   symmetry.
 There are   626 symmetry adapted basis functions of A   symmetry.
   626 basis functions,  1048 primitive gaussians,   664 cartesian basis functions
    68 alpha electrons       68 beta electrons
       nuclear repulsion energy      1419.6252453691 Hartrees.
 IExCor=    0 DFT=F Ex=HF Corr=None ExCW=0 ScaHFX=  1.000000
 ScaDFX=  1.000000  1.000000  1.000000  1.000000 ScalE2=  1.000000  1.000000
 IRadAn=      5 IRanWt=     -1 IRanGd=            0 ICorTp=0 IEmpDi=  4
 NAtoms=   40 NActive=   40 NUniq=   40 SFac= 1.00D+00 NAtFMM=   60 NAOKFM=F Big=F
 Integral buffers will be    131072 words long.
 Raffenetti 1 integral format.
 Two-electron integral symmetry is turned on.
 Leave Link  301 at Sun Jul 18 14:30:46 2021, MaxMem=   262144000 cpu:               0.3 elap:               0.1
 (Enter /prod/apps/gaussian/g16b1/l302.exe)
 NPDir=0 NMtPBC=     1 NCelOv=     1 NCel=       1 NClECP=     1 NCelD=      1
         NCelK=      1 NCelE2=     1 NClLst=     1 CellRange=     0.0.
 One-electron integrals computed using PRISM.
 One-electron integral symmetry used in STVInt
 NBasis=   626 RedAO= T EigKep=  1.03D-06  NBF=   626
 NBsUse=   625 1.00D-06 EigRej=  8.08D-07 NBFU=   625
 Leave Link  302 at Sun Jul 18 14:30:47 2021, MaxMem=   262144000 cpu:               2.2 elap:               0.6
 (Enter /prod/apps/gaussian/g16b1/l303.exe)
 DipDrv:  MaxL=1.
 Leave Link  303 at Sun Jul 18 14:30:47 2021, MaxMem=   262144000 cpu:               0.5 elap:               0.2
 (Enter /prod/apps/gaussian/g16b1/l401.exe)
 ExpMin= 2.97D-02 ExpMax= 9.05D+03 ExpMxC= 3.09D+02 IAcc=3 IRadAn=         5 AccDes= 0.00D+00
 Harris functional with IExCor=  205 and IRadAn=       5 diagonalized for initial guess.
 HarFok:  IExCor=  205 AccDes= 0.00D+00 IRadAn=         5 IDoV= 1 UseB2=F ITyADJ=14
 ICtDFT=  3500011 ScaDFX=  1.000000  1.000000  1.000000  1.000000
 FoFCou: FMM=F IPFlag=           0 FMFlag=      100000 FMFlg1=           0
         NFxFlg=           0 DoJE=T BraDBF=F KetDBF=T FulRan=T
         wScrn=  0.000000 ICntrl=       500 IOpCl=  0 I1Cent=   200000004 NGrid=           0
         NMat0=    1 NMatS0=      1 NMatT0=    0 NMatD0=    1 NMtDS0=    0 NMtDT0=    0
 Petite list used in FoFCou.
 Harris En= -765.966692269416    
 JPrj=0 DoOrth=F DoCkMO=F.
 Leave Link  401 at Sun Jul 18 14:30:53 2021, MaxMem=   262144000 cpu:              21.3 elap:               5.3
 (Enter /prod/apps/gaussian/g16b1/l502.exe)
 Integral symmetry usage will be decided dynamically.
 Closed shell SCF:
 Using DIIS extrapolation, IDIIS=  1040.
 NGot=   262144000 LenX=   261251932 LenY=   260810372
 Requested convergence on RMS density matrix=1.00D-08 within 128 cycles.
 Requested convergence on MAX density matrix=1.00D-06.
 Requested convergence on             energy=1.00D-06.
 No special actions if energy rises.
 Fock matrices will be formed incrementally for  20 cycles.

 Cycle   1  Pass 1  IDiag  1:
 FoFJK:  IHMeth= 1 ICntrl=       0 DoSepK=F KAlg= 0 I1Cent=           0 FoldK=F
 IRaf= 950000000 NMat=       1 IRICut=       1 DoRegI=T DoRafI=F ISym2E= 0 IDoP0=0 IntGTp=1.
 FoFCou: FMM=F IPFlag=           0 FMFlag=      100000 FMFlg1=           0
         NFxFlg=           0 DoJE=F BraDBF=F KetDBF=F FulRan=T
         wScrn=  0.000000 ICntrl=         0 IOpCl=  0 I1Cent=           0 NGrid=           0
         NMat0=    1 NMatS0=      1 NMatT0=    0 NMatD0=    1 NMtDS0=    0 NMtDT0=    0
 Symmetry not used in FoFCou.
 E= -764.008121276719    
 DIIS: error= 1.32D-02 at cycle   1 NSaved=   1.
 NSaved= 1 IEnMin= 1 EnMin= -764.008121276719     IErMin= 1 ErrMin= 1.32D-02
 ErrMax= 1.32D-02  0.00D+00 EMaxC= 1.00D-01 BMatC= 8.70D-01 BMatP= 8.70D-01
 IDIUse=3 WtCom= 8.68D-01 WtEn= 1.32D-01
 Coeff-Com:  0.100D+01
 Coeff-En:   0.100D+01
 Coeff:      0.100D+01
 Gap=     0.487 Goal=   None    Shift=    0.000
 GapD=    0.487 DampG=2.000 DampE=0.500 DampFc=1.0000 IDamp=-1.
 RMSDP=9.58D-02 MaxDP=1.23D+01              OVMax= 1.73D-01

 Cycle   2  Pass 1  IDiag  1:
 RMSU=  2.62D-02    CP:  4.36D-01
 E= -764.634853768330     Delta-E=       -0.626732491611 Rises=F Damp=F
 DIIS: error= 7.62D-03 at cycle   2 NSaved=   2.
 NSaved= 2 IEnMin= 2 EnMin= -764.634853768330     IErMin= 2 ErrMin= 7.62D-03
 ErrMax= 7.62D-03  0.00D+00 EMaxC= 1.00D-01 BMatC= 1.07D-01 BMatP= 8.70D-01
 IDIUse=3 WtCom= 9.24D-01 WtEn= 7.62D-02
 Coeff-Com:  0.195D+00 0.805D+00
 Coeff-En:   0.000D+00 0.100D+01
 Coeff:      0.180D+00 0.820D+00
 Gap=     0.282 Goal=   None    Shift=    0.000
 RMSDP=6.59D-03 MaxDP=4.89D-01 DE=-6.27D-01 OVMax= 5.84D-02

 Cycle   3  Pass 1  IDiag  1:
 RMSU=  6.47D-03    CP:  4.37D-01  9.53D-01
 E= -764.733848315963     Delta-E=       -0.098994547634 Rises=F Damp=F
 DIIS: error= 1.56D-03 at cycle   3 NSaved=   3.
 NSaved= 3 IEnMin= 3 EnMin= -764.733848315963     IErMin= 3 ErrMin= 1.56D-03
 ErrMax= 1.56D-03  0.00D+00 EMaxC= 1.00D-01 BMatC= 9.20D-03 BMatP= 1.07D-01
 IDIUse=3 WtCom= 9.84D-01 WtEn= 1.56D-02
 Coeff-Com: -0.159D-01 0.180D+00 0.836D+00
 Coeff-En:   0.000D+00 0.000D+00 0.100D+01
 Coeff:     -0.156D-01 0.177D+00 0.839D+00
 Gap=     0.279 Goal=   None    Shift=    0.000
 RMSDP=2.60D-03 MaxDP=2.54D-01 DE=-9.90D-02 OVMax= 3.75D-02

 Cycle   4  Pass 1  IDiag  1:
 RMSU=  1.34D-03    CP:  4.26D-01  9.65D-01  8.15D-01
 E= -764.743085322128     Delta-E=       -0.009237006165 Rises=F Damp=F
 DIIS: error= 7.06D-04 at cycle   4 NSaved=   4.
 NSaved= 4 IEnMin= 4 EnMin= -764.743085322128     IErMin= 4 ErrMin= 7.06D-04
 ErrMax= 7.06D-04  0.00D+00 EMaxC= 1.00D-01 BMatC= 1.22D-03 BMatP= 9.20D-03
 IDIUse=3 WtCom= 9.93D-01 WtEn= 7.06D-03
 Coeff-Com: -0.151D-01 0.228D-01 0.303D+00 0.689D+00
 Coeff-En:   0.000D+00 0.000D+00 0.000D+00 0.100D+01
 Coeff:     -0.150D-01 0.227D-01 0.301D+00 0.691D+00
 Gap=     0.268 Goal=   None    Shift=    0.000
 RMSDP=5.58D-04 MaxDP=6.94D-02 DE=-9.24D-03 OVMax= 7.05D-03

 Cycle   5  Pass 1  IDiag  1:
 RMSU=  3.92D-04    CP:  4.23D-01  9.63D-01  8.19D-01  8.85D-01
 E= -764.744363113098     Delta-E=       -0.001277790970 Rises=F Damp=F
 DIIS: error= 1.92D-04 at cycle   5 NSaved=   5.
 NSaved= 5 IEnMin= 5 EnMin= -764.744363113098     IErMin= 5 ErrMin= 1.92D-04
 ErrMax= 1.92D-04  0.00D+00 EMaxC= 1.00D-01 BMatC= 6.09D-05 BMatP= 1.22D-03
 IDIUse=3 WtCom= 9.98D-01 WtEn= 1.92D-03
 Coeff-Com:  0.816D-04-0.173D-01-0.543D-01 0.617D-01 0.101D+01
 Coeff-En:   0.000D+00 0.000D+00 0.000D+00 0.000D+00 0.100D+01
 Coeff:      0.814D-04-0.172D-01-0.542D-01 0.615D-01 0.101D+01
 Gap=     0.271 Goal=   None    Shift=    0.000
 RMSDP=2.23D-04 MaxDP=2.42D-02 DE=-1.28D-03 OVMax= 6.13D-03

 Cycle   6  Pass 1  IDiag  1:
 RMSU=  1.31D-04    CP:  4.23D-01  9.64D-01  8.31D-01  9.80D-01  9.70D-01
 E= -764.744497188441     Delta-E=       -0.000134075343 Rises=F Damp=F
 DIIS: error= 6.42D-05 at cycle   6 NSaved=   6.
 NSaved= 6 IEnMin= 6 EnMin= -764.744497188441     IErMin= 6 ErrMin= 6.42D-05
 ErrMax= 6.42D-05  0.00D+00 EMaxC= 1.00D-01 BMatC= 1.19D-05 BMatP= 6.09D-05
 IDIUse=1 WtCom= 1.00D+00 WtEn= 0.00D+00
 Coeff-Com:  0.144D-02-0.686D-02-0.394D-01-0.672D-01 0.244D+00 0.868D+00
 Coeff:      0.144D-02-0.686D-02-0.394D-01-0.672D-01 0.244D+00 0.868D+00
 Gap=     0.271 Goal=   None    Shift=    0.000
 RMSDP=7.11D-05 MaxDP=4.41D-03 DE=-1.34D-04 OVMax= 1.60D-03

 Cycle   7  Pass 1  IDiag  1:
 RMSU=  5.08D-05    CP:  4.23D-01  9.64D-01  8.30D-01  9.75D-01  1.06D+00
                    CP:  9.69D-01
 E= -764.744517829353     Delta-E=       -0.000020640912 Rises=F Damp=F
 DIIS: error= 2.19D-05 at cycle   7 NSaved=   7.
 NSaved= 7 IEnMin= 7 EnMin= -764.744517829353     IErMin= 7 ErrMin= 2.19D-05
 ErrMax= 2.19D-05  0.00D+00 EMaxC= 1.00D-01 BMatC= 1.41D-06 BMatP= 1.19D-05
 IDIUse=1 WtCom= 1.00D+00 WtEn= 0.00D+00
 Coeff-Com:  0.295D-03 0.564D-03-0.536D-03-0.290D-01-0.684D-01 0.166D+00
 Coeff-Com:  0.931D+00
 Coeff:      0.295D-03 0.564D-03-0.536D-03-0.290D-01-0.684D-01 0.166D+00
 Coeff:      0.931D+00
 Gap=     0.271 Goal=   None    Shift=    0.000
 RMSDP=2.23D-05 MaxDP=1.68D-03 DE=-2.06D-05 OVMax= 1.06D-03

 Cycle   8  Pass 1  IDiag  1:
 RMSU=  1.67D-05    CP:  4.23D-01  9.64D-01  8.30D-01  9.79D-01  1.07D+00
                    CP:  1.05D+00  1.04D+00
 E= -764.744521336935     Delta-E=       -0.000003507582 Rises=F Damp=F
 DIIS: error= 8.80D-06 at cycle   8 NSaved=   8.
 NSaved= 8 IEnMin= 8 EnMin= -764.744521336935     IErMin= 8 ErrMin= 8.80D-06
 ErrMax= 8.80D-06  0.00D+00 EMaxC= 1.00D-01 BMatC= 2.18D-07 BMatP= 1.41D-06
 IDIUse=1 WtCom= 1.00D+00 WtEn= 0.00D+00
 Coeff-Com: -0.215D-03 0.925D-03 0.638D-02 0.898D-02-0.222D-01-0.145D+00
 Coeff-Com: -0.644D-01 0.122D+01
 Coeff:     -0.215D-03 0.925D-03 0.638D-02 0.898D-02-0.222D-01-0.145D+00
 Coeff:     -0.644D-01 0.122D+01
 Gap=     0.272 Goal=   None    Shift=    0.000
 RMSDP=1.30D-05 MaxDP=7.51D-04 DE=-3.51D-06 OVMax= 5.80D-04

 Cycle   9  Pass 1  IDiag  1:
 RMSU=  8.70D-06    CP:  4.23D-01  9.64D-01  8.31D-01  9.77D-01  1.07D+00
                    CP:  1.05D+00  1.16D+00  1.37D+00
 E= -764.744522167641     Delta-E=       -0.000000830706 Rises=F Damp=F
 DIIS: error= 5.31D-06 at cycle   9 NSaved=   9.
 NSaved= 9 IEnMin= 9 EnMin= -764.744522167641     IErMin= 9 ErrMin= 5.31D-06
 ErrMax= 5.31D-06  0.00D+00 EMaxC= 1.00D-01 BMatC= 4.16D-08 BMatP= 2.18D-07
 IDIUse=1 WtCom= 1.00D+00 WtEn= 0.00D+00
 Coeff-Com: -0.941D-04 0.151D-03 0.175D-02 0.573D-02 0.570D-02-0.568D-01
 Coeff-Com: -0.154D+00 0.274D+00 0.925D+00
 Coeff:     -0.941D-04 0.151D-03 0.175D-02 0.573D-02 0.570D-02-0.568D-01
 Coeff:     -0.154D+00 0.274D+00 0.925D+00
 Gap=     0.272 Goal=   None    Shift=    0.000
 RMSDP=4.90D-06 MaxDP=3.05D-04 DE=-8.31D-07 OVMax= 2.19D-04

 Cycle  10  Pass 1  IDiag  1:
 RMSU=  2.62D-06    CP:  4.23D-01  9.64D-01  8.31D-01  9.77D-01  1.07D+00
                    CP:  1.05D+00  1.19D+00  1.55D+00  1.24D+00
 E= -764.744522326263     Delta-E=       -0.000000158622 Rises=F Damp=F
 DIIS: error= 2.01D-06 at cycle  10 NSaved=  10.
 NSaved=10 IEnMin=10 EnMin= -764.744522326263     IErMin=10 ErrMin= 2.01D-06
 ErrMax= 2.01D-06  0.00D+00 EMaxC= 1.00D-01 BMatC= 8.93D-09 BMatP= 4.16D-08
 IDIUse=1 WtCom= 1.00D+00 WtEn= 0.00D+00
 Coeff-Com:  0.585D-04-0.228D-03-0.161D-02-0.318D-02 0.376D-02 0.436D-01
 Coeff-Com:  0.357D-01-0.323D+00-0.107D+00 0.135D+01
 Coeff:      0.585D-04-0.228D-03-0.161D-02-0.318D-02 0.376D-02 0.436D-01
 Coeff:      0.357D-01-0.323D+00-0.107D+00 0.135D+01
 Gap=     0.272 Goal=   None    Shift=    0.000
 RMSDP=3.73D-06 MaxDP=2.31D-04 DE=-1.59D-07 OVMax= 1.27D-04

 Cycle  11  Pass 1  IDiag  1:
 RMSU=  1.72D-06    CP:  4.23D-01  9.64D-01  8.31D-01  9.77D-01  1.07D+00
                    CP:  1.05D+00  1.20D+00  1.64D+00  1.54D+00  1.46D+00
 E= -764.744522378479     Delta-E=       -0.000000052216 Rises=F Damp=F
 DIIS: error= 8.83D-07 at cycle  11 NSaved=  11.
 NSaved=11 IEnMin=11 EnMin= -764.744522378479     IErMin=11 ErrMin= 8.83D-07
 ErrMax= 8.83D-07  0.00D+00 EMaxC= 1.00D-01 BMatC= 1.45D-09 BMatP= 8.93D-09
 IDIUse=1 WtCom= 1.00D+00 WtEn= 0.00D+00
 Coeff-Com:  0.251D-04-0.567D-04-0.493D-03-0.150D-02-0.105D-02 0.168D-01
 Coeff-Com:  0.352D-01-0.873D-01-0.196D+00 0.958D-01 0.114D+01
 Coeff:      0.251D-04-0.567D-04-0.493D-03-0.150D-02-0.105D-02 0.168D-01
 Coeff:      0.352D-01-0.873D-01-0.196D+00 0.958D-01 0.114D+01
 Gap=     0.272 Goal=   None    Shift=    0.000
 RMSDP=1.46D-06 MaxDP=5.29D-05 DE=-5.22D-08 OVMax= 5.50D-05

 Cycle  12  Pass 1  IDiag  1:
 RMSU=  5.48D-07    CP:  4.23D-01  9.64D-01  8.31D-01  9.77D-01  1.07D+00
                    CP:  1.06D+00  1.21D+00  1.67D+00  1.61D+00  1.71D+00
                    CP:  1.41D+00
 E= -764.744522386314     Delta-E=       -0.000000007835 Rises=F Damp=F
 DIIS: error= 2.38D-07 at cycle  12 NSaved=  12.
 NSaved=12 IEnMin=12 EnMin= -764.744522386314     IErMin=12 ErrMin= 2.38D-07
 ErrMax= 2.38D-07  0.00D+00 EMaxC= 1.00D-01 BMatC= 1.61D-10 BMatP= 1.45D-09
 IDIUse=1 WtCom= 1.00D+00 WtEn= 0.00D+00
 Coeff-Com: -0.597D-05 0.250D-04 0.185D-03 0.387D-03-0.713D-03-0.486D-02
 Coeff-Com: -0.340D-02 0.417D-01 0.479D-02-0.192D+00 0.545D-01 0.110D+01
 Coeff:     -0.597D-05 0.250D-04 0.185D-03 0.387D-03-0.713D-03-0.486D-02
 Coeff:     -0.340D-02 0.417D-01 0.479D-02-0.192D+00 0.545D-01 0.110D+01
 Gap=     0.272 Goal=   None    Shift=    0.000
 RMSDP=5.14D-07 MaxDP=4.21D-05 DE=-7.84D-09 OVMax= 1.51D-05

 Cycle  13  Pass 1  IDiag  1:
 RMSU=  2.23D-07    CP:  4.23D-01  9.64D-01  8.31D-01  9.77D-01  1.07D+00
                    CP:  1.06D+00  1.21D+00  1.68D+00  1.63D+00  1.74D+00
                    CP:  1.55D+00  1.31D+00
 E= -764.744522386973     Delta-E=       -0.000000000659 Rises=F Damp=F
 DIIS: error= 6.94D-08 at cycle  13 NSaved=  13.
 NSaved=13 IEnMin=13 EnMin= -764.744522386973     IErMin=13 ErrMin= 6.94D-08
 ErrMax= 6.94D-08  0.00D+00 EMaxC= 1.00D-01 BMatC= 1.58D-11 BMatP= 1.61D-10
 IDIUse=1 WtCom= 1.00D+00 WtEn= 0.00D+00
 Coeff-Com: -0.313D-05 0.831D-05 0.670D-04 0.208D-03 0.959D-05-0.208D-02
 Coeff-Com: -0.427D-02 0.128D-01 0.221D-01-0.221D-01-0.124D+00 0.963D-01
 Coeff-Com:  0.102D+01
 Coeff:     -0.313D-05 0.831D-05 0.670D-04 0.208D-03 0.959D-05-0.208D-02
 Coeff:     -0.427D-02 0.128D-01 0.221D-01-0.221D-01-0.124D+00 0.963D-01
 Coeff:      0.102D+01
 Gap=     0.272 Goal=   None    Shift=    0.000
 RMSDP=1.30D-07 MaxDP=1.27D-05 DE=-6.59D-10 OVMax= 2.87D-06

 Cycle  14  Pass 1  IDiag  1:
 RMSU=  7.34D-08    CP:  4.23D-01  9.64D-01  8.31D-01  9.77D-01  1.07D+00
                    CP:  1.06D+00  1.21D+00  1.68D+00  1.63D+00  1.74D+00
                    CP:  1.57D+00  1.40D+00  1.17D+00
 E= -764.744522387009     Delta-E=       -0.000000000036 Rises=F Damp=F
 DIIS: error= 2.09D-08 at cycle  14 NSaved=  14.
 NSaved=14 IEnMin=14 EnMin= -764.744522387009     IErMin=14 ErrMin= 2.09D-08
 ErrMax= 2.09D-08  0.00D+00 EMaxC= 1.00D-01 BMatC= 1.78D-12 BMatP= 1.58D-11
 IDIUse=1 WtCom= 1.00D+00 WtEn= 0.00D+00
 Coeff-Com:  0.349D-06-0.174D-05-0.143D-04-0.203D-04 0.575D-04 0.391D-03
 Coeff-Com: -0.336D-04-0.336D-02 0.786D-03 0.172D-01-0.160D-01-0.101D+00
 Coeff-Com:  0.549D-01 0.105D+01
 Coeff:      0.349D-06-0.174D-05-0.143D-04-0.203D-04 0.575D-04 0.391D-03
 Coeff:     -0.336D-04-0.336D-02 0.786D-03 0.172D-01-0.160D-01-0.101D+00
 Coeff:      0.549D-01 0.105D+01
 Gap=     0.272 Goal=   None    Shift=    0.000
 RMSDP=3.92D-08 MaxDP=2.00D-06 DE=-3.59D-11 OVMax= 1.06D-06

 Cycle  15  Pass 1  IDiag  1:
 RMSU=  2.36D-08    CP:  4.23D-01  9.64D-01  8.31D-01  9.77D-01  1.07D+00
                    CP:  1.06D+00  1.21D+00  1.69D+00  1.63D+00  1.74D+00
                    CP:  1.57D+00  1.42D+00  1.25D+00  1.16D+00
 E= -764.744522387081     Delta-E=       -0.000000000072 Rises=F Damp=F
 DIIS: error= 9.57D-09 at cycle  15 NSaved=  15.
 NSaved=15 IEnMin=15 EnMin= -764.744522387081     IErMin=15 ErrMin= 9.57D-09
 ErrMax= 9.57D-09  0.00D+00 EMaxC= 1.00D-01 BMatC= 2.55D-13 BMatP= 1.78D-12
 IDIUse=1 WtCom= 1.00D+00 WtEn= 0.00D+00
 Coeff-Com:  0.416D-06-0.118D-05-0.102D-04-0.284D-04 0.133D-05 0.326D-03
 Coeff-Com:  0.518D-03-0.204D-02-0.263D-02 0.528D-02 0.136D-01-0.234D-01
 Coeff-Com: -0.122D+00 0.134D+00 0.997D+00
 Coeff:      0.416D-06-0.118D-05-0.102D-04-0.284D-04 0.133D-05 0.326D-03
 Coeff:      0.518D-03-0.204D-02-0.263D-02 0.528D-02 0.136D-01-0.234D-01
 Coeff:     -0.122D+00 0.134D+00 0.997D+00
 Gap=     0.272 Goal=   None    Shift=    0.000
 RMSDP=1.39D-08 MaxDP=1.18D-06 DE=-7.19D-11 OVMax= 3.96D-07

 Cycle  16  Pass 1  IDiag  1:
 RMSU=  8.12D-09    CP:  4.23D-01  9.64D-01  8.31D-01  9.77D-01  1.07D+00
                    CP:  1.06D+00  1.21D+00  1.68D+00  1.63D+00  1.74D+00
                    CP:  1.57D+00  1.42D+00  1.25D+00  1.24D+00  1.25D+00
 E= -764.744522387013     Delta-E=        0.000000000068 Rises=F Damp=F
 DIIS: error= 5.85D-09 at cycle  16 NSaved=  16.
 NSaved=16 IEnMin=15 EnMin= -764.744522387081     IErMin=16 ErrMin= 5.85D-09
 ErrMax= 5.85D-09  0.00D+00 EMaxC= 1.00D-01 BMatC= 4.36D-14 BMatP= 2.55D-13
 IDIUse=1 WtCom= 1.00D+00 WtEn= 0.00D+00
 Coeff-Com: -0.241D-07 0.181D-06 0.135D-05 0.102D-05-0.767D-05-0.298D-04
 Coeff-Com:  0.223D-04 0.321D-03-0.179D-03-0.176D-02 0.226D-02 0.119D-01
 Coeff-Com: -0.120D-01-0.135D+00 0.463D-01 0.109D+01
 Coeff:     -0.241D-07 0.181D-06 0.135D-05 0.102D-05-0.767D-05-0.298D-04
 Coeff:      0.223D-04 0.321D-03-0.179D-03-0.176D-02 0.226D-02 0.119D-01
 Coeff:     -0.120D-01-0.135D+00 0.463D-01 0.109D+01
 Gap=     0.272 Goal=   None    Shift=    0.000
 RMSDP=5.49D-09 MaxDP=4.32D-07 DE= 6.78D-11 OVMax= 2.45D-07

 SCF Done:  E(RHF) =  -764.744522387     A.U. after   16 cycles
            NFock= 16  Conv=0.55D-08     -V/T= 2.0010
 KE= 7.639491966962D+02 PE=-4.604393292131D+03 EE= 1.656074327679D+03
 Leave Link  502 at Sun Jul 18 14:53:52 2021, MaxMem=   262144000 cpu:            5517.8 elap:            1379.6
 (Enter /prod/apps/gaussian/g16b1/l801.exe)
 ExpMin= 2.97D-02 ExpMax= 9.05D+03 ExpMxC= 3.09D+02 IAcc=3 IRadAn=         5 AccDes= 0.00D+00
 HarFok:  IExCor=  205 AccDes= 0.00D+00 IRadAn=         5 IDoV=-2 UseB2=F ITyADJ=14
 ICtDFT= 12500011 ScaDFX=  1.000000  1.000000  1.000000  1.000000
 Largest valence mixing into a core orbital is  1.14D-04
 Largest core mixing into a valence orbital is  3.99D-05
 Range of M.O.s used for correlation:    20   625
 NBasis=   626 NAE=    68 NBE=    68 NFC=    19 NFV=     0
 NROrb=    606 NOA=    49 NOB=    49 NVA=   557 NVB=   557

 **** Warning!!: The largest alpha MO coefficient is  0.11818574D+03

 Leave Link  801 at Sun Jul 18 14:53:52 2021, MaxMem=   262144000 cpu:               1.2 elap:               0.3
 (Enter /prod/apps/gaussian/g16b1/l906.exe)
 FulOut=F Deriv=F AODrv=F NAtomX=    40
   MMem=           3  MDisk=          49 MDiskD=          49
  W3Min=    18122552 MinDsk=    19000149 NBas6D=         664
 NBas2D=      221647    NTT=      220780    LW2=     2000000
    MDV=   259393932 MDiskM=        5383 NBas2p=      205761
 Disk-based method using OVN memory for 49 occupieds at a time.
 Estimated scratch disk usage= 17106954077 words.
 IMap=   1   2   3   4   5   6   7   8   9  10  11  12  13  14  15  16  17  18  19  20
 IMap=  21  22  23  24  25  26  27  28  29  30  31  32  33  34  35  36  37  38  39  40
 IMap=  41  42  43  44  45  46  47  48  49
 Actual    scratch disk usage= 16891561821 words.
 JobTyp=1 Pass  1:  I=   1 to  49 NPSUse=  4 ParTrn=T ParDer=T DoDerP=F.
