 Entering Gaussian System, Link 0=g16
 Initial command:
 /prod/apps/gaussian/g16b1/l1.exe "/tmp/ubator02/1839534/Gau-74576.inp" -scrdir="/tmp/ubator02/1839534/"
 Entering Link 1 = /prod/apps/gaussian/g16b1/l1.exe PID=     74577.
  
 Copyright (c) 1988-2017, Gaussian, Inc.  All Rights Reserved.
  
 This is part of the Gaussian(R) 16 program.  It is based on
 the Gaussian(R) 09 system (copyright 2009, Gaussian, Inc.),
 the Gaussian(R) 03 system (copyright 2003, Gaussian, Inc.),
 the Gaussian(R) 98 system (copyright 1998, Gaussian, Inc.),
 the Gaussian(R) 94 system (copyright 1995, Gaussian, Inc.),
 the Gaussian 92(TM) system (copyright 1992, Gaussian, Inc.),
 the Gaussian 90(TM) system (copyright 1990, Gaussian, Inc.),
 the Gaussian 88(TM) system (copyright 1988, Gaussian, Inc.),
 the Gaussian 86(TM) system (copyright 1986, Carnegie Mellon
 University), and the Gaussian 82(TM) system (copyright 1983,
 Carnegie Mellon University). Gaussian is a federally registered
 trademark of Gaussian, Inc.
  
 This software contains proprietary and confidential information,
 including trade secrets, belonging to Gaussian, Inc.
  
 This software is provided under written license and may be
 used, copied, transmitted, or stored only in accord with that
 written license.
  
 The following legend is applicable only to US Government
 contracts under FAR:
  
                    RESTRICTED RIGHTS LEGEND
  
 Use, reproduction and disclosure by the US Government is
 subject to restrictions as set forth in subparagraphs (a)
 and (c) of the Commercial Computer Software - Restricted
 Rights clause in FAR 52.227-19.
  
 Gaussian, Inc.
 340 Quinnipiac St., Bldg. 40, Wallingford CT 06492
  
  
 ---------------------------------------------------------------
 Warning -- This program may not be used in any manner that
 competes with the business of Gaussian, Inc. or will provide
 assistance to any competitor of Gaussian, Inc.  The licensee
 of this program is prohibited from giving any competitor of
 Gaussian, Inc. access to this program.  By using this program,
 the user acknowledges that Gaussian, Inc. is engaged in the
 business of creating and licensing software in the field of
 computational chemistry and represents and warrants to the
 licensee that it is not a competitor of Gaussian, Inc. and that
 it will not use this program in any manner prohibited above.
 ---------------------------------------------------------------
  

 Cite this work as:
 Gaussian 16, Revision B.01,
 M. J. Frisch, G. W. Trucks, H. B. Schlegel, G. E. Scuseria, 
 M. A. Robb, J. R. Cheeseman, G. Scalmani, V. Barone, 
 G. A. Petersson, H. Nakatsuji, X. Li, M. Caricato, A. V. Marenich, 
 J. Bloino, B. G. Janesko, R. Gomperts, B. Mennucci, H. P. Hratchian, 
 J. V. Ortiz, A. F. Izmaylov, J. L. Sonnenberg, D. Williams-Young, 
 F. Ding, F. Lipparini, F. Egidi, J. Goings, B. Peng, A. Petrone, 
 T. Henderson, D. Ranasinghe, V. G. Zakrzewski, J. Gao, N. Rega, 
 G. Zheng, W. Liang, M. Hada, M. Ehara, K. Toyota, R. Fukuda, 
 J. Hasegawa, M. Ishida, T. Nakajima, Y. Honda, O. Kitao, H. Nakai, 
 T. Vreven, K. Throssell, J. A. Montgomery, Jr., J. E. Peralta, 
 F. Ogliaro, M. J. Bearpark, J. J. Heyd, E. N. Brothers, K. N. Kudin, 
 V. N. Staroverov, T. A. Keith, R. Kobayashi, J. Normand, 
 K. Raghavachari, A. P. Rendell, J. C. Burant, S. S. Iyengar, 
 J. Tomasi, M. Cossi, J. M. Millam, M. Klene, C. Adamo, R. Cammi, 
 J. W. Ochterski, R. L. Martin, K. Morokuma, O. Farkas, 
 J. B. Foresman, and D. J. Fox, Gaussian, Inc., Wallingford CT, 2016.
 
 ******************************************
 Gaussian 16:  ES64L-G16RevB.01 20-Dec-2017
                18-Jul-2021 
 ******************************************
 %mem=800MB
 %nproc=4
 Will use up to    4 processors via shared memory.
 %chk=SET_328_BBB256_conf1.geo_285_180_255.chk
 -----------------------------------------------------------
 #p b3lyp/6-31G(d) opt freq scrf=(iefpcm,read,solvent=water)
 -----------------------------------------------------------
 1/18=20,19=15,26=3,38=1,40=2/1,3;
 2/9=110,12=2,17=6,18=5,40=1/2;
 3/5=1,6=6,7=1,11=2,25=1,30=1,70=2203,71=1,72=1,74=-5/1,2,3;
 4//1;
 5/5=2,38=5,53=1/2;
 6/7=2,8=2,9=2,10=2,28=1/1;
 7//1,2,3,16;
 1/18=20,19=15,26=3/3(2);
 2/9=110/2;
 99//99;
 2/9=110/2;
 3/5=1,6=6,7=1,11=2,25=1,30=1,70=2205,71=1,72=1,74=-5/1,2,3;
 4/5=5,16=3,69=1/1;
 5/5=2,38=5,53=1/2;
 7//1,2,3,16;
 1/18=20,19=15,26=3/3(-5);
 2/9=110/2;
 6/7=2,8=2,9=2,10=2,19=2,28=1/1;
 99/9=1/99;
 Leave Link    1 at Sun Jul 18 13:37:05 2021, MaxMem=   104857600 cpu:               0.1 elap:               0.0
 (Enter /prod/apps/gaussian/g16b1/l101.exe)
 ---------------------------------------------
 SET_328_BBB256_conf1.geo_285_180_255 geometry
 ---------------------------------------------
 Symbolic Z-matrix:
 Charge =  1 Multiplicity = 1
 C                     3.144     0.071    -1.512 
 H                     3.53     -0.074    -0.5 
 H                     2.867     1.128    -1.546 
 H                     3.969    -0.116    -2.205 
 N                     1.971    -0.787    -1.838 
 H                     2.111    -1.688    -1.428 
 C                     0.705    -0.251    -1.361 
 H                    -0.073    -0.887    -1.791 
 H                     0.437     0.782    -1.594 
 C                     0.7      -0.496     0.161 
 H                     1.536     0.126     0.487 
 H                     0.892    -1.525     0.472 
 C                    -0.612    -0.019     0.655 
 N                    -0.577     1.142     1.379 
 C                    -1.751     1.655     1.806 
 H                    -1.756     2.629     2.29 
 C                    -2.917     0.877     1.761 
 H                    -3.817     1.28      2.218 
 C                    -2.873    -0.371     1.118 
 H                    -3.723    -1.041     1.026 
 C                    -1.802    -0.752     0.444 
 H                    -1.895    -1.685    -0.106 
 H                     1.919    -0.892    -2.831 
 
 ITRead=  0  0  0  0  0  0  0  0  0  0  0  0  0  0  0  0  0  0  0  0
 ITRead=  0  0  0
 MicOpt= -1 -1 -1 -1 -1 -1 -1 -1 -1 -1 -1 -1 -1 -1 -1 -1 -1 -1 -1 -1
 MicOpt= -1 -1 -1
 NAtoms=     23 NQM=       23 NQMF=       0 NMMI=      0 NMMIF=      0
                NMic=       0 NMicF=      0.
                    Isotopes and Nuclear Properties:
 (Nuclear quadrupole moments (NQMom) in fm**2, nuclear magnetic moments (NMagM)
  in nuclear magnetons)

  Atom         1           2           3           4           5           6           7           8           9          10
 IAtWgt=          12           1           1           1          14           1          12           1           1          12
 AtmWgt=  12.0000000   1.0078250   1.0078250   1.0078250  14.0030740   1.0078250  12.0000000   1.0078250   1.0078250  12.0000000
 NucSpn=           0           1           1           1           2           1           0           1           1           0
 AtZEff=  -0.0000000  -0.0000000  -0.0000000  -0.0000000  -0.0000000  -0.0000000  -0.0000000  -0.0000000  -0.0000000  -0.0000000
 NQMom=    0.0000000   0.0000000   0.0000000   0.0000000   2.0440000   0.0000000   0.0000000   0.0000000   0.0000000   0.0000000
 NMagM=    0.0000000   2.7928460   2.7928460   2.7928460   0.4037610   2.7928460   0.0000000   2.7928460   2.7928460   0.0000000
 AtZNuc=   6.0000000   1.0000000   1.0000000   1.0000000   7.0000000   1.0000000   6.0000000   1.0000000   1.0000000   6.0000000

  Atom        11          12          13          14          15          16          17          18          19          20
 IAtWgt=           1           1          12          14          12           1          12           1          12           1
 AtmWgt=   1.0078250   1.0078250  12.0000000  14.0030740  12.0000000   1.0078250  12.0000000   1.0078250  12.0000000   1.0078250
 NucSpn=           1           1           0           2           0           1           0           1           0           1
 AtZEff=  -0.0000000  -0.0000000  -0.0000000  -0.0000000  -0.0000000  -0.0000000  -0.0000000  -0.0000000  -0.0000000  -0.0000000
 NQMom=    0.0000000   0.0000000   0.0000000   2.0440000   0.0000000   0.0000000   0.0000000   0.0000000   0.0000000   0.0000000
 NMagM=    2.7928460   2.7928460   0.0000000   0.4037610   0.0000000   2.7928460   0.0000000   2.7928460   0.0000000   2.7928460
 AtZNuc=   1.0000000   1.0000000   6.0000000   7.0000000   6.0000000   1.0000000   6.0000000   1.0000000   6.0000000   1.0000000

  Atom        21          22          23
 IAtWgt=          12           1           1
 AtmWgt=  12.0000000   1.0078250   1.0078250
 NucSpn=           0           1           1
 AtZEff=  -0.0000000  -0.0000000  -0.0000000
 NQMom=    0.0000000   0.0000000   0.0000000
 NMagM=    0.0000000   2.7928460   2.7928460
 AtZNuc=   6.0000000   1.0000000   1.0000000
 Leave Link  101 at Sun Jul 18 13:37:05 2021, MaxMem=   104857600 cpu:               0.5 elap:               0.1
 (Enter /prod/apps/gaussian/g16b1/l103.exe)

 GradGradGradGradGradGradGradGradGradGradGradGradGradGradGradGradGradGrad
 Berny optimization.
 Initialization pass.
                           ----------------------------
                           !    Initial Parameters    !
                           ! (Angstroms and Degrees)  !
 --------------------------                            --------------------------
 ! Name  Definition              Value          Derivative Info.                !
 --------------------------------------------------------------------------------
 ! R1    R(1,2)                  1.0928         estimate D2E/DX2                !
 ! R2    R(1,3)                  1.0932         estimate D2E/DX2                !
 ! R3    R(1,4)                  1.0935         estimate D2E/DX2                !
 ! R4    R(1,5)                  1.4894         estimate D2E/DX2                !
 ! R5    R(5,6)                  0.9998         estimate D2E/DX2                !
 ! R6    R(5,7)                  1.4552         estimate D2E/DX2                !
 ! R7    R(5,23)                 0.9999         estimate D2E/DX2                !
 ! R8    R(7,8)                  1.093          estimate D2E/DX2                !
 ! R9    R(7,9)                  1.0923         estimate D2E/DX2                !
 ! R10   R(7,10)                 1.5416         estimate D2E/DX2                !
 ! R11   R(10,11)                1.0918         estimate D2E/DX2                !
 ! R12   R(10,12)                1.092          estimate D2E/DX2                !
 ! R13   R(10,13)                1.4808         estimate D2E/DX2                !
 ! R14   R(13,14)                1.3687         estimate D2E/DX2                !
 ! R15   R(13,21)                1.4135         estimate D2E/DX2                !
 ! R16   R(14,15)                1.3505         estimate D2E/DX2                !
 ! R17   R(15,16)                1.0876         estimate D2E/DX2                !
 ! R18   R(15,17)                1.4024         estimate D2E/DX2                !
 ! R19   R(17,18)                1.0869         estimate D2E/DX2                !
 ! R20   R(17,19)                1.4046         estimate D2E/DX2                !
 ! R21   R(19,20)                1.0862         estimate D2E/DX2                !
 ! R22   R(19,21)                1.3215         estimate D2E/DX2                !
 ! R23   R(21,22)                1.087          estimate D2E/DX2                !
 ! A1    A(2,1,3)              104.2761         estimate D2E/DX2                !
 ! A2    A(2,1,4)              107.3194         estimate D2E/DX2                !
 ! A3    A(2,1,5)              113.8565         estimate D2E/DX2                !
 ! A4    A(3,1,4)              109.6811         estimate D2E/DX2                !
 ! A5    A(3,1,5)              110.5252         estimate D2E/DX2                !
 ! A6    A(4,1,5)              110.9122         estimate D2E/DX2                !
 ! A7    A(1,5,6)              108.6094         estimate D2E/DX2                !
 ! A8    A(1,5,7)              113.6553         estimate D2E/DX2                !
 ! A9    A(1,5,23)             108.5916         estimate D2E/DX2                !
 ! A10   A(6,5,7)              108.6239         estimate D2E/DX2                !
 ! A11   A(6,5,23)             108.6581         estimate D2E/DX2                !
 ! A12   A(7,5,23)             108.6006         estimate D2E/DX2                !
 ! A13   A(5,7,8)              106.0198         estimate D2E/DX2                !
 ! A14   A(5,7,9)              119.4627         estimate D2E/DX2                !
 ! A15   A(5,7,10)             105.5398         estimate D2E/DX2                !
 ! A16   A(8,7,9)              106.9608         estimate D2E/DX2                !
 ! A17   A(8,7,10)             107.0749         estimate D2E/DX2                !
 ! A18   A(9,7,10)             111.1056         estimate D2E/DX2                !
 ! A19   A(7,10,11)            101.6403         estimate D2E/DX2                !
 ! A20   A(7,10,12)            115.4911         estimate D2E/DX2                !
 ! A21   A(7,10,13)            106.3219         estimate D2E/DX2                !
 ! A22   A(11,10,12)           108.4917         estimate D2E/DX2                !
 ! A23   A(11,10,13)           113.2835         estimate D2E/DX2                !
 ! A24   A(12,10,13)           111.3648         estimate D2E/DX2                !
 ! A25   A(10,13,14)           115.2798         estimate D2E/DX2                !
 ! A26   A(10,13,21)           121.9422         estimate D2E/DX2                !
 ! A27   A(14,13,21)           122.7095         estimate D2E/DX2                !
 ! A28   A(13,14,15)           117.8557         estimate D2E/DX2                !
 ! A29   A(14,15,16)           119.0044         estimate D2E/DX2                !
 ! A30   A(14,15,17)           120.1248         estimate D2E/DX2                !
 ! A31   A(16,15,17)           120.4801         estimate D2E/DX2                !
 ! A32   A(15,17,18)           117.9874         estimate D2E/DX2                !
 ! A33   A(15,17,19)           118.7861         estimate D2E/DX2                !
 ! A34   A(18,17,19)           123.2219         estimate D2E/DX2                !
 ! A35   A(17,19,20)           124.2158         estimate D2E/DX2                !
 ! A36   A(17,19,21)           120.9986         estimate D2E/DX2                !
 ! A37   A(20,19,21)           114.403          estimate D2E/DX2                !
 ! A38   A(13,21,19)           117.171          estimate D2E/DX2                !
 ! A39   A(13,21,22)           126.3456         estimate D2E/DX2                !
 ! A40   A(19,21,22)           115.8591         estimate D2E/DX2                !
 ! D1    D(2,1,5,6)            -38.5447         estimate D2E/DX2                !
 ! D2    D(2,1,5,7)             82.4782         estimate D2E/DX2                !
 ! D3    D(2,1,5,23)          -156.5414         estimate D2E/DX2                !
 ! D4    D(3,1,5,6)           -155.5115         estimate D2E/DX2                !
 ! D5    D(3,1,5,7)            -34.4886         estimate D2E/DX2                !
 ! D6    D(3,1,5,23)            86.4918         estimate D2E/DX2                !
 ! D7    D(4,1,5,6)             82.6162         estimate D2E/DX2                !
 ! D8    D(4,1,5,7)           -156.3609         estimate D2E/DX2                !
 ! D9    D(4,1,5,23)           -35.3805         estimate D2E/DX2                !
 ! D10   D(1,5,7,8)            171.6869         estimate D2E/DX2                !
 ! D11   D(1,5,7,9)             50.9709         estimate D2E/DX2                !
 ! D12   D(1,5,7,10)           -74.9276         estimate D2E/DX2                !
 ! D13   D(6,5,7,8)            -67.2983         estimate D2E/DX2                !
 ! D14   D(6,5,7,9)            171.9857         estimate D2E/DX2                !
 ! D15   D(6,5,7,10)            46.0872         estimate D2E/DX2                !
 ! D16   D(23,5,7,8)            50.7114         estimate D2E/DX2                !
 ! D17   D(23,5,7,9)           -70.0045         estimate D2E/DX2                !
 ! D18   D(23,5,7,10)          164.0969         estimate D2E/DX2                !
 ! D19   D(5,7,10,11)           64.079          estimate D2E/DX2                !
 ! D20   D(5,7,10,12)          -53.1128         estimate D2E/DX2                !
 ! D21   D(5,7,10,13)         -177.1798         estimate D2E/DX2                !
 ! D22   D(8,7,10,11)          176.7265         estimate D2E/DX2                !
 ! D23   D(8,7,10,12)           59.5347         estimate D2E/DX2                !
 ! D24   D(8,7,10,13)          -64.5322         estimate D2E/DX2                !
 ! D25   D(9,7,10,11)          -66.8072         estimate D2E/DX2                !
 ! D26   D(9,7,10,12)          176.001          estimate D2E/DX2                !
 ! D27   D(9,7,10,13)           51.934          estimate D2E/DX2                !
 ! D28   D(7,10,13,14)        -107.943          estimate D2E/DX2                !
 ! D29   D(7,10,13,21)          74.9898         estimate D2E/DX2                !
 ! D30   D(11,10,13,14)          2.8439         estimate D2E/DX2                !
 ! D31   D(11,10,13,21)       -174.2232         estimate D2E/DX2                !
 ! D32   D(12,10,13,14)        125.4667         estimate D2E/DX2                !
 ! D33   D(12,10,13,21)        -51.6005         estimate D2E/DX2                !
 ! D34   D(10,13,14,15)        177.2103         estimate D2E/DX2                !
 ! D35   D(21,13,14,15)         -5.7476         estimate D2E/DX2                !
 ! D36   D(10,13,21,19)        168.3611         estimate D2E/DX2                !
 ! D37   D(10,13,21,22)         -2.1627         estimate D2E/DX2                !
 ! D38   D(14,13,21,19)         -8.4869         estimate D2E/DX2                !
 ! D39   D(14,13,21,22)       -179.0107         estimate D2E/DX2                !
 ! D40   D(13,14,15,16)       -173.5486         estimate D2E/DX2                !
 ! D41   D(13,14,15,17)         13.5899         estimate D2E/DX2                !
 ! D42   D(14,15,17,18)        173.0361         estimate D2E/DX2                !
 ! D43   D(14,15,17,19)         -7.7237         estimate D2E/DX2                !
 ! D44   D(16,15,17,18)          0.2809         estimate D2E/DX2                !
 ! D45   D(16,15,17,19)        179.5212         estimate D2E/DX2                !
 ! D46   D(15,17,19,20)       -179.599          estimate D2E/DX2                !
 ! D47   D(15,17,19,21)         -7.1029         estimate D2E/DX2                !
 ! D48   D(18,17,19,20)         -0.401          estimate D2E/DX2                !
 ! D49   D(18,17,19,21)        172.0951         estimate D2E/DX2                !
 ! D50   D(17,19,21,13)         14.6158         estimate D2E/DX2                !
 ! D51   D(17,19,21,22)       -173.8584         estimate D2E/DX2                !
 ! D52   D(20,19,21,13)       -172.1946         estimate D2E/DX2                !
 ! D53   D(20,19,21,22)         -0.6689         estimate D2E/DX2                !
 --------------------------------------------------------------------------------
 Trust Radius=3.00D-01 FncErr=1.00D-07 GrdErr=1.00D-06 EigMax=2.50D+02 EigMin=1.00D-04
 Number of steps in this run=    126 maximum allowed number of steps=    138.
 GradGradGradGradGradGradGradGradGradGradGradGradGradGradGradGradGradGrad

 Leave Link  103 at Sun Jul 18 13:37:05 2021, MaxMem=   104857600 cpu:               0.0 elap:               0.0
 (Enter /prod/apps/gaussian/g16b1/l202.exe)
                          Input orientation:                          
 ---------------------------------------------------------------------
 Center     Atomic      Atomic             Coordinates (Angstroms)
 Number     Number       Type             X           Y           Z
 ---------------------------------------------------------------------
      1          6           0        3.144000    0.071000   -1.512000
      2          1           0        3.530000   -0.074000   -0.500000
      3          1           0        2.867000    1.128000   -1.546000
      4          1           0        3.969000   -0.116000   -2.205000
      5          7           0        1.971000   -0.787000   -1.838000
      6          1           0        2.111000   -1.688000   -1.428000
      7          6           0        0.705000   -0.251000   -1.361000
      8          1           0       -0.073000   -0.887000   -1.791000
      9          1           0        0.437000    0.782000   -1.594000
     10          6           0        0.700000   -0.496000    0.161000
     11          1           0        1.536000    0.126000    0.487000
     12          1           0        0.892000   -1.525000    0.472000
     13          6           0       -0.612000   -0.019000    0.655000
     14          7           0       -0.577000    1.142000    1.379000
     15          6           0       -1.751000    1.655000    1.806000
     16          1           0       -1.756000    2.629000    2.290000
     17          6           0       -2.917000    0.877000    1.761000
     18          1           0       -3.817000    1.280000    2.218000
     19          6           0       -2.873000   -0.371000    1.118000
     20          1           0       -3.723000   -1.041000    1.026000
     21          6           0       -1.802000   -0.752000    0.444000
     22          1           0       -1.895000   -1.685000   -0.106000
     23          1           0        1.919000   -0.892000   -2.831000
 ---------------------------------------------------------------------
                    Distance matrix (angstroms):
                    1          2          3          4          5
     1  C    0.000000
     2  H    1.092779   0.000000
     3  H    1.093222   1.725830   0.000000
     4  H    1.093546   1.761110   1.787798   0.000000
     5  N    1.489419   2.174648   2.134316   2.139377   0.000000
     6  H    2.041623   2.340885   2.918101   2.554814   0.999750
     7  C    2.464793   2.958593   2.571013   3.374056   1.455191
     8  H    3.368189   3.912705   3.572653   4.135650   2.046984
     9  H    2.800017   3.390608   2.454979   3.695233   2.207816
    10  C    3.015552   2.936649   3.201111   4.053235   2.386655
    11  H    2.566065   2.233877   2.628432   3.636608   2.535433
    12  H    3.399261   3.163737   3.874449   4.315036   2.654239
    13  C    4.337225   4.300374   4.273576   5.401349   3.671071
    14  N    4.832263   4.677258   4.518513   5.923997   4.534582
    15  C    6.122026   6.016314   5.730581   7.207147   5.752859
    16  H    6.708843   6.559886   6.191932   7.779182   6.526865
    17  C    6.935264   6.897850   6.667376   8.008258   6.293985
    18  H    7.989374   7.949796   7.672461   9.062756   7.363733
    19  C    6.581531   6.610941   6.503191   7.610540   5.689932
    20  H    7.404977   7.474609   7.399179   8.394156   6.378765
    21  C    5.382024   5.457201   5.412399   6.381703   4.409567
    22  H    5.518323   5.672846   5.715174   6.422932   4.330379
    23  H    2.041508   2.949238   2.574943   2.279595   0.999889
                    6          7          8          9         10
     6  H    0.000000
     7  C    2.011540   0.000000
     8  H    2.354406   1.093014   0.000000
     9  H    2.988433   1.092338   1.756266   0.000000
    10  C    2.436536   1.541601   2.135583   2.186888   0.000000
    11  H    2.699712   2.061018   2.967210   2.443092   1.091813
    12  H    2.263301   2.240075   2.541542   3.130117   1.091983
    13  C    3.813028   2.419208   2.650823   2.607682   1.480847
    14  N    4.807649   3.330401   3.797336   3.161728   2.407758
    15  C    6.045614   4.437867   4.713370   4.136360   3.652428
    16  H    6.885761   5.261247   5.643519   4.827641   4.508903
    17  C    6.483034   4.913059   4.880239   4.744931   4.186624
    18  H    7.565945   5.966715   5.897924   5.733748   5.271500
    19  C    5.749510   4.354529   4.070447   4.431755   3.701054
    20  H    6.362097   5.092058   4.613210   5.243408   4.539623
    21  C    4.437572   3.129549   2.828938   3.394071   2.530934
    22  H    4.218498   3.223567   2.606859   3.706542   2.866886
    23  H    1.624466   2.011362   2.247151   2.555146   3.254972
                   11         12         13         14         15
    11  H    0.000000
    12  H    1.772220   0.000000
    13  C    2.159433   2.136245   0.000000
    14  N    2.508523   3.177027   1.368694   0.000000
    15  C    3.857716   4.344814   2.329034   1.350472   0.000000
    16  H    4.511439   5.250976   3.315700   2.105025   1.087638
    17  C    4.692152   4.683973   2.709073   2.385739   1.402450
    18  H    5.743055   5.752497   3.795049   3.349711   2.139796
    19  C    4.481568   3.990521   2.334608   2.762047   2.415969
    20  H    5.413824   4.673264   3.295519   3.845441   3.430102
    21  C    3.451808   2.802847   1.413474   2.441738   2.766097
    22  H    3.924682   2.850799   2.236239   3.454602   3.851244
    23  H    3.491724   3.516422   4.395485   5.300120   6.438779
                   16         17         18         19         20
    16  H    0.000000
    17  C    2.167318   0.000000
    18  H    2.464286   1.086857   0.000000
    19  C    3.408999   1.404596   2.197029   0.000000
    20  H    4.351515   2.206487   2.610889   1.086215   0.000000
    21  C    3.852401   2.373048   3.366946   1.321544   2.027927
    22  H    4.936672   3.330768   4.229218   2.044812   2.244492
    23  H    7.219952   6.899473   7.944286   6.231317   6.835994
                   21         22         23
    21  C    0.000000
    22  H    1.087032   0.000000
    23  H    4.958938   4.754058   0.000000
 Stoichiometry    C8H13N2(1+)
 Framework group  C1[X(C8H13N2)]
 Deg. of freedom    63
 Full point group                 C1      NOp   1
 Largest Abelian subgroup         C1      NOp   1
 Largest concise Abelian subgroup C1      NOp   1
                         Standard orientation:                         
 ---------------------------------------------------------------------
 Center     Atomic      Atomic             Coordinates (Angstroms)
 Number     Number       Type             X           Y           Z
 ---------------------------------------------------------------------
      1          6           0        3.665043    0.771170   -0.000094
      2          1           0        3.468031    1.237218    0.968488
      3          1           0        3.276924    1.488307   -0.728250
      4          1           0        4.750221    0.688581   -0.106917
      5          7           0        3.011185   -0.555665   -0.174295
      6          1           0        3.058705   -1.051053    0.692788
      7          6           0        1.617781   -0.470484   -0.585090
      8          1           0        1.309590   -1.492466   -0.820148
      9          1           0        1.347519    0.149165   -1.443108
     10          6           0        0.840955   -0.042095    0.675687
     11          1           0        1.255133    0.950602    0.862942
     12          1           0        1.005891   -0.658933    1.561538
     13          6           0       -0.589772   -0.017051    0.294499
     14          7           0       -1.142070    1.229903    0.178766
     15          6           0       -2.428685    1.315396   -0.222591
     16          1           0       -2.854527    2.295911   -0.423106
     17          6           0       -3.240353    0.171736   -0.232620
     18          1           0       -4.297628    0.298555   -0.450207
     19          6           0       -2.651361   -1.077923    0.021017
     20          1           0       -3.194205   -2.018734    0.028721
     21          6           0       -1.340105   -1.203255    0.127675
     22          1           0       -0.967018   -2.220006    0.220743
     23          1           0        3.516541   -1.071776   -0.865687
 ---------------------------------------------------------------------
 Rotational constants (GHZ):           3.7599634           0.6428774           0.5766776
 Leave Link  202 at Sun Jul 18 13:37:05 2021, MaxMem=   104857600 cpu:               0.0 elap:               0.0
 (Enter /prod/apps/gaussian/g16b1/l301.exe)
 Standard basis: 6-31G(d) (6D, 7F)
 Ernie: Thresh=  0.10000D-02 Tol=  0.10000D-05 Strict=F.
 There are   176 symmetry adapted cartesian basis functions of A   symmetry.
 There are   176 symmetry adapted basis functions of A   symmetry.
   176 basis functions,   332 primitive gaussians,   176 cartesian basis functions
    37 alpha electrons       37 beta electrons
       nuclear repulsion energy       515.1976073549 Hartrees.
 IExCor=  402 DFT=T Ex+Corr=B3LYP ExCW=0 ScaHFX=  0.200000
 ScaDFX=  0.800000  0.720000  1.000000  0.810000 ScalE2=  1.000000  1.000000
 IRadAn=      5 IRanWt=     -1 IRanGd=            0 ICorTp=0 IEmpDi=  4
 NAtoms=   23 NActive=   23 NUniq=   23 SFac= 1.00D+00 NAtFMM=   60 NAOKFM=F Big=F
 Integral buffers will be    131072 words long.
 Raffenetti 2 integral format.
 Two-electron integral symmetry is turned on.
 Using the following non-standard input for PCM:
 MSTModel=DFT cav MSTCharged
 --- end of non-standard input.
 MST model for solvation energy: B3LYP parametrization.
 MST cavity parameters:
 ISph   IAn     Re0     Alpha   Atom Type   QCorr
 ------------------------------------------------
   1      6     1.50     1.25      CH3        F
   2      1     1.20     1.25      CH3        F
   3      1     1.20     1.25      CH3        F
   4      1     1.20     1.25      CH3        F
   5      7     1.55     1.15      NH         T
   6      1     0.90     1.15      NH         T
   7      6     1.50     1.25      CH2        F
   8      1     1.20     1.25      CH2        F
   9      1     1.20     1.25      CH2        F
  10      6     1.50     1.25      CH2        F
  11      1     1.20     1.25      CH2        F
  12      1     1.20     1.25      CH2        F
  13      6     1.50     1.25      C          F
  14      7     1.40     1.25      N          F
  15      6     1.50     1.25      CH         F
  16      1     1.20     1.25      CH         F
  17      6     1.50     1.25      CH         F
  18      1     1.20     1.25      CH         F
  19      6     1.50     1.25      CH         F
  20      1     1.20     1.25      CH         F
  21      6     1.50     1.25      CH         F
  22      1     1.20     1.25      CH         F
  23      1     0.90     1.15      NH         T
 ------------------------------------------------------------------------------
 Polarizable Continuum Model (PCM)
 =================================
 Model                : PCM.
 Atomic radii         : MST.
 Polarization charges : Total charges.
 Charge compensation  : None.
 Solution method      : On-the-fly selection.
 Cavity type          : Scaled VdW (van der Waals Surface) (Alpha=1.250).
 Cavity algorithm     : GePol (No added spheres)
                        Default sphere list used, NSphG=   23.
                        Lebedev-Laikov grids with approx.  5.0 points / Ang**2.
                        Smoothing algorithm: York/Karplus (Gamma=1.0000).
                        Polarization charges: spherical gaussians, with
                                              point-specific exponents (IZeta= 3).
                        Self-potential: point-specific (ISelfS= 7).
                        Self-field    : sphere-specific E.n sum rule (ISelfD= 2).
 1st derivatives      : Analytical E(r).r(x)/FMM algorithm (CHGder, D1EAlg=3).
                        Cavity 1st derivative terms included.
 Solvent              : Water, Eps=  78.355300 Eps(inf)=   1.777849
 ------------------------------------------------------------------------------
 GePol: Number of generator spheres                  =      23
 GePol: Total number of spheres                      =      23
 GePol: Number of exposed spheres                    =      23 (100.00%)
 GePol: Number of points                             =    1645
 GePol: Average weight of points                     =       0.13
 GePol: Minimum weight of points                     =   0.95D-09
 GePol: Maximum weight of points                     =    0.22001
 GePol: Number of points with low weight             =      98
 GePol: Fraction of low-weight points (<1% of avg)   =       5.96%
 GePol: Cavity surface area                          =    210.836 Ang**2
 GePol: Cavity volume                                =    187.802 Ang**3
 PCM non-electrostatic energy =         0.0013345648 Hartrees.
 Nuclear repulsion after PCM non-electrostatic terms =      515.1989419197 Hartrees.
 Leave Link  301 at Sun Jul 18 13:37:05 2021, MaxMem=   104857600 cpu:               0.3 elap:               0.1
 (Enter /prod/apps/gaussian/g16b1/l302.exe)
 NPDir=0 NMtPBC=     1 NCelOv=     1 NCel=       1 NClECP=     1 NCelD=      1
         NCelK=      1 NCelE2=     1 NClLst=     1 CellRange=     0.0.
 One-electron integrals computed using PRISM.
 One-electron integral symmetry used in STVInt
 NBasis=   176 RedAO= T EigKep=  8.93D-04  NBF=   176
 NBsUse=   176 1.00D-06 EigRej= -1.00D+00 NBFU=   176
 Precomputing XC quadrature grid using
 IXCGrd= 4 IRadAn=           5 IRanWt=          -1 IRanGd=           0 AccXCQ= 0.00D+00.
 Generated NRdTot=       0 NPtTot=           0 NUsed=           0 NTot=          32
 NSgBfM=   176   176   176   176   176 MxSgAt=    23 MxSgA2=    23.
 Leave Link  302 at Sun Jul 18 13:37:06 2021, MaxMem=   104857600 cpu:               0.9 elap:               0.2
 (Enter /prod/apps/gaussian/g16b1/l303.exe)
 DipDrv:  MaxL=1.
 Leave Link  303 at Sun Jul 18 13:37:06 2021, MaxMem=   104857600 cpu:               0.1 elap:               0.0
 (Enter /prod/apps/gaussian/g16b1/l401.exe)
 ExpMin= 1.61D-01 ExpMax= 4.17D+03 ExpMxC= 6.27D+02 IAcc=3 IRadAn=         5 AccDes= 0.00D+00
 Harris functional with IExCor=  402 and IRadAn=       5 diagonalized for initial guess.
 HarFok:  IExCor=  402 AccDes= 0.00D+00 IRadAn=         5 IDoV= 1 UseB2=F ITyADJ=14
 ICtDFT=  3500011 ScaDFX=  1.000000  1.000000  1.000000  1.000000
 FoFCou: FMM=F IPFlag=           0 FMFlag=      100000 FMFlg1=           0
         NFxFlg=           0 DoJE=T BraDBF=F KetDBF=T FulRan=T
         wScrn=  0.000000 ICntrl=       500 IOpCl=  0 I1Cent=   200000004 NGrid=           0
         NMat0=    1 NMatS0=      1 NMatT0=    0 NMatD0=    1 NMtDS0=    0 NMtDT0=    0
 Petite list used in FoFCou.
 Harris En= -421.944038519385    
 JPrj=0 DoOrth=F DoCkMO=F.
 Leave Link  401 at Sun Jul 18 13:37:07 2021, MaxMem=   104857600 cpu:               4.1 elap:               1.0
 (Enter /prod/apps/gaussian/g16b1/l502.exe)
 Integral symmetry usage will be decided dynamically.
 Closed shell SCF:
 Using DIIS extrapolation, IDIIS=  1040.
 NGot=   104857600 LenX=   104792415 LenY=   104760998
 Requested convergence on RMS density matrix=1.00D-08 within 128 cycles.
 Requested convergence on MAX density matrix=1.00D-06.
 Requested convergence on             energy=1.00D-06.
 No special actions if energy rises.
 Fock matrices will be formed incrementally for  20 cycles.

 Cycle   1  Pass 1  IDiag  1:
 FoFJK:  IHMeth= 1 ICntrl=       0 DoSepK=F KAlg= 0 I1Cent=           0 FoldK=F
 IRaf= 910000000 NMat=       1 IRICut=       1 DoRegI=T DoRafI=F ISym2E= 0 IDoP0=0 IntGTp=1.
 FoFCou: FMM=F IPFlag=           0 FMFlag=      100000 FMFlg1=           0
         NFxFlg=           0 DoJE=F BraDBF=F KetDBF=F FulRan=T
         wScrn=  0.000000 ICntrl=         0 IOpCl=  0 I1Cent=           0 NGrid=           0
         NMat0=    1 NMatS0=      1 NMatT0=    0 NMatD0=    1 NMtDS0=    0 NMtDT0=    0
 Symmetry not used in FoFCou.
 Inv3:  Mode=1 IEnd=     8118075.
 Iteration    1 A*A^-1 deviation from unit magnitude is 3.00D-15 for    371.
 Iteration    1 A*A^-1 deviation from orthogonality  is 3.33D-15 for   1608    754.
 Iteration    1 A^-1*A deviation from unit magnitude is 3.00D-15 for    371.
 Iteration    1 A^-1*A deviation from orthogonality  is 1.68D-14 for   1605   1598.
 E= -421.828816436490    
 DIIS: error= 2.42D-02 at cycle   1 NSaved=   1.
 NSaved= 1 IEnMin= 1 EnMin= -421.828816436490     IErMin= 1 ErrMin= 2.42D-02
 ErrMax= 2.42D-02  0.00D+00 EMaxC= 1.00D-01 BMatC= 1.84D-01 BMatP= 1.84D-01
 IDIUse=3 WtCom= 7.58D-01 WtEn= 2.42D-01
 Coeff-Com:  0.100D+01
 Coeff-En:   0.100D+01
 Coeff:      0.100D+01
 Gap=     0.231 Goal=   None    Shift=    0.000
 GapD=    0.231 DampG=1.000 DampE=0.500 DampFc=0.5000 IDamp=-1.
 Damping current iteration by 5.00D-01
 RMSDP=5.06D-03 MaxDP=1.06D-01              OVMax= 1.68D-01

 Cycle   2  Pass 1  IDiag  1:
 RMSU=  2.46D-03    CP:  9.76D-01
 E= -421.923856085337     Delta-E=       -0.095039648847 Rises=F Damp=T
 DIIS: error= 5.31D-03 at cycle   2 NSaved=   2.
 NSaved= 2 IEnMin= 2 EnMin= -421.923856085337     IErMin= 2 ErrMin= 5.31D-03
 ErrMax= 5.31D-03  0.00D+00 EMaxC= 1.00D-01 BMatC= 1.13D-02 BMatP= 1.84D-01
 IDIUse=3 WtCom= 9.47D-01 WtEn= 5.31D-02
 Coeff-Com: -0.315D-01 0.103D+01
 Coeff-En:   0.000D+00 0.100D+01
 Coeff:     -0.298D-01 0.103D+01
 Gap=     0.228 Goal=   None    Shift=    0.000
 RMSDP=1.14D-03 MaxDP=2.32D-02 DE=-9.50D-02 OVMax= 1.10D-01

 Cycle   3  Pass 1  IDiag  1:
 RMSU=  1.12D-03    CP:  9.70D-01  1.06D+00
 E= -422.017123281509     Delta-E=       -0.093267196172 Rises=F Damp=F
 DIIS: error= 3.58D-03 at cycle   3 NSaved=   3.
 NSaved= 3 IEnMin= 3 EnMin= -422.017123281509     IErMin= 3 ErrMin= 3.58D-03
 ErrMax= 3.58D-03  0.00D+00 EMaxC= 1.00D-01 BMatC= 4.41D-03 BMatP= 1.13D-02
 IDIUse=3 WtCom= 9.64D-01 WtEn= 3.58D-02
 Coeff-Com: -0.557D-01 0.387D+00 0.668D+00
 Coeff-En:   0.000D+00 0.000D+00 0.100D+01
 Coeff:     -0.537D-01 0.373D+00 0.680D+00
 Gap=     0.229 Goal=   None    Shift=    0.000
 RMSDP=5.75D-04 MaxDP=1.65D-02 DE=-9.33D-02 OVMax= 5.00D-02

 Cycle   4  Pass 1  IDiag  1:
 RMSU=  4.65D-04    CP:  9.70D-01  1.07D+00  7.02D-01
 E= -422.019931658504     Delta-E=       -0.002808376995 Rises=F Damp=F
 DIIS: error= 2.26D-03 at cycle   4 NSaved=   4.
 NSaved= 4 IEnMin= 4 EnMin= -422.019931658504     IErMin= 4 ErrMin= 2.26D-03
 ErrMax= 2.26D-03  0.00D+00 EMaxC= 1.00D-01 BMatC= 1.63D-03 BMatP= 4.41D-03
 IDIUse=3 WtCom= 9.77D-01 WtEn= 2.26D-02
 Coeff-Com: -0.252D-01 0.997D-01 0.404D+00 0.522D+00
 Coeff-En:   0.000D+00 0.000D+00 0.295D+00 0.705D+00
 Coeff:     -0.246D-01 0.975D-01 0.401D+00 0.526D+00
 Gap=     0.228 Goal=   None    Shift=    0.000
 RMSDP=2.75D-04 MaxDP=6.53D-03 DE=-2.81D-03 OVMax= 2.05D-02

 Cycle   5  Pass 1  IDiag  1:
 RMSU=  1.03D-04    CP:  9.70D-01  1.08D+00  8.04D-01  5.16D-01
 E= -422.021644181439     Delta-E=       -0.001712522935 Rises=F Damp=F
 DIIS: error= 3.83D-04 at cycle   5 NSaved=   5.
 NSaved= 5 IEnMin= 5 EnMin= -422.021644181439     IErMin= 5 ErrMin= 3.83D-04
 ErrMax= 3.83D-04  0.00D+00 EMaxC= 1.00D-01 BMatC= 6.40D-05 BMatP= 1.63D-03
 IDIUse=3 WtCom= 9.96D-01 WtEn= 3.83D-03
 Coeff-Com: -0.783D-02 0.211D-01 0.149D+00 0.254D+00 0.584D+00
 Coeff-En:   0.000D+00 0.000D+00 0.000D+00 0.000D+00 0.100D+01
 Coeff:     -0.780D-02 0.210D-01 0.148D+00 0.253D+00 0.586D+00
 Gap=     0.228 Goal=   None    Shift=    0.000
 RMSDP=5.13D-05 MaxDP=2.14D-03 DE=-1.71D-03 OVMax= 3.63D-03

 Cycle   6  Pass 1  IDiag  1:
 RMSU=  3.09D-05    CP:  9.70D-01  1.08D+00  7.99D-01  5.66D-01  6.77D-01
 E= -422.021696191947     Delta-E=       -0.000052010508 Rises=F Damp=F
 DIIS: error= 1.47D-04 at cycle   6 NSaved=   6.
 NSaved= 6 IEnMin= 6 EnMin= -422.021696191947     IErMin= 6 ErrMin= 1.47D-04
 ErrMax= 1.47D-04  0.00D+00 EMaxC= 1.00D-01 BMatC= 9.91D-06 BMatP= 6.40D-05
 IDIUse=3 WtCom= 9.99D-01 WtEn= 1.47D-03
 Coeff-Com: -0.259D-02 0.435D-02 0.536D-01 0.105D+00 0.343D+00 0.497D+00
 Coeff-En:   0.000D+00 0.000D+00 0.000D+00 0.000D+00 0.689D-01 0.931D+00
 Coeff:     -0.258D-02 0.434D-02 0.535D-01 0.104D+00 0.343D+00 0.498D+00
 Gap=     0.228 Goal=   None    Shift=    0.000
 RMSDP=1.61D-05 MaxDP=7.62D-04 DE=-5.20D-05 OVMax= 1.01D-03

 Cycle   7  Pass 1  IDiag  1:
 RMSU=  7.28D-06    CP:  9.70D-01  1.08D+00  8.03D-01  5.66D-01  7.19D-01
                    CP:  5.76D-01
 E= -422.021704535856     Delta-E=       -0.000008343909 Rises=F Damp=F
 DIIS: error= 2.00D-05 at cycle   7 NSaved=   7.
 NSaved= 7 IEnMin= 7 EnMin= -422.021704535856     IErMin= 7 ErrMin= 2.00D-05
 ErrMax= 2.00D-05  0.00D+00 EMaxC= 1.00D-01 BMatC= 2.71D-07 BMatP= 9.91D-06
 IDIUse=1 WtCom= 1.00D+00 WtEn= 0.00D+00
 Coeff-Com: -0.853D-03 0.111D-02 0.187D-01 0.373D-01 0.134D+00 0.238D+00
 Coeff-Com:  0.571D+00
 Coeff:     -0.853D-03 0.111D-02 0.187D-01 0.373D-01 0.134D+00 0.238D+00
 Coeff:      0.571D+00
 Gap=     0.228 Goal=   None    Shift=    0.000
 RMSDP=3.54D-06 MaxDP=1.03D-04 DE=-8.34D-06 OVMax= 1.45D-04

 Cycle   8  Pass 1  IDiag  1:
 RMSU=  2.34D-06    CP:  9.70D-01  1.08D+00  8.03D-01  5.67D-01  7.21D-01
                    CP:  5.95D-01  6.72D-01
 E= -422.021704761993     Delta-E=       -0.000000226137 Rises=F Damp=F
 DIIS: error= 7.48D-06 at cycle   8 NSaved=   8.
 NSaved= 8 IEnMin= 8 EnMin= -422.021704761993     IErMin= 8 ErrMin= 7.48D-06
 ErrMax= 7.48D-06  0.00D+00 EMaxC= 1.00D-01 BMatC= 2.46D-08 BMatP= 2.71D-07
 IDIUse=1 WtCom= 1.00D+00 WtEn= 0.00D+00
 Coeff-Com: -0.575D-04-0.106D-03 0.186D-02 0.379D-02 0.183D-01 0.510D-01
 Coeff-Com:  0.264D+00 0.661D+00
 Coeff:     -0.575D-04-0.106D-03 0.186D-02 0.379D-02 0.183D-01 0.510D-01
 Coeff:      0.264D+00 0.661D+00
 Gap=     0.228 Goal=   None    Shift=    0.000
 RMSDP=1.07D-06 MaxDP=2.73D-05 DE=-2.26D-07 OVMax= 6.92D-05

 Cycle   9  Pass 1  IDiag  1:
 RMSU=  6.95D-07    CP:  9.70D-01  1.08D+00  8.03D-01  5.67D-01  7.23D-01
                    CP:  6.00D-01  7.27D-01  7.16D-01
 E= -422.021704782873     Delta-E=       -0.000000020880 Rises=F Damp=F
 DIIS: error= 3.05D-06 at cycle   9 NSaved=   9.
 NSaved= 9 IEnMin= 9 EnMin= -422.021704782873     IErMin= 9 ErrMin= 3.05D-06
 ErrMax= 3.05D-06  0.00D+00 EMaxC= 1.00D-01 BMatC= 3.12D-09 BMatP= 2.46D-08
 IDIUse=1 WtCom= 1.00D+00 WtEn= 0.00D+00
 Coeff-Com:  0.223D-04-0.132D-03-0.993D-04-0.257D-03 0.167D-02 0.139D-01
 Coeff-Com:  0.105D+00 0.356D+00 0.524D+00
 Coeff:      0.223D-04-0.132D-03-0.993D-04-0.257D-03 0.167D-02 0.139D-01
 Coeff:      0.105D+00 0.356D+00 0.524D+00
 Gap=     0.228 Goal=   None    Shift=    0.000
 RMSDP=3.82D-07 MaxDP=1.16D-05 DE=-2.09D-08 OVMax= 2.75D-05

 Cycle  10  Pass 1  IDiag  1:
 RMSU=  2.27D-07    CP:  9.70D-01  1.08D+00  8.03D-01  5.67D-01  7.23D-01
                    CP:  6.02D-01  7.33D-01  7.70D-01  6.26D-01
 E= -422.021704785841     Delta-E=       -0.000000002969 Rises=F Damp=F
 DIIS: error= 8.17D-07 at cycle  10 NSaved=  10.
 NSaved=10 IEnMin=10 EnMin= -422.021704785841     IErMin=10 ErrMin= 8.17D-07
 ErrMax= 8.17D-07  0.00D+00 EMaxC= 1.00D-01 BMatC= 2.62D-10 BMatP= 3.12D-09
 IDIUse=1 WtCom= 1.00D+00 WtEn= 0.00D+00
 Coeff-Com:  0.207D-04-0.456D-04-0.331D-03-0.773D-03-0.214D-02-0.638D-03
 Coeff-Com:  0.985D-02 0.737D-01 0.253D+00 0.667D+00
 Coeff:      0.207D-04-0.456D-04-0.331D-03-0.773D-03-0.214D-02-0.638D-03
 Coeff:      0.985D-02 0.737D-01 0.253D+00 0.667D+00
 Gap=     0.228 Goal=   None    Shift=    0.000
 RMSDP=1.03D-07 MaxDP=2.88D-06 DE=-2.97D-09 OVMax= 6.97D-06

 Cycle  11  Pass 1  IDiag  1:
 RMSU=  4.38D-08    CP:  9.70D-01  1.08D+00  8.03D-01  5.67D-01  7.23D-01
                    CP:  6.02D-01  7.35D-01  7.75D-01  7.15D-01  7.49D-01
 E= -422.021704786111     Delta-E=       -0.000000000270 Rises=F Damp=F
 DIIS: error= 1.62D-07 at cycle  11 NSaved=  11.
 NSaved=11 IEnMin=11 EnMin= -422.021704786111     IErMin=11 ErrMin= 1.62D-07
 ErrMax= 1.62D-07  0.00D+00 EMaxC= 1.00D-01 BMatC= 1.07D-11 BMatP= 2.62D-10
 IDIUse=1 WtCom= 1.00D+00 WtEn= 0.00D+00
 Coeff-Com:  0.756D-05-0.138D-04-0.121D-03-0.300D-03-0.899D-03-0.596D-03
 Coeff-Com: -0.454D-03 0.169D-01 0.777D-01 0.265D+00 0.643D+00
 Coeff:      0.756D-05-0.138D-04-0.121D-03-0.300D-03-0.899D-03-0.596D-03
 Coeff:     -0.454D-03 0.169D-01 0.777D-01 0.265D+00 0.643D+00
 Gap=     0.228 Goal=   None    Shift=    0.000
 RMSDP=1.97D-08 MaxDP=7.26D-07 DE=-2.70D-10 OVMax= 1.07D-06

 Cycle  12  Pass 1  IDiag  1:
 RMSU=  1.54D-08    CP:  9.70D-01  1.08D+00  8.03D-01  5.67D-01  7.23D-01
                    CP:  6.02D-01  7.34D-01  7.78D-01  7.14D-01  7.76D-01
                    CP:  8.70D-01
 E= -422.021704786120     Delta-E=       -0.000000000009 Rises=F Damp=F
 DIIS: error= 8.05D-08 at cycle  12 NSaved=  12.
 NSaved=12 IEnMin=12 EnMin= -422.021704786120     IErMin=12 ErrMin= 8.05D-08
 ErrMax= 8.05D-08  0.00D+00 EMaxC= 1.00D-01 BMatC= 2.05D-12 BMatP= 1.07D-11
 IDIUse=1 WtCom= 1.00D+00 WtEn= 0.00D+00
 Coeff-Com:  0.530D-06 0.513D-06-0.427D-05-0.242D-04-0.904D-04-0.112D-03
 Coeff-Com: -0.200D-02-0.326D-02-0.548D-02 0.174D-01 0.326D+00 0.668D+00
 Coeff:      0.530D-06 0.513D-06-0.427D-05-0.242D-04-0.904D-04-0.112D-03
 Coeff:     -0.200D-02-0.326D-02-0.548D-02 0.174D-01 0.326D+00 0.668D+00
 Gap=     0.228 Goal=   None    Shift=    0.000
 RMSDP=7.10D-09 MaxDP=2.52D-07 DE=-8.64D-12 OVMax= 3.14D-07

 Error on total polarization charges =  0.01618
 SCF Done:  E(RB3LYP) =  -422.021704786     A.U. after   12 cycles
            NFock= 12  Conv=0.71D-08     -V/T= 2.0094
 KE= 4.181031682772D+02 PE=-1.995903495509D+03 EE= 6.405796805263D+02
 Leave Link  502 at Sun Jul 18 13:37:29 2021, MaxMem=   104857600 cpu:              87.9 elap:              22.0
 (Enter /prod/apps/gaussian/g16b1/l601.exe)
 Copying SCF densities to generalized density rwf, IOpCl= 0 IROHF=0.

 **********************************************************************

            Population analysis using the SCF Density.

 **********************************************************************

 Orbital symmetries:
       Occupied  (A) (A) (A) (A) (A) (A) (A) (A) (A) (A) (A) (A)
                 (A) (A) (A) (A) (A) (A) (A) (A) (A) (A) (A) (A)
                 (A) (A) (A) (A) (A) (A) (A) (A) (A) (A) (A) (A)
                 (A)
       Virtual   (A) (A) (A) (A) (A) (A) (A) (A) (A) (A) (A) (A)
                 (A) (A) (A) (A) (A) (A) (A) (A) (A) (A) (A) (A)
                 (A) (A) (A) (A) (A) (A) (A) (A) (A) (A) (A) (A)
                 (A) (A) (A) (A) (A) (A) (A) (A) (A) (A) (A) (A)
                 (A) (A) (A) (A) (A) (A) (A) (A) (A) (A) (A) (A)
                 (A) (A) (A) (A) (A) (A) (A) (A) (A) (A) (A) (A)
                 (A) (A) (A) (A) (A) (A) (A) (A) (A) (A) (A) (A)
                 (A) (A) (A) (A) (A) (A) (A) (A) (A) (A) (A) (A)
                 (A) (A) (A) (A) (A) (A) (A) (A) (A) (A) (A) (A)
                 (A) (A) (A) (A) (A) (A) (A) (A) (A) (A) (A) (A)
                 (A) (A) (A) (A) (A) (A) (A) (A) (A) (A) (A) (A)
                 (A) (A) (A) (A) (A) (A) (A)
 The electronic state is 1-A.
 Alpha  occ. eigenvalues --  -14.45177 -14.33879 -10.24817 -10.24098 -10.23942
 Alpha  occ. eigenvalues --  -10.22725 -10.20138 -10.20073 -10.19950 -10.19535
 Alpha  occ. eigenvalues --   -1.02198  -0.94214  -0.81414  -0.81199  -0.75267
 Alpha  occ. eigenvalues --   -0.72308  -0.66655  -0.62628  -0.62011  -0.58301
 Alpha  occ. eigenvalues --   -0.54803  -0.52011  -0.50978  -0.48987  -0.46624
 Alpha  occ. eigenvalues --   -0.44646  -0.42591  -0.42441  -0.41116  -0.40600
 Alpha  occ. eigenvalues --   -0.39631  -0.38322  -0.36956  -0.34935  -0.29411
 Alpha  occ. eigenvalues --   -0.26564  -0.25529
 Alpha virt. eigenvalues --   -0.02739  -0.01733   0.06172   0.09532   0.10128
 Alpha virt. eigenvalues --    0.10611   0.11485   0.12451   0.12855   0.14047
 Alpha virt. eigenvalues --    0.14290   0.15230   0.16101   0.17773   0.18433
 Alpha virt. eigenvalues --    0.20341   0.20785   0.22784   0.23441   0.24398
 Alpha virt. eigenvalues --    0.27960   0.31237   0.32310   0.34261   0.44396
 Alpha virt. eigenvalues --    0.48159   0.48782   0.49551   0.50362   0.51945
 Alpha virt. eigenvalues --    0.52122   0.55183   0.56418   0.58177   0.58586
 Alpha virt. eigenvalues --    0.59334   0.59702   0.61378   0.62946   0.63496
 Alpha virt. eigenvalues --    0.64956   0.67036   0.69351   0.69954   0.71440
 Alpha virt. eigenvalues --    0.72589   0.79530   0.79865   0.81653   0.82919
 Alpha virt. eigenvalues --    0.83377   0.84181   0.85069   0.85952   0.86049
 Alpha virt. eigenvalues --    0.87136   0.88333   0.89509   0.90608   0.93188
 Alpha virt. eigenvalues --    0.94102   0.94910   0.95685   0.97342   1.00699
 Alpha virt. eigenvalues --    1.01408   1.04230   1.07225   1.09609   1.13792
 Alpha virt. eigenvalues --    1.16418   1.18773   1.26410   1.30207   1.31046
 Alpha virt. eigenvalues --    1.33486   1.37801   1.40141   1.45608   1.47131
 Alpha virt. eigenvalues --    1.49403   1.50839   1.52503   1.59908   1.63462
 Alpha virt. eigenvalues --    1.70637   1.72501   1.74570   1.79243   1.82123
 Alpha virt. eigenvalues --    1.83108   1.85668   1.89509   1.90764   1.93340
 Alpha virt. eigenvalues --    1.94732   1.95402   1.97197   2.04629   2.05896
 Alpha virt. eigenvalues --    2.08641   2.10901   2.11809   2.14757   2.18578
 Alpha virt. eigenvalues --    2.20822   2.23664   2.24961   2.29767   2.32212
 Alpha virt. eigenvalues --    2.34110   2.35679   2.38671   2.41766   2.47432
 Alpha virt. eigenvalues --    2.50518   2.52173   2.56607   2.60058   2.61595
 Alpha virt. eigenvalues --    2.65058   2.67257   2.70527   2.76206   2.78822
 Alpha virt. eigenvalues --    2.82464   2.91479   3.08478   3.37649   3.90668
 Alpha virt. eigenvalues --    4.03657   4.10008   4.15510   4.19996   4.22999
 Alpha virt. eigenvalues --    4.25253   4.35947   4.49476   4.61260
          Condensed to atoms (all electrons):
               1          2          3          4          5          6
     1  C    5.047523   0.381584   0.382601   0.379694   0.243541  -0.020880
     2  H    0.381584   0.475981  -0.030966  -0.023738  -0.025203  -0.004011
     3  H    0.382601  -0.030966   0.480034  -0.021596  -0.033408   0.002982
     4  H    0.379694  -0.023738  -0.021596   0.472736  -0.024975  -0.000012
     5  N    0.243541  -0.025203  -0.033408  -0.024975   6.679945   0.305699
     6  H   -0.020880  -0.004011   0.002982  -0.000012   0.305699   0.275716
     7  C   -0.039217  -0.001695  -0.000521   0.003240   0.227910  -0.022828
     8  H    0.004878  -0.000142   0.000187  -0.000145  -0.034324  -0.001504
     9  H   -0.004570  -0.000008   0.003444   0.000065  -0.021902   0.002847
    10  C   -0.003425   0.001173  -0.001991   0.000234  -0.060260  -0.003669
    11  H    0.006917  -0.000541   0.000581   0.000053  -0.005593  -0.000558
    12  H   -0.000749   0.000433   0.000057  -0.000030  -0.001717   0.005314
    13  C   -0.000099   0.000079  -0.000008  -0.000001   0.003971   0.000078
    14  N   -0.000046  -0.000008   0.000008  -0.000000   0.000019  -0.000001
    15  C    0.000000  -0.000000  -0.000000   0.000000   0.000001  -0.000000
    16  H    0.000000   0.000000  -0.000000   0.000000  -0.000000   0.000000
    17  C   -0.000000  -0.000000   0.000000  -0.000000   0.000000  -0.000000
    18  H    0.000000   0.000000  -0.000000   0.000000  -0.000000  -0.000000
    19  C    0.000000  -0.000000  -0.000000  -0.000000  -0.000001   0.000000
    20  H    0.000000   0.000000  -0.000000   0.000000  -0.000000  -0.000000
    21  C   -0.000010  -0.000003   0.000003   0.000000  -0.000012   0.000021
    22  H    0.000000   0.000000  -0.000000   0.000000  -0.000043  -0.000001
    23  H   -0.020126   0.002499  -0.000562  -0.003732   0.306430  -0.011674
               7          8          9         10         11         12
     1  C   -0.039217   0.004878  -0.004570  -0.003425   0.006917  -0.000749
     2  H   -0.001695  -0.000142  -0.000008   0.001173  -0.000541   0.000433
     3  H   -0.000521   0.000187   0.003444  -0.001991   0.000581   0.000057
     4  H    0.003240  -0.000145   0.000065   0.000234   0.000053  -0.000030
     5  N    0.227910  -0.034324  -0.021902  -0.060260  -0.005593  -0.001717
     6  H   -0.022828  -0.001504   0.002847  -0.003669  -0.000558   0.005314
     7  C    5.063725   0.380932   0.379161   0.340359  -0.043603  -0.030955
     8  H    0.380932   0.510468  -0.028500  -0.040986   0.005534  -0.003829
     9  H    0.379161  -0.028500   0.471766  -0.036219  -0.003687   0.003574
    10  C    0.340359  -0.040986  -0.036219   5.228023   0.352779   0.369043
    11  H   -0.043603   0.005534  -0.003687   0.352779   0.543890  -0.028408
    12  H   -0.030955  -0.003829   0.003574   0.369043  -0.028408   0.514462
    13  C   -0.044195  -0.003077   0.002058   0.357434  -0.024706  -0.025628
    14  N   -0.001970   0.000132   0.002182  -0.076783   0.009281   0.001856
    15  C   -0.000272   0.000025  -0.000044   0.005736   0.000535  -0.000142
    16  H    0.000005   0.000000  -0.000001  -0.000266  -0.000036   0.000003
    17  C   -0.000021  -0.000013  -0.000005   0.001314  -0.000008   0.000034
    18  H   -0.000000  -0.000000  -0.000000   0.000014  -0.000001  -0.000000
    19  C    0.000419  -0.000054  -0.000047   0.004287  -0.000081   0.000104
    20  H   -0.000000   0.000008   0.000000  -0.000278   0.000005  -0.000005
    21  C   -0.001709   0.004183   0.000771  -0.078778   0.004917  -0.000573
    22  H   -0.000258   0.001501  -0.000016  -0.002857  -0.000092   0.000824
    23  H   -0.019722  -0.004022  -0.000778   0.004538  -0.000028   0.000015
              13         14         15         16         17         18
     1  C   -0.000099  -0.000046   0.000000   0.000000  -0.000000   0.000000
     2  H    0.000079  -0.000008  -0.000000   0.000000  -0.000000   0.000000
     3  H   -0.000008   0.000008  -0.000000  -0.000000   0.000000  -0.000000
     4  H   -0.000001  -0.000000   0.000000   0.000000  -0.000000   0.000000
     5  N    0.003971   0.000019   0.000001  -0.000000   0.000000  -0.000000
     6  H    0.000078  -0.000001  -0.000000   0.000000  -0.000000  -0.000000
     7  C   -0.044195  -0.001970  -0.000272   0.000005  -0.000021  -0.000000
     8  H   -0.003077   0.000132   0.000025   0.000000  -0.000013  -0.000000
     9  H    0.002058   0.002182  -0.000044  -0.000001  -0.000005  -0.000000
    10  C    0.357434  -0.076783   0.005736  -0.000266   0.001314   0.000014
    11  H   -0.024706   0.009281   0.000535  -0.000036  -0.000008  -0.000001
    12  H   -0.025628   0.001856  -0.000142   0.000003   0.000034  -0.000000
    13  C    4.653433   0.471797  -0.061862   0.004181  -0.039336   0.000362
    14  N    0.471797   6.843490   0.429003  -0.047889  -0.036619   0.005082
    15  C   -0.061862   0.429003   4.798213   0.375209   0.521023  -0.038897
    16  H    0.004181  -0.047889   0.375209   0.554136  -0.053745  -0.002303
    17  C   -0.039336  -0.036619   0.521023  -0.053745   4.963436   0.356661
    18  H    0.000362   0.005082  -0.038897  -0.002303   0.356661   0.558544
    19  C   -0.022627  -0.044026  -0.030131   0.003596   0.527108  -0.039902
    20  H    0.005724  -0.000026   0.004689  -0.000119  -0.041904  -0.004653
    21  C    0.486589  -0.043976  -0.035437   0.000547  -0.038860   0.005379
    22  H   -0.038552   0.003920   0.000073   0.000022   0.006516  -0.000130
    23  H   -0.000101   0.000001  -0.000000   0.000000   0.000000  -0.000000
              19         20         21         22         23
     1  C    0.000000   0.000000  -0.000010   0.000000  -0.020126
     2  H   -0.000000   0.000000  -0.000003   0.000000   0.002499
     3  H   -0.000000  -0.000000   0.000003  -0.000000  -0.000562
     4  H   -0.000000   0.000000   0.000000   0.000000  -0.003732
     5  N   -0.000001  -0.000000  -0.000012  -0.000043   0.306430
     6  H    0.000000  -0.000000   0.000021  -0.000001  -0.011674
     7  C    0.000419  -0.000000  -0.001709  -0.000258  -0.019722
     8  H   -0.000054   0.000008   0.004183   0.001501  -0.004022
     9  H   -0.000047   0.000000   0.000771  -0.000016  -0.000778
    10  C    0.004287  -0.000278  -0.078778  -0.002857   0.004538
    11  H   -0.000081   0.000005   0.004917  -0.000092  -0.000028
    12  H    0.000104  -0.000005  -0.000573   0.000824   0.000015
    13  C   -0.022627   0.005724   0.486589  -0.038552  -0.000101
    14  N   -0.044026  -0.000026  -0.043976   0.003920   0.000001
    15  C   -0.030131   0.004689  -0.035437   0.000073  -0.000000
    16  H    0.003596  -0.000119   0.000547   0.000022   0.000000
    17  C    0.527108  -0.041904  -0.038860   0.006516   0.000000
    18  H   -0.039902  -0.004653   0.005379  -0.000130  -0.000000
    19  C    4.819480   0.366631   0.559306  -0.043336  -0.000000
    20  H    0.366631   0.562645  -0.047305  -0.009791   0.000000
    21  C    0.559306  -0.047305   4.969211   0.359649   0.000004
    22  H   -0.043336  -0.009791   0.359649   0.553557   0.000002
    23  H   -0.000000   0.000000   0.000004   0.000002   0.274599
 Mulliken charges:
               1
     1  C   -0.357616
     2  H    0.224568
     3  H    0.219153
     4  H    0.218208
     5  N   -0.560077
     6  H    0.472479
     7  C   -0.188785
     8  H    0.208749
     9  H    0.229909
    10  C   -0.359423
    11  H    0.182850
    12  H    0.196317
    13  C    0.274487
    14  N   -0.515429
    15  C    0.032279
    16  H    0.166659
    17  C   -0.165580
    18  H    0.159846
    19  C   -0.100725
    20  H    0.164379
    21  C   -0.143915
    22  H    0.169011
    23  H    0.472656
 Sum of Mulliken charges =   1.00000
 Mulliken charges with hydrogens summed into heavy atoms:
               1
     1  C    0.304313
     5  N    0.385058
     7  C    0.249873
    10  C    0.019744
    13  C    0.274487
    14  N   -0.515429
    15  C    0.198938
    17  C   -0.005734
    19  C    0.063654
    21  C    0.025096
 Electronic spatial extent (au):  <R**2>=           1943.8361
 Charge=              1.0000 electrons
 Dipole moment (field-independent basis, Debye):
    X=             12.7096    Y=             -4.7824    Z=             -1.0310  Tot=             13.6187
 Quadrupole moment (field-independent basis, Debye-Ang):
   XX=             -2.1816   YY=            -51.5829   ZZ=            -56.6054
   XY=             -5.0897   XZ=             -0.2013   YZ=             -1.2714
 Traceless Quadrupole moment (field-independent basis, Debye-Ang):
   XX=             34.6083   YY=            -14.7929   ZZ=            -19.8154
   XY=             -5.0897   XZ=             -0.2013   YZ=             -1.2714
 Octapole moment (field-independent basis, Debye-Ang**2):
  XXX=            151.7180  YYY=            -16.2254  ZZZ=             -0.9850  XYY=             13.8844
  XXY=            -17.3724  XXZ=            -12.9162  XZZ=             22.0774  YZZ=             -2.8184
  YYZ=             -2.7387  XYZ=              5.1708
 Hexadecapole moment (field-independent basis, Debye-Ang**3):
 XXXX=          -1292.0410 YYYY=           -339.5707 ZZZZ=           -120.6487 XXXY=            -72.1472
 XXXZ=             -8.6654 YYYX=            -11.5590 YYYZ=             -5.2622 ZZZX=             -5.1265
 ZZZY=             -0.4662 XXYY=           -312.6366 XXZZ=           -346.3897 YYZZ=            -80.3011
 XXYZ=              2.4670 YYXZ=              1.4438 ZZXY=            -10.6059
 N-N= 5.151989419197D+02 E-N=-1.995903501844D+03  KE= 4.181031682772D+02
 No NMR shielding tensors so no spin-rotation constants.
 Leave Link  601 at Sun Jul 18 13:37:29 2021, MaxMem=   104857600 cpu:               0.3 elap:               0.1
 (Enter /prod/apps/gaussian/g16b1/l701.exe)
 ... and contract with generalized density number  0.
 Compute integral first derivatives.
 D1PCM: PCM CHGder 1st derivatives, ID1Alg=3 FixD1E=F DoIter=F DoCFld=F I1PDM=0.
 GePol: Maximum number of non-zero 1st derivatives   =     185
 Leave Link  701 at Sun Jul 18 13:37:30 2021, MaxMem=   104857600 cpu:               3.8 elap:               1.0
 (Enter /prod/apps/gaussian/g16b1/l702.exe)
 L702 exits ... SP integral derivatives will be done elsewhere.
 Leave Link  702 at Sun Jul 18 13:37:30 2021, MaxMem=   104857600 cpu:               0.1 elap:               0.0
 (Enter /prod/apps/gaussian/g16b1/l703.exe)
 Integral derivatives from FoFJK, PRISM(SPDF).
 Compute integral first derivatives, UseDBF=F ICtDFT=           0.
 Calling FoFJK, ICntrl=      2127 FMM=F ISym2X=0 I1Cent= 0 IOpClX= 0 NMat=1 NMatS=1 NMatT=0.
 FoFJK:  IHMeth= 1 ICntrl=    2127 DoSepK=F KAlg= 0 I1Cent=           0 FoldK=F
 IRaf=         0 NMat=       1 IRICut=       1 DoRegI=T DoRafI=F ISym2E= 0 IDoP0=0 IntGTp=1.
 FoFCou: FMM=F IPFlag=           0 FMFlag=      100000 FMFlg1=         800
         NFxFlg=           0 DoJE=F BraDBF=F KetDBF=F FulRan=T
         wScrn=  0.000000 ICntrl=      2127 IOpCl=  0 I1Cent=           0 NGrid=           0
         NMat0=    1 NMatS0=      1 NMatT0=    0 NMatD0=    1 NMtDS0=    0 NMtDT0=    0
 Symmetry not used in FoFCou.
 Leave Link  703 at Sun Jul 18 13:37:34 2021, MaxMem=   104857600 cpu:              17.8 elap:               4.5
 (Enter /prod/apps/gaussian/g16b1/l716.exe)
 Dipole        = 5.00033271D+00-1.88154409D+00-4.05631401D-01
 ***** Axes restored to original set *****
 -------------------------------------------------------------------
 Center     Atomic                   Forces (Hartrees/Bohr)
 Number     Number              X              Y              Z
 -------------------------------------------------------------------
      1        6           0.019954634    0.015574603    0.005379552
      2        1          -0.006690968   -0.009730763   -0.001713523
      3        1          -0.003322470   -0.003548109   -0.007966327
      4        1          -0.006471632   -0.001793833   -0.000304378
      5        7           0.019941013    0.038978688   -0.000328256
      6        1           0.002744436   -0.024427461    0.003496669
      7        6          -0.035255508   -0.036274822    0.024884466
      8        1           0.000921813    0.002565556   -0.004818175
      9        1           0.016832373   -0.000181128   -0.004814992
     10        6           0.005160415    0.019490994   -0.015278580
     11        1          -0.005981552    0.000132216    0.016644373
     12        1          -0.000451890   -0.002809689   -0.007951508
     13        6          -0.001750761    0.018557233    0.027270402
     14        7          -0.005622885   -0.005973323   -0.020398724
     15        6          -0.006689794   -0.028227376    0.002381584
     16        1           0.003546112   -0.000965877   -0.001348373
     17        6           0.000177454    0.011615823    0.004581199
     18        1          -0.000492296   -0.005014394   -0.001398164
     19        6          -0.064431982    0.024399522    0.020819052
     20        1          -0.007721573    0.007723221    0.007786132
     21        6           0.059763890   -0.015869940   -0.015942758
     22        1           0.013470075    0.002015785   -0.002771355
     23        1           0.002371094   -0.006236927   -0.028208317
 -------------------------------------------------------------------
 Cartesian Forces:  Max     0.064431982 RMS     0.017490757
 Leave Link  716 at Sun Jul 18 13:37:34 2021, MaxMem=   104857600 cpu:               0.1 elap:               0.0
 (Enter /prod/apps/gaussian/g16b1/l103.exe)

 GradGradGradGradGradGradGradGradGradGradGradGradGradGradGradGradGradGrad
 Berny optimization.
 FormGI is forming the generalized inverse of G from B-inverse, IUseBI=4.
 Internal  Forces:  Max     0.077390574 RMS     0.011720397
 Search for a local minimum.
 Step number   1 out of a maximum of  126
 All quantities printed in internal units (Hartrees-Bohrs-Radians)
 RMS Force = .11720D-01 SwitMx=.10000D-02 MixMth= 1
 Mixed Optimization -- RFO/linear search
 Second derivative matrix not updated -- first step.
 ITU=  0
     Eigenvalues ---    0.00230   0.00509   0.00962   0.01019   0.01573
     Eigenvalues ---    0.01998   0.02041   0.02178   0.02202   0.02447
     Eigenvalues ---    0.02543   0.02719   0.03819   0.03927   0.04534
     Eigenvalues ---    0.05137   0.05356   0.05575   0.05596   0.05992
     Eigenvalues ---    0.07363   0.08295   0.08601   0.11519   0.12193
     Eigenvalues ---    0.12354   0.15775   0.15904   0.15922   0.15999
     Eigenvalues ---    0.16000   0.16000   0.16000   0.21751   0.21804
     Eigenvalues ---    0.21816   0.22020   0.22399   0.24211   0.24978
     Eigenvalues ---    0.28378   0.33513   0.34406   0.34443   0.34467
     Eigenvalues ---    0.34473   0.34494   0.34544   0.34585   0.34604
     Eigenvalues ---    0.35087   0.35158   0.35178   0.35254   0.37573
     Eigenvalues ---    0.40657   0.43473   0.44562   0.47708   0.47732
     Eigenvalues ---    0.49769   0.53068   0.59982
 RFO step:  Lambda=-4.87296583D-02 EMin= 2.30000000D-03
 Linear search not attempted -- first point.
 Maximum step size (   0.300) exceeded in Quadratic search.
    -- Step size scaled by   0.800
 Iteration  1 RMS(Cart)=  0.08856272 RMS(Int)=  0.00226030
 Iteration  2 RMS(Cart)=  0.00303384 RMS(Int)=  0.00098172
 Iteration  3 RMS(Cart)=  0.00001076 RMS(Int)=  0.00098171
 Iteration  4 RMS(Cart)=  0.00000002 RMS(Int)=  0.00098171
 ITry= 1 IFail=0 DXMaxC= 2.64D-01 DCOld= 1.00D+10 DXMaxT= 3.00D-01 DXLimC= 3.00D+00 Rises=F
 Variable       Old X    -DE/DX   Delta X   Delta X   Delta X     New X
                                 (Linear)    (Quad)   (Total)
    R1        2.06505  -0.00265   0.00000  -0.00539  -0.00539   2.05966
    R2        2.06589  -0.00234   0.00000  -0.00476  -0.00476   2.06113
    R3        2.06650  -0.00439   0.00000  -0.00894  -0.00894   2.05757
    R4        2.81459   0.00204   0.00000   0.00425   0.00425   2.81885
    R5        1.88925   0.02384   0.00000   0.03626   0.03626   1.92552
    R6        2.74991   0.03130   0.00000   0.05900   0.05900   2.80892
    R7        1.88952   0.02854   0.00000   0.04343   0.04343   1.93295
    R8        2.06550  -0.00026   0.00000  -0.00052  -0.00052   2.06498
    R9        2.06422  -0.00328   0.00000  -0.00666  -0.00666   2.05756
   R10        2.91320   0.01020   0.00000   0.02454   0.02454   2.93774
   R11        2.06323   0.00047   0.00000   0.00095   0.00095   2.06418
   R12        2.06355   0.00030   0.00000   0.00061   0.00061   2.06416
   R13        2.79840   0.01831   0.00000   0.03725   0.03725   2.83565
   R14        2.58646  -0.02271   0.00000  -0.03497  -0.03513   2.55133
   R15        2.67108  -0.00668   0.00000  -0.00939  -0.00956   2.66152
   R16        2.55202   0.00146   0.00000  -0.00184  -0.00183   2.55019
   R17        2.05534  -0.00148   0.00000  -0.00297  -0.00297   2.05237
   R18        2.65025  -0.00887   0.00000  -0.01610  -0.01593   2.63431
   R19        2.05386  -0.00204   0.00000  -0.00407  -0.00407   2.04979
   R20        2.65430  -0.01073   0.00000  -0.01435  -0.01419   2.64011
   R21        2.05265   0.00062   0.00000   0.00124   0.00124   2.05389
   R22        2.49736   0.07739   0.00000   0.09692   0.09690   2.59426
   R23        2.05419  -0.00148   0.00000  -0.00295  -0.00295   2.05124
    A1        1.81996   0.01149   0.00000   0.05204   0.05198   1.87195
    A2        1.87308   0.00800   0.00000   0.02699   0.02630   1.89938
    A3        1.98717  -0.01275   0.00000  -0.04684  -0.04723   1.93994
    A4        1.91430   0.00314   0.00000   0.00806   0.00782   1.92212
    A5        1.92903  -0.00441   0.00000  -0.01471  -0.01487   1.91416
    A6        1.93578  -0.00396   0.00000  -0.01943  -0.01992   1.91586
    A7        1.89559  -0.00025   0.00000   0.00273   0.00259   1.89819
    A8        1.98366   0.00642   0.00000   0.02354   0.02343   2.00709
    A9        1.89528  -0.00386   0.00000  -0.01505  -0.01524   1.88004
   A10        1.89584  -0.00203   0.00000  -0.00307  -0.00318   1.89267
   A11        1.89644  -0.00168   0.00000  -0.02048  -0.02052   1.87593
   A12        1.89544   0.00109   0.00000   0.01034   0.01041   1.90585
   A13        1.85039  -0.00530   0.00000  -0.00163  -0.00588   1.84451
   A14        2.08502  -0.02399   0.00000  -0.11329  -0.11331   1.97170
   A15        1.84202   0.03511   0.00000   0.10789   0.10777   1.94978
   A16        1.86682   0.00777   0.00000   0.01647   0.01490   1.88172
   A17        1.86881  -0.00384   0.00000   0.02133   0.01947   1.88828
   A18        1.93916  -0.00875   0.00000  -0.01927  -0.01604   1.92312
   A19        1.77396   0.01129   0.00000   0.07559   0.07690   1.85086
   A20        2.01570  -0.01624   0.00000  -0.06568  -0.06474   1.95096
   A21        1.85567   0.01820   0.00000   0.05808   0.05796   1.91363
   A22        1.89354   0.00183   0.00000  -0.00145  -0.00102   1.89251
   A23        1.97717  -0.01421   0.00000  -0.05959  -0.06279   1.91438
   A24        1.94368  -0.00095   0.00000  -0.00489  -0.00454   1.93914
   A25        2.01201   0.00912   0.00000   0.02436   0.02460   2.03661
   A26        2.12829  -0.00190   0.00000  -0.00531  -0.00506   2.12323
   A27        2.14169  -0.00713   0.00000  -0.01808  -0.01878   2.12291
   A28        2.05697   0.00759   0.00000   0.00622   0.00574   2.06271
   A29        2.07702  -0.01308   0.00000  -0.03674  -0.03717   2.03984
   A30        2.09657   0.01940   0.00000   0.04973   0.04922   2.14580
   A31        2.10278  -0.00575   0.00000  -0.00728  -0.00757   2.09520
   A32        2.05927   0.00920   0.00000   0.02929   0.02933   2.08860
   A33        2.07321  -0.00868   0.00000  -0.02123  -0.02132   2.05189
   A34        2.15063  -0.00050   0.00000  -0.00799  -0.00796   2.14267
   A35        2.16798  -0.00709   0.00000  -0.03987  -0.04006   2.12791
   A36        2.11182  -0.01249   0.00000  -0.01968  -0.02046   2.09137
   A37        1.99671   0.02005   0.00000   0.06455   0.06458   2.06129
   A38        2.04502   0.00357   0.00000   0.02737   0.02626   2.07128
   A39        2.20515  -0.01539   0.00000  -0.06402  -0.06433   2.14082
   A40        2.02212   0.01252   0.00000   0.04411   0.04423   2.06635
    D1       -0.67273  -0.00076   0.00000  -0.00949  -0.00966  -0.68239
    D2        1.43952   0.00069   0.00000   0.00400   0.00392   1.44343
    D3       -2.73216   0.00354   0.00000   0.02187   0.02162  -2.71054
    D4       -2.71419  -0.00410   0.00000  -0.03524  -0.03519  -2.74938
    D5       -0.60194  -0.00265   0.00000  -0.02175  -0.02161  -0.62355
    D6        1.50957   0.00020   0.00000  -0.00388  -0.00391   1.50566
    D7        1.44192  -0.00238   0.00000  -0.02223  -0.02211   1.41981
    D8       -2.72901  -0.00093   0.00000  -0.00873  -0.00853  -2.73755
    D9       -0.61751   0.00192   0.00000   0.00913   0.00917  -0.60833
   D10        2.99650  -0.00666   0.00000  -0.04090  -0.04046   2.95604
   D11        0.88961   0.00346   0.00000   0.01441   0.01297   0.90258
   D12       -1.30773   0.00196   0.00000   0.02912   0.03031  -1.27743
   D13       -1.17458  -0.00420   0.00000  -0.02415  -0.02375  -1.19833
   D14        3.00172   0.00592   0.00000   0.03116   0.02968   3.03139
   D15        0.80437   0.00442   0.00000   0.04586   0.04701   0.85138
   D16        0.88508  -0.00673   0.00000  -0.04454  -0.04424   0.84084
   D17       -1.22181   0.00339   0.00000   0.01077   0.00919  -1.21262
   D18        2.86403   0.00189   0.00000   0.02548   0.02652   2.89055
   D19        1.11839  -0.00438   0.00000  -0.03517  -0.03710   1.08129
   D20       -0.92699  -0.00610   0.00000  -0.05064  -0.05095  -0.97795
   D21       -3.09237  -0.00797   0.00000  -0.04483  -0.04395  -3.13632
   D22        3.08446   0.00374   0.00000   0.02058   0.02002   3.10448
   D23        1.03908   0.00202   0.00000   0.00511   0.00617   1.04525
   D24       -1.12630   0.00015   0.00000   0.01092   0.01317  -1.11313
   D25       -1.16601   0.00612   0.00000   0.04245   0.04051  -1.12549
   D26        3.07180   0.00440   0.00000   0.02698   0.02666   3.09846
   D27        0.90642   0.00253   0.00000   0.03279   0.03366   0.94008
   D28       -1.88396  -0.00691   0.00000  -0.02825  -0.02735  -1.91131
   D29        1.30882  -0.00873   0.00000  -0.04842  -0.04715   1.26167
   D30        0.04964   0.01014   0.00000   0.06637   0.06480   0.11443
   D31       -3.04077   0.00832   0.00000   0.04621   0.04499  -2.99578
   D32        2.18981   0.00131   0.00000   0.01664   0.01677   2.20658
   D33       -0.90060  -0.00051   0.00000  -0.00352  -0.00303  -0.90363
   D34        3.09290   0.00233   0.00000   0.01377   0.01369   3.10660
   D35       -0.10031   0.00434   0.00000   0.03453   0.03394  -0.06637
   D36        2.93845   0.00637   0.00000   0.06332   0.06250   3.00096
   D37       -0.03775  -0.00024   0.00000   0.00215   0.00341  -0.03434
   D38       -0.14812   0.00392   0.00000   0.04037   0.04042  -0.10770
   D39       -3.12433  -0.00269   0.00000  -0.02080  -0.01867   3.14019
   D40       -3.02899   0.00133   0.00000  -0.01457  -0.01632  -3.04531
   D41        0.23719  -0.00343   0.00000  -0.06586  -0.06731   0.16988
   D42        3.02005   0.00387   0.00000   0.03496   0.03506   3.05511
   D43       -0.13480   0.00490   0.00000   0.04089   0.04021  -0.09459
   D44        0.00490  -0.00046   0.00000  -0.01507  -0.01554  -0.01063
   D45        3.13324   0.00057   0.00000  -0.00913  -0.01039   3.12285
   D46       -3.13459  -0.00191   0.00000  -0.01599  -0.01430   3.13429
   D47       -0.12397   0.00416   0.00000   0.03764   0.03748  -0.08649
   D48       -0.00700  -0.00075   0.00000  -0.00943  -0.00868  -0.01568
   D49        3.00363   0.00532   0.00000   0.04420   0.04309   3.04672
   D50        0.25509  -0.00676   0.00000  -0.07237  -0.07278   0.18231
   D51       -3.03440  -0.00346   0.00000  -0.02797  -0.02659  -3.06099
   D52       -3.00536  -0.00292   0.00000  -0.03048  -0.03011  -3.03547
   D53       -0.01167   0.00038   0.00000   0.01392   0.01609   0.00441
         Item               Value     Threshold  Converged?
 Maximum Force            0.077391     0.000450     NO 
 RMS     Force            0.011720     0.000300     NO 
 Maximum Displacement     0.263994     0.001800     NO 
 RMS     Displacement     0.088854     0.001200     NO 
 Predicted change in Energy=-2.692019D-02
 Lowest energy point so far.  Saving SCF results.
 GradGradGradGradGradGradGradGradGradGradGradGradGradGradGradGradGradGrad

 Leave Link  103 at Sun Jul 18 13:37:34 2021, MaxMem=   104857600 cpu:               0.1 elap:               0.0
 (Enter /prod/apps/gaussian/g16b1/l202.exe)
                          Input orientation:                          
 ---------------------------------------------------------------------
 Center     Atomic      Atomic             Coordinates (Angstroms)
 Number     Number       Type             X           Y           Z
 ---------------------------------------------------------------------
      1          6           0        3.215849    0.094261   -1.602661
      2          1           0        3.625089   -0.096063   -0.610573
      3          1           0        2.898210    1.137404   -1.626941
      4          1           0        3.995402   -0.077385   -2.343174
      5          7           0        2.049574   -0.792472   -1.882985
      6          1           0        2.242772   -1.717925   -1.502918
      7          6           0        0.753302   -0.318691   -1.331044
      8          1           0       -0.010297   -0.959142   -1.779171
      9          1           0        0.526368    0.710797   -1.603393
     10          6           0        0.687534   -0.492233    0.212425
     11          1           0        1.486695    0.130565    0.620613
     12          1           0        0.868734   -1.526892    0.512060
     13          6           0       -0.639437   -0.007676    0.718422
     14          7           0       -0.634122    1.136698    1.434776
     15          6           0       -1.815902    1.621991    1.869571
     16          1           0       -1.797724    2.589244    2.363159
     17          6           0       -3.007530    0.903470    1.785688
     18          1           0       -3.912158    1.310922    2.224105
     19          6           0       -2.976685   -0.324203    1.119571
     20          1           0       -3.862700   -0.945513    1.018344
     21          6           0       -1.826197   -0.731143    0.490752
     22          1           0       -1.849863   -1.651962   -0.083509
     23          1           0        1.968085   -0.888052   -2.898117
 ---------------------------------------------------------------------
                    Distance matrix (angstroms):
                    1          2          3          4          5
     1  C    0.000000
     2  H    1.089927   0.000000
     3  H    1.090702   1.755791   0.000000
     4  H    1.088818   1.771832   1.786766   0.000000
     5  N    1.491669   2.141557   2.123715   2.123528   0.000000
     6  H    2.059332   2.310307   2.932216   2.543445   1.018941
     7  C    2.511662   2.969142   2.609291   3.404974   1.486415
     8  H    3.398358   3.914915   3.588606   4.140196   2.069209
     9  H    2.759244   3.352431   2.410017   3.633553   2.158274
    10  C    3.167159   3.076282   3.305462   4.200616   2.517149
    11  H    2.816779   2.477884   2.838592   3.888558   2.727056
    12  H    3.550935   3.302283   3.973988   4.475431   2.769476
    13  C    4.501228   4.467687   4.396235   5.555174   3.822826
    14  N    5.013479   4.883035   4.674557   6.097491   4.683103
    15  C    6.301498   6.221512   5.889251   7.376066   5.903661
    16  H    6.862112   6.742467   6.330919   7.925957   6.653378
    17  C    7.132053   7.122694   6.824846   8.188445   6.473768
    18  H    8.181252   8.174662   7.825712   9.236716   7.538879
    19  C    6.777400   6.828534   6.647859   7.788551   5.873491
    20  H    7.619492   7.709858   7.552879   8.590879   6.587572
    21  C    5.521404   5.597568   5.504191   6.507653   4.545326
    22  H    5.569431   5.716093   5.718999   6.461618   4.379777
    23  H    2.049405   2.933559   2.565831   2.252811   1.022872
                    6          7          8          9         10
     6  H    0.000000
     7  C    2.050833   0.000000
     8  H    2.393405   1.092739   0.000000
     9  H    2.975707   1.088815   1.762839   0.000000
    10  C    2.619826   1.554586   2.161348   2.184136   0.000000
    11  H    2.915124   2.132759   3.031074   2.491004   1.092315
    12  H    2.446346   2.206832   2.518884   3.098324   1.092307
    13  C    4.020750   2.497351   2.745737   2.695576   1.500560
    14  N    5.005540   3.419482   3.887307   3.280031   2.427824
    15  C    6.245122   4.539933   4.820350   4.286955   3.671957
    16  H    7.058602   5.348921   5.739759   4.966236   4.505293
    17  C    6.726984   5.035032   5.016069   4.900146   4.251663
    18  H    7.806905   6.087794   6.033566   5.891553   5.334359
    19  C    6.005218   4.462998   4.195868   4.556000   3.778578
    20  H    6.650576   5.217279   4.761017   5.374084   4.643231
    21  C    4.637345   3.184787   2.915823   3.463985   2.540351
    22  H    4.332290   3.179689   2.596011   3.679559   2.805518
    23  H    1.646428   2.062907   2.274003   2.512205   3.387027
                   11         12         13         14         15
    11  H    0.000000
    12  H    1.772237   0.000000
    13  C    2.132865   2.150623   0.000000
    14  N    2.484558   3.194478   1.350105   0.000000
    15  C    3.832935   4.354947   2.316253   1.349504   0.000000
    16  H    4.457463   5.242055   3.284933   2.079845   1.086065
    17  C    4.706680   4.749127   2.752655   2.410519   1.394018
    18  H    5.754306   5.817319   3.836207   3.376228   2.148662
    19  C    4.514148   4.074650   2.392455   2.778703   2.386962
    20  H    5.471029   4.793828   3.370299   3.864290   3.392056
    21  C    3.425588   2.810039   1.408416   2.408538   2.727359
    22  H    3.847832   2.785878   2.193605   3.399977   3.812407
    23  H    3.694695   3.639505   4.544621   5.444727   6.584050
                   16         17         18         19         20
    16  H    0.000000
    17  C    2.153818   0.000000
    18  H    2.474727   1.084702   0.000000
    19  C    3.380034   1.397084   2.183744   0.000000
    20  H    4.308962   2.176895   2.558868   1.086874   0.000000
    21  C    3.812045   2.396741   3.394963   1.372821   2.114628
    22  H    4.896604   3.371102   4.284486   2.116619   2.400971
    23  H    7.345333   7.064299   8.102462   6.396131   7.024244
                   21         22         23
    21  C    0.000000
[...]
 Estimated scratch disk usage=  1555965196 words.
 IMap=   1   2   3   4   5   6   7   8   9  10  11  12  13  14  15  16  17  18  19  20
 IMap=  21  22  23  24  25  26  27
 Actual    scratch disk usage=  1363621132 words.
 JobTyp=1 Pass  1:  I=   1 to  27 NPSUse=  4 ParTrn=T ParDer=T DoDerP=F.
 Spin components of T(2) and E(2):
     alpha-alpha T2 =       0.6926731933D-01 E2=     -0.1858918542D+00
     alpha-beta  T2 =       0.3763302780D+00 E2=     -0.1085895987D+01
     beta-beta   T2 =       0.6926731933D-01 E2=     -0.1858918542D+00
 The integrals were generated   1 times.
 ANorm=    0.1230798487D+01
 E2 =    -0.1457679695D+01 EUMP2 =    -0.42070890249053D+03
 Leave Link  906 at Sun Jul 18 13:58:14 2021, MaxMem=   262144000 cpu:             261.8 elap:              65.6
 (Enter /prod/apps/gaussian/g16b1/l601.exe)
 Copying SCF densities to generalized density rwf, IOpCl= 0 IROHF=0.

 **********************************************************************

            Population analysis using the SCF Density.

 **********************************************************************

 Orbital symmetries:
       Occupied  (A) (A) (A) (A) (A) (A) (A) (A) (A) (A) (A) (A)
                 (A) (A) (A) (A) (A) (A) (A) (A) (A) (A) (A) (A)
                 (A) (A) (A) (A) (A) (A) (A) (A) (A) (A) (A) (A)
                 (A)
       Virtual   (A) (A) (A) (A) (A) (A) (A) (A) (A) (A) (A) (A)
                 (A) (A) (A) (A) (A) (A) (A) (A) (A) (A) (A) (A)
                 (A) (A) (A) (A) (A) (A) (A) (A) (A) (A) (A) (A)
                 (A) (A) (A) (A) (A) (A) (A) (A) (A) (A) (A) (A)
                 (A) (A) (A) (A) (A) (A) (A) (A) (A) (A) (A) (A)
                 (A) (A) (A) (A) (A) (A) (A) (A) (A) (A) (A) (A)
                 (A) (A) (A) (A) (A) (A) (A) (A) (A) (A) (A) (A)
                 (A) (A) (A) (A) (A) (A) (A) (A) (A) (A) (A) (A)
                 (A) (A) (A) (A) (A) (A) (A) (A) (A) (A) (A) (A)
                 (A) (A) (A) (A) (A) (A) (A) (A) (A) (A) (A) (A)
                 (A) (A) (A) (A) (A) (A) (A) (A) (A) (A) (A) (A)
                 (A) (A) (A) (A) (A) (A) (A) (A) (A) (A) (A) (A)
                 (A) (A) (A) (A) (A) (A) (A) (A) (A) (A) (A) (A)
                 (A) (A) (A) (A) (A) (A) (A) (A) (A) (A) (A) (A)
                 (A) (A) (A) (A) (A) (A) (A) (A) (A) (A) (A) (A)
                 (A) (A) (A) (A) (A) (A) (A) (A) (A) (A) (A) (A)
                 (A) (A) (A) (A) (A) (A) (A) (A) (A) (A) (A) (A)
                 (A) (A) (A) (A) (A) (A) (A) (A) (A) (A) (A) (A)
                 (A) (A) (A) (A) (A) (A) (A) (A) (A) (A) (A) (A)
                 (A) (A) (A) (A) (A) (A) (A) (A) (A) (A) (A) (A)
                 (A) (A) (A) (A) (A) (A) (A) (A) (A) (A) (A) (A)
                 (A) (A) (A) (A) (A) (A) (A) (A) (A) (A) (A) (A)
                 (A) (A) (A) (A) (A) (A) (A) (A) (A) (A) (A) (A)
                 (A) (A) (A) (A) (A) (A) (A) (A) (A) (A) (A) (A)
                 (A) (A) (A) (A) (A) (A) (A) (A) (A) (A) (A) (A)
                 (A) (A) (A) (A) (A) (A) (A) (A) (A) (A)
 The electronic state is 1-A.
 Alpha  occ. eigenvalues --  -15.87986 -15.68669 -11.46513 -11.46069 -11.40821
 Alpha  occ. eigenvalues --  -11.39788 -11.38888 -11.37061 -11.35841 -11.35069
 Alpha  occ. eigenvalues --   -1.50096  -1.37591  -1.22849  -1.19671  -1.15905
 Alpha  occ. eigenvalues --   -1.12287  -1.04117  -0.97097  -0.96415  -0.92796
 Alpha  occ. eigenvalues --   -0.89032  -0.83327  -0.81018  -0.79409  -0.76159
 Alpha  occ. eigenvalues --   -0.75539  -0.74782  -0.73829  -0.70577  -0.69505
 Alpha  occ. eigenvalues --   -0.68099  -0.66683  -0.63820  -0.62671  -0.53143
 Alpha  occ. eigenvalues --   -0.48900  -0.45256
 Alpha virt. eigenvalues --   -0.09906  -0.07238  -0.06662  -0.05573  -0.03923
 Alpha virt. eigenvalues --   -0.03505  -0.03383  -0.03123  -0.02374  -0.01787
 Alpha virt. eigenvalues --   -0.01447  -0.01249  -0.00371  -0.00027   0.00281
 Alpha virt. eigenvalues --    0.00810   0.01288   0.01975   0.02827   0.03090
 Alpha virt. eigenvalues --    0.04042   0.04298   0.04867   0.05086   0.05404
 Alpha virt. eigenvalues --    0.05924   0.06426   0.06771   0.06981   0.07461
 Alpha virt. eigenvalues --    0.07776   0.07953   0.08091   0.08666   0.09293
 Alpha virt. eigenvalues --    0.09766   0.09992   0.10526   0.10764   0.11334
 Alpha virt. eigenvalues --    0.12006   0.12227   0.13142   0.13755   0.14608
 Alpha virt. eigenvalues --    0.15054   0.16233   0.16622   0.17555   0.17929
 Alpha virt. eigenvalues --    0.19003   0.19664   0.20170   0.20583   0.21106
 Alpha virt. eigenvalues --    0.21908   0.22512   0.23160   0.23845   0.24131
 Alpha virt. eigenvalues --    0.24248   0.24580   0.25581   0.26115   0.27172
 Alpha virt. eigenvalues --    0.28202   0.28775   0.28933   0.29974   0.30180
 Alpha virt. eigenvalues --    0.30656   0.31503   0.31919   0.32045   0.32461
 Alpha virt. eigenvalues --    0.33212   0.33403   0.33730   0.33989   0.34779
 Alpha virt. eigenvalues --    0.35289   0.36355   0.36604   0.37047   0.38350
 Alpha virt. eigenvalues --    0.38511   0.39351   0.39520   0.40744   0.41246
 Alpha virt. eigenvalues --    0.42469   0.42838   0.43936   0.44779   0.45041
 Alpha virt. eigenvalues --    0.45490   0.46092   0.46868   0.47590   0.47881
 Alpha virt. eigenvalues --    0.48436   0.48674   0.49674   0.49961   0.51047
 Alpha virt. eigenvalues --    0.51602   0.52641   0.52972   0.53990   0.54723
 Alpha virt. eigenvalues --    0.55676   0.55836   0.56796   0.57159   0.57635
 Alpha virt. eigenvalues --    0.58535   0.58952   0.59777   0.60471   0.60673
 Alpha virt. eigenvalues --    0.61073   0.61386   0.61752   0.63025   0.63549
 Alpha virt. eigenvalues --    0.63838   0.65054   0.66059   0.66380   0.67194
 Alpha virt. eigenvalues --    0.67507   0.68363   0.68791   0.69874   0.71066
 Alpha virt. eigenvalues --    0.73684   0.73908   0.74016   0.75106   0.75679
 Alpha virt. eigenvalues --    0.76478   0.76823   0.78046   0.78381   0.79191
 Alpha virt. eigenvalues --    0.80265   0.81252   0.82223   0.83091   0.84021
 Alpha virt. eigenvalues --    0.84501   0.85031   0.85896   0.86571   0.86843
 Alpha virt. eigenvalues --    0.88349   0.90054   0.90220   0.91487   0.92260
 Alpha virt. eigenvalues --    0.92933   0.94437   0.95168   0.95679   0.97094
 Alpha virt. eigenvalues --    0.98917   1.00283   1.01338   1.02419   1.04383
 Alpha virt. eigenvalues --    1.05603   1.06096   1.07490   1.09872   1.10599
 Alpha virt. eigenvalues --    1.12776   1.13582   1.16796   1.18591   1.19619
 Alpha virt. eigenvalues --    1.20933   1.25932   1.28203   1.29790   1.30338
 Alpha virt. eigenvalues --    1.33224   1.34550   1.35605   1.37399   1.40555
 Alpha virt. eigenvalues --    1.42729   1.43196   1.44290   1.46878   1.48329
 Alpha virt. eigenvalues --    1.49017   1.50758   1.52302   1.52907   1.54244
 Alpha virt. eigenvalues --    1.55479   1.56655   1.58287   1.58701   1.60344
 Alpha virt. eigenvalues --    1.61479   1.63918   1.65163   1.65553   1.66942
 Alpha virt. eigenvalues --    1.67208   1.70426   1.71414   1.72795   1.74721
 Alpha virt. eigenvalues --    1.75612   1.76130   1.77197   1.78789   1.79450
 Alpha virt. eigenvalues --    1.80523   1.80795   1.82284   1.84200   1.85099
 Alpha virt. eigenvalues --    1.86803   1.88462   1.89450   1.90671   1.92687
 Alpha virt. eigenvalues --    1.93243   1.95049   1.96374   1.97256   1.97809
 Alpha virt. eigenvalues --    2.01178   2.02020   2.02340   2.03283   2.05079
 Alpha virt. eigenvalues --    2.07253   2.08567   2.09493   2.09920   2.11811
 Alpha virt. eigenvalues --    2.13466   2.14273   2.16021   2.16389   2.17579
 Alpha virt. eigenvalues --    2.18934   2.19906   2.21768   2.22550   2.23180
 Alpha virt. eigenvalues --    2.25301   2.27622   2.29779   2.30628   2.31127
 Alpha virt. eigenvalues --    2.33174   2.36713   2.36823   2.39088   2.41422
 Alpha virt. eigenvalues --    2.43300   2.45302   2.46117   2.47300   2.50498
 Alpha virt. eigenvalues --    2.54962   2.55925   2.56288   2.58420   2.59810
 Alpha virt. eigenvalues --    2.62028   2.63602   2.65993   2.69026   2.69397
 Alpha virt. eigenvalues --    2.71140   2.71627   2.72043   2.73626   2.74219
 Alpha virt. eigenvalues --    2.78286   2.79545   2.81340   2.85606   2.89182
 Alpha virt. eigenvalues --    2.89978   2.91076   2.92583   2.96431   2.97745
 Alpha virt. eigenvalues --    3.02077   3.03864   3.06269   3.09780   3.16047
 Alpha virt. eigenvalues --    3.18432   3.25723   3.28391   3.32660   3.41501
 Alpha virt. eigenvalues --    3.47175   3.53285   3.67417   3.88970   4.41105
          Condensed to atoms (all electrons):
               1          2          3          4          5          6
     1  C    3.954490   0.393296   0.340874   0.422087   0.130920  -0.039754
     2  H    0.393296   1.017384  -0.066893  -0.201275  -0.035206  -0.011174
     3  H    0.340874  -0.066893   0.993772  -0.193139   0.014708   0.016502
     4  H    0.422087  -0.201275  -0.193139   1.156289  -0.102288  -0.006472
     5  N    0.130920  -0.035206   0.014708  -0.102288   7.017312   0.433415
     6  H   -0.039754  -0.011174   0.016502  -0.006472   0.433415   0.574285
     7  C    0.009680   0.013564  -0.034308   0.038037  -0.211436  -0.020168
     8  H   -0.001989   0.006262  -0.002743   0.000601  -0.114330  -0.009477
     9  H    0.000714  -0.022460   0.007251   0.004232  -0.102658   0.020552
    10  C    0.015843  -0.004936   0.026727   0.000692  -0.020692  -0.063151
    11  H    0.013072  -0.018359  -0.005593   0.005893   0.005682  -0.010483
    12  H   -0.002649  -0.008366   0.000082  -0.000742  -0.014677   0.001991
    13  C   -0.032963  -0.013997  -0.003896  -0.004023   0.052263   0.014449
    14  N    0.003574   0.004485  -0.001956  -0.001314   0.015488   0.000176
    15  C   -0.006545  -0.000543  -0.001006  -0.000194  -0.004829  -0.000439
    16  H   -0.000217   0.000167  -0.000225   0.000022  -0.000038   0.000044
    17  C    0.004264   0.001659   0.000852  -0.000257   0.006628   0.000779
    18  H    0.000046  -0.000023   0.000037  -0.000006   0.000024  -0.000027
    19  C   -0.007367  -0.003147  -0.001070   0.000448  -0.006613   0.000320
    20  H   -0.000058  -0.000089  -0.000011   0.000014  -0.000048   0.000020
    21  C    0.015862   0.006914   0.001753   0.000029   0.036235   0.005255
    22  H   -0.001060  -0.000218  -0.000239   0.000065  -0.003426   0.000694
    23  H   -0.038400   0.015944  -0.028090  -0.003873   0.499063  -0.079465
               7          8          9         10         11         12
     1  C    0.009680  -0.001989   0.000714   0.015843   0.013072  -0.002649
     2  H    0.013564   0.006262  -0.022460  -0.004936  -0.018359  -0.008366
     3  H   -0.034308  -0.002743   0.007251   0.026727  -0.005593   0.000082
     4  H    0.038037   0.000601   0.004232   0.000692   0.005893  -0.000742
     5  N   -0.211436  -0.114330  -0.102658  -0.020692   0.005682  -0.014677
     6  H   -0.020168  -0.009477   0.020552  -0.063151  -0.010483   0.001991
     7  C    4.817266   0.219712   0.306946   0.436735  -0.209069   0.009705
     8  H    0.219712   1.412222  -0.214213  -0.048109   0.078194  -0.118087
     9  H    0.306946  -0.214213   1.315154  -0.130777  -0.051294   0.082714
    10  C    0.436735  -0.048109  -0.130777   6.170407   0.191808  -0.060357
    11  H   -0.209069   0.078194  -0.051294   0.191808   1.174918  -0.121903
    12  H    0.009705  -0.118087   0.082714  -0.060357  -0.121903   1.379167
    13  C   -0.052298  -0.085515   0.028366  -0.769187  -0.128170   0.335065
    14  N   -0.029372  -0.002862  -0.006557   0.081113   0.019935  -0.040400
    15  C    0.000088  -0.001060  -0.007710  -0.381062  -0.002235   0.000554
    16  H    0.008482   0.000724  -0.000148   0.018406  -0.002209   0.000049
    17  C   -0.012439  -0.001269  -0.008096   0.339985   0.008202  -0.019549
    18  H   -0.002500   0.000276  -0.000243  -0.014911   0.000786   0.000049
    19  C    0.025580   0.012792   0.011083  -0.567512  -0.000876   0.032800
    20  H   -0.002348  -0.000749   0.000229   0.059485   0.001570   0.004563
    21  C   -0.175831   0.067250  -0.003592   0.372573   0.124642  -0.226290
    22  H    0.023583   0.012281   0.000056  -0.157239   0.016405  -0.073055
    23  H   -0.086858  -0.037571  -0.042789   0.048695   0.001006   0.000719
              13         14         15         16         17         18
     1  C   -0.032963   0.003574  -0.006545  -0.000217   0.004264   0.000046
     2  H   -0.013997   0.004485  -0.000543   0.000167   0.001659  -0.000023
     3  H   -0.003896  -0.001956  -0.001006  -0.000225   0.000852   0.000037
     4  H   -0.004023  -0.001314  -0.000194   0.000022  -0.000257  -0.000006
     5  N    0.052263   0.015488  -0.004829  -0.000038   0.006628   0.000024
     6  H    0.014449   0.000176  -0.000439   0.000044   0.000779  -0.000027
     7  C   -0.052298  -0.029372   0.000088   0.008482  -0.012439  -0.002500
     8  H   -0.085515  -0.002862  -0.001060   0.000724  -0.001269   0.000276
     9  H    0.028366  -0.006557  -0.007710  -0.000148  -0.008096  -0.000243
    10  C   -0.769187   0.081113  -0.381062   0.018406   0.339985  -0.014911
    11  H   -0.128170   0.019935  -0.002235  -0.002209   0.008202   0.000786
    12  H    0.335065  -0.040400   0.000554   0.000049  -0.019549   0.000049
    13  C    8.297515  -0.167563   0.440379   0.165509  -1.115108  -0.016084
    14  N   -0.167563   7.659901   0.224472  -0.162324   0.200812  -0.034039
    15  C    0.440379   0.224472   6.297921   0.079828  -0.958692   0.103004
    16  H    0.165509  -0.162324   0.079828   1.344646  -0.012695  -0.046430
    17  C   -1.115108   0.200812  -0.958692  -0.012695   6.589691  -0.305974
    18  H   -0.016084  -0.034039   0.103004  -0.046430  -0.305974   1.496641
    19  C    1.513634  -0.421466   1.173395   0.032643  -1.251376   0.343767
    20  H   -0.165266   0.034801  -0.161624  -0.008466   0.271997  -0.059175
    21  C   -2.857274   0.394465  -1.311849  -0.068432   1.403237  -0.057469
    22  H    0.345391  -0.020376   0.055482   0.001347  -0.071290  -0.009317
    23  H   -0.008590   0.001087   0.000357  -0.000041   0.000177  -0.000014
              19         20         21         22         23
     1  C   -0.007367  -0.000058   0.015862  -0.001060  -0.038400
     2  H   -0.003147  -0.000089   0.006914  -0.000218   0.015944
     3  H   -0.001070  -0.000011   0.001753  -0.000239  -0.028090
     4  H    0.000448   0.000014   0.000029   0.000065  -0.003873
     5  N   -0.006613  -0.000048   0.036235  -0.003426   0.499063
     6  H    0.000320   0.000020   0.005255   0.000694  -0.079465
     7  C    0.025580  -0.002348  -0.175831   0.023583  -0.086858
     8  H    0.012792  -0.000749   0.067250   0.012281  -0.037571
     9  H    0.011083   0.000229  -0.003592   0.000056  -0.042789
    10  C   -0.567512   0.059485   0.372573  -0.157239   0.048695
    11  H   -0.000876   0.001570   0.124642   0.016405   0.001006
    12  H    0.032800   0.004563  -0.226290  -0.073055   0.000719
    13  C    1.513634  -0.165266  -2.857274   0.345391  -0.008590
    14  N   -0.421466   0.034801   0.394465  -0.020376   0.001087
    15  C    1.173395  -0.161624  -1.311849   0.055482   0.000357
    16  H    0.032643  -0.008466  -0.068432   0.001347  -0.000041
    17  C   -1.251376   0.271997   1.403237  -0.071290   0.000177
    18  H    0.343767  -0.059175  -0.057469  -0.009317  -0.000014
    19  C    7.969222  -0.492864  -2.549491   0.387867  -0.000908
    20  H   -0.492864   1.555543   0.439297  -0.086289  -0.000028
    21  C   -2.549491   0.439297  10.234943  -0.789384  -0.003365
    22  H    0.387867  -0.086289  -0.789384   1.924937  -0.000437
    23  H   -0.000908  -0.000028  -0.003365  -0.000437   0.595774
 Mulliken charges:
               1
     1  C    0.826278
     2  H   -0.072990
     3  H   -0.063389
     4  H   -0.114828
     5  N   -0.595496
     6  H    0.172129
     7  C    0.927249
     8  H   -0.172339
     9  H   -0.186762
    10  C    0.455465
    11  H   -0.091920
    12  H   -0.161380
    13  C    0.227362
    14  N   -0.752081
    15  C    0.462308
    16  H   -0.350643
    17  C    0.928463
    18  H   -0.398418
    19  C   -0.200864
    20  H   -0.390502
    21  C    0.940523
    22  H   -0.555777
    23  H    0.167611
 Sum of Mulliken charges =   1.00000
 Mulliken charges with hydrogens summed into heavy atoms:
               1
     1  C    0.575072
     5  N   -0.255756
     7  C    0.568148
    10  C    0.202164
    13  C    0.227362
    14  N   -0.752081
    15  C    0.111665
    17  C    0.530046
    19  C   -0.591366
    21  C    0.384747
 Electronic spatial extent (au):  <R**2>=           2023.1107
 Charge=              1.0000 electrons
 Dipole moment (field-independent basis, Debye):
    X=             10.4276    Y=             -2.2852    Z=             -1.6973  Tot=             10.8092
 Quadrupole moment (field-independent basis, Debye-Ang):
   XX=              2.0084   YY=            -52.1098   ZZ=            -57.6233
   XY=             -2.2641   XZ=             -3.0636   YZ=             -0.0075
 Traceless Quadrupole moment (field-independent basis, Debye-Ang):
   XX=             37.9166   YY=            -16.2016   ZZ=            -21.7151
   XY=             -2.2641   XZ=             -3.0636   YZ=             -0.0075
 Octapole moment (field-independent basis, Debye-Ang**2):
  XXX=            139.7019  YYY=             -5.4187  ZZZ=             -5.7098  XYY=              6.2869
  XXY=             -2.9317  XXZ=            -19.5697  XZZ=             30.4383  YZZ=             -0.0474
  YYZ=             -2.2467  XYZ=              5.3076
 Hexadecapole moment (field-independent basis, Debye-Ang**3):
 XXXX=          -1291.4983 YYYY=           -310.6621 ZZZZ=           -138.0536 XXXY=            -16.6142
 XXXZ=            -21.5164 YYYX=            -13.5027 YYYZ=             -4.8478 ZZZX=            -18.8184
 ZZZY=              5.9585 XXYY=           -334.5054 XXZZ=           -360.9117 YYZZ=            -87.0605
 XXYZ=             11.3144 YYXZ=             -0.8163 ZZXY=             -2.5515
 N-N= 5.093109702567D+02 E-N=-1.983660379817D+03  KE= 4.186815473954D+02
 Leave Link  601 at Sun Jul 18 13:58:14 2021, MaxMem=   262144000 cpu:               0.3 elap:               0.1
 (Enter /prod/apps/gaussian/g16b1/l9999.exe)
 1\1\GINC-PIRINEUS28\SP\RMP2-FC\Aug-CC-pVDZ\C8H13N2(1+)\UBATOR02\18-Jul
 -2021\0\\#p mp2/aug-cc-pVDZ scf=tight maxdisk=180GB geom=allcheck\\SET
 _328_BBB256_conf1.geo_285_180_255 geometry\\1,1\C,0,3.2883426272,0.029
 919814,-1.3984730045\H,0,3.3434974839,-0.2673952558,-0.3544406162\H,0,
 3.2477064613,1.1141106164,-1.4833826478\H,0,4.1434128862,-0.3609502998
 ,-1.9449055984\N,0,2.0490831499,-0.5384276746,-2.0065381352\H,0,2.0986
 427043,-1.5655152902,-1.9881456023\C,0,0.7559863851,-0.0962115676,-1.3
 792725207\H,0,-0.0362193383,-0.4444502151,-2.0407265402\H,0,0.75796392
 42,0.9938401433,-1.3745963688\C,0,0.5736208954,-0.6514531167,0.0308980
 196\H,0,1.4157398968,-0.3532084774,0.6625138577\H,0,0.5485482277,-1.74
 37945007,0.0015558139\C,0,-0.7047061254,-0.1273224047,0.6452100862\N,0
 ,-0.7514828016,1.1949898006,0.8885414651\C,0,-1.871812586,1.694520985,
 1.4269553133\H,0,-1.8764850481,2.7657502644,1.6116945946\C,0,-2.986829
 7851,0.9208070641,1.7500724014\H,0,-3.8650282579,1.3814935567,2.186944
 9078\C,0,-2.9322295426,-0.4480773154,1.4955109732\H,0,-3.7741532993,-1
 .0906183073,1.7302057859\C,0,-1.7737692994,-0.9804340331,0.9320424708\
 H,0,-1.6926931973,-2.0404686535,0.7180132013\H,0,2.0278646389,-0.28110
 51326,-3.0046778568\\Version=ES64L-G16RevB.01\State=1-A\HF=-419.251222
 8\MP2=-420.7089025\RMSD=4.169e-09\PG=C01 [X(C8H13N2)]\\@


 THERE IS NO SCIENCE WITHOUT FANCY, NOR ART WITHOUT FACTS.
     -- VLADIMIR NABAKOV
 Job cpu time:       0 days  0 hours 13 minutes 13.4 seconds.
 Elapsed time:       0 days  0 hours  3 minutes 18.7 seconds.
 File lengths (MBytes):  RWF=  10471 Int=      0 D2E=      0 Chk=     11 Scr=      1
 Normal termination of Gaussian 16 at Sun Jul 18 13:58:37 2021.
