 Entering Gaussian System, Link 0=g16
 Initial command:
 /prod/apps/gaussian/g16b1/l1.exe "/tmp/ubator02/1839600/Gau-71519.inp" -scrdir="/tmp/ubator02/1839600/"
 Entering Link 1 = /prod/apps/gaussian/g16b1/l1.exe PID=     71520.
  
 Copyright (c) 1988-2017, Gaussian, Inc.  All Rights Reserved.
  
 This is part of the Gaussian(R) 16 program.  It is based on
 the Gaussian(R) 09 system (copyright 2009, Gaussian, Inc.),
 the Gaussian(R) 03 system (copyright 2003, Gaussian, Inc.),
 the Gaussian(R) 98 system (copyright 1998, Gaussian, Inc.),
 the Gaussian(R) 94 system (copyright 1995, Gaussian, Inc.),
 the Gaussian 92(TM) system (copyright 1992, Gaussian, Inc.),
 the Gaussian 90(TM) system (copyright 1990, Gaussian, Inc.),
 the Gaussian 88(TM) system (copyright 1988, Gaussian, Inc.),
 the Gaussian 86(TM) system (copyright 1986, Carnegie Mellon
 University), and the Gaussian 82(TM) system (copyright 1983,
 Carnegie Mellon University). Gaussian is a federally registered
 trademark of Gaussian, Inc.
  
 This software contains proprietary and confidential information,
 including trade secrets, belonging to Gaussian, Inc.
  
 This software is provided under written license and may be
 used, copied, transmitted, or stored only in accord with that
 written license.
  
 The following legend is applicable only to US Government
 contracts under FAR:
  
                    RESTRICTED RIGHTS LEGEND
  
 Use, reproduction and disclosure by the US Government is
 subject to restrictions as set forth in subparagraphs (a)
 and (c) of the Commercial Computer Software - Restricted
 Rights clause in FAR 52.227-19.
  
 Gaussian, Inc.
 340 Quinnipiac St., Bldg. 40, Wallingford CT 06492
  
  
 ---------------------------------------------------------------
 Warning -- This program may not be used in any manner that
 competes with the business of Gaussian, Inc. or will provide
 assistance to any competitor of Gaussian, Inc.  The licensee
 of this program is prohibited from giving any competitor of
 Gaussian, Inc. access to this program.  By using this program,
 the user acknowledges that Gaussian, Inc. is engaged in the
 business of creating and licensing software in the field of
 computational chemistry and represents and warrants to the
 licensee that it is not a competitor of Gaussian, Inc. and that
 it will not use this program in any manner prohibited above.
 ---------------------------------------------------------------
  

 Cite this work as:
 Gaussian 16, Revision B.01,
 M. J. Frisch, G. W. Trucks, H. B. Schlegel, G. E. Scuseria, 
 M. A. Robb, J. R. Cheeseman, G. Scalmani, V. Barone, 
 G. A. Petersson, H. Nakatsuji, X. Li, M. Caricato, A. V. Marenich, 
 J. Bloino, B. G. Janesko, R. Gomperts, B. Mennucci, H. P. Hratchian, 
 J. V. Ortiz, A. F. Izmaylov, J. L. Sonnenberg, D. Williams-Young, 
 F. Ding, F. Lipparini, F. Egidi, J. Goings, B. Peng, A. Petrone, 
 T. Henderson, D. Ranasinghe, V. G. Zakrzewski, J. Gao, N. Rega, 
 G. Zheng, W. Liang, M. Hada, M. Ehara, K. Toyota, R. Fukuda, 
 J. Hasegawa, M. Ishida, T. Nakajima, Y. Honda, O. Kitao, H. Nakai, 
 T. Vreven, K. Throssell, J. A. Montgomery, Jr., J. E. Peralta, 
 F. Ogliaro, M. J. Bearpark, J. J. Heyd, E. N. Brothers, K. N. Kudin, 
 V. N. Staroverov, T. A. Keith, R. Kobayashi, J. Normand, 
 K. Raghavachari, A. P. Rendell, J. C. Burant, S. S. Iyengar, 
 J. Tomasi, M. Cossi, J. M. Millam, M. Klene, C. Adamo, R. Cammi, 
 J. W. Ochterski, R. L. Martin, K. Morokuma, O. Farkas, 
 J. B. Foresman, and D. J. Fox, Gaussian, Inc., Wallingford CT, 2016.
 
 ******************************************
 Gaussian 16:  ES64L-G16RevB.01 20-Dec-2017
                18-Jul-2021 
 ******************************************
 %mem=800MB
 %nproc=4
 Will use up to    4 processors via shared memory.
 %chk=SET_328_BBB29_conf1.geo_285_180_300.chk
 -----------------------------------------------------------
 #p b3lyp/6-31G(d) opt freq scrf=(iefpcm,read,solvent=water)
 -----------------------------------------------------------
 1/18=20,19=15,26=3,38=1,40=2/1,3;
 2/9=110,12=2,17=6,18=5,40=1/2;
 3/5=1,6=6,7=1,11=2,25=1,30=1,70=2203,71=1,72=1,74=-5/1,2,3;
 4//1;
 5/5=2,38=5,53=1/2;
 6/7=2,8=2,9=2,10=2,28=1/1;
 7//1,2,3,16;
 1/18=20,19=15,26=3/3(2);
 2/9=110/2;
 99//99;
 2/9=110/2;
 3/5=1,6=6,7=1,11=2,25=1,30=1,70=2205,71=1,72=1,74=-5/1,2,3;
 4/5=5,16=3,69=1/1;
 5/5=2,38=5,53=1/2;
 7//1,2,3,16;
 1/18=20,19=15,26=3/3(-5);
 2/9=110/2;
 6/7=2,8=2,9=2,10=2,19=2,28=1/1;
 99/9=1/99;
 Leave Link    1 at Sun Jul 18 13:49:20 2021, MaxMem=   104857600 cpu:               0.1 elap:               0.0
 (Enter /prod/apps/gaussian/g16b1/l101.exe)
 --------------------------------------------
 SET_328_BBB29_conf1.geo_285_180_300 geometry
 --------------------------------------------
 Symbolic Z-matrix:
 Charge =  1 Multiplicity = 1
 N                     1.452     1.741    -3.621 
 H                     0.862     2.459    -3.992 
 H                     2.271     1.656    -4.189 
 C                     0.729     0.471    -3.615 
 H                     1.55     -0.206    -3.369 
 H                     0.198     0.256    -4.546 
 C                    -0.059     0.179    -2.366 
 H                    -0.581    -0.75     -2.606 
 H                    -0.708     1.053    -2.279 
 C                     0.745     0.114    -1.05 
 H                     1.179     1.113    -0.964 
 H                     1.54     -0.635    -1.034 
 N                    -0.074    -0.116     0.115 
 C                    -0.403     0.853     1.017 
 C                    -1.245     1.892     0.625 
 H                    -1.729     1.904    -0.349 
 C                    -1.446     2.938     1.519 
 Cl                   -2.684     4.062     1.293 
 C                    -0.813     2.986     2.744 
 H                    -1.043     3.759     3.474 
 C                     0.143     2.044     3.073 
 H                     0.733     2.188     3.976 
 C                     0.304     0.97      2.244 
 S                     1.414    -0.32      2.772 
 C                     0.618    -1.627     1.766 
 C                    -0.101    -1.37      0.606 
 C                    -0.794    -2.403    -0.023 
 H                    -1.226    -2.166    -0.992 
 C                    -0.782    -3.646     0.524 
 H                    -1.398    -4.379     0.01 
 C                    -0.057    -3.896     1.712 
 H                    -0.021    -4.931     2.041 
 C                     0.579    -2.881     2.368 
 H                     1.009    -3.069     3.348 
 H                     1.718     1.978    -2.686 
 
 ITRead=  0  0  0  0  0  0  0  0  0  0  0  0  0  0  0  0  0  0  0  0
 ITRead=  0  0  0  0  0  0  0  0  0  0  0  0  0  0  0
 MicOpt= -1 -1 -1 -1 -1 -1 -1 -1 -1 -1 -1 -1 -1 -1 -1 -1 -1 -1 -1 -1
 MicOpt= -1 -1 -1 -1 -1 -1 -1 -1 -1 -1 -1 -1 -1 -1 -1
 NAtoms=     35 NQM=       35 NQMF=       0 NMMI=      0 NMMIF=      0
                NMic=       0 NMicF=      0.
                    Isotopes and Nuclear Properties:
 (Nuclear quadrupole moments (NQMom) in fm**2, nuclear magnetic moments (NMagM)
  in nuclear magnetons)

  Atom         1           2           3           4           5           6           7           8           9          10
 IAtWgt=          14           1           1          12           1           1          12           1           1          12
 AtmWgt=  14.0030740   1.0078250   1.0078250  12.0000000   1.0078250   1.0078250  12.0000000   1.0078250   1.0078250  12.0000000
 NucSpn=           2           1           1           0           1           1           0           1           1           0
 AtZEff=  -0.0000000  -0.0000000  -0.0000000  -0.0000000  -0.0000000  -0.0000000  -0.0000000  -0.0000000  -0.0000000  -0.0000000
 NQMom=    2.0440000   0.0000000   0.0000000   0.0000000   0.0000000   0.0000000   0.0000000   0.0000000   0.0000000   0.0000000
 NMagM=    0.4037610   2.7928460   2.7928460   0.0000000   2.7928460   2.7928460   0.0000000   2.7928460   2.7928460   0.0000000
 AtZNuc=   7.0000000   1.0000000   1.0000000   6.0000000   1.0000000   1.0000000   6.0000000   1.0000000   1.0000000   6.0000000

  Atom        11          12          13          14          15          16          17          18          19          20
 IAtWgt=           1           1          14          12          12           1          12          35          12           1
 AtmWgt=   1.0078250   1.0078250  14.0030740  12.0000000  12.0000000   1.0078250  12.0000000  34.9688527  12.0000000   1.0078250
 NucSpn=           1           1           2           0           0           1           0           3           0           1
 AtZEff=  -0.0000000  -0.0000000  -0.0000000  -0.0000000  -0.0000000  -0.0000000  -0.0000000  -0.0000000  -0.0000000  -0.0000000
 NQMom=    0.0000000   0.0000000   2.0440000   0.0000000   0.0000000   0.0000000   0.0000000  -8.1650000   0.0000000   0.0000000
 NMagM=    2.7928460   2.7928460   0.4037610   0.0000000   0.0000000   2.7928460   0.0000000   0.8218740   0.0000000   2.7928460
 AtZNuc=   1.0000000   1.0000000   7.0000000   6.0000000   6.0000000   1.0000000   6.0000000  17.0000000   6.0000000   1.0000000

  Atom        21          22          23          24          25          26          27          28          29          30
 IAtWgt=          12           1          12          32          12          12          12           1          12           1
 AtmWgt=  12.0000000   1.0078250  12.0000000  31.9720718  12.0000000  12.0000000  12.0000000   1.0078250  12.0000000   1.0078250
 NucSpn=           0           1           0           0           0           0           0           1           0           1
 AtZEff=  -0.0000000  -0.0000000  -0.0000000  -0.0000000  -0.0000000  -0.0000000  -0.0000000  -0.0000000  -0.0000000  -0.0000000
 NQMom=    0.0000000   0.0000000   0.0000000   0.0000000   0.0000000   0.0000000   0.0000000   0.0000000   0.0000000   0.0000000
 NMagM=    0.0000000   2.7928460   0.0000000   0.0000000   0.0000000   0.0000000   0.0000000   2.7928460   0.0000000   2.7928460
 AtZNuc=   6.0000000   1.0000000   6.0000000  16.0000000   6.0000000   6.0000000   6.0000000   1.0000000   6.0000000   1.0000000

  Atom        31          32          33          34          35
 IAtWgt=          12           1          12           1           1
 AtmWgt=  12.0000000   1.0078250  12.0000000   1.0078250   1.0078250
 NucSpn=           0           1           0           1           1
 AtZEff=  -0.0000000  -0.0000000  -0.0000000  -0.0000000  -0.0000000
 NQMom=    0.0000000   0.0000000   0.0000000   0.0000000   0.0000000
 NMagM=    0.0000000   2.7928460   0.0000000   2.7928460   2.7928460
 AtZNuc=   6.0000000   1.0000000   6.0000000   1.0000000   1.0000000
 Leave Link  101 at Sun Jul 18 13:49:20 2021, MaxMem=   104857600 cpu:               0.5 elap:               0.1
 (Enter /prod/apps/gaussian/g16b1/l103.exe)

 GradGradGradGradGradGradGradGradGradGradGradGradGradGradGradGradGradGrad
 Berny optimization.
 Initialization pass.
                           ----------------------------
                           !    Initial Parameters    !
                           ! (Angstroms and Degrees)  !
 --------------------------                            --------------------------
 ! Name  Definition              Value          Derivative Info.                !
 --------------------------------------------------------------------------------
 ! R1    R(1,2)                  1.0006         estimate D2E/DX2                !
 ! R2    R(1,3)                  1.0003         estimate D2E/DX2                !
 ! R3    R(1,4)                  1.4614         estimate D2E/DX2                !
 ! R4    R(1,35)                 1.0006         estimate D2E/DX2                !
 ! R5    R(4,5)                  1.0922         estimate D2E/DX2                !
 ! R6    R(4,6)                  1.0931         estimate D2E/DX2                !
 ! R7    R(4,7)                  1.5054         estimate D2E/DX2                !
 ! R8    R(7,8)                  1.0923         estimate D2E/DX2                !
 ! R9    R(7,9)                  1.0921         estimate D2E/DX2                !
 ! R10   R(7,10)                 1.5435         estimate D2E/DX2                !
 ! R11   R(10,11)                1.0926         estimate D2E/DX2                !
 ! R12   R(10,12)                1.0924         estimate D2E/DX2                !
 ! R13   R(10,13)                1.4425         estimate D2E/DX2                !
 ! R14   R(13,14)                1.3641         estimate D2E/DX2                !
 ! R15   R(13,26)                1.347          estimate D2E/DX2                !
 ! R16   R(14,15)                1.3936         estimate D2E/DX2                !
 ! R17   R(14,23)                1.4209         estimate D2E/DX2                !
 ! R18   R(15,16)                1.0877         estimate D2E/DX2                !
 ! R19   R(15,17)                1.3906         estimate D2E/DX2                !
 ! R20   R(17,18)                1.6873         estimate D2E/DX2                !
 ! R21   R(17,19)                1.3797         estimate D2E/DX2                !
 ! R22   R(19,20)                1.0878         estimate D2E/DX2                !
 ! R23   R(19,21)                1.3819         estimate D2E/DX2                !
 ! R24   R(21,22)                1.0882         estimate D2E/DX2                !
 ! R25   R(21,23)                1.3662         estimate D2E/DX2                !
 ! R26   R(23,24)                1.7818         estimate D2E/DX2                !
 ! R27   R(24,25)                1.8314         estimate D2E/DX2                !
 ! R28   R(25,26)                1.3887         estimate D2E/DX2                !
 ! R29   R(25,33)                1.3916         estimate D2E/DX2                !
 ! R30   R(26,27)                1.3939         estimate D2E/DX2                !
 ! R31   R(27,28)                1.0871         estimate D2E/DX2                !
 ! R32   R(27,29)                1.3581         estimate D2E/DX2                !
 ! R33   R(29,30)                1.0867         estimate D2E/DX2                !
 ! R34   R(29,31)                1.414          estimate D2E/DX2                !
 ! R35   R(31,32)                1.0866         estimate D2E/DX2                !
 ! R36   R(31,33)                1.3657         estimate D2E/DX2                !
 ! R37   R(33,34)                1.0866         estimate D2E/DX2                !
 ! A1    A(2,1,3)              109.4631         estimate D2E/DX2                !
 ! A2    A(2,1,4)              109.4744         estimate D2E/DX2                !
 ! A3    A(2,1,35)             109.4666         estimate D2E/DX2                !
 ! A4    A(3,1,4)              109.4844         estimate D2E/DX2                !
 ! A5    A(3,1,35)             109.4557         estimate D2E/DX2                !
 ! A6    A(4,1,35)             109.4832         estimate D2E/DX2                !
 ! A7    A(1,4,5)               99.6546         estimate D2E/DX2                !
 ! A8    A(1,4,6)              114.0634         estimate D2E/DX2                !
 ! A9    A(1,4,7)              115.5273         estimate D2E/DX2                !
 ! A10   A(5,4,6)              115.7889         estimate D2E/DX2                !
 ! A11   A(5,4,7)               94.9549         estimate D2E/DX2                !
 ! A12   A(6,4,7)              114.4691         estimate D2E/DX2                !
 ! A13   A(4,7,8)              103.4634         estimate D2E/DX2                !
 ! A14   A(4,7,9)              102.8228         estimate D2E/DX2                !
 ! A15   A(4,7,10)             116.2885         estimate D2E/DX2                !
 ! A16   A(8,7,9)              114.4666         estimate D2E/DX2                !
 ! A17   A(8,7,10)             113.6056         estimate D2E/DX2                !
 ! A18   A(9,7,10)             105.9816         estimate D2E/DX2                !
 ! A19   A(7,10,11)            103.6217         estimate D2E/DX2                !
 ! A20   A(7,10,12)            114.8627         estimate D2E/DX2                !
 ! A21   A(7,10,13)            113.5495         estimate D2E/DX2                !
 ! A22   A(11,10,12)           109.6753         estimate D2E/DX2                !
 ! A23   A(11,10,13)           107.9231         estimate D2E/DX2                !
 ! A24   A(12,10,13)           106.9803         estimate D2E/DX2                !
 ! A25   A(10,13,14)           123.8964         estimate D2E/DX2                !
 ! A26   A(10,13,26)           117.0141         estimate D2E/DX2                !
 ! A27   A(14,13,26)           114.5478         estimate D2E/DX2                !
 ! A28   A(13,14,15)           119.2961         estimate D2E/DX2                !
 ! A29   A(13,14,23)           120.6288         estimate D2E/DX2                !
 ! A30   A(15,14,23)           118.8241         estimate D2E/DX2                !
 ! A31   A(14,15,16)           121.935          estimate D2E/DX2                !
 ! A32   A(14,15,17)           117.8587         estimate D2E/DX2                !
 ! A33   A(16,15,17)           120.2036         estimate D2E/DX2                !
 ! A34   A(15,17,18)           121.4001         estimate D2E/DX2                !
 ! A35   A(15,17,19)           122.0496         estimate D2E/DX2                !
 ! A36   A(18,17,19)           115.6174         estimate D2E/DX2                !
 ! A37   A(17,19,20)           121.57           estimate D2E/DX2                !
 ! A38   A(17,19,21)           120.3361         estimate D2E/DX2                !
 ! A39   A(20,19,21)           118.0935         estimate D2E/DX2                !
 ! A40   A(19,21,22)           118.8446         estimate D2E/DX2                !
 ! A41   A(19,21,23)           118.2249         estimate D2E/DX2                !
 ! A42   A(22,21,23)           122.9305         estimate D2E/DX2                !
 ! A43   A(14,23,21)           122.0088         estimate D2E/DX2                !
 ! A44   A(14,23,24)           120.4123         estimate D2E/DX2                !
 ! A45   A(21,23,24)           117.5625         estimate D2E/DX2                !
 ! A46   A(23,24,25)            94.769          estimate D2E/DX2                !
 ! A47   A(24,25,26)           123.4904         estimate D2E/DX2                !
 ! A48   A(24,25,33)           114.6875         estimate D2E/DX2                !
 ! A49   A(26,25,33)           120.9044         estimate D2E/DX2                !
 ! A50   A(13,26,25)           117.8001         estimate D2E/DX2                !
 ! A51   A(13,26,27)           122.3715         estimate D2E/DX2                !
 ! A52   A(25,26,27)           119.8134         estimate D2E/DX2                !
 ! A53   A(26,27,28)           115.9913         estimate D2E/DX2                !
 ! A54   A(26,27,29)           119.4812         estimate D2E/DX2                !
 ! A55   A(28,27,29)           124.1992         estimate D2E/DX2                !
 ! A56   A(27,29,30)           114.9507         estimate D2E/DX2                !
 ! A57   A(27,29,31)           120.314          estimate D2E/DX2                !
 ! A58   A(30,29,31)           124.664          estimate D2E/DX2                !
 ! A59   A(29,31,32)           116.0886         estimate D2E/DX2                !
 ! A60   A(29,31,33)           120.7266         estimate D2E/DX2                !
 ! A61   A(32,31,33)           123.1646         estimate D2E/DX2                !
 ! A62   A(25,33,31)           118.3595         estimate D2E/DX2                !
 ! A63   A(25,33,34)           122.3441         estimate D2E/DX2                !
 ! A64   A(31,33,34)           119.271          estimate D2E/DX2                !
 ! D1    D(2,1,4,5)            170.0986         estimate D2E/DX2                !
 ! D2    D(2,1,4,6)             46.0927         estimate D2E/DX2                !
 ! D3    D(2,1,4,7)            -89.6288         estimate D2E/DX2                !
 ! D4    D(3,1,4,5)             50.0985         estimate D2E/DX2                !
 ! D5    D(3,1,4,6)            -73.9073         estimate D2E/DX2                !
 ! D6    D(3,1,4,7)            150.3711         estimate D2E/DX2                !
 ! D7    D(35,1,4,5)           -69.8979         estimate D2E/DX2                !
 ! D8    D(35,1,4,6)           166.0963         estimate D2E/DX2                !
 ! D9    D(35,1,4,7)            30.3747         estimate D2E/DX2                !
 ! D10   D(1,4,7,8)            175.0465         estimate D2E/DX2                !
 ! D11   D(1,4,7,9)             55.6238         estimate D2E/DX2                !
 ! D12   D(1,4,7,10)           -59.6776         estimate D2E/DX2                !
 ! D13   D(5,4,7,8)            -81.777          estimate D2E/DX2                !
 ! D14   D(5,4,7,9)            158.8003         estimate D2E/DX2                !
 ! D15   D(5,4,7,10)            43.4988         estimate D2E/DX2                !
 ! D16   D(6,4,7,8)             39.5038         estimate D2E/DX2                !
 ! D17   D(6,4,7,9)            -79.9189         estimate D2E/DX2                !
 ! D18   D(6,4,7,10)           164.7797         estimate D2E/DX2                !
 ! D19   D(4,7,10,11)           60.8618         estimate D2E/DX2                !
 ! D20   D(4,7,10,12)          -58.7497         estimate D2E/DX2                !
 ! D21   D(4,7,10,13)          177.6716         estimate D2E/DX2                !
 ! D22   D(8,7,10,11)         -179.1866         estimate D2E/DX2                !
 ! D23   D(8,7,10,12)           61.2019         estimate D2E/DX2                !
 ! D24   D(8,7,10,13)          -62.3769         estimate D2E/DX2                !
 ! D25   D(9,7,10,11)          -52.6517         estimate D2E/DX2                !
 ! D26   D(9,7,10,12)         -172.2632         estimate D2E/DX2                !
 ! D27   D(9,7,10,13)           64.158          estimate D2E/DX2                !
 ! D28   D(7,10,13,14)        -104.1022         estimate D2E/DX2                !
 ! D29   D(7,10,13,26)         101.1603         estimate D2E/DX2                !
 ! D30   D(11,10,13,14)         10.164          estimate D2E/DX2                !
 ! D31   D(11,10,13,26)       -144.5735         estimate D2E/DX2                !
 ! D32   D(12,10,13,14)        128.1175         estimate D2E/DX2                !
 ! D33   D(12,10,13,26)        -26.62           estimate D2E/DX2                !
 ! D34   D(10,13,14,15)         67.5957         estimate D2E/DX2                !
 ! D35   D(10,13,14,23)        -99.4796         estimate D2E/DX2                !
 ! D36   D(26,13,14,15)       -137.1117         estimate D2E/DX2                !
 ! D37   D(26,13,14,23)         55.813          estimate D2E/DX2                !
 ! D38   D(10,13,26,25)        104.5746         estimate D2E/DX2                !
 ! D39   D(10,13,26,27)        -74.0164         estimate D2E/DX2                !
 ! D40   D(14,13,26,25)        -52.506          estimate D2E/DX2                !
 ! D41   D(14,13,26,27)        128.903          estimate D2E/DX2                !
 ! D42   D(13,14,15,16)          6.191          estimate D2E/DX2                !
 ! D43   D(13,14,15,17)       -173.2158         estimate D2E/DX2                !
 ! D44   D(23,14,15,16)        173.5005         estimate D2E/DX2                !
 ! D45   D(23,14,15,17)         -5.9062         estimate D2E/DX2                !
 ! D46   D(13,14,23,21)        169.7398         estimate D2E/DX2                !
 ! D47   D(13,14,23,24)        -11.7707         estimate D2E/DX2                !
 ! D48   D(15,14,23,21)          2.6044         estimate D2E/DX2                !
 ! D49   D(15,14,23,24)       -178.906          estimate D2E/DX2                !
 ! D50   D(14,15,17,18)       -166.6192         estimate D2E/DX2                !
 ! D51   D(14,15,17,19)          1.841          estimate D2E/DX2                !
 ! D52   D(16,15,17,18)         13.9634         estimate D2E/DX2                !
 ! D53   D(16,15,17,19)       -177.5765         estimate D2E/DX2                !
 ! D54   D(15,17,19,20)       -174.3855         estimate D2E/DX2                !
 ! D55   D(15,17,19,21)          5.8568         estimate D2E/DX2                !
 ! D56   D(18,17,19,20)         -5.3013         estimate D2E/DX2                !
 ! D57   D(18,17,19,21)        174.941          estimate D2E/DX2                !
 ! D58   D(17,19,21,22)        170.869          estimate D2E/DX2                !
 ! D59   D(17,19,21,23)         -9.1032         estimate D2E/DX2                !
 ! D60   D(20,19,21,22)         -8.8969         estimate D2E/DX2                !
 ! D61   D(20,19,21,23)        171.1308         estimate D2E/DX2                !
 ! D62   D(19,21,23,14)          4.948          estimate D2E/DX2                !
 ! D63   D(19,21,23,24)       -173.5826         estimate D2E/DX2                !
 ! D64   D(22,21,23,14)       -175.023          estimate D2E/DX2                !
 ! D65   D(22,21,23,24)          6.4463         estimate D2E/DX2                !
 ! D66   D(14,23,24,25)        -22.939          estimate D2E/DX2                !
 ! D67   D(21,23,24,25)        155.6162         estimate D2E/DX2                !
 ! D68   D(23,24,25,26)         25.5388         estimate D2E/DX2                !
 ! D69   D(23,24,25,33)       -143.5588         estimate D2E/DX2                !
 ! D70   D(24,25,26,13)          8.1646         estimate D2E/DX2                !
 ! D71   D(24,25,26,27)       -173.207          estimate D2E/DX2                !
 ! D72   D(33,25,26,13)        176.611          estimate D2E/DX2                !
 ! D73   D(33,25,26,27)         -4.7606         estimate D2E/DX2                !
 ! D74   D(24,25,33,31)        176.8034         estimate D2E/DX2                !
 ! D75   D(24,25,33,34)         -1.3474         estimate D2E/DX2                !
 ! D76   D(26,25,33,31)          7.3967         estimate D2E/DX2                !
 ! D77   D(26,25,33,34)       -170.7541         estimate D2E/DX2                !
 ! D78   D(13,26,27,28)          6.3184         estimate D2E/DX2                !
 ! D79   D(13,26,27,29)       -179.985          estimate D2E/DX2                !
 ! D80   D(25,26,27,28)       -172.245          estimate D2E/DX2                !
 ! D81   D(25,26,27,29)          1.4515         estimate D2E/DX2                !
 ! D82   D(26,27,29,30)        176.1779         estimate D2E/DX2                !
 ! D83   D(26,27,29,31)         -0.8919         estimate D2E/DX2                !
 ! D84   D(28,27,29,30)        -10.675          estimate D2E/DX2                !
 ! D85   D(28,27,29,31)        172.2551         estimate D2E/DX2                !
 ! D86   D(27,29,31,32)       -174.7358         estimate D2E/DX2                !
 ! D87   D(27,29,31,33)          3.6843         estimate D2E/DX2                !
 ! D88   D(30,29,31,32)          8.4945         estimate D2E/DX2                !
 ! D89   D(30,29,31,33)       -173.0854         estimate D2E/DX2                !
 ! D90   D(29,31,33,25)         -6.8106         estimate D2E/DX2                !
 ! D91   D(29,31,33,34)        171.3985         estimate D2E/DX2                !
 ! D92   D(32,31,33,25)        171.4943         estimate D2E/DX2                !
 ! D93   D(32,31,33,34)        -10.2966         estimate D2E/DX2                !
 --------------------------------------------------------------------------------
 Trust Radius=3.00D-01 FncErr=1.00D-07 GrdErr=1.00D-06 EigMax=2.50D+02 EigMin=1.00D-04
 Number of steps in this run=    204 maximum allowed number of steps=    210.
 GradGradGradGradGradGradGradGradGradGradGradGradGradGradGradGradGradGrad

 Leave Link  103 at Sun Jul 18 13:49:20 2021, MaxMem=   104857600 cpu:               0.1 elap:               0.0
 (Enter /prod/apps/gaussian/g16b1/l202.exe)
                          Input orientation:                          
 ---------------------------------------------------------------------
 Center     Atomic      Atomic             Coordinates (Angstroms)
 Number     Number       Type             X           Y           Z
 ---------------------------------------------------------------------
      1          7           0        1.452000    1.741000   -3.621000
      2          1           0        0.862000    2.459000   -3.992000
      3          1           0        2.271000    1.656000   -4.189000
      4          6           0        0.729000    0.471000   -3.615000
      5          1           0        1.550000   -0.206000   -3.369000
      6          1           0        0.198000    0.256000   -4.546000
      7          6           0       -0.059000    0.179000   -2.366000
      8          1           0       -0.581000   -0.750000   -2.606000
      9          1           0       -0.708000    1.053000   -2.279000
     10          6           0        0.745000    0.114000   -1.050000
     11          1           0        1.179000    1.113000   -0.964000
     12          1           0        1.540000   -0.635000   -1.034000
     13          7           0       -0.074000   -0.116000    0.115000
     14          6           0       -0.403000    0.853000    1.017000
     15          6           0       -1.245000    1.892000    0.625000
     16          1           0       -1.729000    1.904000   -0.349000
     17          6           0       -1.446000    2.938000    1.519000
     18         17           0       -2.684000    4.062000    1.293000
     19          6           0       -0.813000    2.986000    2.744000
     20          1           0       -1.043000    3.759000    3.474000
     21          6           0        0.143000    2.044000    3.073000
     22          1           0        0.733000    2.188000    3.976000
     23          6           0        0.304000    0.970000    2.244000
     24         16           0        1.414000   -0.320000    2.772000
     25          6           0        0.618000   -1.627000    1.766000
     26          6           0       -0.101000   -1.370000    0.606000
     27          6           0       -0.794000   -2.403000   -0.023000
     28          1           0       -1.226000   -2.166000   -0.992000
     29          6           0       -0.782000   -3.646000    0.524000
     30          1           0       -1.398000   -4.379000    0.010000
     31          6           0       -0.057000   -3.896000    1.712000
     32          1           0       -0.021000   -4.931000    2.041000
     33          6           0        0.579000   -2.881000    2.368000
     34          1           0        1.009000   -3.069000    3.348000
     35          1           0        1.718000    1.978000   -2.686000
 ---------------------------------------------------------------------
                    Distance matrix (angstroms):
                    1          2          3          4          5
     1  N    0.000000
     2  H    1.000632   0.000000
     3  H    1.000305   1.633677   0.000000
     4  C    1.461391   2.027797   2.027675   0.000000
     5  H    1.965685   2.822002   2.158538   1.092193   0.000000
     6  H    2.152525   2.366648   2.526812   1.093136   1.851129
     7  C    2.509580   2.947968   3.306623   1.505393   1.934713
     8  H    3.371705   3.781657   4.053225   2.055486   2.327932
     9  H    2.634371   2.715899   3.589728   2.046604   2.805663
    10  C    3.123623   3.764051   3.815725   2.589774   2.475517
    11  H    2.743823   3.328812   3.447889   2.764501   2.767928
    12  H    3.513643   4.333853   3.966997   2.922759   2.374103
    13  N    4.442389   4.937020   5.211854   3.860347   3.844962
    14  C    5.073521   5.410133   5.907412   4.783594   4.916573
    15  C    5.032408   5.106626   5.965949   4.888100   5.307133
    16  H    4.566324   4.504748   5.550415   4.331513   4.931971
    17  C    6.020865   5.993949   6.931153   6.097103   6.538600
    18  Cl   6.829417   6.563151   7.771305   6.973687   7.607682
    19  C    6.869751   6.961110   7.703664   7.009984   7.289815
    20  H    7.786936   7.814101   8.609691   8.012793   8.322952
    21  C    6.827512   7.113607   7.577306   6.895438   6.967174
    22  H    7.644029   7.973651   8.325605   7.782762   7.768381
    23  C    6.025825   6.435540   6.761891   5.895550   5.868668
    24  S    6.717114   7.333433   7.286600   6.472146   6.143564
    25  C    6.407710   7.064665   6.998037   5.776598   5.408890
    26  C    5.473359   6.060546   6.146144   4.679212   4.458848
    27  C    5.929828   6.491097   6.574592   4.845809   4.638627
    28  H    5.417377   5.894944   6.087487   4.201895   4.147036
    29  C    7.154827   7.769686   7.722978   6.030268   5.694495
    30  H    7.665576   8.239044   8.216714   6.417730   6.125543
    31  C    7.905298   8.588725   8.430071   6.932922   6.481906
    32  H    8.873757   9.580651   9.351724   7.857127   7.352671
    33  C    7.615322   8.309349   8.151164   6.859642   6.404033
    34  H    8.479346   9.189994   8.984689   7.816225   7.321717
    35  H    1.000575   1.633932   1.633555   2.027859   2.294465
                    6          7          8          9         10
     6  H    0.000000
     7  C    2.196447   0.000000
     8  H    2.320017   1.092303   0.000000
     9  H    2.568138   1.092083   1.836809   0.000000
    10  C    3.541382   1.543534   2.219439   2.122115   0.000000
    11  H    3.811500   2.090599   3.043770   2.300781   1.092590
    12  H    3.863805   2.234641   2.642546   3.074552   1.092374
    13  N    4.683726   2.498522   2.839515   2.738568   1.442528
    14  C    5.627129   3.466598   3.965781   3.316118   2.477199
    15  C    5.612307   3.645140   4.226159   3.070099   3.150716
    16  H    4.903472   3.135732   3.668197   2.343404   3.133078
    17  C    6.832283   4.962769   5.600464   4.303798   4.401729
    18  Cl   7.542246   5.946141   6.540654   5.071276   5.730130
    19  C    7.849785   5.878764   6.529473   5.383126   5.007013
    20  H    8.839202   6.920279   7.583596   6.366449   6.078614
    21  C    7.826182   5.753412   6.370373   5.509100   4.591997
    22  H    8.754618   6.699575   7.326743   6.518415   5.437122
    23  C    6.828260   4.691434   5.221506   4.635576   3.431859
    24  S    7.440669   5.368219   5.752200   5.648063   3.904305
    25  C    6.600260   4.559977   4.617479   5.030179   3.313166
    26  C    5.410765   3.351708   3.306319   3.816098   2.379140
    27  C    5.339651   3.563229   3.074031   4.128059   3.123866
    28  H    4.530428   2.957835   2.241891   3.505232   3.014400
    29  C    6.472318   4.848242   4.268971   5.472009   4.352793
    30  H    6.692352   5.311653   4.547591   5.934833   5.089509
    31  C    7.514432   5.765042   5.368148   6.390969   4.934769
    32  H    8.386984   6.747977   6.276063   7.412329   5.965992
    33  C    7.601929   5.672865   5.534206   6.223129   4.547560
    34  H    8.603986   6.658823   6.584526   7.183460   5.435401
    35  H    2.955551   2.548829   3.568443   2.628070   2.664155
                   11         12         13         14         15
    11  H    0.000000
    12  H    1.786260   0.000000
    13  N    2.060265   2.048062   0.000000
    14  C    2.548467   3.193117   1.364114   0.000000
    15  C    3.001256   4.110260   2.379791   1.393610   0.000000
    16  H    3.075771   4.195487   2.652305   2.174588   1.087693
    17  C    4.048029   5.310399   3.630498   2.384760   1.390594
    18  Cl   5.358490   6.731932   5.065123   3.946748   2.688093
    19  C    4.607109   5.737729   4.132816   2.774945   2.423555
    20  H    5.624451   6.804498   5.218953   3.858923   3.412227
    21  C    4.270530   5.098637   3.669122   2.437977   2.818218
    22  H    5.075248   5.806951   4.568040   3.439244   3.902474
    23  C    3.328264   3.853441   2.419694   1.420939   2.422942
    24  S    4.008293   3.821091   3.052115   2.785219   4.070975
    25  C    3.908353   3.110329   2.342602   2.784572   4.141982
    26  C    3.204464   2.433661   1.346969   2.280757   3.456840
    27  C    4.140105   3.097661   2.401627   3.440351   4.366959
    28  H    4.066528   3.161721   2.599048   3.718571   4.368342
    29  C    5.357961   4.109157   3.623458   4.541772   5.558238
    30  H    6.144239   4.872301   4.465106   5.420138   6.302942
    31  C    5.811949   4.552477   4.103547   4.812041   6.007816
    32  H    6.855652   5.508898   5.186185   5.886353   7.075066
    33  C    5.235863   4.188274   3.625968   4.090511   5.398755
    34  H    6.009274   5.040659   4.510586   4.775918   6.091532
    35  H    2.001007   3.096540   3.929593   4.413216   4.444039
                   16         17         18         19         20
    16  H    0.000000
    17  C    2.153757   0.000000
    18  Cl   2.874918   1.687334   0.000000
    19  C    3.402415   1.379717   2.600734   0.000000
    20  H    4.304294   2.158350   2.746170   1.087809   0.000000
    21  C    3.903084   2.395636   3.902903   1.381861   2.123352
    22  H    4.984749   3.368589   4.731411   2.131841   2.423679
    23  C    3.424776   2.731510   4.403749   2.358378   3.332541
    24  S    4.956336   4.512668   6.179237   3.986220   4.813304
    25  C    4.738100   5.016007   6.594820   4.927881   5.889413
    26  C    3.779085   4.604504   6.053964   4.904358   5.951422
    27  C    4.419361   5.597245   6.862957   6.057885   7.089517
    28  H    4.151067   5.692481   6.792273   6.377411   7.421878
    29  C    5.697494   6.691784   7.976354   6.993768   7.975252
    30  H    6.301947   7.471136   8.634255   7.877830   8.851687
    31  C    6.378347   6.976398   8.390855   6.999892   7.916809
    32  H    7.439529   8.014005   9.408779   7.987513   8.866458
    33  C    5.967007   6.219501   7.746486   6.041583   6.924140
    34  H    6.774598   6.742130   8.289296   6.351970   7.130790
    35  H    4.165196   5.349254   6.289126   6.075107   6.981453
                   21         22         23         24         25
    21  C    0.000000
    22  H    1.088230   0.000000
    23  C    1.366250   2.160414   0.000000
    24  S    2.700840   2.864165   1.781848   0.000000
    25  C    3.925572   4.410391   2.659227   1.831366   0.000000
    26  C    4.219126   4.971098   2.884904   2.844166   1.388744
    27  C    5.498999   6.277022   4.209753   4.126279   2.407580
    28  H    6.010198   6.890285   4.758896   4.954292   3.361164
    29  C    6.303104   6.946012   5.044329   4.575827   2.752985
    30  H    7.280905   7.962148   6.041470   5.657868   3.836834
    31  C    6.097206   6.539484   4.908289   4.009391   2.367890
    32  H    7.052839   7.415720   5.913428   4.884149   3.376442
    33  C    4.994271   5.320164   3.862797   2.723814   1.391561
    34  H    5.193106   5.301567   4.246100   2.837746   2.175998
    35  H    5.970851   6.737698   5.226888   5.929838   5.833209
                   26         27         28         29         30
    26  C    0.000000
    27  C    1.393908   0.000000
    28  H    2.110177   1.087085   0.000000
    29  C    2.377112   1.358088   2.164669   0.000000
    30  H    3.330391   2.066514   2.435356   1.086711   0.000000
    31  C    2.757870   2.404671   3.416296   1.414026   2.219994
    32  H    3.840097   3.353865   4.277422   2.128764   2.515113
    33  C    2.418711   2.798302   3.880573   2.416171   3.422382
    34  H    3.411344   3.880465   4.964497   3.393462   4.318795
    35  H    5.035388   5.709192   5.358125   6.941432   7.575574
                   31         32         33         34         35
    31  C    0.000000
    32  H    1.086629   0.000000
    33  C    1.365671   2.160886   0.000000
    34  H    2.120561   2.497237   1.086574   0.000000
    35  H    7.549629   8.550025   7.102825   7.898357   0.000000
 Stoichiometry    C15H16ClN2S(1+)
 Framework group  C1[X(C15H16ClN2S)]
 Deg. of freedom    99
 Full point group                 C1      NOp   1
 Largest Abelian subgroup         C1      NOp   1
 Largest concise Abelian subgroup C1      NOp   1
                         Standard orientation:                         
 ---------------------------------------------------------------------
 Center     Atomic      Atomic             Coordinates (Angstroms)
 Number     Number       Type             X           Y           Z
 ---------------------------------------------------------------------
      1          7           0        0.686123    4.506319   -1.300278
      2          1           0        1.528595    4.854767   -0.887858
      3          1           0        0.345793    5.165842   -1.970960
      4          6           0       -0.319730    4.306783   -0.259072
      5          1           0       -1.194642    4.114724   -0.883993
      6          1           0       -0.409000    5.142105    0.440368
      7          6           0       -0.321966    2.947987    0.388907
      8          1           0       -1.069423    3.044505    1.179551
      9          1           0        0.704937    2.848536    0.746991
     10          6           0       -0.564095    1.744694   -0.547018
     11          1           0        0.269623    1.794732   -1.251407
     12          1           0       -1.509498    1.770950   -1.093650
     13          7           0       -0.501405    0.469908    0.125201
     14          6           0        0.556305   -0.386736    0.034554
     15          6           0        1.777772   -0.024210    0.599127
     16          1           0        1.890368    0.877706    1.196576
     17          6           0        2.871861   -0.850440    0.366605
     18         17           0        4.295569   -0.695912    1.258947
     19          6           0        2.783593   -1.976652   -0.425527
     20          1           0        3.618403   -2.666199   -0.530150
     21          6           0        1.619497   -2.254590   -1.116304
     22          1           0        1.622704   -3.060337   -1.847746
     23          6           0        0.512753   -1.499964   -0.847428
     24         16           0       -1.020807   -1.982635   -1.615678
     25          6           0       -2.081120   -1.194011   -0.347724
     26          6           0       -1.673683   -0.118776    0.431042
     27          6           0       -2.486680    0.332144    1.469640
     28          1           0       -2.173669    1.253683    1.953938
     29          6           0       -3.657476   -0.306036    1.727253
     30          1           0       -4.201169    0.064933    2.591961
     31          6           0       -4.058838   -1.407626    0.936761
     32          1           0       -5.046244   -1.810665    1.144972
     33          6           0       -3.245531   -1.893963   -0.046633
     34          1           0       -3.510655   -2.822731   -0.544371
     35          1           0        0.873116    3.634893   -1.755030
 ---------------------------------------------------------------------
 Rotational constants (GHZ):           0.3387120           0.2522424           0.1753625
 Leave Link  202 at Sun Jul 18 13:49:20 2021, MaxMem=   104857600 cpu:               0.0 elap:               0.0
 (Enter /prod/apps/gaussian/g16b1/l301.exe)
 Standard basis: 6-31G(d) (6D, 7F)
 Ernie: Thresh=  0.10000D-02 Tol=  0.10000D-05 Strict=F.
 There are   325 symmetry adapted cartesian basis functions of A   symmetry.
 There are   325 symmetry adapted basis functions of A   symmetry.
   325 basis functions,   644 primitive gaussians,   325 cartesian basis functions
    76 alpha electrons       76 beta electrons
       nuclear repulsion energy      1661.5012201686 Hartrees.
 IExCor=  402 DFT=T Ex+Corr=B3LYP ExCW=0 ScaHFX=  0.200000
 ScaDFX=  0.800000  0.720000  1.000000  0.810000 ScalE2=  1.000000  1.000000
 IRadAn=      5 IRanWt=     -1 IRanGd=            0 ICorTp=0 IEmpDi=  4
 NAtoms=   35 NActive=   35 NUniq=   35 SFac= 1.00D+00 NAtFMM=   60 NAOKFM=F Big=F
 Integral buffers will be    131072 words long.
 Raffenetti 2 integral format.
 Two-electron integral symmetry is turned on.
 Using the following non-standard input for PCM:
 MSTModel=DFT cav MSTCharged
 --- end of non-standard input.
 MST model for solvation energy: B3LYP parametrization.
 MST cavity parameters:
 ISph   IAn     Re0     Alpha   Atom Type   QCorr
 ------------------------------------------------
   1      7     1.70     1.15      NH         T
   2      1     0.90     1.15      NH         T
   3      1     0.90     1.15      NH         T
   4      6     1.50     1.25      CH2        F
   5      1     1.20     1.25      CH2        F
   6      1     1.20     1.25      CH2        F
   7      6     1.50     1.25      CH2        F
   8      1     1.20     1.25      CH2        F
   9      1     1.20     1.25      CH2        F
  10      6     1.50     1.25      CH2        F
  11      1     1.20     1.25      CH2        F
  12      1     1.20     1.25      CH2        F
  13      7     1.40     1.25      N          F
  14      6     1.50     1.25      C          F
  15      6     1.50     1.25      CH         F
  16      1     1.20     1.25      CH         F
  17      6     1.50     1.25      C          F
  18     17     1.80     1.25      Cl         F
  19      6     1.50     1.25      CH         F
  20      1     1.20     1.25      CH         F
  21      6     1.50     1.25      CH         F
  22      1     1.20     1.25      CH         F
  23      6     1.50     1.25      C          F
  24     16     1.75     1.25      S          F
  25      6     1.50     1.25      C          F
  26      6     1.50     1.25      C          F
  27      6     1.50     1.25      CH         F
  28      1     1.20     1.25      CH         F
  29      6     1.50     1.25      CH         F
  30      1     1.20     1.25      CH         F
  31      6     1.50     1.25      CH         F
  32      1     1.20     1.25      CH         F
  33      6     1.50     1.25      CH         F
  34      1     1.20     1.25      CH         F
  35      1     0.90     1.15      NH         T
 ------------------------------------------------------------------------------
 Polarizable Continuum Model (PCM)
 =================================
 Model                : PCM.
 Atomic radii         : MST.
 Polarization charges : Total charges.
 Charge compensation  : None.
 Solution method      : On-the-fly selection.
 Cavity type          : Scaled VdW (van der Waals Surface) (Alpha=1.250).
 Cavity algorithm     : GePol (No added spheres)
                        Default sphere list used, NSphG=   35.
                        Lebedev-Laikov grids with approx.  5.0 points / Ang**2.
                        Smoothing algorithm: York/Karplus (Gamma=1.0000).
                        Polarization charges: spherical gaussians, with
                                              point-specific exponents (IZeta= 3).
                        Self-potential: point-specific (ISelfS= 7).
                        Self-field    : sphere-specific E.n sum rule (ISelfD= 2).
 1st derivatives      : Analytical E(r).r(x)/FMM algorithm (CHGder, D1EAlg=3).
                        Cavity 1st derivative terms included.
 Solvent              : Water, Eps=  78.355300 Eps(inf)=   1.777849
 ------------------------------------------------------------------------------
 GePol: Number of generator spheres                  =      35
 GePol: Total number of spheres                      =      35
 GePol: Number of exposed spheres                    =      35 (100.00%)
 GePol: Number of points                             =    2592
 GePol: Average weight of points                     =       0.13
 GePol: Minimum weight of points                     =   0.41D-11
 GePol: Maximum weight of points                     =    0.21948
 GePol: Number of points with low weight             =     147
 GePol: Fraction of low-weight points (<1% of avg)   =       5.67%
 GePol: Cavity surface area                          =    336.704 Ang**2
 GePol: Cavity volume                                =    337.122 Ang**3
 PCM non-electrostatic energy =         0.0017693502 Hartrees.
 Nuclear repulsion after PCM non-electrostatic terms =     1661.5029895188 Hartrees.
 Leave Link  301 at Sun Jul 18 13:49:20 2021, MaxMem=   104857600 cpu:               0.4 elap:               0.1
 (Enter /prod/apps/gaussian/g16b1/l302.exe)
 NPDir=0 NMtPBC=     1 NCelOv=     1 NCel=       1 NClECP=     1 NCelD=      1
         NCelK=      1 NCelE2=     1 NClLst=     1 CellRange=     0.0.
 One-electron integrals computed using PRISM.
 One-electron integral symmetry used in STVInt
 NBasis=   325 RedAO= T EigKep=  4.27D-04  NBF=   325
 NBsUse=   325 1.00D-06 EigRej= -1.00D+00 NBFU=   325
 Precomputing XC quadrature grid using
 IXCGrd= 4 IRadAn=           5 IRanWt=          -1 IRanGd=           0 AccXCQ= 0.00D+00.
 Generated NRdTot=       0 NPtTot=           0 NUsed=           0 NTot=          32
 NSgBfM=   323   323   323   323   323 MxSgAt=    35 MxSgA2=    35.
 Leave Link  302 at Sun Jul 18 13:49:21 2021, MaxMem=   104857600 cpu:               1.7 elap:               0.4
 (Enter /prod/apps/gaussian/g16b1/l303.exe)
 DipDrv:  MaxL=1.
 Leave Link  303 at Sun Jul 18 13:49:21 2021, MaxMem=   104857600 cpu:               0.1 elap:               0.1
 (Enter /prod/apps/gaussian/g16b1/l401.exe)
 ExpMin= 1.17D-01 ExpMax= 2.52D+04 ExpMxC= 3.78D+03 IAcc=3 IRadAn=         5 AccDes= 0.00D+00
 Harris functional with IExCor=  402 and IRadAn=       5 diagonalized for initial guess.
 HarFok:  IExCor=  402 AccDes= 0.00D+00 IRadAn=         5 IDoV= 1 UseB2=F ITyADJ=14
 ICtDFT=  3500011 ScaDFX=  1.000000  1.000000  1.000000  1.000000
 FoFCou: FMM=F IPFlag=           0 FMFlag=      100000 FMFlg1=           0
         NFxFlg=           0 DoJE=T BraDBF=F KetDBF=T FulRan=T
         wScrn=  0.000000 ICntrl=       500 IOpCl=  0 I1Cent=   200000004 NGrid=           0
         NMat0=    1 NMatS0=      1 NMatT0=    0 NMatD0=    1 NMtDS0=    0 NMtDT0=    0
 Petite list used in FoFCou.
 Harris En= -1548.73739611759    
 JPrj=0 DoOrth=F DoCkMO=F.
 Leave Link  401 at Sun Jul 18 13:49:23 2021, MaxMem=   104857600 cpu:               9.3 elap:               2.3
 (Enter /prod/apps/gaussian/g16b1/l502.exe)
 Integral symmetry usage will be decided dynamically.
 Closed shell SCF:
 Using DIIS extrapolation, IDIIS=  1040.
 NGot=   104857600 LenX=   104640764 LenY=   104534698
 Requested convergence on RMS density matrix=1.00D-08 within 128 cycles.
 Requested convergence on MAX density matrix=1.00D-06.
 Requested convergence on             energy=1.00D-06.
 No special actions if energy rises.
 Fock matrices will be formed incrementally for  20 cycles.

 Cycle   1  Pass 1  IDiag  1:
 FoFJK:  IHMeth= 1 ICntrl=       0 DoSepK=F KAlg= 0 I1Cent=           0 FoldK=F
 IRaf= 820000000 NMat=       1 IRICut=       1 DoRegI=T DoRafI=F ISym2E= 0 IDoP0=0 IntGTp=1.
 FoFCou: FMM=F IPFlag=           0 FMFlag=      100000 FMFlg1=           0
         NFxFlg=           0 DoJE=F BraDBF=F KetDBF=F FulRan=T
         wScrn=  0.000000 ICntrl=         0 IOpCl=  0 I1Cent=           0 NGrid=           0
         NMat0=    1 NMatS0=      1 NMatT0=    0 NMatD0=    1 NMtDS0=    0 NMtDT0=    0
 Symmetry not used in FoFCou.
 Inv3:  Mode=1 IEnd=    20155392.
 Iteration    1 A*A^-1 deviation from unit magnitude is 3.33D-15 for   2038.
 Iteration    1 A*A^-1 deviation from orthogonality  is 1.89D-15 for   2309    214.
 Iteration    1 A^-1*A deviation from unit magnitude is 3.55D-15 for   2038.
 Iteration    1 A^-1*A deviation from orthogonality  is 2.45D-15 for   1917     49.
 E= -1548.49261586873    
 DIIS: error= 2.91D-02 at cycle   1 NSaved=   1.
 NSaved= 1 IEnMin= 1 EnMin= -1548.49261586873     IErMin= 1 ErrMin= 2.91D-02
 ErrMax= 2.91D-02  0.00D+00 EMaxC= 1.00D-01 BMatC= 4.10D-01 BMatP= 4.10D-01
 IDIUse=3 WtCom= 7.09D-01 WtEn= 2.91D-01
 Coeff-Com:  0.100D+01
 Coeff-En:   0.100D+01
 Coeff:      0.100D+01
 Gap=     0.307 Goal=   None    Shift=    0.000
 GapD=    0.307 DampG=1.000 DampE=0.500 DampFc=0.5000 IDamp=-1.
 Damping current iteration by 5.00D-01
 RMSDP=4.86D-03 MaxDP=1.79D-01              OVMax= 2.14D-01

 Cycle   2  Pass 1  IDiag  1:
 RMSU=  2.40D-03    CP:  9.83D-01
 E= -1548.68789117746     Delta-E=       -0.195275308730 Rises=F Damp=T
 DIIS: error= 9.24D-03 at cycle   2 NSaved=   2.
 NSaved= 2 IEnMin= 2 EnMin= -1548.68789117746     IErMin= 2 ErrMin= 9.24D-03
 ErrMax= 9.24D-03  0.00D+00 EMaxC= 1.00D-01 BMatC= 2.44D-02 BMatP= 4.10D-01
 IDIUse=3 WtCom= 9.08D-01 WtEn= 9.24D-02
 Coeff-Com:  0.396D-01 0.960D+00
 Coeff-En:   0.958D-01 0.904D+00
 Coeff:      0.448D-01 0.955D+00
 Gap=     0.228 Goal=   None    Shift=    0.000
 RMSDP=1.22D-03 MaxDP=8.32D-02 DE=-1.95D-01 OVMax= 1.25D-01

 Cycle   3  Pass 1  IDiag  1:
 RMSU=  1.18D-03    CP:  9.75D-01  8.93D-01
 E= -1548.91771509796     Delta-E=       -0.229823920501 Rises=F Damp=F
 DIIS: error= 2.63D-03 at cycle   3 NSaved=   3.
 NSaved= 3 IEnMin= 3 EnMin= -1548.91771509796     IErMin= 3 ErrMin= 2.63D-03
 ErrMax= 2.63D-03  0.00D+00 EMaxC= 1.00D-01 BMatC= 7.12D-03 BMatP= 2.44D-02
 IDIUse=3 WtCom= 9.74D-01 WtEn= 2.63D-02
 Coeff-Com: -0.319D-01 0.312D+00 0.719D+00
 Coeff-En:   0.000D+00 0.000D+00 0.100D+01
 Coeff:     -0.310D-01 0.304D+00 0.727D+00
 Gap=     0.185 Goal=   None    Shift=    0.000
 RMSDP=5.57D-04 MaxDP=4.09D-02 DE=-2.30D-01 OVMax= 4.68D-02

 Cycle   4  Pass 1  IDiag  1:
 RMSU=  4.73D-04    CP:  9.76D-01  9.53D-01  7.84D-01
 E= -1548.92177515876     Delta-E=       -0.004060060800 Rises=F Damp=F
 DIIS: error= 1.92D-03 at cycle   4 NSaved=   4.
 NSaved= 4 IEnMin= 4 EnMin= -1548.92177515876     IErMin= 4 ErrMin= 1.92D-03
 ErrMax= 1.92D-03  0.00D+00 EMaxC= 1.00D-01 BMatC= 3.56D-03 BMatP= 7.12D-03
 IDIUse=3 WtCom= 9.81D-01 WtEn= 1.92D-02
 Coeff-Com: -0.208D-01 0.861D-01 0.443D+00 0.492D+00
 Coeff-En:   0.000D+00 0.000D+00 0.338D+00 0.662D+00
 Coeff:     -0.204D-01 0.844D-01 0.441D+00 0.495D+00
 Gap=     0.179 Goal=   None    Shift=    0.000
 RMSDP=2.83D-04 MaxDP=9.56D-03 DE=-4.06D-03 OVMax= 2.17D-02

 Cycle   5  Pass 1  IDiag  1:
 RMSU=  1.47D-04    CP:  9.76D-01  9.55D-01  8.43D-01  5.11D-01
 E= -1548.92542682390     Delta-E=       -0.003651665139 Rises=F Damp=F
 DIIS: error= 4.81D-04 at cycle   5 NSaved=   5.
 NSaved= 5 IEnMin= 5 EnMin= -1548.92542682390     IErMin= 5 ErrMin= 4.81D-04
 ErrMax= 4.81D-04  0.00D+00 EMaxC= 1.00D-01 BMatC= 2.56D-04 BMatP= 3.56D-03
 IDIUse=3 WtCom= 9.95D-01 WtEn= 4.81D-03
 Coeff-Com: -0.797D-02 0.197D-01 0.178D+00 0.276D+00 0.533D+00
 Coeff-En:   0.000D+00 0.000D+00 0.000D+00 0.000D+00 0.100D+01
 Coeff:     -0.794D-02 0.196D-01 0.177D+00 0.275D+00 0.536D+00
 Gap=     0.178 Goal=   None    Shift=    0.000
 RMSDP=7.40D-05 MaxDP=6.12D-03 DE=-3.65D-03 OVMax= 5.33D-03

 Cycle   6  Pass 1  IDiag  1:
 RMSU=  3.57D-05    CP:  9.76D-01  9.50D-01  8.60D-01  5.61D-01  6.25D-01
 E= -1548.92569917922     Delta-E=       -0.000272355321 Rises=F Damp=F
 DIIS: error= 9.81D-05 at cycle   6 NSaved=   6.
 NSaved= 6 IEnMin= 6 EnMin= -1548.92569917922     IErMin= 6 ErrMin= 9.81D-05
 ErrMax= 9.81D-05  0.00D+00 EMaxC= 1.00D-01 BMatC= 1.28D-05 BMatP= 2.56D-04
 IDIUse=1 WtCom= 1.00D+00 WtEn= 0.00D+00
 Coeff-Com: -0.238D-02 0.310D-02 0.556D-01 0.983D-01 0.258D+00 0.588D+00
 Coeff:     -0.238D-02 0.310D-02 0.556D-01 0.983D-01 0.258D+00 0.588D+00
 Gap=     0.178 Goal=   None    Shift=    0.000
 RMSDP=1.39D-05 MaxDP=6.76D-04 DE=-2.72D-04 OVMax= 9.80D-04

 Cycle   7  Pass 1  IDiag  1:
 RMSU=  9.30D-06    CP:  9.76D-01  9.50D-01  8.61D-01  5.65D-01  6.63D-01
                    CP:  7.64D-01
 E= -1548.92571121971     Delta-E=       -0.000012040496 Rises=F Damp=F
 DIIS: error= 2.82D-05 at cycle   7 NSaved=   7.
 NSaved= 7 IEnMin= 7 EnMin= -1548.92571121971     IErMin= 7 ErrMin= 2.82D-05
 ErrMax= 2.82D-05  0.00D+00 EMaxC= 1.00D-01 BMatC= 1.12D-06 BMatP= 1.28D-05
 IDIUse=1 WtCom= 1.00D+00 WtEn= 0.00D+00
 Coeff-Com: -0.638D-03 0.141D-03 0.157D-01 0.291D-01 0.891D-01 0.294D+00
 Coeff-Com:  0.573D+00
 Coeff:     -0.638D-03 0.141D-03 0.157D-01 0.291D-01 0.891D-01 0.294D+00
 Coeff:      0.573D+00
 Gap=     0.178 Goal=   None    Shift=    0.000
 RMSDP=4.95D-06 MaxDP=2.41D-04 DE=-1.20D-05 OVMax= 3.87D-04

 Cycle   8  Pass 1  IDiag  1:
 RMSU=  3.51D-06    CP:  9.76D-01  9.50D-01  8.61D-01  5.67D-01  6.68D-01
                    CP:  7.91D-01  6.71D-01
 E= -1548.92571226184     Delta-E=       -0.000001042124 Rises=F Damp=F
 DIIS: error= 1.13D-05 at cycle   8 NSaved=   8.
 NSaved= 8 IEnMin= 8 EnMin= -1548.92571226184     IErMin= 8 ErrMin= 1.13D-05
 ErrMax= 1.13D-05  0.00D+00 EMaxC= 1.00D-01 BMatC= 1.49D-07 BMatP= 1.12D-06
 IDIUse=1 WtCom= 1.00D+00 WtEn= 0.00D+00
 Coeff-Com:  0.301D-04-0.436D-03 0.369D-03 0.487D-03 0.921D-02 0.694D-01
 Coeff-Com:  0.296D+00 0.624D+00
 Coeff:      0.301D-04-0.436D-03 0.369D-03 0.487D-03 0.921D-02 0.694D-01
 Coeff:      0.296D+00 0.624D+00
 Gap=     0.178 Goal=   None    Shift=    0.000
 RMSDP=1.90D-06 MaxDP=7.26D-05 DE=-1.04D-06 OVMax= 1.50D-04

 Cycle   9  Pass 1  IDiag  1:
 RMSU=  1.28D-06    CP:  9.76D-01  9.50D-01  8.61D-01  5.67D-01  6.69D-01
                    CP:  8.01D-01  7.69D-01  7.42D-01
 E= -1548.92571241526     Delta-E=       -0.000000153423 Rises=F Damp=F
 DIIS: error= 4.36D-06 at cycle   9 NSaved=   9.
 NSaved= 9 IEnMin= 9 EnMin= -1548.92571241526     IErMin= 9 ErrMin= 4.36D-06
 ErrMax= 4.36D-06  0.00D+00 EMaxC= 1.00D-01 BMatC= 2.27D-08 BMatP= 1.49D-07
 IDIUse=1 WtCom= 1.00D+00 WtEn= 0.00D+00
 Coeff-Com:  0.105D-03-0.279D-03-0.174D-02-0.360D-02-0.595D-02 0.225D-02
 Coeff-Com:  0.930D-01 0.349D+00 0.567D+00
 Coeff:      0.105D-03-0.279D-03-0.174D-02-0.360D-02-0.595D-02 0.225D-02
 Coeff:      0.930D-01 0.349D+00 0.567D+00
 Gap=     0.178 Goal=   None    Shift=    0.000
 RMSDP=6.44D-07 MaxDP=2.69D-05 DE=-1.53D-07 OVMax= 4.31D-05

 Cycle  10  Pass 1  IDiag  1:
 RMSU=  3.26D-07    CP:  9.76D-01  9.50D-01  8.61D-01  5.67D-01  6.69D-01
                    CP:  8.07D-01  7.75D-01  8.22D-01  7.23D-01
 E= -1548.92571243953     Delta-E=       -0.000000024268 Rises=F Damp=F
 DIIS: error= 7.83D-07 at cycle  10 NSaved=  10.
 NSaved=10 IEnMin=10 EnMin= -1548.92571243953     IErMin=10 ErrMin= 7.83D-07
 ErrMax= 7.83D-07  0.00D+00 EMaxC= 1.00D-01 BMatC= 7.56D-10 BMatP= 2.27D-08
 IDIUse=1 WtCom= 1.00D+00 WtEn= 0.00D+00
 Coeff-Com:  0.386D-04-0.744D-04-0.650D-03-0.144D-02-0.268D-02-0.348D-02
 Coeff-Com:  0.158D-01 0.965D-01 0.220D+00 0.676D+00
 Coeff:      0.386D-04-0.744D-04-0.650D-03-0.144D-02-0.268D-02-0.348D-02
 Coeff:      0.158D-01 0.965D-01 0.220D+00 0.676D+00
 Gap=     0.178 Goal=   None    Shift=    0.000
 RMSDP=1.38D-07 MaxDP=6.71D-06 DE=-2.43D-08 OVMax= 9.24D-06

 Cycle  11  Pass 1  IDiag  1:
 RMSU=  1.10D-07    CP:  9.76D-01  9.50D-01  8.61D-01  5.67D-01  6.69D-01
                    CP:  8.08D-01  7.78D-01  8.31D-01  7.48D-01  8.45D-01
 E= -1548.92571244023     Delta-E=       -0.000000000704 Rises=F Damp=F
 DIIS: error= 3.58D-07 at cycle  11 NSaved=  11.
 NSaved=11 IEnMin=11 EnMin= -1548.92571244023     IErMin=11 ErrMin= 3.58D-07
 ErrMax= 3.58D-07  0.00D+00 EMaxC= 1.00D-01 BMatC= 1.48D-10 BMatP= 7.56D-10
 IDIUse=1 WtCom= 1.00D+00 WtEn= 0.00D+00
 Coeff-Com:  0.805D-05-0.627D-05-0.129D-03-0.335D-03-0.638D-03-0.206D-02
 Coeff-Com: -0.319D-02 0.872D-02 0.471D-01 0.349D+00 0.602D+00
 Coeff:      0.805D-05-0.627D-05-0.129D-03-0.335D-03-0.638D-03-0.206D-02
 Coeff:     -0.319D-02 0.872D-02 0.471D-01 0.349D+00 0.602D+00
 Gap=     0.178 Goal=   None    Shift=    0.000
 RMSDP=5.77D-08 MaxDP=1.80D-06 DE=-7.04D-10 OVMax= 5.18D-06

 Cycle  12  Pass 1  IDiag  1:
 RMSU=  3.66D-08    CP:  9.76D-01  9.50D-01  8.61D-01  5.67D-01  6.70D-01
                    CP:  8.08D-01  7.79D-01  8.36D-01  7.61D-01  9.17D-01
                    CP:  7.41D-01
 E= -1548.92571244042     Delta-E=       -0.000000000187 Rises=F Damp=F
 DIIS: error= 1.22D-07 at cycle  12 NSaved=  12.
 NSaved=12 IEnMin=12 EnMin= -1548.92571244042     IErMin=12 ErrMin= 1.22D-07
 ErrMax= 1.22D-07  0.00D+00 EMaxC= 1.00D-01 BMatC= 1.44D-11 BMatP= 1.48D-10
 IDIUse=1 WtCom= 1.00D+00 WtEn= 0.00D+00
 Coeff-Com: -0.912D-07 0.481D-05 0.100D-04-0.720D-05 0.140D-05-0.598D-03
 Coeff-Com: -0.333D-02-0.605D-02-0.423D-03 0.968D-01 0.295D+00 0.619D+00
 Coeff:     -0.912D-07 0.481D-05 0.100D-04-0.720D-05 0.140D-05-0.598D-03
 Coeff:     -0.333D-02-0.605D-02-0.423D-03 0.968D-01 0.295D+00 0.619D+00
 Gap=     0.178 Goal=   None    Shift=    0.000
 RMSDP=1.84D-08 MaxDP=1.06D-06 DE=-1.87D-10 OVMax= 1.48D-06

 Cycle  13  Pass 1  IDiag  1:
 RMSU=  1.30D-08    CP:  9.76D-01  9.50D-01  8.61D-01  5.67D-01  6.70D-01
                    CP:  8.08D-01  7.79D-01  8.36D-01  7.64D-01  9.30D-01
                    CP:  8.03D-01  7.67D-01
 E= -1548.92571244043     Delta-E=       -0.000000000010 Rises=F Damp=F
 DIIS: error= 4.20D-08 at cycle  13 NSaved=  13.
 NSaved=13 IEnMin=13 EnMin= -1548.92571244043     IErMin=13 ErrMin= 4.20D-08
 ErrMax= 4.20D-08  0.00D+00 EMaxC= 1.00D-01 BMatC= 1.38D-12 BMatP= 1.44D-11
 IDIUse=1 WtCom= 1.00D+00 WtEn= 0.00D+00
 Coeff-Com: -0.998D-06 0.272D-05 0.206D-04 0.394D-04 0.832D-04 0.683D-06
 Coeff-Com: -0.112D-02-0.390D-02-0.659D-02-0.465D-02 0.505D-01 0.279D+00
 Coeff-Com:  0.687D+00
 Coeff:     -0.998D-06 0.272D-05 0.206D-04 0.394D-04 0.832D-04 0.683D-06
 Coeff:     -0.112D-02-0.390D-02-0.659D-02-0.465D-02 0.505D-01 0.279D+00
 Coeff:      0.687D+00
 Gap=     0.178 Goal=   None    Shift=    0.000
 RMSDP=5.77D-09 MaxDP=2.24D-07 DE=-1.05D-11 OVMax= 6.61D-07

 Error on total polarization charges =  0.01929
 SCF Done:  E(RB3LYP) =  -1548.92571244     A.U. after   13 cycles
            NFock= 13  Conv=0.58D-08     -V/T= 2.0054
 KE= 1.540538614866D+03 PE=-6.945017802007D+03 EE= 2.194050485183D+03
 Leave Link  502 at Sun Jul 18 13:50:41 2021, MaxMem=   104857600 cpu:             309.3 elap:              77.6
 (Enter /prod/apps/gaussian/g16b1/l601.exe)
 Copying SCF densities to generalized density rwf, IOpCl= 0 IROHF=0.

 **********************************************************************

            Population analysis using the SCF Density.

 **********************************************************************

 Orbital symmetries:
       Occupied  (A) (A) (A) (A) (A) (A) (A) (A) (A) (A) (A) (A)
                 (A) (A) (A) (A) (A) (A) (A) (A) (A) (A) (A) (A)
                 (A) (A) (A) (A) (A) (A) (A) (A) (A) (A) (A) (A)
                 (A) (A) (A) (A) (A) (A) (A) (A) (A) (A) (A) (A)
                 (A) (A) (A) (A) (A) (A) (A) (A) (A) (A) (A) (A)
                 (A) (A) (A) (A) (A) (A) (A) (A) (A) (A) (A) (A)
                 (A) (A) (A) (A)
       Virtual   (A) (A) (A) (A) (A) (A) (A) (A) (A) (A) (A) (A)
                 (A) (A) (A) (A) (A) (A) (A) (A) (A) (A) (A) (A)
                 (A) (A) (A) (A) (A) (A) (A) (A) (A) (A) (A) (A)
                 (A) (A) (A) (A) (A) (A) (A) (A) (A) (A) (A) (A)
                 (A) (A) (A) (A) (A) (A) (A) (A) (A) (A) (A) (A)
                 (A) (A) (A) (A) (A) (A) (A) (A) (A) (A) (A) (A)
                 (A) (A) (A) (A) (A) (A) (A) (A) (A) (A) (A) (A)
                 (A) (A) (A) (A) (A) (A) (A) (A) (A) (A) (A) (A)
                 (A) (A) (A) (A) (A) (A) (A) (A) (A) (A) (A) (A)
                 (A) (A) (A) (A) (A) (A) (A) (A) (A) (A) (A) (A)
                 (A) (A) (A) (A) (A) (A) (A) (A) (A) (A) (A) (A)
                 (A) (A) (A) (A) (A) (A) (A) (A) (A) (A) (A) (A)
                 (A) (A) (A) (A) (A) (A) (A) (A) (A) (A) (A) (A)
                 (A) (A) (A) (A) (A) (A) (A) (A) (A) (A) (A) (A)
                 (A) (A) (A) (A) (A) (A) (A) (A) (A) (A) (A) (A)
                 (A) (A) (A) (A) (A) (A) (A) (A) (A) (A) (A) (A)
                 (A) (A) (A) (A) (A) (A) (A) (A) (A) (A) (A) (A)
                 (A) (A) (A) (A) (A) (A) (A) (A) (A) (A) (A) (A)
                 (A) (A) (A) (A) (A) (A) (A) (A) (A) (A) (A) (A)
                 (A) (A) (A) (A) (A) (A) (A) (A) (A) (A) (A) (A)
                 (A) (A) (A) (A) (A) (A) (A) (A) (A)
 The electronic state is 1-A.
 Alpha  occ. eigenvalues -- -101.55414 -88.90140 -14.44990 -14.34634 -10.24839
 Alpha  occ. eigenvalues --  -10.24670 -10.24051 -10.23265 -10.23017 -10.22635
 Alpha  occ. eigenvalues --  -10.22526 -10.20457 -10.20161 -10.20082 -10.19906
 Alpha  occ. eigenvalues --  -10.19713 -10.19363 -10.19233 -10.19016  -9.47197
 Alpha  occ. eigenvalues --   -7.96162  -7.23560  -7.22628  -7.22584  -5.92648
 Alpha  occ. eigenvalues --   -5.92316  -5.91677  -1.02039  -0.99309  -0.90944
 Alpha  occ. eigenvalues --   -0.86720  -0.85746  -0.81070  -0.79873  -0.77423
 Alpha  occ. eigenvalues --   -0.75029  -0.74430  -0.71473  -0.67503  -0.64196
 Alpha  occ. eigenvalues --   -0.63113  -0.61802  -0.60760  -0.60085  -0.58833
 Alpha  occ. eigenvalues --   -0.56481  -0.54630  -0.51869  -0.51185  -0.49131
 Alpha  occ. eigenvalues --   -0.48844  -0.47981  -0.47274  -0.46079  -0.45353
 Alpha  occ. eigenvalues --   -0.43960  -0.43238  -0.42556  -0.42385  -0.40689
 Alpha  occ. eigenvalues --   -0.40182  -0.38580  -0.38230  -0.37926  -0.36202
 Alpha  occ. eigenvalues --   -0.35488  -0.34725  -0.34323  -0.33559  -0.31869
 Alpha  occ. eigenvalues --   -0.29999  -0.28530  -0.26319  -0.24973  -0.23334
 Alpha  occ. eigenvalues --   -0.20080
 Alpha virt. eigenvalues --   -0.02242  -0.01864  -0.01064  -0.00285   0.00996
 Alpha virt. eigenvalues --    0.04695   0.05003   0.07841   0.09175   0.10326
 Alpha virt. eigenvalues --    0.10736   0.11351   0.11981   0.12943   0.13547
 Alpha virt. eigenvalues --    0.13753   0.14134   0.14792   0.15508   0.16498
 Alpha virt. eigenvalues --    0.16886   0.17578   0.18441   0.18954   0.21268
 Alpha virt. eigenvalues --    0.21971   0.22380   0.24625   0.25405   0.26149
 Alpha virt. eigenvalues --    0.27436   0.27790   0.28365   0.28913   0.31431
 Alpha virt. eigenvalues --    0.31883   0.32313   0.33086   0.35821   0.37057
 Alpha virt. eigenvalues --    0.38114   0.38986   0.39735   0.40748   0.42672
 Alpha virt. eigenvalues --    0.43154   0.45073   0.46923   0.49531   0.50512
 Alpha virt. eigenvalues --    0.50639   0.51670   0.51897   0.52315   0.53118
 Alpha virt. eigenvalues --    0.53852   0.54353   0.55399   0.56484   0.57582
 Alpha virt. eigenvalues --    0.57813   0.58176   0.58503   0.59150   0.59912
 Alpha virt. eigenvalues --    0.60114   0.60399   0.60768   0.61927   0.62063
 Alpha virt. eigenvalues --    0.63738   0.64213   0.64978   0.65279   0.66694
 Alpha virt. eigenvalues --    0.68540   0.69035   0.69570   0.70468   0.71530
 Alpha virt. eigenvalues --    0.72009   0.73935   0.75662   0.77064   0.78774
 Alpha virt. eigenvalues --    0.80263   0.80494   0.81977   0.82334   0.83419
 Alpha virt. eigenvalues --    0.84003   0.84264   0.84528   0.85192   0.85400
 Alpha virt. eigenvalues --    0.85594   0.86326   0.86543   0.87300   0.88406
 Alpha virt. eigenvalues --    0.89149   0.90176   0.90823   0.91170   0.91838
 Alpha virt. eigenvalues --    0.93358   0.94031   0.94809   0.96000   0.96616
 Alpha virt. eigenvalues --    0.96820   0.97669   0.99769   1.00713   1.01491
 Alpha virt. eigenvalues --    1.01997   1.03209   1.03951   1.05048   1.05441
 Alpha virt. eigenvalues --    1.08246   1.09659   1.10578   1.12265   1.13061
 Alpha virt. eigenvalues --    1.13911   1.15663   1.19077   1.21384   1.22322
 Alpha virt. eigenvalues --    1.23710   1.24070   1.27442   1.28557   1.30660
 Alpha virt. eigenvalues --    1.32844   1.34161   1.35798   1.36795   1.37864
 Alpha virt. eigenvalues --    1.39542   1.41773   1.43605   1.46327   1.47804
 Alpha virt. eigenvalues --    1.49213   1.51583   1.52983   1.54980   1.55893
 Alpha virt. eigenvalues --    1.57226   1.59639   1.61001   1.64188   1.66628
 Alpha virt. eigenvalues --    1.69603   1.71733   1.76310   1.77967   1.79454
 Alpha virt. eigenvalues --    1.80320   1.81633   1.82996   1.84927   1.85935
 Alpha virt. eigenvalues --    1.89420   1.89690   1.91960   1.93444   1.94355
 Alpha virt. eigenvalues --    1.95392   1.95903   1.97638   1.99702   2.00682
 Alpha virt. eigenvalues --    2.01682   2.03410   2.07548   2.09173   2.09402
 Alpha virt. eigenvalues --    2.09890   2.11562   2.12679   2.13042   2.15027
 Alpha virt. eigenvalues --    2.15476   2.15819   2.17897   2.18224   2.20234
 Alpha virt. eigenvalues --    2.23521   2.24502   2.27265   2.28151   2.30561
 Alpha virt. eigenvalues --    2.31903   2.31971   2.33457   2.36053   2.39656
 Alpha virt. eigenvalues --    2.40549   2.41611   2.46450   2.47375   2.51477
 Alpha virt. eigenvalues --    2.54474   2.55174   2.58256   2.59681   2.62169
 Alpha virt. eigenvalues --    2.63536   2.64324   2.67065   2.68875   2.71342
 Alpha virt. eigenvalues --    2.72655   2.73746   2.75211   2.75506   2.76765
 Alpha virt. eigenvalues --    2.78681   2.82741   2.83765   2.87516   2.93651
 Alpha virt. eigenvalues --    3.03023   3.11383   3.22455   3.36530   3.41149
 Alpha virt. eigenvalues --    3.77897   3.95552   4.07072   4.09463   4.10303
 Alpha virt. eigenvalues --    4.11564   4.12794   4.15180   4.19709   4.26006
 Alpha virt. eigenvalues --    4.31129   4.34366   4.35386   4.37555   4.40485
 Alpha virt. eigenvalues --    4.44413   4.51465   4.69367   4.74975
          Condensed to atoms (all electrons):
               1          2          3          4          5          6
     1  N    6.705057   0.300964   0.310035   0.227478  -0.054732  -0.030196
     2  H    0.300964   0.274372  -0.011000  -0.019361   0.005124  -0.003152
     3  H    0.310035  -0.011000   0.265465  -0.019329  -0.006698  -0.000496
     4  C    0.227478  -0.019361  -0.019329   5.051881   0.389755   0.385436
     5  H   -0.054732   0.005124  -0.006698   0.389755   0.549070  -0.017290
     6  H   -0.030196  -0.003152  -0.000496   0.385436  -0.017290   0.459899
     7  C   -0.040550  -0.002006   0.003489   0.328938  -0.073841  -0.022369
     8  H    0.004036  -0.000063  -0.000111  -0.034084  -0.002238  -0.004294
     9  H   -0.005144   0.002869  -0.000091  -0.055820   0.009812  -0.001671
    10  C   -0.004328  -0.000075  -0.000023  -0.034468  -0.009276   0.002949
    11  H    0.001751   0.000064  -0.000060  -0.002285  -0.000220  -0.000117
    12  H   -0.000151   0.000022  -0.000006  -0.000488   0.008680  -0.000071
    13  N    0.000073  -0.000001   0.000002   0.004532  -0.000049  -0.000072
    14  C   -0.000005  -0.000001   0.000000   0.000060  -0.000002  -0.000000
    15  C   -0.000006  -0.000002   0.000000  -0.000009   0.000001   0.000001
    16  H    0.000002   0.000004  -0.000000   0.000015   0.000006  -0.000002
    17  C   -0.000000   0.000000   0.000000   0.000001   0.000000  -0.000000
    18  Cl   0.000000   0.000000  -0.000000  -0.000000  -0.000000   0.000000
    19  C    0.000000   0.000000  -0.000000  -0.000000  -0.000000  -0.000000
    20  H    0.000000   0.000000  -0.000000  -0.000000   0.000000  -0.000000
    21  C    0.000000  -0.000000  -0.000000  -0.000000  -0.000000   0.000000
    22  H   -0.000000   0.000000   0.000000   0.000000   0.000000  -0.000000
    23  C   -0.000000   0.000000   0.000000   0.000011   0.000001  -0.000000
    24  S    0.000000   0.000000  -0.000000  -0.000003  -0.000001  -0.000000
    25  C   -0.000000   0.000000   0.000000   0.000015   0.000000  -0.000000
    26  C   -0.000001   0.000000   0.000000   0.000024   0.000008  -0.000001
    27  C   -0.000001  -0.000000   0.000000  -0.000047  -0.000010   0.000004
    28  H    0.000001   0.000000  -0.000000   0.000088   0.000043  -0.000014
    29  C    0.000000   0.000000   0.000000   0.000001   0.000000  -0.000000
    30  H   -0.000000  -0.000000  -0.000000  -0.000000  -0.000000   0.000000
    31  C    0.000000  -0.000000  -0.000000  -0.000000   0.000000  -0.000000
    32  H    0.000000   0.000000  -0.000000  -0.000000   0.000000  -0.000000
    33  C   -0.000000  -0.000000  -0.000000  -0.000000  -0.000000   0.000000
    34  H   -0.000000  -0.000000   0.000000   0.000000   0.000000  -0.000000
    35  H    0.298277  -0.009191  -0.010270  -0.023283  -0.000788   0.002864
               7          8          9         10         11         12
     1  N   -0.040550   0.004036  -0.005144  -0.004328   0.001751  -0.000151
     2  H   -0.002006  -0.000063   0.002869  -0.000075   0.000064   0.000022
     3  H    0.003489  -0.000111  -0.000091  -0.000023  -0.000060  -0.000006
     4  C    0.328938  -0.034084  -0.055820  -0.034468  -0.002285  -0.000488
     5  H   -0.073841  -0.002238   0.009812  -0.009276  -0.000220   0.008680
     6  H   -0.022369  -0.004294  -0.001671   0.002949  -0.000117  -0.000071
     7  C    5.150242   0.375582   0.369593   0.376167  -0.058222  -0.048301
     8  H    0.375582   0.512422  -0.018843  -0.031321   0.004908  -0.002159
     9  H    0.369593  -0.018843   0.564886  -0.042683  -0.004843   0.004868
    10  C    0.376167  -0.031321  -0.042683   4.939016   0.364258   0.369408
    11  H   -0.058222   0.004908  -0.004843   0.364258   0.563345  -0.019182
    12  H   -0.048301  -0.002159   0.004868   0.369408  -0.019182   0.542533
    13  N   -0.056416  -0.001235  -0.001085   0.300867  -0.037908  -0.049722
    14  C   -0.002604   0.000120  -0.000221  -0.037011   0.004217   0.003321
    15  C   -0.000780   0.000003   0.000868  -0.004409   0.002439   0.000083
    16  H    0.000231   0.000063   0.004601   0.000113   0.000609   0.000033
    17  C    0.000008  -0.000001   0.000149  -0.000292  -0.000045   0.000018
    18  Cl  -0.000000  -0.000000  -0.000015  -0.000000   0.000003  -0.000000
    19  C    0.000001   0.000000   0.000000   0.000041  -0.000029  -0.000001
    20  H    0.000000  -0.000000  -0.000000   0.000000  -0.000000   0.000000
    21  C    0.000008  -0.000000  -0.000003  -0.000013  -0.000271  -0.000010
    22  H   -0.000000   0.000000   0.000000  -0.000001   0.000004   0.000000
    23  C   -0.000244  -0.000005   0.000045  -0.001670   0.002356   0.000735
    24  S    0.000050   0.000002   0.000000   0.004171  -0.000338  -0.000733
    25  C   -0.000181   0.000032  -0.000011  -0.004023   0.000396   0.003680
    26  C   -0.003324   0.000724   0.000142  -0.037675   0.003168   0.006882
    27  C   -0.000823  -0.000196   0.000046  -0.001655  -0.000013   0.000627
    28  H    0.000926   0.004520   0.000130  -0.000154  -0.000005   0.000618
    29  C   -0.000009   0.000113   0.000000  -0.000316   0.000012   0.000029
    30  H    0.000001  -0.000011  -0.000000   0.000003  -0.000000  -0.000003
    31  C   -0.000000   0.000001   0.000000   0.000065  -0.000001  -0.000045
    32  H    0.000000   0.000000  -0.000000   0.000000   0.000000  -0.000000
    33  C    0.000012  -0.000002  -0.000000  -0.000061  -0.000003  -0.000349
    34  H   -0.000000  -0.000000   0.000000  -0.000001  -0.000000   0.000005
    35  H   -0.005605   0.000207  -0.000050   0.006005   0.009739   0.000008
              13         14         15         16         17         18
     1  N    0.000073  -0.000005  -0.000006   0.000002  -0.000000   0.000000
     2  H   -0.000001  -0.000001  -0.000002   0.000004   0.000000   0.000000
     3  H    0.000002   0.000000   0.000000  -0.000000   0.000000  -0.000000
     4  C    0.004532   0.000060  -0.000009   0.000015   0.000001  -0.000000
     5  H   -0.000049  -0.000002   0.000001   0.000006   0.000000  -0.000000
     6  H   -0.000072  -0.000000   0.000001  -0.000002  -0.000000   0.000000
     7  C   -0.056416  -0.002604  -0.000780   0.000231   0.000008  -0.000000
     8  H   -0.001235   0.000120   0.000003   0.000063  -0.000001  -0.000000
     9  H   -0.001085  -0.000221   0.000868   0.004601   0.000149  -0.000015
    10  C    0.300867  -0.037011  -0.004409   0.000113  -0.000292  -0.000000
    11  H   -0.037908   0.004217   0.002439   0.000609  -0.000045   0.000003
    12  H   -0.049722   0.003321   0.000083   0.000033   0.000018  -0.000000
    13  N    7.085212   0.318950  -0.072035  -0.004329   0.006163  -0.000168
    14  C    0.318950   4.637702   0.519177  -0.030943  -0.010043   0.004305
    15  C   -0.072035   0.519177   5.114851   0.351866   0.466009  -0.069569
    16  H   -0.004329  -0.030943   0.351866   0.532157  -0.041800  -0.000095
    17  C    0.006163  -0.010043   0.466009  -0.041800   5.014696   0.218714
    18  Cl  -0.000168   0.004305  -0.069569  -0.000095   0.218714  16.953351
    19  C    0.000620  -0.035204  -0.038905   0.004064   0.536101  -0.084578
    20  H    0.000001   0.000510   0.004563  -0.000144  -0.047103  -0.002456
    21  C    0.006246  -0.007290  -0.044533   0.000316  -0.020702   0.006901
    22  H   -0.000140   0.003017   0.000520   0.000016   0.004874  -0.000225
    23  C   -0.087550   0.480953  -0.072721   0.005490  -0.037194   0.000648
    24  S    0.000417  -0.055296   0.006151  -0.000193   0.000576   0.000014
    25  C   -0.100585  -0.013474   0.001010   0.000005   0.000044   0.000000
    26  C    0.286731  -0.022418   0.004340   0.000284  -0.000292   0.000003
    27  C   -0.076010   0.002743  -0.000195  -0.000003  -0.000009   0.000000
    28  H   -0.006210   0.000293   0.000035   0.000035   0.000002  -0.000000
    29  C    0.008274  -0.000201  -0.000009   0.000002   0.000000  -0.000000
    30  H   -0.000211  -0.000001  -0.000000  -0.000000  -0.000000  -0.000000
    31  C    0.000451  -0.000030  -0.000001   0.000000   0.000000  -0.000000
    32  H    0.000002   0.000001  -0.000000  -0.000000  -0.000000   0.000000
    33  C    0.007984   0.000641   0.000011  -0.000000  -0.000001   0.000000
    34  H   -0.000174  -0.000002  -0.000000   0.000000   0.000000  -0.000000
    35  H   -0.000259  -0.000007   0.000016   0.000014   0.000001  -0.000000
              19         20         21         22         23         24
     1  N    0.000000   0.000000   0.000000  -0.000000  -0.000000   0.000000
     2  H    0.000000   0.000000  -0.000000   0.000000   0.000000   0.000000
     3  H   -0.000000  -0.000000  -0.000000   0.000000   0.000000  -0.000000
     4  C   -0.000000  -0.000000  -0.000000   0.000000   0.000011  -0.000003
     5  H   -0.000000   0.000000  -0.000000   0.000000   0.000001  -0.000001
     6  H   -0.000000  -0.000000   0.000000  -0.000000  -0.000000  -0.000000
     7  C    0.000001   0.000000   0.000008  -0.000000  -0.000244   0.000050
     8  H    0.000000  -0.000000  -0.000000   0.000000  -0.000005   0.000002
     9  H    0.000000  -0.000000  -0.000003   0.000000   0.000045   0.000000
    10  C    0.000041   0.000000  -0.000013  -0.000001  -0.001670   0.004171
    11  H   -0.000029  -0.000000  -0.000271   0.000004   0.002356  -0.000338
    12  H   -0.000001   0.000000  -0.000010   0.000000   0.000735  -0.000733
    13  N    0.000620   0.000001   0.006246  -0.000140  -0.087550   0.000417
    14  C   -0.035204   0.000510  -0.007290   0.003017   0.480953  -0.055296
    15  C   -0.038905   0.004563  -0.044533   0.000520  -0.072721   0.006151
    16  H    0.004064  -0.000144   0.000316   0.000016   0.005490  -0.000193
    17  C    0.536101  -0.047103  -0.020702   0.004874  -0.037194   0.000576
    18  Cl  -0.084578  -0.002456   0.006901  -0.000225   0.000648   0.000014
    19  C    4.944739   0.367106   0.509783  -0.037638  -0.038690   0.005153
    20  H    0.367106   0.546097  -0.037408  -0.006023   0.005743  -0.000234
    21  C    0.509783  -0.037408   4.958437   0.362647   0.506370  -0.063234
    22  H   -0.037638  -0.006023   0.362647   0.539684  -0.040949  -0.001378
    23  C   -0.038690   0.005743   0.506370  -0.040949   5.141495   0.241149
    24  S    0.005153  -0.000234  -0.063234  -0.001378   0.241149  15.566925
    25  C   -0.000181   0.000000   0.001272   0.000090  -0.005098   0.243853
    26  C   -0.000023   0.000001   0.000732  -0.000010  -0.015555  -0.049974
    27  C   -0.000001   0.000000   0.000016  -0.000000   0.000352   0.005130
    28  H    0.000000  -0.000000  -0.000000   0.000000  -0.000005  -0.000211
    29  C    0.000000  -0.000000  -0.000001   0.000000   0.000042   0.000269
    30  H   -0.000000   0.000000   0.000000  -0.000000   0.000000   0.000020
    31  C   -0.000000   0.000000   0.000000   0.000000  -0.000132   0.005281
    32  H    0.000000  -0.000000  -0.000000  -0.000000  -0.000000  -0.000224
    33  C    0.000002  -0.000000  -0.000049  -0.000001  -0.000249  -0.057099
    34  H    0.000000  -0.000000  -0.000000   0.000001   0.000079  -0.001358
    35  H    0.000000  -0.000000  -0.000000   0.000000   0.000000  -0.000005
[...]
 Leave Link  202 at Sun Jul 18 14:36:25 2021, MaxMem=   262144000 cpu:               0.1 elap:               0.0
 (Enter /prod/apps/gaussian/g16b1/l301.exe)
 Standard basis: Aug-CC-pVDZ (5D, 7F)
 Ernie: Thresh=  0.10000D-02 Tol=  0.10000D-05 Strict=F.
 Ernie:  54 primitive shells out of 643 were deleted.
 There are   627 symmetry adapted cartesian basis functions of A   symmetry.
 There are   589 symmetry adapted basis functions of A   symmetry.
   589 basis functions,  1069 primitive gaussians,   627 cartesian basis functions
    76 alpha electrons       76 beta electrons
       nuclear repulsion energy      1644.0943641489 Hartrees.
 IExCor=    0 DFT=F Ex=HF Corr=None ExCW=0 ScaHFX=  1.000000
 ScaDFX=  1.000000  1.000000  1.000000  1.000000 ScalE2=  1.000000  1.000000
 IRadAn=      5 IRanWt=     -1 IRanGd=            0 ICorTp=0 IEmpDi=  4
 NAtoms=   35 NActive=   35 NUniq=   35 SFac= 1.00D+00 NAtFMM=   60 NAOKFM=F Big=F
 Integral buffers will be    131072 words long.
 Raffenetti 1 integral format.
 Two-electron integral symmetry is turned on.
 Leave Link  301 at Sun Jul 18 14:36:25 2021, MaxMem=   262144000 cpu:               0.2 elap:               0.1
 (Enter /prod/apps/gaussian/g16b1/l302.exe)
 NPDir=0 NMtPBC=     1 NCelOv=     1 NCel=       1 NClECP=     1 NCelD=      1
         NCelK=      1 NCelE2=     1 NClLst=     1 CellRange=     0.0.
 One-electron integrals computed using PRISM.
 One-electron integral symmetry used in STVInt
 NBasis=   589 RedAO= T EigKep=  1.28D-06  NBF=   589
 NBsUse=   588 1.00D-06 EigRej=  6.73D-07 NBFU=   588
 Leave Link  302 at Sun Jul 18 14:36:25 2021, MaxMem=   262144000 cpu:               1.8 elap:               0.5
 (Enter /prod/apps/gaussian/g16b1/l303.exe)
 DipDrv:  MaxL=1.
 Leave Link  303 at Sun Jul 18 14:36:25 2021, MaxMem=   262144000 cpu:               0.5 elap:               0.1
 (Enter /prod/apps/gaussian/g16b1/l401.exe)
 ExpMin= 2.97D-02 ExpMax= 1.28D+05 ExpMxC= 1.24D+03 IAcc=3 IRadAn=         5 AccDes= 0.00D+00
 Harris functional with IExCor=  205 and IRadAn=       5 diagonalized for initial guess.
 HarFok:  IExCor=  205 AccDes= 0.00D+00 IRadAn=         5 IDoV= 1 UseB2=F ITyADJ=14
 ICtDFT=  3500011 ScaDFX=  1.000000  1.000000  1.000000  1.000000
 FoFCou: FMM=F IPFlag=           0 FMFlag=      100000 FMFlg1=           0
         NFxFlg=           0 DoJE=T BraDBF=F KetDBF=T FulRan=T
         wScrn=  0.000000 ICntrl=       500 IOpCl=  0 I1Cent=   200000004 NGrid=           0
         NMat0=    1 NMatS0=      1 NMatT0=    0 NMatD0=    1 NMtDS0=    0 NMtDT0=    0
 Petite list used in FoFCou.
 Harris En= -1543.28656386822    
 JPrj=0 DoOrth=F DoCkMO=F.
 Leave Link  401 at Sun Jul 18 14:36:29 2021, MaxMem=   262144000 cpu:              16.4 elap:               4.1
 (Enter /prod/apps/gaussian/g16b1/l502.exe)
 Integral symmetry usage will be decided dynamically.
 Closed shell SCF:
 Using DIIS extrapolation, IDIIS=  1040.
 NGot=   262144000 LenX=   261348123 LenY=   260954367
 Requested convergence on RMS density matrix=1.00D-08 within 128 cycles.
 Requested convergence on MAX density matrix=1.00D-06.
 Requested convergence on             energy=1.00D-06.
 No special actions if energy rises.
 Fock matrices will be formed incrementally for  20 cycles.

 Cycle   1  Pass 1  IDiag  1:
 FoFJK:  IHMeth= 1 ICntrl=       0 DoSepK=F KAlg= 0 I1Cent=           0 FoldK=F
 IRaf= 940000000 NMat=       1 IRICut=       1 DoRegI=T DoRafI=F ISym2E= 0 IDoP0=0 IntGTp=1.
 FoFCou: FMM=F IPFlag=           0 FMFlag=      100000 FMFlg1=           0
         NFxFlg=           0 DoJE=F BraDBF=F KetDBF=F FulRan=T
         wScrn=  0.000000 ICntrl=         0 IOpCl=  0 I1Cent=           0 NGrid=           0
         NMat0=    1 NMatS0=      1 NMatT0=    0 NMatD0=    1 NMtDS0=    0 NMtDT0=    0
 Symmetry not used in FoFCou.
 E= -1542.36561175800    
 DIIS: error= 1.53D-02 at cycle   1 NSaved=   1.
 NSaved= 1 IEnMin= 1 EnMin= -1542.36561175800     IErMin= 1 ErrMin= 1.53D-02
 ErrMax= 1.53D-02  0.00D+00 EMaxC= 1.00D-01 BMatC= 9.17D-01 BMatP= 9.17D-01
 IDIUse=3 WtCom= 8.47D-01 WtEn= 1.53D-01
 Coeff-Com:  0.100D+01
 Coeff-En:   0.100D+01
 Coeff:      0.100D+01
 Gap=     0.476 Goal=   None    Shift=    0.000
 GapD=    0.476 DampG=2.000 DampE=0.500 DampFc=1.0000 IDamp=-1.
 RMSDP=5.83D-02 MaxDP=3.74D+00              OVMax= 2.14D-01

 Cycle   2  Pass 1  IDiag  1:
 RMSU=  2.94D-02    CP:  5.36D-01
 E= -1542.93742639584     Delta-E=       -0.571814637837 Rises=F Damp=F
 DIIS: error= 1.50D-02 at cycle   2 NSaved=   2.
 NSaved= 2 IEnMin= 2 EnMin= -1542.93742639584     IErMin= 2 ErrMin= 1.50D-02
 ErrMax= 1.50D-02  0.00D+00 EMaxC= 1.00D-01 BMatC= 1.66D-01 BMatP= 9.17D-01
 IDIUse=3 WtCom= 8.50D-01 WtEn= 1.50D-01
 Coeff-Com:  0.243D+00 0.757D+00
 Coeff-En:   0.000D+00 0.100D+01
 Coeff:      0.206D+00 0.794D+00
 Gap=     0.269 Goal=   None    Shift=    0.000
 RMSDP=6.97D-03 MaxDP=2.66D-01 DE=-5.72D-01 OVMax= 8.16D-02

 Cycle   3  Pass 1  IDiag  1:
 RMSU=  6.40D-03    CP:  5.30D-01  9.09D-01
 E= -1543.09029744304     Delta-E=       -0.152871047199 Rises=F Damp=F
 DIIS: error= 3.31D-03 at cycle   3 NSaved=   3.
 NSaved= 3 IEnMin= 3 EnMin= -1543.09029744304     IErMin= 3 ErrMin= 3.31D-03
 ErrMax= 3.31D-03  0.00D+00 EMaxC= 1.00D-01 BMatC= 1.86D-02 BMatP= 1.66D-01
 IDIUse=3 WtCom= 9.67D-01 WtEn= 3.31D-02
 Coeff-Com: -0.167D-01 0.217D+00 0.800D+00
 Coeff-En:   0.000D+00 0.000D+00 0.100D+01
 Coeff:     -0.161D-01 0.210D+00 0.806D+00
 Gap=     0.255 Goal=   None    Shift=    0.000
 RMSDP=2.33D-03 MaxDP=1.73D-01 DE=-1.53D-01 OVMax= 5.52D-02

 Cycle   4  Pass 1  IDiag  1:
 RMSU=  1.81D-03    CP:  5.22D-01  9.35D-01  8.54D-01
 E= -1543.10984678335     Delta-E=       -0.019549340310 Rises=F Damp=F
 DIIS: error= 1.08D-03 at cycle   4 NSaved=   4.
 NSaved= 4 IEnMin= 4 EnMin= -1543.10984678335     IErMin= 4 ErrMin= 1.08D-03
 ErrMax= 1.08D-03  0.00D+00 EMaxC= 1.00D-01 BMatC= 1.83D-03 BMatP= 1.86D-02
 IDIUse=3 WtCom= 9.89D-01 WtEn= 1.08D-02
 Coeff-Com: -0.174D-01 0.363D-01 0.297D+00 0.684D+00
 Coeff-En:   0.000D+00 0.000D+00 0.000D+00 0.100D+01
 Coeff:     -0.172D-01 0.359D-01 0.294D+00 0.687D+00
 Gap=     0.245 Goal=   None    Shift=    0.000
 RMSDP=7.28D-04 MaxDP=5.39D-02 DE=-1.95D-02 OVMax= 1.09D-02

 Cycle   5  Pass 1  IDiag  1:
 RMSU=  5.85D-04    CP:  5.19D-01  9.37D-01  8.53D-01  9.05D-01
 E= -1543.11188290533     Delta-E=       -0.002036121982 Rises=F Damp=F
 DIIS: error= 3.13D-04 at cycle   5 NSaved=   5.
 NSaved= 5 IEnMin= 5 EnMin= -1543.11188290533     IErMin= 5 ErrMin= 3.13D-04
 ErrMax= 3.13D-04  0.00D+00 EMaxC= 1.00D-01 BMatC= 1.12D-04 BMatP= 1.83D-03
 IDIUse=3 WtCom= 9.97D-01 WtEn= 3.13D-03
 Coeff-Com: -0.596D-03-0.213D-01-0.453D-01 0.902D-01 0.977D+00
 Coeff-En:   0.000D+00 0.000D+00 0.000D+00 0.000D+00 0.100D+01
 Coeff:     -0.594D-03-0.213D-01-0.452D-01 0.900D-01 0.977D+00
 Gap=     0.247 Goal=   None    Shift=    0.000
 RMSDP=2.85D-04 MaxDP=1.66D-02 DE=-2.04D-03 OVMax= 9.69D-03

 Cycle   6  Pass 1  IDiag  1:
 RMSU=  1.68D-04    CP:  5.18D-01  9.37D-01  8.70D-01  1.01D+00  1.01D+00
 E= -1543.11215525057     Delta-E=       -0.000272345242 Rises=F Damp=F
 DIIS: error= 1.08D-04 at cycle   6 NSaved=   6.
 NSaved= 6 IEnMin= 6 EnMin= -1543.11215525057     IErMin= 6 ErrMin= 1.08D-04
 ErrMax= 1.08D-04  0.00D+00 EMaxC= 1.00D-01 BMatC= 2.11D-05 BMatP= 1.12D-04
 IDIUse=3 WtCom= 9.99D-01 WtEn= 1.08D-03
 Coeff-Com:  0.183D-02-0.921D-02-0.395D-01-0.757D-01 0.205D+00 0.917D+00
 Coeff-En:   0.000D+00 0.000D+00 0.000D+00 0.000D+00 0.000D+00 0.100D+01
 Coeff:      0.182D-02-0.920D-02-0.394D-01-0.756D-01 0.205D+00 0.917D+00
 Gap=     0.248 Goal=   None    Shift=    0.000
 RMSDP=1.07D-04 MaxDP=4.73D-03 DE=-2.72D-04 OVMax= 3.69D-03

 Cycle   7  Pass 1  IDiag  1:
 RMSU=  6.40D-05    CP:  5.18D-01  9.37D-01  8.71D-01  1.03D+00  1.13D+00
                    CP:  1.19D+00
 E= -1543.11220629980     Delta-E=       -0.000051049230 Rises=F Damp=F
 DIIS: error= 3.91D-05 at cycle   7 NSaved=   7.
 NSaved= 7 IEnMin= 7 EnMin= -1543.11220629980     IErMin= 7 ErrMin= 3.91D-05
 ErrMax= 3.91D-05  0.00D+00 EMaxC= 1.00D-01 BMatC= 2.73D-06 BMatP= 2.11D-05
 IDIUse=1 WtCom= 1.00D+00 WtEn= 0.00D+00
 Coeff-Com:  0.238D-03 0.141D-02 0.302D-02-0.255D-01-0.922D-01 0.515D-01
 Coeff-Com:  0.106D+01
 Coeff:      0.238D-03 0.141D-02 0.302D-02-0.255D-01-0.922D-01 0.515D-01
 Coeff:      0.106D+01
 Gap=     0.248 Goal=   None    Shift=    0.000
 RMSDP=4.85D-05 MaxDP=1.82D-03 DE=-5.10D-05 OVMax= 2.26D-03

 Cycle   8  Pass 1  IDiag  1:
 RMSU=  2.72D-05    CP:  5.18D-01  9.37D-01  8.73D-01  1.04D+00  1.15D+00
                    CP:  1.34D+00  1.24D+00
 E= -1543.11221706113     Delta-E=       -0.000010761322 Rises=F Damp=F
 DIIS: error= 2.51D-05 at cycle   8 NSaved=   8.
 NSaved= 8 IEnMin= 8 EnMin= -1543.11221706113     IErMin= 8 ErrMin= 2.51D-05
 ErrMax= 2.51D-05  0.00D+00 EMaxC= 1.00D-01 BMatC= 5.79D-07 BMatP= 2.73D-06
 IDIUse=1 WtCom= 1.00D+00 WtEn= 0.00D+00
 Coeff-Com: -0.309D-03 0.161D-02 0.764D-02 0.129D-01-0.237D-01-0.187D+00
 Coeff-Com: -0.803D-02 0.120D+01
 Coeff:     -0.309D-03 0.161D-02 0.764D-02 0.129D-01-0.237D-01-0.187D+00
 Coeff:     -0.803D-02 0.120D+01
 Gap=     0.248 Goal=   None    Shift=    0.000
 RMSDP=2.46D-05 MaxDP=9.18D-04 DE=-1.08D-05 OVMax= 1.21D-03

 Cycle   9  Pass 1  IDiag  1:
 RMSU=  1.32D-05    CP:  5.18D-01  9.37D-01  8.74D-01  1.04D+00  1.16D+00
                    CP:  1.40D+00  1.44D+00  1.31D+00
 E= -1543.11221998251     Delta-E=       -0.000002921380 Rises=F Damp=F
 DIIS: error= 1.19D-05 at cycle   9 NSaved=   9.
 NSaved= 9 IEnMin= 9 EnMin= -1543.11221998251     IErMin= 9 ErrMin= 1.19D-05
 ErrMax= 1.19D-05  0.00D+00 EMaxC= 1.00D-01 BMatC= 1.15D-07 BMatP= 5.79D-07
 IDIUse=1 WtCom= 1.00D+00 WtEn= 0.00D+00
 Coeff-Com: -0.856D-04-0.171D-04 0.616D-03 0.635D-02 0.141D-01-0.394D-01
 Coeff-Com: -0.179D+00 0.167D+00 0.103D+01
 Coeff:     -0.856D-04-0.171D-04 0.616D-03 0.635D-02 0.141D-01-0.394D-01
 Coeff:     -0.179D+00 0.167D+00 0.103D+01
 Gap=     0.248 Goal=   None    Shift=    0.000
 RMSDP=9.92D-06 MaxDP=4.25D-04 DE=-2.92D-06 OVMax= 5.00D-04

 Cycle  10  Pass 1  IDiag  1:
 RMSU=  5.21D-06    CP:  5.18D-01  9.37D-01  8.74D-01  1.04D+00  1.16D+00
                    CP:  1.40D+00  1.49D+00  1.54D+00  1.25D+00
 E= -1543.11222060062     Delta-E=       -0.000000618117 Rises=F Damp=F
 DIIS: error= 5.57D-06 at cycle  10 NSaved=  10.
 NSaved=10 IEnMin=10 EnMin= -1543.11222060062     IErMin=10 ErrMin= 5.57D-06
 ErrMax= 5.57D-06  0.00D+00 EMaxC= 1.00D-01 BMatC= 2.64D-08 BMatP= 1.15D-07
 IDIUse=1 WtCom= 1.00D+00 WtEn= 0.00D+00
 Coeff-Com:  0.817D-04-0.434D-03-0.207D-02-0.343D-02 0.501D-02 0.491D-01
 Coeff-Com:  0.210D-01-0.318D+00-0.122D+00 0.137D+01
 Coeff:      0.817D-04-0.434D-03-0.207D-02-0.343D-02 0.501D-02 0.491D-01
 Coeff:      0.210D-01-0.318D+00-0.122D+00 0.137D+01
 Gap=     0.248 Goal=   None    Shift=    0.000
 RMSDP=6.52D-06 MaxDP=2.43D-04 DE=-6.18D-07 OVMax= 3.10D-04

 Cycle  11  Pass 1  IDiag  1:
 RMSU=  2.85D-06    CP:  5.18D-01  9.37D-01  8.74D-01  1.04D+00  1.17D+00
                    CP:  1.41D+00  1.51D+00  1.63D+00  1.59D+00  1.47D+00
 E= -1543.11222078547     Delta-E=       -0.000000184843 Rises=F Damp=F
 DIIS: error= 1.90D-06 at cycle  11 NSaved=  11.
 NSaved=11 IEnMin=11 EnMin= -1543.11222078547     IErMin=11 ErrMin= 1.90D-06
 ErrMax= 1.90D-06  0.00D+00 EMaxC= 1.00D-01 BMatC= 4.42D-09 BMatP= 2.64D-08
 IDIUse=1 WtCom= 1.00D+00 WtEn= 0.00D+00
 Coeff-Com:  0.294D-04-0.809D-04-0.494D-03-0.154D-02-0.190D-02 0.145D-01
 Coeff-Com:  0.358D-01-0.813D-01-0.222D+00 0.258D+00 0.999D+00
 Coeff:      0.294D-04-0.809D-04-0.494D-03-0.154D-02-0.190D-02 0.145D-01
 Coeff:      0.358D-01-0.813D-01-0.222D+00 0.258D+00 0.999D+00
 Gap=     0.248 Goal=   None    Shift=    0.000
 RMSDP=2.37D-06 MaxDP=1.17D-04 DE=-1.85D-07 OVMax= 9.86D-05

 Cycle  12  Pass 1  IDiag  1:
 RMSU=  1.07D-06    CP:  5.18D-01  9.37D-01  8.74D-01  1.04D+00  1.17D+00
                    CP:  1.41D+00  1.52D+00  1.66D+00  1.66D+00  1.70D+00
                    CP:  1.25D+00
 E= -1543.11222080600     Delta-E=       -0.000000020533 Rises=F Damp=F
 DIIS: error= 6.57D-07 at cycle  12 NSaved=  12.
 NSaved=12 IEnMin=12 EnMin= -1543.11222080600     IErMin=12 ErrMin= 6.57D-07
 ErrMax= 6.57D-07  0.00D+00 EMaxC= 1.00D-01 BMatC= 6.85D-10 BMatP= 4.42D-09
 IDIUse=1 WtCom= 1.00D+00 WtEn= 0.00D+00
 Coeff-Com: -0.563D-05 0.469D-04 0.202D-03 0.296D-03-0.120D-02-0.462D-02
 Coeff-Com:  0.445D-02 0.369D-01-0.339D-01-0.164D+00 0.186D+00 0.976D+00
 Coeff:     -0.563D-05 0.469D-04 0.202D-03 0.296D-03-0.120D-02-0.462D-02
 Coeff:      0.445D-02 0.369D-01-0.339D-01-0.164D+00 0.186D+00 0.976D+00
 Gap=     0.248 Goal=   None    Shift=    0.000
 RMSDP=8.61D-07 MaxDP=4.66D-05 DE=-2.05D-08 OVMax= 3.11D-05

 Cycle  13  Pass 1  IDiag  1:
 RMSU=  4.52D-07    CP:  5.18D-01  9.37D-01  8.74D-01  1.04D+00  1.17D+00
                    CP:  1.41D+00  1.52D+00  1.67D+00  1.68D+00  1.75D+00
                    CP:  1.43D+00  1.22D+00
 E= -1543.11222080835     Delta-E=       -0.000000002349 Rises=F Damp=F
 DIIS: error= 3.46D-07 at cycle  13 NSaved=  13.
 NSaved=13 IEnMin=13 EnMin= -1543.11222080835     IErMin=13 ErrMin= 3.46D-07
 ErrMax= 3.46D-07  0.00D+00 EMaxC= 1.00D-01 BMatC= 9.74D-11 BMatP= 6.85D-10
 IDIUse=1 WtCom= 1.00D+00 WtEn= 0.00D+00
 Coeff-Com: -0.508D-05 0.163D-04 0.894D-04 0.309D-03 0.117D-03-0.256D-02
 Coeff-Com: -0.569D-02 0.154D-01 0.284D-01-0.402D-01-0.143D+00 0.561D-01
 Coeff-Com:  0.109D+01
 Coeff:     -0.508D-05 0.163D-04 0.894D-04 0.309D-03 0.117D-03-0.256D-02
 Coeff:     -0.569D-02 0.154D-01 0.284D-01-0.402D-01-0.143D+00 0.561D-01
 Coeff:      0.109D+01
 Gap=     0.248 Goal=   None    Shift=    0.000
 RMSDP=3.09D-07 MaxDP=1.28D-05 DE=-2.35D-09 OVMax= 1.17D-05

 Cycle  14  Pass 1  IDiag  1:
 RMSU=  1.86D-07    CP:  5.18D-01  9.37D-01  8.74D-01  1.04D+00  1.17D+00
                    CP:  1.41D+00  1.52D+00  1.67D+00  1.68D+00  1.76D+00
                    CP:  1.46D+00  1.36D+00  1.24D+00
 E= -1543.11222080880     Delta-E=       -0.000000000454 Rises=F Damp=F
 DIIS: error= 1.72D-07 at cycle  14 NSaved=  14.
 NSaved=14 IEnMin=14 EnMin= -1543.11222080880     IErMin=14 ErrMin= 1.72D-07
 ErrMax= 1.72D-07  0.00D+00 EMaxC= 1.00D-01 BMatC= 1.79D-11 BMatP= 9.74D-11
 IDIUse=1 WtCom= 1.00D+00 WtEn= 0.00D+00
 Coeff-Com:  0.190D-05-0.104D-04-0.503D-04-0.101D-03 0.114D-03 0.133D-02
 Coeff-Com:  0.533D-03-0.853D-02-0.249D-02 0.364D-01-0.234D-02-0.158D+00
 Coeff-Com: -0.250D+00 0.138D+01
 Coeff:      0.190D-05-0.104D-04-0.503D-04-0.101D-03 0.114D-03 0.133D-02
 Coeff:      0.533D-03-0.853D-02-0.249D-02 0.364D-01-0.234D-02-0.158D+00
 Coeff:     -0.250D+00 0.138D+01
 Gap=     0.248 Goal=   None    Shift=    0.000
 RMSDP=1.56D-07 MaxDP=6.74D-06 DE=-4.54D-10 OVMax= 7.44D-06

 Cycle  15  Pass 1  IDiag  1:
 RMSU=  8.68D-08    CP:  5.18D-01  9.37D-01  8.74D-01  1.04D+00  1.17D+00
                    CP:  1.41D+00  1.52D+00  1.67D+00  1.68D+00  1.76D+00
                    CP:  1.47D+00  1.40D+00  1.44D+00  1.39D+00
 E= -1543.11222080894     Delta-E=       -0.000000000139 Rises=F Damp=F
 DIIS: error= 8.07D-08 at cycle  15 NSaved=  15.
 NSaved=15 IEnMin=15 EnMin= -1543.11222080894     IErMin=15 ErrMin= 8.07D-08
 ErrMax= 8.07D-08  0.00D+00 EMaxC= 1.00D-01 BMatC= 3.64D-12 BMatP= 1.79D-11
 IDIUse=1 WtCom= 1.00D+00 WtEn= 0.00D+00
 Coeff-Com:  0.892D-06-0.261D-05-0.144D-04-0.548D-04-0.377D-04 0.424D-03
 Coeff-Com:  0.115D-02-0.243D-02-0.653D-02 0.638D-02 0.305D-01 0.216D-02
 Coeff-Com: -0.237D+00-0.415D-01 0.125D+01
 Coeff:      0.892D-06-0.261D-05-0.144D-04-0.548D-04-0.377D-04 0.424D-03
 Coeff:      0.115D-02-0.243D-02-0.653D-02 0.638D-02 0.305D-01 0.216D-02
 Coeff:     -0.237D+00-0.415D-01 0.125D+01
 Gap=     0.248 Goal=   None    Shift=    0.000
 RMSDP=7.54D-08 MaxDP=3.41D-06 DE=-1.39D-10 OVMax= 3.63D-06

 Cycle  16  Pass 1  IDiag  1:
 RMSU=  3.12D-08    CP:  5.18D-01  9.37D-01  8.74D-01  1.04D+00  1.17D+00
                    CP:  1.41D+00  1.52D+00  1.67D+00  1.68D+00  1.77D+00
                    CP:  1.47D+00  1.40D+00  1.49D+00  1.57D+00  1.51D+00
 E= -1543.11222080890     Delta-E=        0.000000000040 Rises=F Damp=F
 DIIS: error= 3.50D-08 at cycle  16 NSaved=  16.
 NSaved=16 IEnMin=15 EnMin= -1543.11222080894     IErMin=16 ErrMin= 3.50D-08
 ErrMax= 3.50D-08  0.00D+00 EMaxC= 1.00D-01 BMatC= 4.87D-13 BMatP= 3.64D-12
 IDIUse=1 WtCom= 1.00D+00 WtEn= 0.00D+00
 Coeff-Com: -0.359D-06 0.206D-05 0.103D-04 0.190D-04-0.234D-04-0.275D-03
 Coeff-Com: -0.493D-04 0.177D-02 0.164D-03-0.726D-02 0.192D-02 0.333D-01
 Coeff-Com:  0.381D-01-0.263D+00 0.234D-01 0.117D+01
 Coeff:     -0.359D-06 0.206D-05 0.103D-04 0.190D-04-0.234D-04-0.275D-03
 Coeff:     -0.493D-04 0.177D-02 0.164D-03-0.726D-02 0.192D-02 0.333D-01
 Coeff:      0.381D-01-0.263D+00 0.234D-01 0.117D+01
 Gap=     0.248 Goal=   None    Shift=    0.000
 RMSDP=3.12D-08 MaxDP=1.24D-06 DE= 3.96D-11 OVMax= 1.33D-06

 Cycle  17  Pass 1  IDiag  1:
 RMSU=  1.30D-08    CP:  5.18D-01  9.37D-01  8.74D-01  1.04D+00  1.17D+00
                    CP:  1.41D+00  1.52D+00  1.67D+00  1.68D+00  1.77D+00
                    CP:  1.47D+00  1.40D+00  1.50D+00  1.58D+00  1.73D+00
                    CP:  1.45D+00
 E= -1543.11222080896     Delta-E=       -0.000000000055 Rises=F Damp=F
 DIIS: error= 5.24D-09 at cycle  17 NSaved=  17.
 NSaved=17 IEnMin=17 EnMin= -1543.11222080896     IErMin=17 ErrMin= 5.24D-09
 ErrMax= 5.24D-09  0.00D+00 EMaxC= 1.00D-01 BMatC= 5.54D-14 BMatP= 4.87D-13
 IDIUse=1 WtCom= 1.00D+00 WtEn= 0.00D+00
 Coeff-Com: -0.145D-06 0.589D-06 0.323D-05 0.880D-05 0.205D-05-0.958D-04
 Coeff-Com: -0.133D-03 0.553D-03 0.764D-03-0.198D-02-0.299D-02 0.522D-02
 Coeff-Com:  0.322D-01-0.384D-01-0.137D+00 0.195D+00 0.947D+00
 Coeff:     -0.145D-06 0.589D-06 0.323D-05 0.880D-05 0.205D-05-0.958D-04
 Coeff:     -0.133D-03 0.553D-03 0.764D-03-0.198D-02-0.299D-02 0.522D-02
 Coeff:      0.322D-01-0.384D-01-0.137D+00 0.195D+00 0.947D+00
 Gap=     0.248 Goal=   None    Shift=    0.000
 RMSDP=7.96D-09 MaxDP=4.78D-07 DE=-5.55D-11 OVMax= 2.60D-07

 SCF Done:  E(RHF) =  -1543.11222081     A.U. after   17 cycles
            NFock= 17  Conv=0.80D-08     -V/T= 2.0005
 KE= 1.542373239915D+03 PE=-6.908740043940D+03 EE= 2.179160219067D+03
 Leave Link  502 at Sun Jul 18 14:55:04 2021, MaxMem=   262144000 cpu:            4448.7 elap:            1114.9
 (Enter /prod/apps/gaussian/g16b1/l801.exe)
 ExpMin= 2.97D-02 ExpMax= 1.28D+05 ExpMxC= 1.24D+03 IAcc=3 IRadAn=         5 AccDes= 0.00D+00
 HarFok:  IExCor=  205 AccDes= 0.00D+00 IRadAn=         5 IDoV=-2 UseB2=F ITyADJ=14
 ICtDFT= 12500011 ScaDFX=  1.000000  1.000000  1.000000  1.000000
 GSVD:  LWork=        -945 too small for GESVD, short by        4050 words or        4050 for optimal perf.
 Largest valence mixing into a core orbital is  3.27D-04
 Largest core mixing into a valence orbital is  7.00D-05
 Range of M.O.s used for correlation:    28   588
 NBasis=   589 NAE=    76 NBE=    76 NFC=    27 NFV=     0
 NROrb=    561 NOA=    49 NOB=    49 NVA=   512 NVB=   512

 **** Warning!!: The largest alpha MO coefficient is  0.10541790D+03

 Leave Link  801 at Sun Jul 18 14:55:05 2021, MaxMem=   262144000 cpu:               1.2 elap:               0.4
 (Enter /prod/apps/gaussian/g16b1/l906.exe)
 FulOut=F Deriv=F AODrv=F NAtomX=    35
   MMem=           3  MDisk=          49 MDiskD=          49
  W3Min=    15730176 MinDsk=    16236966 NBas6D=         627
 NBas2D=      197721    NTT=      196878    LW2=     2000000
    MDV=   259642142 MDiskM=        5707 NBas2p=      182712
 Disk-based method using OVN memory for 49 occupieds at a time.
 Estimated scratch disk usage= 14010585088 words.
 IMap=   1   2   3   4   5   6   7   8   9  10  11  12  13  14  15  16  17  18  19  20
 IMap=  21  22  23  24  25  26  27  28  29  30  31  32  33  34  35  36  37  38  39  40
 IMap=  41  42  43  44  45  46  47  48  49
 Actual    scratch disk usage= 13787596800 words.
 JobTyp=1 Pass  1:  I=   1 to  49 NPSUse=  4 ParTrn=T ParDer=T DoDerP=F.
Erroneous write. Write -1 instead of 3801200.
fd = 4
orig len = 8384512 left = 3801200
g_write
