 Entering Gaussian System, Link 0=g16
 Initial command:
 /prod/apps/gaussian/g16b1/l1.exe "/tmp/ubator02/1839701/Gau-124553.inp" -scrdir="/tmp/ubator02/1839701/"
 Entering Link 1 = /prod/apps/gaussian/g16b1/l1.exe PID=    124554.
  
 Copyright (c) 1988-2017, Gaussian, Inc.  All Rights Reserved.
  
 This is part of the Gaussian(R) 16 program.  It is based on
 the Gaussian(R) 09 system (copyright 2009, Gaussian, Inc.),
 the Gaussian(R) 03 system (copyright 2003, Gaussian, Inc.),
 the Gaussian(R) 98 system (copyright 1998, Gaussian, Inc.),
 the Gaussian(R) 94 system (copyright 1995, Gaussian, Inc.),
 the Gaussian 92(TM) system (copyright 1992, Gaussian, Inc.),
 the Gaussian 90(TM) system (copyright 1990, Gaussian, Inc.),
 the Gaussian 88(TM) system (copyright 1988, Gaussian, Inc.),
 the Gaussian 86(TM) system (copyright 1986, Carnegie Mellon
 University), and the Gaussian 82(TM) system (copyright 1983,
 Carnegie Mellon University). Gaussian is a federally registered
 trademark of Gaussian, Inc.
  
 This software contains proprietary and confidential information,
 including trade secrets, belonging to Gaussian, Inc.
  
 This software is provided under written license and may be
 used, copied, transmitted, or stored only in accord with that
 written license.
  
 The following legend is applicable only to US Government
 contracts under FAR:
  
                    RESTRICTED RIGHTS LEGEND
  
 Use, reproduction and disclosure by the US Government is
 subject to restrictions as set forth in subparagraphs (a)
 and (c) of the Commercial Computer Software - Restricted
 Rights clause in FAR 52.227-19.
  
 Gaussian, Inc.
 340 Quinnipiac St., Bldg. 40, Wallingford CT 06492
  
  
 ---------------------------------------------------------------
 Warning -- This program may not be used in any manner that
 competes with the business of Gaussian, Inc. or will provide
 assistance to any competitor of Gaussian, Inc.  The licensee
 of this program is prohibited from giving any competitor of
 Gaussian, Inc. access to this program.  By using this program,
 the user acknowledges that Gaussian, Inc. is engaged in the
 business of creating and licensing software in the field of
 computational chemistry and represents and warrants to the
 licensee that it is not a competitor of Gaussian, Inc. and that
 it will not use this program in any manner prohibited above.
 ---------------------------------------------------------------
  

 Cite this work as:
 Gaussian 16, Revision B.01,
 M. J. Frisch, G. W. Trucks, H. B. Schlegel, G. E. Scuseria, 
 M. A. Robb, J. R. Cheeseman, G. Scalmani, V. Barone, 
 G. A. Petersson, H. Nakatsuji, X. Li, M. Caricato, A. V. Marenich, 
 J. Bloino, B. G. Janesko, R. Gomperts, B. Mennucci, H. P. Hratchian, 
 J. V. Ortiz, A. F. Izmaylov, J. L. Sonnenberg, D. Williams-Young, 
 F. Ding, F. Lipparini, F. Egidi, J. Goings, B. Peng, A. Petrone, 
 T. Henderson, D. Ranasinghe, V. G. Zakrzewski, J. Gao, N. Rega, 
 G. Zheng, W. Liang, M. Hada, M. Ehara, K. Toyota, R. Fukuda, 
 J. Hasegawa, M. Ishida, T. Nakajima, Y. Honda, O. Kitao, H. Nakai, 
 T. Vreven, K. Throssell, J. A. Montgomery, Jr., J. E. Peralta, 
 F. Ogliaro, M. J. Bearpark, J. J. Heyd, E. N. Brothers, K. N. Kudin, 
 V. N. Staroverov, T. A. Keith, R. Kobayashi, J. Normand, 
 K. Raghavachari, A. P. Rendell, J. C. Burant, S. S. Iyengar, 
 J. Tomasi, M. Cossi, J. M. Millam, M. Klene, C. Adamo, R. Cammi, 
 J. W. Ochterski, R. L. Martin, K. Morokuma, O. Farkas, 
 J. B. Foresman, and D. J. Fox, Gaussian, Inc., Wallingford CT, 2016.
 
 ******************************************
 Gaussian 16:  ES64L-G16RevB.01 20-Dec-2017
                18-Jul-2021 
 ******************************************
 %mem=800MB
 %nproc=4
 Will use up to    4 processors via shared memory.
 %chk=SET_328_BBB324_conf1.geo_180_120_300.chk
 -----------------------------------------------------------
 #p b3lyp/6-31G(d) opt freq scrf=(iefpcm,read,solvent=water)
 -----------------------------------------------------------
 1/18=20,19=15,26=3,38=1,40=2/1,3;
 2/9=110,12=2,17=6,18=5,40=1/2;
 3/5=1,6=6,7=1,11=2,25=1,30=1,70=2203,71=1,72=1,74=-5/1,2,3;
 4//1;
 5/5=2,38=5,53=1/2;
 6/7=2,8=2,9=2,10=2,28=1/1;
 7//1,2,3,16;
 1/18=20,19=15,26=3/3(2);
 2/9=110/2;
 99//99;
 2/9=110/2;
 3/5=1,6=6,7=1,11=2,25=1,30=1,70=2205,71=1,72=1,74=-5/1,2,3;
 4/5=5,16=3,69=1/1;
 5/5=2,38=5,53=1/2;
 7//1,2,3,16;
 1/18=20,19=15,26=3/3(-5);
 2/9=110/2;
 6/7=2,8=2,9=2,10=2,19=2,28=1/1;
 99/9=1/99;
 Leave Link    1 at Sun Jul 18 16:23:05 2021, MaxMem=   104857600 cpu:               0.1 elap:               0.0
 (Enter /prod/apps/gaussian/g16b1/l101.exe)
 ---------------------------------------------
 SET_328_BBB324_conf1.geo_180_120_300 geometry
 ---------------------------------------------
 Symbolic Z-matrix:
 Charge =  1 Multiplicity = 1
 C                     0.378    -0.398     2.835 
 H                     0.919     0.275     3.505 
 H                     0.072    -1.243     3.457 
 H                    -0.546     0.137     2.602 
 N                     1.301    -0.834     1.757 
 C                     1.098    -0.014     0.519 
 H                     2.03      0.509     0.291 
 H                     0.382     0.788     0.716 
 C                     0.602    -0.957    -0.565 
 C                    -0.557    -1.009    -1.33 
 C                    -1.526     0.072    -1.235 
 N                    -2.601    -0.057    -2.041 
 O                    -3.514     0.851    -1.518 
 C                    -2.737     1.664    -0.726 
 N                    -1.556     1.175    -0.397 
 C                    -3.341     2.838    -0.007 
 C                    -4.699     2.497     0.752 
 H                    -5.324     2.533    -0.143 
 H                    -5.061     3.229     1.477 
 H                    -4.755     1.505     1.205 
 O                    -2.43      3.334     1.058 
 H                    -1.503     3.059     0.942 
 C                    -3.563     3.986    -1.043 
 O                    -2.328     4.429    -1.687 
 H                    -2.431     5.394    -1.599 
 H                    -4.087     4.801    -0.538 
 H                    -4.278     3.726    -1.828 
 N                    -0.559    -2.109    -2.178 
 C                     0.567    -2.787    -1.958 
 H                     0.996    -3.57     -2.565 
 N                     1.322    -2.076    -1.008 
 C                     2.58     -2.332    -0.663 
 C                     3.533    -2.85     -1.563 
 H                     3.305    -3.04     -2.609 
 C                     4.865    -3.018    -1.26 
 H                     5.594    -3.265    -2.027 
 C                     5.288    -2.841     0.063 
 H                     6.33     -2.932     0.361 
 C                     4.331    -2.404     1.005 
 Cl                    4.85     -2.019     2.568 
 C                     3.01     -2.259     0.696 
 C                     2.055    -1.996     1.876 
 O                     1.992    -2.791     2.803 
 H                    -1.275    -2.349    -2.834 
 
 ITRead=  0  0  0  0  0  0  0  0  0  0  0  0  0  0  0  0  0  0  0  0
 ITRead=  0  0  0  0  0  0  0  0  0  0  0  0  0  0  0  0  0  0  0  0
 ITRead=  0  0  0  0
 MicOpt= -1 -1 -1 -1 -1 -1 -1 -1 -1 -1 -1 -1 -1 -1 -1 -1 -1 -1 -1 -1
 MicOpt= -1 -1 -1 -1 -1 -1 -1 -1 -1 -1 -1 -1 -1 -1 -1 -1 -1 -1 -1 -1
 MicOpt= -1 -1 -1 -1
 NAtoms=     44 NQM=       44 NQMF=       0 NMMI=      0 NMMIF=      0
                NMic=       0 NMicF=      0.
                    Isotopes and Nuclear Properties:
 (Nuclear quadrupole moments (NQMom) in fm**2, nuclear magnetic moments (NMagM)
  in nuclear magnetons)

  Atom         1           2           3           4           5           6           7           8           9          10
 IAtWgt=          12           1           1           1          14          12           1           1          12          12
 AtmWgt=  12.0000000   1.0078250   1.0078250   1.0078250  14.0030740  12.0000000   1.0078250   1.0078250  12.0000000  12.0000000
 NucSpn=           0           1           1           1           2           0           1           1           0           0
 AtZEff=  -0.0000000  -0.0000000  -0.0000000  -0.0000000  -0.0000000  -0.0000000  -0.0000000  -0.0000000  -0.0000000  -0.0000000
 NQMom=    0.0000000   0.0000000   0.0000000   0.0000000   2.0440000   0.0000000   0.0000000   0.0000000   0.0000000   0.0000000
 NMagM=    0.0000000   2.7928460   2.7928460   2.7928460   0.4037610   0.0000000   2.7928460   2.7928460   0.0000000   0.0000000
 AtZNuc=   6.0000000   1.0000000   1.0000000   1.0000000   7.0000000   6.0000000   1.0000000   1.0000000   6.0000000   6.0000000

  Atom        11          12          13          14          15          16          17          18          19          20
 IAtWgt=          12          14          16          12          14          12          12           1           1           1
 AtmWgt=  12.0000000  14.0030740  15.9949146  12.0000000  14.0030740  12.0000000  12.0000000   1.0078250   1.0078250   1.0078250
 NucSpn=           0           2           0           0           2           0           0           1           1           1
 AtZEff=  -0.0000000  -0.0000000  -0.0000000  -0.0000000  -0.0000000  -0.0000000  -0.0000000  -0.0000000  -0.0000000  -0.0000000
 NQMom=    0.0000000   2.0440000   0.0000000   0.0000000   2.0440000   0.0000000   0.0000000   0.0000000   0.0000000   0.0000000
 NMagM=    0.0000000   0.4037610   0.0000000   0.0000000   0.4037610   0.0000000   0.0000000   2.7928460   2.7928460   2.7928460
 AtZNuc=   6.0000000   7.0000000   8.0000000   6.0000000   7.0000000   6.0000000   6.0000000   1.0000000   1.0000000   1.0000000

  Atom        21          22          23          24          25          26          27          28          29          30
 IAtWgt=          16           1          12          16           1           1           1          14          12           1
 AtmWgt=  15.9949146   1.0078250  12.0000000  15.9949146   1.0078250   1.0078250   1.0078250  14.0030740  12.0000000   1.0078250
 NucSpn=           0           1           0           0           1           1           1           2           0           1
 AtZEff=  -0.0000000  -0.0000000  -0.0000000  -0.0000000  -0.0000000  -0.0000000  -0.0000000  -0.0000000  -0.0000000  -0.0000000
 NQMom=    0.0000000   0.0000000   0.0000000   0.0000000   0.0000000   0.0000000   0.0000000   2.0440000   0.0000000   0.0000000
 NMagM=    0.0000000   2.7928460   0.0000000   0.0000000   2.7928460   2.7928460   2.7928460   0.4037610   0.0000000   2.7928460
 AtZNuc=   8.0000000   1.0000000   6.0000000   8.0000000   1.0000000   1.0000000   1.0000000   7.0000000   6.0000000   1.0000000

  Atom        31          32          33          34          35          36          37          38          39          40
 IAtWgt=          14          12          12           1          12           1          12           1          12          35
 AtmWgt=  14.0030740  12.0000000  12.0000000   1.0078250  12.0000000   1.0078250  12.0000000   1.0078250  12.0000000  34.9688527
 NucSpn=           2           0           0           1           0           1           0           1           0           3
 AtZEff=  -0.0000000  -0.0000000  -0.0000000  -0.0000000  -0.0000000  -0.0000000  -0.0000000  -0.0000000  -0.0000000  -0.0000000
 NQMom=    2.0440000   0.0000000   0.0000000   0.0000000   0.0000000   0.0000000   0.0000000   0.0000000   0.0000000  -8.1650000
 NMagM=    0.4037610   0.0000000   0.0000000   2.7928460   0.0000000   2.7928460   0.0000000   2.7928460   0.0000000   0.8218740
 AtZNuc=   7.0000000   6.0000000   6.0000000   1.0000000   6.0000000   1.0000000   6.0000000   1.0000000   6.0000000  17.0000000

  Atom        41          42          43          44
 IAtWgt=          12          12          16           1
 AtmWgt=  12.0000000  12.0000000  15.9949146   1.0078250
 NucSpn=           0           0           0           1
 AtZEff=  -0.0000000  -0.0000000  -0.0000000  -0.0000000
 NQMom=    0.0000000   0.0000000   0.0000000   0.0000000
 NMagM=    0.0000000   0.0000000   0.0000000   2.7928460
 AtZNuc=   6.0000000   6.0000000   8.0000000   1.0000000
 Leave Link  101 at Sun Jul 18 16:23:05 2021, MaxMem=   104857600 cpu:               0.5 elap:               0.2
 (Enter /prod/apps/gaussian/g16b1/l103.exe)

 GradGradGradGradGradGradGradGradGradGradGradGradGradGradGradGradGradGrad
 Berny optimization.
 Initialization pass.
                           ----------------------------
                           !    Initial Parameters    !
                           ! (Angstroms and Degrees)  !
 --------------------------                            --------------------------
 ! Name  Definition              Value          Derivative Info.                !
 --------------------------------------------------------------------------------
 ! R1    R(1,2)                  1.0929         estimate D2E/DX2                !
 ! R2    R(1,3)                  1.093          estimate D2E/DX2                !
 ! R3    R(1,4)                  1.0928         estimate D2E/DX2                !
 ! R4    R(1,5)                  1.4846         estimate D2E/DX2                !
 ! R5    R(5,6)                  1.4988         estimate D2E/DX2                !
 ! R6    R(5,42)                 1.3903         estimate D2E/DX2                !
 ! R7    R(6,7)                  1.0928         estimate D2E/DX2                !
 ! R8    R(6,8)                  1.093          estimate D2E/DX2                !
 ! R9    R(6,9)                  1.52           estimate D2E/DX2                !
 ! R10   R(9,10)                 1.3897         estimate D2E/DX2                !
 ! R11   R(9,31)                 1.4024         estimate D2E/DX2                !
 ! R12   R(10,11)                1.4548         estimate D2E/DX2                !
 ! R13   R(10,28)                1.3889         estimate D2E/DX2                !
 ! R14   R(11,12)                1.3498         estimate D2E/DX2                !
 ! R15   R(11,15)                1.3856         estimate D2E/DX2                !
 ! R16   R(12,13)                1.3898         estimate D2E/DX2                !
 ! R17   R(13,14)                1.3755         estimate D2E/DX2                !
 ! R18   R(14,15)                1.3199         estimate D2E/DX2                !
 ! R19   R(14,16)                1.5033         estimate D2E/DX2                !
 ! R20   R(16,17)                1.5926         estimate D2E/DX2                !
 ! R21   R(16,21)                1.4867         estimate D2E/DX2                !
 ! R22   R(16,23)                1.5622         estimate D2E/DX2                !
 ! R23   R(17,18)                1.0922         estimate D2E/DX2                !
 ! R24   R(17,19)                1.092          estimate D2E/DX2                !
 ! R25   R(17,20)                1.092          estimate D2E/DX2                !
 ! R26   R(21,22)                0.9739         estimate D2E/DX2                !
 ! R27   R(23,24)                1.4616         estimate D2E/DX2                !
 ! R28   R(23,26)                1.0926         estimate D2E/DX2                !
 ! R29   R(23,27)                1.0932         estimate D2E/DX2                !
 ! R30   R(24,25)                0.9745         estimate D2E/DX2                !
 ! R31   R(28,29)                1.3327         estimate D2E/DX2                !
 ! R32   R(28,44)                1.0003         estimate D2E/DX2                !
 ! R33   R(29,30)                1.0796         estimate D2E/DX2                !
 ! R34   R(29,31)                1.4064         estimate D2E/DX2                !
 ! R35   R(31,32)                1.3293         estimate D2E/DX2                !
 ! R36   R(32,33)                1.4094         estimate D2E/DX2                !
 ! R37   R(32,41)                1.4273         estimate D2E/DX2                !
 ! R38   R(33,34)                1.0873         estimate D2E/DX2                !
 ! R39   R(33,35)                1.3763         estimate D2E/DX2                !
 ! R40   R(35,36)                1.0866         estimate D2E/DX2                !
 ! R41   R(35,37)                1.4002         estimate D2E/DX2                !
 ! R42   R(37,38)                1.0876         estimate D2E/DX2                !
 ! R43   R(37,39)                1.4122         estimate D2E/DX2                !
 ! R44   R(39,40)                1.6913         estimate D2E/DX2                !
 ! R45   R(39,41)                1.3644         estimate D2E/DX2                !
 ! R46   R(41,42)                1.5406         estimate D2E/DX2                !
 ! R47   R(42,43)                1.2228         estimate D2E/DX2                !
 ! A1    A(2,1,3)              105.4138         estimate D2E/DX2                !
 ! A2    A(2,1,4)              104.3457         estimate D2E/DX2                !
 ! A3    A(2,1,5)              108.5554         estimate D2E/DX2                !
 ! A4    A(3,1,4)              105.2544         estimate D2E/DX2                !
 ! A5    A(3,1,5)              111.1149         estimate D2E/DX2                !
 ! A6    A(4,1,5)              120.9718         estimate D2E/DX2                !
 ! A7    A(1,5,6)              110.7871         estimate D2E/DX2                !
 ! A8    A(1,5,42)             121.364          estimate D2E/DX2                !
 ! A9    A(6,5,42)             126.9731         estimate D2E/DX2                !
 ! A10   A(5,6,7)              108.5831         estimate D2E/DX2                !
 ! A11   A(5,6,8)              109.9562         estimate D2E/DX2                !
 ! A12   A(5,6,9)              107.0889         estimate D2E/DX2                !
 ! A13   A(7,6,8)              104.1894         estimate D2E/DX2                !
 ! A14   A(7,6,9)              115.2419         estimate D2E/DX2                !
 ! A15   A(8,6,9)              111.7156         estimate D2E/DX2                !
 ! A16   A(6,9,10)             133.4688         estimate D2E/DX2                !
 ! A17   A(6,9,31)             123.557          estimate D2E/DX2                !
 ! A18   A(10,9,31)            102.9693         estimate D2E/DX2                !
 ! A19   A(9,10,11)            119.4552         estimate D2E/DX2                !
 ! A20   A(9,10,28)            111.5266         estimate D2E/DX2                !
 ! A21   A(11,10,28)           128.8572         estimate D2E/DX2                !
 ! A22   A(10,11,12)           114.8635         estimate D2E/DX2                !
 ! A23   A(10,11,15)           130.1978         estimate D2E/DX2                !
 ! A24   A(12,11,15)           114.8341         estimate D2E/DX2                !
 ! A25   A(11,12,13)           103.6533         estimate D2E/DX2                !
 ! A26   A(12,13,14)           103.3999         estimate D2E/DX2                !
 ! A27   A(13,14,15)           115.467          estimate D2E/DX2                !
 ! A28   A(13,14,16)           120.6641         estimate D2E/DX2                !
 ! A29   A(15,14,16)           121.9782         estimate D2E/DX2                !
 ! A30   A(11,15,14)            99.4129         estimate D2E/DX2                !
 ! A31   A(14,16,17)           113.7846         estimate D2E/DX2                !
 ! A32   A(14,16,21)           110.9136         estimate D2E/DX2                !
 ! A33   A(14,16,23)           108.288          estimate D2E/DX2                !
 ! A34   A(17,16,21)           104.6277         estimate D2E/DX2                !
 ! A35   A(17,16,23)           110.6226         estimate D2E/DX2                !
 ! A36   A(21,16,23)           108.4803         estimate D2E/DX2                !
 ! A37   A(16,17,18)            95.1838         estimate D2E/DX2                !
 ! A38   A(16,17,19)           117.0992         estimate D2E/DX2                !
 ! A39   A(16,17,20)           115.8448         estimate D2E/DX2                !
 ! A40   A(18,17,19)           109.405          estimate D2E/DX2                !
 ! A41   A(18,17,20)           109.9094         estimate D2E/DX2                !
 ! A42   A(19,17,20)           108.4532         estimate D2E/DX2                !
 ! A43   A(16,21,22)           113.8131         estimate D2E/DX2                !
 ! A44   A(16,23,24)           113.2573         estimate D2E/DX2                !
 ! A45   A(16,23,26)           108.0461         estimate D2E/DX2                !
 ! A46   A(16,23,27)           113.2272         estimate D2E/DX2                !
 ! A47   A(24,23,26)           112.5073         estimate D2E/DX2                !
 ! A48   A(24,23,27)           107.9595         estimate D2E/DX2                !
 ! A49   A(26,23,27)           101.2814         estimate D2E/DX2                !
 ! A50   A(23,24,25)            99.8489         estimate D2E/DX2                !
 ! A51   A(10,28,29)           107.5129         estimate D2E/DX2                !
 ! A52   A(10,28,44)           126.2599         estimate D2E/DX2                !
 ! A53   A(29,28,44)           126.2273         estimate D2E/DX2                !
 ! A54   A(28,29,30)           127.7276         estimate D2E/DX2                !
 ! A55   A(28,29,31)           107.9321         estimate D2E/DX2                !
 ! A56   A(30,29,31)           122.2153         estimate D2E/DX2                !
 ! A57   A(9,31,29)            109.946          estimate D2E/DX2                !
 ! A58   A(9,31,32)            123.8847         estimate D2E/DX2                !
 ! A59   A(29,31,32)           125.871          estimate D2E/DX2                !
 ! A60   A(31,32,33)           123.0195         estimate D2E/DX2                !
 ! A61   A(31,32,41)           121.4915         estimate D2E/DX2                !
 ! A62   A(33,32,41)           115.0301         estimate D2E/DX2                !
 ! A63   A(32,33,34)           122.4618         estimate D2E/DX2                !
 ! A64   A(32,33,35)           123.9634         estimate D2E/DX2                !
 ! A65   A(34,33,35)           113.1665         estimate D2E/DX2                !
 ! A66   A(33,35,36)           121.442          estimate D2E/DX2                !
 ! A67   A(33,35,37)           119.0093         estimate D2E/DX2                !
 ! A68   A(36,35,37)           119.5378         estimate D2E/DX2                !
 ! A69   A(35,37,38)           122.5306         estimate D2E/DX2                !
 ! A70   A(35,37,39)           117.6891         estimate D2E/DX2                !
 ! A71   A(38,37,39)           119.4983         estimate D2E/DX2                !
 ! A72   A(37,39,40)           118.6164         estimate D2E/DX2                !
 ! A73   A(37,39,41)           122.5443         estimate D2E/DX2                !
 ! A74   A(40,39,41)           118.8295         estimate D2E/DX2                !
 ! A75   A(32,41,39)           120.1258         estimate D2E/DX2                !
 ! A76   A(32,41,42)           123.4532         estimate D2E/DX2                !
 ! A77   A(39,41,42)           116.4131         estimate D2E/DX2                !
 ! A78   A(5,42,41)            114.4119         estimate D2E/DX2                !
 ! A79   A(5,42,43)            125.473          estimate D2E/DX2                !
 ! A80   A(41,42,43)           120.1041         estimate D2E/DX2                !
 ! D1    D(2,1,5,6)            -98.0151         estimate D2E/DX2                !
 ! D2    D(2,1,5,42)            91.99           estimate D2E/DX2                !
 ! D3    D(3,1,5,6)            146.5069         estimate D2E/DX2                !
 ! D4    D(3,1,5,42)           -23.488          estimate D2E/DX2                !
 ! D5    D(4,1,5,6)             22.4016         estimate D2E/DX2                !
 ! D6    D(4,1,5,42)          -147.5933         estimate D2E/DX2                !
 ! D7    D(1,5,6,7)            118.8868         estimate D2E/DX2                !
 ! D8    D(1,5,6,8)              5.4829         estimate D2E/DX2                !
 ! D9    D(1,5,6,9)           -116.0808         estimate D2E/DX2                !
 ! D10   D(42,5,6,7)           -71.8144         estimate D2E/DX2                !
 ! D11   D(42,5,6,8)           174.7817         estimate D2E/DX2                !
 ! D12   D(42,5,6,9)            53.2179         estimate D2E/DX2                !
 ! D13   D(1,5,42,41)         -177.0907         estimate D2E/DX2                !
 ! D14   D(1,5,42,43)            4.1234         estimate D2E/DX2                !
 ! D15   D(6,5,42,41)           14.6398         estimate D2E/DX2                !
 ! D16   D(6,5,42,43)         -164.1461         estimate D2E/DX2                !
 ! D17   D(5,6,9,10)           119.8275         estimate D2E/DX2                !
 ! D18   D(5,6,9,31)           -59.2225         estimate D2E/DX2                !
 ! D19   D(7,6,9,10)          -119.273          estimate D2E/DX2                !
 ! D20   D(7,6,9,31)            61.677          estimate D2E/DX2                !
 ! D21   D(8,6,9,10)            -0.622          estimate D2E/DX2                !
 ! D22   D(8,6,9,31)          -179.672          estimate D2E/DX2                !
 ! D23   D(6,9,10,11)            5.9753         estimate D2E/DX2                !
 ! D24   D(6,9,10,28)         -178.2352         estimate D2E/DX2                !
 ! D25   D(31,9,10,11)        -174.8371         estimate D2E/DX2                !
 ! D26   D(31,9,10,28)           0.9524         estimate D2E/DX2                !
 ! D27   D(6,9,31,29)          176.6002         estimate D2E/DX2                !
 ! D28   D(6,9,31,32)           -9.3546         estimate D2E/DX2                !
 ! D29   D(10,9,31,29)          -2.6923         estimate D2E/DX2                !
 ! D30   D(10,9,31,32)         171.3529         estimate D2E/DX2                !
 ! D31   D(9,10,11,12)         178.4869         estimate D2E/DX2                !
 ! D32   D(9,10,11,15)          -5.4736         estimate D2E/DX2                !
 ! D33   D(28,10,11,12)          3.5187         estimate D2E/DX2                !
 ! D34   D(28,10,11,15)        179.5581         estimate D2E/DX2                !
 ! D35   D(9,10,28,29)           1.2028         estimate D2E/DX2                !
 ! D36   D(9,10,28,44)        -178.8205         estimate D2E/DX2                !
 ! D37   D(11,10,28,29)        176.4937         estimate D2E/DX2                !
 ! D38   D(11,10,28,44)         -3.5296         estimate D2E/DX2                !
 ! D39   D(10,11,12,13)        164.1907         estimate D2E/DX2                !
 ! D40   D(15,11,12,13)        -12.4766         estimate D2E/DX2                !
 ! D41   D(10,11,15,14)       -174.0036         estimate D2E/DX2                !
 ! D42   D(12,11,15,14)          2.0367         estimate D2E/DX2                !
 ! D43   D(11,12,13,14)         16.8059         estimate D2E/DX2                !
 ! D44   D(12,13,14,15)        -17.9105         estimate D2E/DX2                !
 ! D45   D(12,13,14,16)        177.4379         estimate D2E/DX2                !
 ! D46   D(13,14,15,11)         10.1005         estimate D2E/DX2                !
 ! D47   D(16,14,15,11)        174.5309         estimate D2E/DX2                !
 ! D48   D(13,14,16,17)         46.7323         estimate D2E/DX2                !
 ! D49   D(13,14,16,21)        164.3687         estimate D2E/DX2                !
 ! D50   D(13,14,16,23)        -76.7056         estimate D2E/DX2                !
 ! D51   D(15,14,16,17)       -116.9048         estimate D2E/DX2                !
 ! D52   D(15,14,16,21)          0.7316         estimate D2E/DX2                !
 ! D53   D(15,14,16,23)        119.6573         estimate D2E/DX2                !
 ! D54   D(14,16,17,18)        -79.0761         estimate D2E/DX2                !
 ! D55   D(14,16,17,19)        166.0153         estimate D2E/DX2                !
 ! D56   D(14,16,17,20)         36.0036         estimate D2E/DX2                !
 ! D57   D(21,16,17,18)        159.7131         estimate D2E/DX2                !
 ! D58   D(21,16,17,19)         44.8045         estimate D2E/DX2                !
 ! D59   D(21,16,17,20)        -85.2072         estimate D2E/DX2                !
 ! D60   D(23,16,17,18)         43.0819         estimate D2E/DX2                !
 ! D61   D(23,16,17,19)        -71.8267         estimate D2E/DX2                !
 ! D62   D(23,16,17,20)        158.1616         estimate D2E/DX2                !
 ! D63   D(14,16,21,22)         19.8053         estimate D2E/DX2                !
 ! D64   D(17,16,21,22)        142.8943         estimate D2E/DX2                !
 ! D65   D(23,16,21,22)        -99.0046         estimate D2E/DX2                !
 ! D66   D(14,16,23,24)        -59.9044         estimate D2E/DX2                !
 ! D67   D(14,16,23,26)        174.7686         estimate D2E/DX2                !
 ! D68   D(14,16,23,27)         63.4397         estimate D2E/DX2                !
 ! D69   D(17,16,23,24)        174.7713         estimate D2E/DX2                !
 ! D70   D(17,16,23,26)         49.4443         estimate D2E/DX2                !
 ! D71   D(17,16,23,27)        -61.8846         estimate D2E/DX2                !
 ! D72   D(21,16,23,24)         60.5494         estimate D2E/DX2                !
 ! D73   D(21,16,23,26)        -64.7776         estimate D2E/DX2                !
 ! D74   D(21,16,23,27)       -176.1065         estimate D2E/DX2                !
 ! D75   D(16,23,24,25)       -132.8245         estimate D2E/DX2                !
 ! D76   D(26,23,24,25)         -9.9318         estimate D2E/DX2                !
 ! D77   D(27,23,24,25)        100.979          estimate D2E/DX2                !
 ! D78   D(10,28,29,30)       -166.3453         estimate D2E/DX2                !
 ! D79   D(10,28,29,31)         -2.8495         estimate D2E/DX2                !
 ! D80   D(44,28,29,30)         13.6779         estimate D2E/DX2                !
 ! D81   D(44,28,29,31)        177.1738         estimate D2E/DX2                !
 ! D82   D(28,29,31,9)           3.5771         estimate D2E/DX2                !
 ! D83   D(28,29,31,32)       -170.3219         estimate D2E/DX2                !
 ! D84   D(30,29,31,9)         168.1759         estimate D2E/DX2                !
 ! D85   D(30,29,31,32)         -5.7231         estimate D2E/DX2                !
 ! D86   D(9,31,32,33)        -140.651          estimate D2E/DX2                !
 ! D87   D(9,31,32,41)          47.5114         estimate D2E/DX2                !
 ! D88   D(29,31,32,33)         32.4371         estimate D2E/DX2                !
 ! D89   D(29,31,32,41)       -139.4006         estimate D2E/DX2                !
 ! D90   D(31,32,33,34)          2.2095         estimate D2E/DX2                !
 ! D91   D(31,32,33,35)        174.369          estimate D2E/DX2                !
 ! D92   D(41,32,33,34)        174.5309         estimate D2E/DX2                !
 ! D93   D(41,32,33,35)        -13.3096         estimate D2E/DX2                !
 ! D94   D(31,32,41,39)       -173.8641         estimate D2E/DX2                !
 ! D95   D(31,32,41,42)          5.0744         estimate D2E/DX2                !
 ! D96   D(33,32,41,39)         13.6856         estimate D2E/DX2                !
 ! D97   D(33,32,41,42)       -167.3759         estimate D2E/DX2                !
 ! D98   D(32,33,35,36)       -169.8196         estimate D2E/DX2                !
 ! D99   D(32,33,35,37)          8.9756         estimate D2E/DX2                !
 ! D100  D(34,33,35,36)          2.9883         estimate D2E/DX2                !
 ! D101  D(34,33,35,37)       -178.2164         estimate D2E/DX2                !
 ! D102  D(33,35,37,38)       -178.2443         estimate D2E/DX2                !
 ! D103  D(33,35,37,39)         -4.3821         estimate D2E/DX2                !
 ! D104  D(36,35,37,38)          0.5743         estimate D2E/DX2                !
 ! D105  D(36,35,37,39)        174.4365         estimate D2E/DX2                !
 ! D106  D(35,37,39,40)       -173.3573         estimate D2E/DX2                !
 ! D107  D(35,37,39,41)          5.4899         estimate D2E/DX2                !
 ! D108  D(38,37,39,40)          0.6979         estimate D2E/DX2                !
 ! D109  D(38,37,39,41)        179.5451         estimate D2E/DX2                !
 ! D110  D(37,39,41,32)        -10.5385         estimate D2E/DX2                !
 ! D111  D(37,39,41,42)        170.4504         estimate D2E/DX2                !
 ! D112  D(40,39,41,32)        168.3063         estimate D2E/DX2                !
 ! D113  D(40,39,41,42)        -10.7048         estimate D2E/DX2                !
 ! D114  D(32,41,42,5)         -55.5323         estimate D2E/DX2                !
 ! D115  D(32,41,42,43)        123.3248         estimate D2E/DX2                !
 ! D116  D(39,41,42,5)         123.4425         estimate D2E/DX2                !
 ! D117  D(39,41,42,43)        -57.7003         estimate D2E/DX2                !
 --------------------------------------------------------------------------------
 Trust Radius=3.00D-01 FncErr=1.00D-07 GrdErr=1.00D-06 EigMax=2.50D+02 EigMin=1.00D-04
 Number of steps in this run=    254 maximum allowed number of steps=    264.
 GradGradGradGradGradGradGradGradGradGradGradGradGradGradGradGradGradGrad

 Leave Link  103 at Sun Jul 18 16:23:05 2021, MaxMem=   104857600 cpu:               0.1 elap:               0.0
 (Enter /prod/apps/gaussian/g16b1/l202.exe)
                          Input orientation:                          
 ---------------------------------------------------------------------
 Center     Atomic      Atomic             Coordinates (Angstroms)
 Number     Number       Type             X           Y           Z
 ---------------------------------------------------------------------
      1          6           0        0.378000   -0.398000    2.835000
      2          1           0        0.919000    0.275000    3.505000
      3          1           0        0.072000   -1.243000    3.457000
      4          1           0       -0.546000    0.137000    2.602000
      5          7           0        1.301000   -0.834000    1.757000
      6          6           0        1.098000   -0.014000    0.519000
      7          1           0        2.030000    0.509000    0.291000
      8          1           0        0.382000    0.788000    0.716000
      9          6           0        0.602000   -0.957000   -0.565000
     10          6           0       -0.557000   -1.009000   -1.330000
     11          6           0       -1.526000    0.072000   -1.235000
     12          7           0       -2.601000   -0.057000   -2.041000
     13          8           0       -3.514000    0.851000   -1.518000
     14          6           0       -2.737000    1.664000   -0.726000
     15          7           0       -1.556000    1.175000   -0.397000
     16          6           0       -3.341000    2.838000   -0.007000
     17          6           0       -4.699000    2.497000    0.752000
     18          1           0       -5.324000    2.533000   -0.143000
     19          1           0       -5.061000    3.229000    1.477000
     20          1           0       -4.755000    1.505000    1.205000
     21          8           0       -2.430000    3.334000    1.058000
     22          1           0       -1.503000    3.059000    0.942000
     23          6           0       -3.563000    3.986000   -1.043000
     24          8           0       -2.328000    4.429000   -1.687000
     25          1           0       -2.431000    5.394000   -1.599000
     26          1           0       -4.087000    4.801000   -0.538000
     27          1           0       -4.278000    3.726000   -1.828000
     28          7           0       -0.559000   -2.109000   -2.178000
     29          6           0        0.567000   -2.787000   -1.958000
     30          1           0        0.996000   -3.570000   -2.565000
     31          7           0        1.322000   -2.076000   -1.008000
     32          6           0        2.580000   -2.332000   -0.663000
     33          6           0        3.533000   -2.850000   -1.563000
     34          1           0        3.305000   -3.040000   -2.609000
     35          6           0        4.865000   -3.018000   -1.260000
     36          1           0        5.594000   -3.265000   -2.027000
     37          6           0        5.288000   -2.841000    0.063000
     38          1           0        6.330000   -2.932000    0.361000
     39          6           0        4.331000   -2.404000    1.005000
     40         17           0        4.850000   -2.019000    2.568000
     41          6           0        3.010000   -2.259000    0.696000
     42          6           0        2.055000   -1.996000    1.876000
     43          8           0        1.992000   -2.791000    2.803000
     44          1           0       -1.275000   -2.349000   -2.834000
 ---------------------------------------------------------------------
                    Distance matrix (angstroms):
                    1          2          3          4          5
     1  C    0.000000
     2  H    1.092936   0.000000
     3  H    1.092952   1.738976   0.000000
     4  H    1.092836   1.726464   1.737052   0.000000
     5  N    1.484624   2.105067   2.137223   2.251283   0.000000
     6  C    2.455547   3.005288   3.345887   2.657899   1.498750
     7  H    3.166021   3.408647   4.114222   3.480644   2.117604
     8  H    2.428327   2.886184   3.425513   2.200450   2.135211
     9  C    3.452920   4.264178   4.066839   3.541840   2.428047
    10  C    4.312165   5.215789   4.833815   4.095615   3.607265
    11  C    4.517855   5.337306   5.128128   3.960706   4.214834
    12  N    5.724168   6.577138   6.227321   5.081152   5.500376
    13  O    5.971287   6.724120   6.480344   5.127691   6.062102
    14  C    5.160987   5.761685   5.817097   4.267059   5.358240
    15  N    4.081729   4.707571   4.832228   3.330397   4.103443
    16  C    5.690309   6.086930   6.348419   4.681272   6.176038
    17  C    6.204502   6.639143   6.638303   5.122451   6.935819
    18  H    7.069091   7.575059   7.505664   6.008754   7.670548
    19  H    6.676976   6.971320   7.089913   5.586709   7.553901
    20  H    5.711917   6.244772   5.993575   4.640982   6.515425
    21  O    4.997041   5.153745   5.741440   4.019229   5.637480
    22  H    4.367203   4.492851   5.226189   3.494214   4.866425
    23  C    7.056190   7.385401   7.797799   6.099436   7.398033
    24  O    7.146387   7.399702   8.024483   6.323947   7.261539
    25  H    7.816527   7.967275   8.710793   6.988396   7.998659
    26  H    7.638256   7.867055   8.353876   6.644635   8.127164
    27  H    7.773627   8.207259   8.458409   6.814224   8.048047
    28  N    5.379188   6.337541   5.735969   5.281390   4.535356
    29  C    5.358721   6.272489   5.652538   5.530113   4.260773
    30  H    6.293132   7.185740   6.521747   6.543508   5.124296
    31  N    4.298310   5.104584   4.710904   4.628055   3.031209
    32  C    4.563460   5.189180   4.944733   5.150540   3.120296
    33  C    5.942115   6.502557   6.305662   6.550392   4.479786
    34  H    6.721951   7.352769   7.104777   7.216512   5.286247
    35  C    6.615633   7.008565   6.955111   7.358532   5.155021
    36  H    7.685401   8.061653   8.040847   8.408379   6.217577
    37  C    6.144944   6.375342   6.424912   7.024995   4.774291
    38  H    6.925903   7.031963   7.183349   7.856222   5.625057
    39  C    4.795742   5.006874   5.049684   5.726449   3.494468
    40  Cl   4.764212   4.646845   4.921563   5.810878   3.828491
    41  C    3.868600   4.322490   4.157790   4.692418   2.465163
    42  C    2.507113   3.016882   2.645536   3.441216   1.390295
    43  O    2.886602   3.323325   2.551552   3.880081   2.324101
    44  H    6.219033   7.202911   6.527965   6.021772   5.477982
                    6          7          8          9         10
     6  C    0.000000
     7  H    1.092766   0.000000
     8  H    1.093009   1.724636   0.000000
     9  C    1.519974   2.218350   2.175864   0.000000
    10  C    2.673547   3.409477   2.880459   1.389680   0.000000
    11  C    3.157418   3.894198   2.821262   2.456853   1.454836
    12  N    4.498672   5.215816   4.148899   3.639751   2.364268
    13  O    5.115480   5.841693   4.491497   4.595490   3.498399
    14  C    4.367257   5.009252   3.546111   4.247880   3.501735
    15  N    3.049015   3.711643   2.268123   3.038192   2.576499
    16  C    5.302386   5.861799   4.311143   5.500967   4.929543
    17  C    6.321758   7.031650   5.360834   6.462601   5.812308
    18  H    6.940284   7.639781   6.028378   6.890258   6.056321
    19  H    7.026243   7.686825   6.013639   7.332253   6.791606
    20  H    6.085685   6.918355   5.209796   6.155631   5.510864
    21  O    4.893507   5.334840   3.808730   5.499076   5.298332
    22  H    4.048143   4.405495   2.960024   4.778109   4.754527
    23  C    6.337568   6.719430   5.374413   6.481432   5.836817
    24  O    6.028612   6.186360   5.135698   6.233200   5.730247
    25  H    6.796045   6.880105   5.872600   7.113610   6.677024
    26  H    7.154418   7.518390   6.135849   7.425767   6.844287
    27  H    6.956823   7.391219   6.067897   6.880411   6.042687
    28  N    3.795851   4.433149   4.201586   2.297127   1.388923
    29  C    3.755931   4.249940   4.468235   2.300125   2.195232
    30  H    4.708141   5.085679   5.489455   3.314062   3.239715
    31  N    2.575607   2.978404   3.472502   1.402430   2.184677
    32  C    2.994423   3.046949   4.057985   2.410957   3.469292
    33  C    4.278650   4.120583   5.325194   3.629079   4.491288
    34  H    4.879745   4.757208   5.852618   3.977818   4.547070
    35  C    5.136063   4.783571   6.203830   4.785803   5.782652
    36  H    6.104517   5.684918   7.149532   5.690727   6.588638
    37  C    5.075033   4.678573   6.137172   5.089444   6.281775
    38  H    5.992788   5.507756   7.024466   6.129281   7.347665
    39  C    4.049764   3.780207   5.085960   4.296993   5.593817
    40  Cl   4.721857   4.419040   5.592153   5.384147   6.741673
    41  C    2.954166   2.964161   4.023803   3.013932   4.288434
    42  C    2.585657   2.964435   3.448940   3.024766   4.251488
    43  O    3.705080   4.147480   4.444875   4.079103   5.172486
    44  H    4.725036   5.371854   5.018856   3.257170   2.138490
                   11         12         13         14         15
    11  C    0.000000
    12  N    1.349779   0.000000
    13  O    2.153851   1.389806   0.000000
    14  C    2.063993   2.170153   1.375486   0.000000
    15  N    1.385552   2.304905   2.279338   1.319895   0.000000
    16  C    3.528876   3.614662   2.502243   1.503347   2.470606
    17  C    4.460574   4.327282   3.044083   2.593804   3.598101
    18  H    4.655512   4.210135   2.827693   2.790631   4.013291
    19  H    5.460569   5.406082   4.125302   3.564184   4.473904
    20  H    4.293429   4.197151   3.063091   2.797564   3.592896
    21  O    4.088485   4.596947   3.738465   2.462886   2.746303
    22  H    3.696218   4.451219   3.869236   2.500201   2.311966
    23  C    4.416518   4.274026   3.171159   2.484844   3.513842
    24  O    4.453196   4.508219   3.773227   2.955677   3.584494
    25  H    5.410657   5.471532   4.671006   3.843002   4.473297
    26  H    5.422912   5.297865   4.109894   3.420324   4.424219
    27  H    4.612686   4.143524   2.990890   2.800166   3.995578
    28  N    2.565365   2.898144   4.234292   4.592115   3.866604
    29  C    3.616249   4.182824   5.484816   5.678525   4.758287
    30  H    4.625316   5.055112   6.401683   6.686701   5.807577
    31  N    3.574428   4.531377   5.675766   5.526536   4.384656
    32  C    4.792247   5.823854   6.928156   6.651502   5.429208
    33  C    5.851423   6.756870   7.959877   7.771079   6.592276
    34  H    5.908552   6.640915   7.926470   7.885371   6.803565
    35  C    7.098845   8.069612   9.232733   8.944087   7.717205
    36  H    7.902989   8.800539  10.007807   9.766944   8.572806
    37  C    7.523362   8.626343   9.675000   9.236784   7.948597
    38  H    8.560839   9.684936  10.711959  10.223271   8.923621
    39  C    6.741856   7.927115   8.860281   8.336763   7.030762
    40  Cl   7.712877   8.978292   9.741088   9.054142   7.747883
    41  C    5.453221   6.619916   7.558867   7.102114   5.816817
    42  C    5.174795   6.385996   7.116067   6.567288   5.316116
    43  O    6.072770   7.213511   7.889946   7.393531   6.209465
    44  H    2.912223   2.764125   4.121283   4.762906   4.293775
                   16         17         18         19         20
    16  C    0.000000
    17  C    1.592647   0.000000
    18  H    2.010923   1.092221   0.000000
    19  H    2.305111   1.092013   1.782690   0.000000
    20  H    2.290246   1.091975   1.788197   1.771947   0.000000
    21  O    1.486661   2.437738   3.234075   2.666223   2.961836
    22  H    2.080309   3.250594   4.006737   3.602012   3.613805
    23  C    1.562205   2.594155   2.454044   3.027780   3.553833
    24  O    2.525836   3.911903   3.867140   4.349734   4.775329
    25  H    3.145743   4.366192   4.321424   4.589760   5.328012
    26  H    2.166067   2.710546   2.613430   2.734974   3.787861
    27  H    2.232164   2.888612   2.314431   3.432655   3.789388
    28  N    6.076642   6.851258   6.956624   7.881705   6.489384
    29  C    7.121762   7.936971   8.142512   8.925574   7.533228
    30  H    8.149564   8.957902   9.113457   9.962500   8.546492
    31  N    6.847844   7.762884   8.133906   8.663772   7.392622
    32  C    7.887806   8.849029   9.295797   9.689644   8.486119
    33  C    9.056840  10.085408  10.461335  10.956855   9.763134
    34  H    9.246113  10.296539  10.564049  11.224336  10.008358
    35  C   10.158798  11.222008  11.656629  12.043324  10.912294
    36  H   11.007326  12.118966  12.504758  12.960674  11.844852
    37  C   10.330323  11.345005  11.896926  12.080815  11.002442
    38  H   11.267500  12.299015  12.881613  12.998394  11.969817
    39  C    9.346780  10.277388  10.904627  10.961895   9.893214
    40  Cl   9.864763  10.717999  11.470854  11.267640  10.321452
    41  C    8.173666   9.058220   9.650012   9.791279   8.644189
    42  C    7.485323   8.189441   8.890323   8.837267   7.686569
    43  O    8.247583   8.771489   9.515658   9.367149   8.156668
    44  H    6.258215   6.933029   6.889834   8.002037   6.578544
                   21         22         23         24         25
    21  O    0.000000
    22  H    0.973863   0.000000
    23  C    2.474468   3.007184   0.000000
    24  O    2.957102   3.077201   1.461578   0.000000
    25  H    3.362031   3.573526   1.890244   0.974463   0.000000
    26  H    2.728544   3.449930   1.092623   2.133698   2.054192
    27  H    3.449314   3.977237   1.093183   2.077640   2.499215
    28  N    6.602923   6.110136   6.889214   6.790868   7.754652
    29  C    7.452845   6.846212   7.985465   7.779789   8.720415
    30  H    8.516385   7.904916   8.955116   8.706541   9.645247
    31  N    6.900287   6.176678   7.785390   7.489898   8.380644
    32  C    7.756642   6.950525   8.820316   8.417135   9.256203
    33  C    8.981585   8.157978   9.866839   9.346151  10.175172
    34  H    9.325502   8.539571   9.949194   9.400358  10.249593
    35  C    9.946761   9.073597  10.960579  10.362403  11.140390
    36  H   10.837371   9.958682  11.721600  11.048589  11.813640
    37  C    9.934192   9.038823  11.232603  10.673278  11.408787
    38  H   10.792876   9.878539  12.153246  11.547276  12.244141
    39  C    8.867839   7.992740  10.360581   9.913578  10.644917
    40  Cl   9.161501   8.294008  10.948877  10.545398  11.195062
    41  C    7.810653   6.979170   9.231927   8.882695   9.666432
    42  C    7.013790   6.251779   8.710156   8.554898   9.317292
    43  O    7.753369   7.064053   9.569612   9.536818  10.292461
    44  H    6.984138   6.599744   6.969566   6.954545   7.925630
                   26         27         28         29         30
    26  H    0.000000
    27  H    1.690031   0.000000
    28  N    7.929974   6.928253   0.000000
    29  C    9.014092   8.118503   1.332651   0.000000
    30  H   10.000963   9.032711   2.168482   1.079620   0.000000
    31  N    8.761924   8.105282   2.215434   1.406430   2.182329
    32  C    9.764436   9.224357   3.492603   2.436436   2.767545
    33  C   10.846789  10.213996   4.203780   2.992850   2.821130
    34  H   10.973240  10.192674   3.997877   2.825678   2.369455
    35  C   11.907827  11.375351   5.575731   4.360432   4.120302
    36  H   12.688548  12.098350   6.262471   5.050146   4.639404
    37  C   12.109995  11.756263   6.304388   5.135679   5.085183
    38  H   13.004668  12.714179   7.387975   6.213771   6.117195
    39  C   11.187296  10.941557   5.842141   4.805596   5.022617
    40  Cl  11.663173  11.646898   7.196520   6.278422   6.603530
    41  C   10.086316   9.762466   4.584772   3.645648   4.050807
    42  C    9.473688   9.304181   4.825006   4.188004   4.829227
    43  O   10.283724  10.160234   5.637649   4.969684   5.514914
    44  H    8.018819   6.850961   1.000296   2.086189   2.592420
                   31         32         33         34         35
    31  N    0.000000
    32  C    1.329333   0.000000
    33  C    2.407410   1.409444   0.000000
    34  H    2.724846   2.194039   1.087290   0.000000
    35  C    3.674740   2.459315   1.376320   2.062495   0.000000
    36  H    4.549952   3.437322   2.152961   2.372524   1.086618
    37  C    4.178687   2.849460   2.392484   3.333388   1.400210
    38  H    5.261840   3.933329   3.395837   4.240659   2.186610
    39  C    3.635084   2.419382   2.725866   3.810271   2.406736
    40  Cl   5.023725   3.961089   4.414772   5.498254   3.956237
    41  C    2.405504   1.427274   2.392883   3.408814   2.800543
    42  C    2.976768   2.614391   3.839339   4.771547   4.333022
    43  O    3.934952   3.545360   4.630348   5.574560   4.981328
    44  H    3.186411   4.424314   4.998330   4.637295   6.373746
                   36         37         38         39         40
    36  H    0.000000
    37  C    2.154417   0.000000
    38  H    2.520938   1.087589   0.000000
    39  C    3.395514   1.412155   2.165530   0.000000
    40  Cl   4.818722   2.672556   2.809772   1.691318   0.000000
    41  C    3.886363   2.434892   3.404050   1.364385   2.635827
    42  C    5.419252   3.801747   4.631085   2.470887   2.879482
    43  O    6.043838   4.286457   4.980109   2.975482   2.969743
    44  H    6.976637   7.190803   8.269458   6.794717   8.173502
                   41         42         43         44
    41  C    0.000000
    42  C    1.540647   0.000000
    43  O    2.399749   1.222834   0.000000
    44  H    5.552497   5.779066   6.530270   0.000000
 Stoichiometry    C17H17ClN5O4(1+)
 Framework group  C1[X(C17H17ClN5O4)]
 Deg. of freedom   126
 Full point group                 C1      NOp   1
 Largest Abelian subgroup         C1      NOp   1
 Largest concise Abelian subgroup C1      NOp   1
                         Standard orientation:                         
 ---------------------------------------------------------------------
 Center     Atomic      Atomic             Coordinates (Angstroms)
 Number     Number       Type             X           Y           Z
 ---------------------------------------------------------------------
      1          6           0        0.451805   -2.539466   -1.095851
      2          1           0        0.605836   -3.476484   -0.554757
      3          1           0        0.792241   -2.733821   -2.116084
      4          1           0       -0.634440   -2.444123   -1.168453
      5          7           0        1.270218   -1.481688   -0.451324
      6          6           0        0.437223   -0.662862    0.487770
      7          1           0        0.847267   -0.764180    1.495607
      8          1           0       -0.566922   -1.087938    0.563074
      9          6           0        0.408299    0.754378   -0.060788
     10          6           0       -0.613924    1.594210   -0.486172
     11          6           0       -1.997860    1.176824   -0.321681
     12          7           0       -2.914977    2.075944   -0.736871
     13          8           0       -4.085878    1.332643   -0.826633
     14          6           0       -3.803570    0.203413   -0.093759
     15          7           0       -2.522285   -0.024998    0.125928
     16          6           0       -4.848285   -0.857731    0.112632
     17          6           0       -5.619631   -1.267345   -1.219197
     18          1           0       -6.285029   -0.401209   -1.218219
     19          1           0       -6.214975   -2.182264   -1.187871
     20          1           0       -5.021184   -1.275483   -2.132545
     21          8           0       -4.232365   -2.122351    0.593818
     22          1           0       -3.349234   -2.004824    0.987108
     23          6           0       -5.852874   -0.352283    1.196978
     24          8           0       -5.220440   -0.075174    2.485174
     25          1           0       -5.844189   -0.531530    3.078685
     26          1           0       -6.661156   -1.083164    1.276472
     27          1           0       -6.402518    0.542100    0.891983
     28          7           0       -0.118492    2.807322   -0.946623
     29          6           0        1.209961    2.759754   -0.852228
     30          1           0        1.907293    3.580673   -0.925700
     31          7           0        1.558629    1.530040   -0.265475
     32          6           0        2.770171    1.185407    0.159401
     33          6           0        3.688348    2.110963    0.694968
     34          1           0        3.447199    3.163040    0.826038
     35          6           0        4.901878    1.761378    1.242136
     36          1           0        5.505782    2.480954    1.788258
     37          6           0        5.351289    0.441813    1.110359
     38          1           0        6.287122    0.096650    1.543864
     39          6           0        4.483240   -0.489027    0.498631
     40         17           0        4.928425   -2.120591    0.479628
     41          6           0        3.290805   -0.125921   -0.056166
     42          6           0        2.562611   -1.203684   -0.881851
     43          8           0        3.118046   -1.721372   -1.840399
     44          1           0       -0.659775    3.576422   -1.287343
 ---------------------------------------------------------------------
 Rotational constants (GHZ):           0.3700604           0.0902461           0.0808352
 Leave Link  202 at Sun Jul 18 16:23:05 2021, MaxMem=   104857600 cpu:               0.1 elap:               0.0
 (Enter /prod/apps/gaussian/g16b1/l301.exe)
 Standard basis: 6-31G(d) (6D, 7F)
 Ernie: Thresh=  0.10000D-02 Tol=  0.10000D-05 Strict=F.
 There are   443 symmetry adapted cartesian basis functions of A   symmetry.
 There are   443 symmetry adapted basis functions of A   symmetry.
   443 basis functions,   848 primitive gaussians,   443 cartesian basis functions
   101 alpha electrons      101 beta electrons
       nuclear repulsion energy      2644.2179715424 Hartrees.
 IExCor=  402 DFT=T Ex+Corr=B3LYP ExCW=0 ScaHFX=  0.200000
 ScaDFX=  0.800000  0.720000  1.000000  0.810000 ScalE2=  1.000000  1.000000
 IRadAn=      5 IRanWt=     -1 IRanGd=            0 ICorTp=0 IEmpDi=  4
 NAtoms=   44 NActive=   44 NUniq=   44 SFac= 1.00D+00 NAtFMM=   60 NAOKFM=F Big=F
 Integral buffers will be    131072 words long.
 Raffenetti 2 integral format.
 Two-electron integral symmetry is turned on.
 Using the following non-standard input for PCM:
 MSTModel=DFT cav MSTCharged
 --- end of non-standard input.
 MST model for solvation energy: B3LYP parametrization.
 MST cavity parameters:
 ISph   IAn     Re0     Alpha   Atom Type   QCorr
 ------------------------------------------------
   1      6     1.50     1.25      CH3        F
   2      1     1.20     1.25      CH3        F
   3      1     1.20     1.25      CH3        F
   4      1     1.20     1.25      CH3        F
   5      7     1.40     1.25      N          F
   6      6     1.50     1.25      CH2        F
   7      1     1.20     1.25      CH2        F
   8      1     1.20     1.25      CH2        F
   9      6     1.50     1.25      C          F
  10      6     1.50     1.25      C          F
  11      6     1.50     1.25      C          F
  12      7     1.40     1.25      N          F
  13      8     1.40     1.25      O          F
  14      6     1.50     1.25      C          F
  15      7     1.40     1.25      N          F
  16      6     1.50     1.25      C          F
  17      6     1.50     1.25      CH3        F
  18      1     1.20     1.25      CH3        F
  19      1     1.20     1.25      CH3        F
  20      1     1.20     1.25      CH3        F
  21      8     1.45     1.25      OH         F
  22      1     0.90     1.25      OH         F
  23      6     1.50     1.25      CH2        F
  24      8     1.45     1.25      OH         F
  25      1     0.90     1.25      OH         F
  26      1     1.20     1.25      CH2        F
  27      1     1.20     1.25      CH2        F
  28      7     1.50     1.15      NH         T
  29      6     1.50     1.25      CH         F
  30      1     1.20     1.25      CH         F
  31      7     1.40     1.25      N          F
  32      6     1.50     1.25      C          F
  33      6     1.50     1.25      CH         F
  34      1     1.20     1.25      CH         F
  35      6     1.50     1.25      CH         F
  36      1     1.20     1.25      CH         F
  37      6     1.50     1.25      CH         F
  38      1     1.20     1.25      CH         F
  39      6     1.50     1.25      C          F
  40     17     1.80     1.25      Cl         F
  41      6     1.50     1.25      C          F
  42      6     1.50     1.25      C          F
  43      8     1.40     1.25      O          F
  44      1     0.90     1.15      NH         T
 ------------------------------------------------------------------------------
 Polarizable Continuum Model (PCM)
 =================================
 Model                : PCM.
 Atomic radii         : MST.
 Polarization charges : Total charges.
 Charge compensation  : None.
 Solution method      : On-the-fly selection.
 Cavity type          : Scaled VdW (van der Waals Surface) (Alpha=1.250).
 Cavity algorithm     : GePol (No added spheres)
                        Default sphere list used, NSphG=   44.
                        Lebedev-Laikov grids with approx.  5.0 points / Ang**2.
                        Smoothing algorithm: York/Karplus (Gamma=1.0000).
                        Polarization charges: spherical gaussians, with
                                              point-specific exponents (IZeta= 3).
                        Self-potential: point-specific (ISelfS= 7).
                        Self-field    : sphere-specific E.n sum rule (ISelfD= 2).
 1st derivatives      : Analytical E(r).r(x)/FMM algorithm (CHGder, D1EAlg=3).
                        Cavity 1st derivative terms included.
 Solvent              : Water, Eps=  78.355300 Eps(inf)=   1.777849
 ------------------------------------------------------------------------------
 GePol: Number of generator spheres                  =      44
 GePol: Total number of spheres                      =      44
 GePol: Number of exposed spheres                    =      44 (100.00%)
 GePol: Number of points                             =    3316
 GePol: Average weight of points                     =       0.13
 GePol: Minimum weight of points                     =   0.58D-10
 GePol: Maximum weight of points                     =    0.22001
 GePol: Number of points with low weight             =     220
 GePol: Fraction of low-weight points (<1% of avg)   =       6.63%
 GePol: Cavity surface area                          =    420.946 Ang**2
 GePol: Cavity volume                                =    416.311 Ang**3
 PCM non-electrostatic energy =         0.0051697448 Hartrees.
 Nuclear repulsion after PCM non-electrostatic terms =     2644.2231412873 Hartrees.
 Leave Link  301 at Sun Jul 18 16:23:05 2021, MaxMem=   104857600 cpu:               0.4 elap:               0.1
 (Enter /prod/apps/gaussian/g16b1/l302.exe)
 NPDir=0 NMtPBC=     1 NCelOv=     1 NCel=       1 NClECP=     1 NCelD=      1
         NCelK=      1 NCelE2=     1 NClLst=     1 CellRange=     0.0.
 One-electron integrals computed using PRISM.
 One-electron integral symmetry used in STVInt
 NBasis=   443 RedAO= T EigKep=  4.78D-04  NBF=   443
 NBsUse=   443 1.00D-06 EigRej= -1.00D+00 NBFU=   443
 Precomputing XC quadrature grid using
 IXCGrd= 4 IRadAn=           5 IRanWt=          -1 IRanGd=           0 AccXCQ= 0.00D+00.
 Generated NRdTot=       0 NPtTot=           0 NUsed=           0 NTot=          32
 NSgBfM=   438   438   438   438   438 MxSgAt=    44 MxSgA2=    44.
 Leave Link  302 at Sun Jul 18 16:23:06 2021, MaxMem=   104857600 cpu:               2.9 elap:               0.7
 (Enter /prod/apps/gaussian/g16b1/l303.exe)
 DipDrv:  MaxL=1.
 Leave Link  303 at Sun Jul 18 16:23:06 2021, MaxMem=   104857600 cpu:               0.2 elap:               0.1
 (Enter /prod/apps/gaussian/g16b1/l401.exe)
 ExpMin= 1.43D-01 ExpMax= 2.52D+04 ExpMxC= 3.78D+03 IAcc=3 IRadAn=         5 AccDes= 0.00D+00
 Harris functional with IExCor=  402 and IRadAn=       5 diagonalized for initial guess.
 HarFok:  IExCor=  402 AccDes= 0.00D+00 IRadAn=         5 IDoV= 1 UseB2=F ITyADJ=14
 ICtDFT=  3500011 ScaDFX=  1.000000  1.000000  1.000000  1.000000
 FoFCou: FMM=F IPFlag=           0 FMFlag=      100000 FMFlg1=           0
         NFxFlg=           0 DoJE=T BraDBF=F KetDBF=T FulRan=T
         wScrn=  0.000000 ICntrl=       500 IOpCl=  0 I1Cent=   200000004 NGrid=           0
         NMat0=    1 NMatS0=      1 NMatT0=    0 NMatD0=    1 NMtDS0=    0 NMtDT0=    0
 Petite list used in FoFCou.
 Harris En= -1692.39676398597    
 JPrj=0 DoOrth=F DoCkMO=F.
 Leave Link  401 at Sun Jul 18 16:23:10 2021, MaxMem=   104857600 cpu:              16.8 elap:               4.2
 (Enter /prod/apps/gaussian/g16b1/l502.exe)
 Integral symmetry usage will be decided dynamically.
 Closed shell SCF:
 Using DIIS extrapolation, IDIIS=  1040.
 NGot=   104857600 LenX=   104457670 LenY=   104260978
 Requested convergence on RMS density matrix=1.00D-08 within 128 cycles.
 Requested convergence on MAX density matrix=1.00D-06.
 Requested convergence on             energy=1.00D-06.
 No special actions if energy rises.
 Fock matrices will be formed incrementally for  20 cycles.

 Cycle   1  Pass 1  IDiag  1:
 FoFJK:  IHMeth= 1 ICntrl=       0 DoSepK=F KAlg= 0 I1Cent=           0 FoldK=F
 IRaf= 690000000 NMat=       1 IRICut=       1 DoRegI=T DoRafI=F ISym2E= 0 IDoP0=0 IntGTp=1.
 FoFCou: FMM=F IPFlag=           0 FMFlag=      100000 FMFlg1=           0
         NFxFlg=           0 DoJE=F BraDBF=F KetDBF=F FulRan=T
         wScrn=  0.000000 ICntrl=         0 IOpCl=  0 I1Cent=           0 NGrid=           0
         NMat0=    1 NMatS0=      1 NMatT0=    0 NMatD0=    1 NMtDS0=    0 NMtDT0=    0
 Symmetry not used in FoFCou.
 Inv3:  Mode=1 IEnd=    32987568.
 Iteration    1 A*A^-1 deviation from unit magnitude is 3.55D-15 for   2675.
 Iteration    1 A*A^-1 deviation from orthogonality  is 2.66D-15 for   2079   1194.
 Iteration    1 A^-1*A deviation from unit magnitude is 4.11D-15 for   1449.
 Iteration    1 A^-1*A deviation from orthogonality  is 5.16D-15 for   2963   2944.
 E= -1692.14598593711    
 DIIS: error= 2.87D-02 at cycle   1 NSaved=   1.
 NSaved= 1 IEnMin= 1 EnMin= -1692.14598593711     IErMin= 1 ErrMin= 2.87D-02
 ErrMax= 2.87D-02  0.00D+00 EMaxC= 1.00D-01 BMatC= 5.56D-01 BMatP= 5.56D-01
 IDIUse=3 WtCom= 7.13D-01 WtEn= 2.87D-01
 Coeff-Com:  0.100D+01
 Coeff-En:   0.100D+01
 Coeff:      0.100D+01
 Gap=     0.245 Goal=   None    Shift=    0.000
 GapD=    0.245 DampG=1.000 DampE=0.500 DampFc=0.5000 IDamp=-1.
 Damping current iteration by 5.00D-01
 RMSDP=3.95D-03 MaxDP=1.94D-01              OVMax= 3.49D-01

 Cycle   2  Pass 1  IDiag  1:
 RMSU=  1.96D-03    CP:  9.85D-01
 E= -1692.30454530791     Delta-E=       -0.158559370797 Rises=F Damp=T
 DIIS: error= 9.01D-03 at cycle   2 NSaved=   2.
 NSaved= 2 IEnMin= 2 EnMin= -1692.30454530791     IErMin= 2 ErrMin= 9.01D-03
 ErrMax= 9.01D-03  0.00D+00 EMaxC= 1.00D-01 BMatC= 7.75D-02 BMatP= 5.56D-01
 IDIUse=3 WtCom= 9.10D-01 WtEn= 9.01D-02
 Coeff-Com:  0.181D+00 0.819D+00
 Coeff-En:   0.293D+00 0.707D+00
 Coeff:      0.191D+00 0.809D+00
 Gap=     0.217 Goal=   None    Shift=    0.000
 RMSDP=1.20D-03 MaxDP=8.24D-02 DE=-1.59D-01 OVMax= 2.00D-01

 Cycle   3  Pass 1  IDiag  1:
 RMSU=  1.14D-03    CP:  9.75D-01  8.38D-01
 E= -1692.58213177857     Delta-E=       -0.277586470657 Rises=F Damp=F
 DIIS: error= 7.51D-03 at cycle   3 NSaved=   3.
 NSaved= 3 IEnMin= 3 EnMin= -1692.58213177857     IErMin= 3 ErrMin= 7.51D-03
 ErrMax= 7.51D-03  0.00D+00 EMaxC= 1.00D-01 BMatC= 6.12D-02 BMatP= 7.75D-02
 IDIUse=3 WtCom= 9.25D-01 WtEn= 7.51D-02
 Coeff-Com:  0.307D-01 0.464D+00 0.506D+00
 Coeff-En:   0.000D+00 0.000D+00 0.100D+01
 Coeff:      0.284D-01 0.429D+00 0.543D+00
 Gap=     0.189 Goal=   None    Shift=    0.000
 RMSDP=7.62D-04 MaxDP=5.38D-02 DE=-2.78D-01 OVMax= 7.84D-02

 Cycle   4  Pass 1  IDiag  1:
 RMSU=  5.57D-04    CP:  9.78D-01  9.16D-01  5.66D-01
 E= -1692.62232866163     Delta-E=       -0.040196883057 Rises=F Damp=F
 DIIS: error= 3.68D-03 at cycle   4 NSaved=   4.
 NSaved= 4 IEnMin= 4 EnMin= -1692.62232866163     IErMin= 4 ErrMin= 3.68D-03
 ErrMax= 3.68D-03  0.00D+00 EMaxC= 1.00D-01 BMatC= 1.50D-02 BMatP= 6.12D-02
 IDIUse=3 WtCom= 9.63D-01 WtEn= 3.68D-02
 Coeff-Com: -0.680D-02 0.112D+00 0.346D+00 0.549D+00
 Coeff-En:   0.000D+00 0.000D+00 0.228D+00 0.772D+00
 Coeff:     -0.655D-02 0.108D+00 0.341D+00 0.557D+00
 Gap=     0.173 Goal=   None    Shift=    0.000
 RMSDP=3.05D-04 MaxDP=2.25D-02 DE=-4.02D-02 OVMax= 3.50D-02

 Cycle   5  Pass 1  IDiag  1:
 RMSU=  1.41D-04    CP:  9.78D-01  8.99D-01  6.94D-01  5.97D-01
 E= -1692.63430771670     Delta-E=       -0.011979055073 Rises=F Damp=F
 DIIS: error= 7.89D-04 at cycle   5 NSaved=   5.
 NSaved= 5 IEnMin= 5 EnMin= -1692.63430771670     IErMin= 5 ErrMin= 7.89D-04
 ErrMax= 7.89D-04  0.00D+00 EMaxC= 1.00D-01 BMatC= 1.05D-03 BMatP= 1.50D-02
 IDIUse=3 WtCom= 9.92D-01 WtEn= 7.89D-03
 Coeff-Com: -0.517D-02 0.255D-01 0.149D+00 0.318D+00 0.512D+00
 Coeff-En:   0.000D+00 0.000D+00 0.000D+00 0.000D+00 0.100D+01
 Coeff:     -0.513D-02 0.253D-01 0.148D+00 0.316D+00 0.516D+00
 Gap=     0.173 Goal=   None    Shift=    0.000
 RMSDP=8.17D-05 MaxDP=4.90D-03 DE=-1.20D-02 OVMax= 8.92D-03

 Cycle   6  Pass 1  IDiag  1:
 RMSU=  4.98D-05    CP:  9.77D-01  9.03D-01  6.94D-01  6.32D-01  5.67D-01
 E= -1692.63514440463     Delta-E=       -0.000836687930 Rises=F Damp=F
 DIIS: error= 2.46D-04 at cycle   6 NSaved=   6.
 NSaved= 6 IEnMin= 6 EnMin= -1692.63514440463     IErMin= 6 ErrMin= 2.46D-04
 ErrMax= 2.46D-04  0.00D+00 EMaxC= 1.00D-01 BMatC= 9.26D-05 BMatP= 1.05D-03
 IDIUse=3 WtCom= 9.98D-01 WtEn= 2.46D-03
 Coeff-Com: -0.213D-02 0.249D-02 0.453D-01 0.116D+00 0.290D+00 0.548D+00
 Coeff-En:   0.000D+00 0.000D+00 0.000D+00 0.000D+00 0.245D-01 0.976D+00
 Coeff:     -0.213D-02 0.249D-02 0.452D-01 0.116D+00 0.289D+00 0.549D+00
 Gap=     0.173 Goal=   None    Shift=    0.000
 RMSDP=2.59D-05 MaxDP=1.54D-03 DE=-8.37D-04 OVMax= 2.50D-03

 Cycle   7  Pass 1  IDiag  1:
 RMSU=  1.40D-05    CP:  9.77D-01  9.02D-01  6.95D-01  6.41D-01  6.20D-01
                    CP:  6.08D-01
 E= -1692.63522336315     Delta-E=       -0.000078958522 Rises=F Damp=F
 DIIS: error= 8.25D-05 at cycle   7 NSaved=   7.
 NSaved= 7 IEnMin= 7 EnMin= -1692.63522336315     IErMin= 7 ErrMin= 8.25D-05
 ErrMax= 8.25D-05  0.00D+00 EMaxC= 1.00D-01 BMatC= 6.93D-06 BMatP= 9.26D-05
 IDIUse=1 WtCom= 1.00D+00 WtEn= 0.00D+00
 Coeff-Com: -0.799D-03-0.281D-03 0.150D-01 0.421D-01 0.125D+00 0.300D+00
 Coeff-Com:  0.519D+00
 Coeff:     -0.799D-03-0.281D-03 0.150D-01 0.421D-01 0.125D+00 0.300D+00
 Coeff:      0.519D+00
 Gap=     0.173 Goal=   None    Shift=    0.000
 RMSDP=6.84D-06 MaxDP=5.05D-04 DE=-7.90D-05 OVMax= 7.54D-04

 Cycle   8  Pass 1  IDiag  1:
 RMSU=  4.37D-06    CP:  9.77D-01  9.02D-01  6.95D-01  6.42D-01  6.24D-01
                    CP:  6.51D-01  6.61D-01
 E= -1692.63522896053     Delta-E=       -0.000005597374 Rises=F Damp=F
 DIIS: error= 3.68D-05 at cycle   8 NSaved=   8.
 NSaved= 8 IEnMin= 8 EnMin= -1692.63522896053     IErMin= 8 ErrMin= 3.68D-05
 ErrMax= 3.68D-05  0.00D+00 EMaxC= 1.00D-01 BMatC= 1.03D-06 BMatP= 6.93D-06
 IDIUse=1 WtCom= 1.00D+00 WtEn= 0.00D+00
 Coeff-Com: -0.176D-03-0.484D-03 0.319D-02 0.100D-01 0.387D-01 0.108D+00
 Coeff-Com:  0.311D+00 0.529D+00
 Coeff:     -0.176D-03-0.484D-03 0.319D-02 0.100D-01 0.387D-01 0.108D+00
 Coeff:      0.311D+00 0.529D+00
 Gap=     0.173 Goal=   None    Shift=    0.000
 RMSDP=2.31D-06 MaxDP=2.24D-04 DE=-5.60D-06 OVMax= 2.47D-04

 Cycle   9  Pass 1  IDiag  1:
 RMSU=  1.58D-06    CP:  9.77D-01  9.02D-01  6.96D-01  6.42D-01  6.26D-01
                    CP:  6.54D-01  6.91D-01  6.41D-01
 E= -1692.63522972760     Delta-E=       -0.000000767074 Rises=F Damp=F
 DIIS: error= 1.15D-05 at cycle   9 NSaved=   9.
 NSaved= 9 IEnMin= 9 EnMin= -1692.63522972760     IErMin= 9 ErrMin= 1.15D-05
 ErrMax= 1.15D-05  0.00D+00 EMaxC= 1.00D-01 BMatC= 1.02D-07 BMatP= 1.03D-06
 IDIUse=1 WtCom= 1.00D+00 WtEn= 0.00D+00
 Coeff-Com:  0.231D-04-0.243D-03-0.302D-03-0.553D-03 0.370D-02 0.155D-01
 Coeff-Com:  0.101D+00 0.290D+00 0.592D+00
 Coeff:      0.231D-04-0.243D-03-0.302D-03-0.553D-03 0.370D-02 0.155D-01
 Coeff:      0.101D+00 0.290D+00 0.592D+00
 Gap=     0.173 Goal=   None    Shift=    0.000
 RMSDP=8.04D-07 MaxDP=6.39D-05 DE=-7.67D-07 OVMax= 6.39D-05

 Cycle  10  Pass 1  IDiag  1:
 RMSU=  5.80D-07    CP:  9.77D-01  9.02D-01  6.96D-01  6.42D-01  6.27D-01
                    CP:  6.54D-01  7.03D-01  7.03D-01  7.33D-01
 E= -1692.63522980364     Delta-E=       -0.000000076037 Rises=F Damp=F
 DIIS: error= 2.69D-06 at cycle  10 NSaved=  10.
 NSaved=10 IEnMin=10 EnMin= -1692.63522980364     IErMin=10 ErrMin= 2.69D-06
 ErrMax= 2.69D-06  0.00D+00 EMaxC= 1.00D-01 BMatC= 1.36D-08 BMatP= 1.02D-07
 IDIUse=1 WtCom= 1.00D+00 WtEn= 0.00D+00
 Coeff-Com:  0.316D-04-0.952D-04-0.400D-03-0.113D-02-0.112D-02-0.969D-03
 Coeff-Com:  0.288D-01 0.113D+00 0.338D+00 0.525D+00
 Coeff:      0.316D-04-0.952D-04-0.400D-03-0.113D-02-0.112D-02-0.969D-03
 Coeff:      0.288D-01 0.113D+00 0.338D+00 0.525D+00
 Gap=     0.173 Goal=   None    Shift=    0.000
 RMSDP=3.03D-07 MaxDP=2.35D-05 DE=-7.60D-08 OVMax= 2.98D-05

 Cycle  11  Pass 1  IDiag  1:
 RMSU=  1.76D-07    CP:  9.77D-01  9.02D-01  6.96D-01  6.42D-01  6.27D-01
                    CP:  6.55D-01  7.10D-01  7.12D-01  7.78D-01  6.51D-01
 E= -1692.63522981587     Delta-E=       -0.000000012229 Rises=F Damp=F
 DIIS: error= 6.70D-07 at cycle  11 NSaved=  11.
 NSaved=11 IEnMin=11 EnMin= -1692.63522981587     IErMin=11 ErrMin= 6.70D-07
 ErrMax= 6.70D-07  0.00D+00 EMaxC= 1.00D-01 BMatC= 1.18D-09 BMatP= 1.36D-08
 IDIUse=1 WtCom= 1.00D+00 WtEn= 0.00D+00
 Coeff-Com:  0.169D-04-0.299D-04-0.205D-03-0.611D-03-0.113D-02-0.245D-02
 Coeff-Com:  0.545D-02 0.313D-01 0.119D+00 0.286D+00 0.563D+00
 Coeff:      0.169D-04-0.299D-04-0.205D-03-0.611D-03-0.113D-02-0.245D-02
 Coeff:      0.545D-02 0.313D-01 0.119D+00 0.286D+00 0.563D+00
 Gap=     0.173 Goal=   None    Shift=    0.000
 RMSDP=9.68D-08 MaxDP=1.01D-05 DE=-1.22D-08 OVMax= 1.05D-05

 Cycle  12  Pass 1  IDiag  1:
 RMSU=  6.97D-08    CP:  9.77D-01  9.02D-01  6.96D-01  6.42D-01  6.27D-01
                    CP:  6.55D-01  7.10D-01  7.16D-01  7.88D-01  6.99D-01
                    CP:  6.90D-01
 E= -1692.63522981680     Delta-E=       -0.000000000935 Rises=F Damp=F
 DIIS: error= 3.33D-07 at cycle  12 NSaved=  12.
 NSaved=12 IEnMin=12 EnMin= -1692.63522981680     IErMin=12 ErrMin= 3.33D-07
 ErrMax= 3.33D-07  0.00D+00 EMaxC= 1.00D-01 BMatC= 1.83D-10 BMatP= 1.18D-09
 IDIUse=1 WtCom= 1.00D+00 WtEn= 0.00D+00
 Coeff-Com:  0.499D-05-0.343D-05-0.512D-04-0.163D-03-0.458D-03-0.126D-02
 Coeff-Com: -0.144D-02-0.798D-03 0.112D-01 0.867D-01 0.326D+00 0.581D+00
 Coeff:      0.499D-05-0.343D-05-0.512D-04-0.163D-03-0.458D-03-0.126D-02
 Coeff:     -0.144D-02-0.798D-03 0.112D-01 0.867D-01 0.326D+00 0.581D+00
 Gap=     0.173 Goal=   None    Shift=    0.000
 RMSDP=3.53D-08 MaxDP=3.95D-06 DE=-9.35D-10 OVMax= 3.68D-06

 Cycle  13  Pass 1  IDiag  1:
 RMSU=  2.23D-08    CP:  9.77D-01  9.02D-01  6.96D-01  6.42D-01  6.27D-01
                    CP:  6.55D-01  7.10D-01  7.16D-01  7.94D-01  7.09D-01
                    CP:  7.58D-01  7.11D-01
 E= -1692.63522981695     Delta-E=       -0.000000000149 Rises=F Damp=F
 DIIS: error= 1.29D-07 at cycle  13 NSaved=  13.
 NSaved=13 IEnMin=13 EnMin= -1692.63522981695     IErMin=13 ErrMin= 1.29D-07
 ErrMax= 1.29D-07  0.00D+00 EMaxC= 1.00D-01 BMatC= 2.16D-11 BMatP= 1.83D-10
 IDIUse=1 WtCom= 1.00D+00 WtEn= 0.00D+00
 Coeff-Com:  0.107D-05 0.882D-06-0.539D-05-0.230D-04-0.123D-03-0.402D-03
 Coeff-Com: -0.121D-02-0.354D-02-0.638D-02 0.206D-01 0.118D+00 0.322D+00
 Coeff-Com:  0.551D+00
 Coeff:      0.107D-05 0.882D-06-0.539D-05-0.230D-04-0.123D-03-0.402D-03
 Coeff:     -0.121D-02-0.354D-02-0.638D-02 0.206D-01 0.118D+00 0.322D+00
 Coeff:      0.551D+00
 Gap=     0.173 Goal=   None    Shift=    0.000
 RMSDP=1.18D-08 MaxDP=8.95D-07 DE=-1.49D-10 OVMax= 1.01D-06

 Cycle  14  Pass 1  IDiag  1:
 RMSU=  8.06D-09    CP:  9.77D-01  9.02D-01  6.96D-01  6.42D-01  6.27D-01
                    CP:  6.55D-01  7.10D-01  7.16D-01  7.93D-01  7.15D-01
                    CP:  7.71D-01  7.40D-01  6.94D-01
 E= -1692.63522981700     Delta-E=       -0.000000000045 Rises=F Damp=F
 DIIS: error= 3.94D-08 at cycle  14 NSaved=  14.
 NSaved=14 IEnMin=14 EnMin= -1692.63522981700     IErMin=14 ErrMin= 3.94D-08
 ErrMax= 3.94D-08  0.00D+00 EMaxC= 1.00D-01 BMatC= 2.22D-12 BMatP= 2.16D-11
 IDIUse=1 WtCom= 1.00D+00 WtEn= 0.00D+00
 Coeff-Com: -0.449D-08 0.673D-06 0.360D-05 0.868D-05-0.620D-05-0.482D-04
 Coeff-Com: -0.404D-03-0.173D-02-0.487D-02 0.734D-03 0.185D-01 0.942D-01
 Coeff-Com:  0.290D+00 0.604D+00
 Coeff:     -0.449D-08 0.673D-06 0.360D-05 0.868D-05-0.620D-05-0.482D-04
 Coeff:     -0.404D-03-0.173D-02-0.487D-02 0.734D-03 0.185D-01 0.942D-01
 Coeff:      0.290D+00 0.604D+00
 Gap=     0.173 Goal=   None    Shift=    0.000
 RMSDP=3.77D-09 MaxDP=2.14D-07 DE=-4.46D-11 OVMax= 3.41D-07

 Error on total polarization charges =  0.01975
 SCF Done:  E(RB3LYP) =  -1692.63522982     A.U. after   14 cycles
            NFock= 14  Conv=0.38D-08     -V/T= 2.0079
 KE= 1.679424461790D+03 PE=-9.225569365741D+03 EE= 3.209286532847D+03
 Leave Link  502 at Sun Jul 18 16:25:53 2021, MaxMem=   104857600 cpu:             651.3 elap:             162.9
 (Enter /prod/apps/gaussian/g16b1/l601.exe)
 Copying SCF densities to generalized density rwf, IOpCl= 0 IROHF=0.

 **********************************************************************

            Population analysis using the SCF Density.

 **********************************************************************

 Orbital symmetries:
       Occupied  (A) (A) (A) (A) (A) (A) (A) (A) (A) (A) (A) (A)
                 (A) (A) (A) (A) (A) (A) (A) (A) (A) (A) (A) (A)
                 (A) (A) (A) (A) (A) (A) (A) (A) (A) (A) (A) (A)
                 (A) (A) (A) (A) (A) (A) (A) (A) (A) (A) (A) (A)
                 (A) (A) (A) (A) (A) (A) (A) (A) (A) (A) (A) (A)
                 (A) (A) (A) (A) (A) (A) (A) (A) (A) (A) (A) (A)
                 (A) (A) (A) (A) (A) (A) (A) (A) (A) (A) (A) (A)
                 (A) (A) (A) (A) (A) (A) (A) (A) (A) (A) (A) (A)
                 (A) (A) (A) (A) (A)
       Virtual   (A) (A) (A) (A) (A) (A) (A) (A) (A) (A) (A) (A)
                 (A) (A) (A) (A) (A) (A) (A) (A) (A) (A) (A) (A)
                 (A) (A) (A) (A) (A) (A) (A) (A) (A) (A) (A) (A)
                 (A) (A) (A) (A) (A) (A) (A) (A) (A) (A) (A) (A)
                 (A) (A) (A) (A) (A) (A) (A) (A) (A) (A) (A) (A)
                 (A) (A) (A) (A) (A) (A) (A) (A) (A) (A) (A) (A)
                 (A) (A) (A) (A) (A) (A) (A) (A) (A) (A) (A) (A)
                 (A) (A) (A) (A) (A) (A) (A) (A) (A) (A) (A) (A)
                 (A) (A) (A) (A) (A) (A) (A) (A) (A) (A) (A) (A)
                 (A) (A) (A) (A) (A) (A) (A) (A) (A) (A) (A) (A)
                 (A) (A) (A) (A) (A) (A) (A) (A) (A) (A) (A) (A)
                 (A) (A) (A) (A) (A) (A) (A) (A) (A) (A) (A) (A)
                 (A) (A) (A) (A) (A) (A) (A) (A) (A) (A) (A) (A)
                 (A) (A) (A) (A) (A) (A) (A) (A) (A) (A) (A) (A)
                 (A) (A) (A) (A) (A) (A) (A) (A) (A) (A) (A) (A)
                 (A) (A) (A) (A) (A) (A) (A) (A) (A) (A) (A) (A)
                 (A) (A) (A) (A) (A) (A) (A) (A) (A) (A) (A) (A)
                 (A) (A) (A) (A) (A) (A) (A) (A) (A) (A) (A) (A)
                 (A) (A) (A) (A) (A) (A) (A) (A) (A) (A) (A) (A)
                 (A) (A) (A) (A) (A) (A) (A) (A) (A) (A) (A) (A)
                 (A) (A) (A) (A) (A) (A) (A) (A) (A) (A) (A) (A)
                 (A) (A) (A) (A) (A) (A) (A) (A) (A) (A) (A) (A)
                 (A) (A) (A) (A) (A) (A) (A) (A) (A) (A) (A) (A)
                 (A) (A) (A) (A) (A) (A) (A) (A) (A) (A) (A) (A)
                 (A) (A) (A) (A) (A) (A) (A) (A) (A) (A) (A) (A)
                 (A) (A) (A) (A) (A) (A) (A) (A) (A) (A) (A) (A)
                 (A) (A) (A) (A) (A) (A) (A) (A) (A) (A) (A) (A)
                 (A) (A) (A) (A) (A) (A) (A) (A) (A) (A) (A) (A)
                 (A) (A) (A) (A) (A) (A)
 The electronic state is 1-A.
 Alpha  occ. eigenvalues -- -101.56105 -19.27732 -19.15251 -19.15033 -19.14090
 Alpha  occ. eigenvalues --  -14.46554 -14.45762 -14.41227 -14.39098 -14.38164
 Alpha  occ. eigenvalues --  -10.32906 -10.32536 -10.31900 -10.30020 -10.28934
 Alpha  occ. eigenvalues --  -10.28773 -10.28595 -10.27400 -10.26804 -10.26460
 Alpha  occ. eigenvalues --  -10.24264 -10.23605 -10.22014 -10.21996 -10.21934
 Alpha  occ. eigenvalues --  -10.21677 -10.19604  -9.47881  -7.24270  -7.23309
 Alpha  occ. eigenvalues --   -7.23244  -1.18577  -1.10030  -1.05689  -1.02090
 Alpha  occ. eigenvalues --   -1.00329  -1.00219  -0.96993  -0.94639  -0.92057
 Alpha  occ. eigenvalues --   -0.89031  -0.86341  -0.83153  -0.79755  -0.78770
 Alpha  occ. eigenvalues --   -0.76443  -0.74929  -0.72185  -0.71402  -0.69699
 Alpha  occ. eigenvalues --   -0.68980  -0.67053  -0.64749  -0.62626  -0.62052
 Alpha  occ. eigenvalues --   -0.61423  -0.58117  -0.57023  -0.55529  -0.54544
 Alpha  occ. eigenvalues --   -0.53520  -0.52807  -0.52166  -0.51851  -0.50228
 Alpha  occ. eigenvalues --   -0.49753  -0.49469  -0.48520  -0.48213  -0.47718
 Alpha  occ. eigenvalues --   -0.46034  -0.45826  -0.44860  -0.44369  -0.43855
 Alpha  occ. eigenvalues --   -0.43354  -0.42817  -0.41622  -0.41051  -0.40603
 Alpha  occ. eigenvalues --   -0.39826  -0.39396  -0.38581  -0.38417  -0.38010
 Alpha  occ. eigenvalues --   -0.37613  -0.36883  -0.36567  -0.36188  -0.34383
 Alpha  occ. eigenvalues --   -0.34209  -0.32747  -0.32462  -0.31462  -0.29026
 Alpha  occ. eigenvalues --   -0.28425  -0.27521  -0.27052  -0.26730  -0.25909
 Alpha  occ. eigenvalues --   -0.25414
 Alpha virt. eigenvalues --   -0.08129  -0.07285  -0.04137  -0.03802  -0.01940
 Alpha virt. eigenvalues --    0.01280   0.03712   0.05646   0.06788   0.07303
 Alpha virt. eigenvalues --    0.08210   0.08830   0.09294   0.10695   0.10892
 Alpha virt. eigenvalues --    0.11557   0.12008   0.12502   0.13329   0.13626
 Alpha virt. eigenvalues --    0.14048   0.14850   0.15652   0.15748   0.16254
 Alpha virt. eigenvalues --    0.16466   0.16748   0.17535   0.17782   0.18055
 Alpha virt. eigenvalues --    0.18821   0.19265   0.20167   0.21175   0.21828
 Alpha virt. eigenvalues --    0.22782   0.23738   0.24250   0.25609   0.26170
 Alpha virt. eigenvalues --    0.26830   0.27628   0.28205   0.29763   0.30497
[...]
    19  H    1.134479  -0.262328  -0.006308   0.002206  -0.054374   0.000276
    20  H   -0.262328   1.065046  -0.004201  -0.006474  -0.008239   0.002624
    21  O   -0.006308  -0.004201   9.118526   0.253069   0.078797   0.008047
    22  H    0.002206  -0.006474   0.253069   0.579769  -0.029302   0.011544
    23  C   -0.054374  -0.008239   0.078797  -0.029302   4.957807  -0.118479
    24  O    0.000276   0.002624   0.008047   0.011544  -0.118479   8.560842
    25  H    0.000015  -0.000097  -0.006504  -0.000751  -0.096257   0.407867
    26  H    0.018992   0.007291   0.068347  -0.022521   0.184249  -0.077589
    27  H   -0.009000  -0.004710   0.004094   0.015570   0.104143  -0.086016
    28  N   -0.000117   0.000082   0.001362   0.000059  -0.003915   0.000059
    29  C   -0.000085  -0.000730   0.000937  -0.000131  -0.003565   0.000188
    30  H    0.000004  -0.000052   0.000022   0.000002  -0.000087   0.000007
    31  N   -0.000042   0.000144  -0.000017  -0.000008   0.002692   0.000868
    32  C    0.000136  -0.000402  -0.000280  -0.000168  -0.000587   0.000202
    33  C    0.000017  -0.000094  -0.000044   0.000020  -0.000207  -0.000074
    34  H   -0.000003  -0.000005   0.000001   0.000009  -0.000054  -0.000012
    35  C    0.000006   0.000004  -0.000008   0.000003   0.000008   0.000000
    36  H    0.000000   0.000000  -0.000000  -0.000000   0.000001   0.000000
    37  C   -0.000005  -0.000002   0.000006  -0.000007  -0.000021  -0.000002
    38  H   -0.000000  -0.000000   0.000000  -0.000001  -0.000001  -0.000000
    39  C   -0.000024   0.000137   0.000011  -0.000038  -0.000003   0.000004
    40  Cl   0.000000  -0.000001   0.000000  -0.000001  -0.000001  -0.000000
    41  C    0.000002  -0.000146   0.000235  -0.000047   0.000718  -0.000027
    42  C   -0.000294  -0.000770   0.000105   0.000497  -0.003158   0.000008
    43  O    0.000009   0.000056   0.000000  -0.000029   0.000021   0.000000
    44  H   -0.000039   0.000109   0.000015  -0.000017   0.000310   0.000015
              25         26         27         28         29         30
     1  C   -0.000048  -0.000077  -0.000100   0.009524   0.015150   0.004122
     2  H   -0.000015   0.000087   0.000047  -0.000715   0.003759   0.000402
     3  H   -0.000003  -0.000007  -0.000039   0.000360  -0.000638  -0.000149
     4  H   -0.000010  -0.000092   0.000215   0.003676  -0.001116   0.000868
     5  N   -0.000023  -0.000110   0.000194   0.002432   0.013957   0.000873
     6  C   -0.000016  -0.000079   0.000495  -0.041274   0.083617   0.012034
     7  H   -0.000020  -0.000011   0.000178  -0.003033  -0.027722   0.000686
     8  H    0.000292   0.000900  -0.000775  -0.017567  -0.032729  -0.005870
     9  C   -0.000282  -0.002215  -0.000821   0.126563  -0.005470  -0.076678
    10  C   -0.001267   0.004528  -0.008240  -0.742269  -1.027402  -0.010065
    11  C   -0.010898  -0.012999   0.054723  -0.184722  -0.821444  -0.140908
    12  N   -0.001206   0.007207  -0.023125   0.085624   0.008678  -0.004837
    13  O   -0.004472  -0.001622  -0.019628  -0.039440  -0.008566   0.000015
    14  C   -0.036878   0.387466  -0.092680   0.113579  -0.181109  -0.012313
    15  N    0.001134  -0.008829  -0.004612   0.114735   0.057242   0.002302
    16  C    0.100228  -0.451141   0.107744  -0.012112  -0.028951  -0.000976
    17  C   -0.001120  -0.016163  -0.024931  -0.002608  -0.003185  -0.000056
    18  H   -0.000167  -0.016822   0.001053   0.000045  -0.000340  -0.000028
    19  H    0.000015   0.018992  -0.009000  -0.000117  -0.000085   0.000004
    20  H   -0.000097   0.007291  -0.004710   0.000082  -0.000730  -0.000052
    21  O   -0.006504   0.068347   0.004094   0.001362   0.000937   0.000022
    22  H   -0.000751  -0.022521   0.015570   0.000059  -0.000131   0.000002
    23  C   -0.096257   0.184249   0.104143  -0.003915  -0.003565  -0.000087
    24  O    0.407867  -0.077589  -0.086016   0.000059   0.000188   0.000007
    25  H    0.511306  -0.047278  -0.006989  -0.000050  -0.000059  -0.000001
    26  H   -0.047278   1.210213  -0.147194  -0.000013   0.000032  -0.000001
    27  H   -0.006989  -0.147194   1.220321  -0.000321  -0.000552  -0.000009
    28  N   -0.000050  -0.000013  -0.000321   7.988358   0.218978  -0.402428
    29  C   -0.000059   0.000032  -0.000552   0.218978   6.570585   0.484849
    30  H   -0.000001  -0.000001  -0.000009  -0.402428   0.484849   1.303039
    31  N   -0.000045   0.000175   0.000026   0.077074   0.534457  -0.286157
    32  C   -0.000044   0.000013  -0.000021  -0.281118  -0.753152   0.492194
    33  C    0.000016  -0.000020  -0.000015   0.023598   0.414874  -0.151872
    34  H   -0.000003  -0.000000  -0.000008   0.001044  -0.021918  -0.009256
    35  C    0.000004  -0.000002   0.000006   0.158513  -0.558242  -0.029886
    36  H    0.000000  -0.000000   0.000000   0.000092   0.009518   0.005116
    37  C   -0.000001   0.000000  -0.000004  -0.046958   0.246484   0.004375
    38  H   -0.000000  -0.000000  -0.000000  -0.000655   0.001280  -0.000621
    39  C   -0.000003   0.000006  -0.000001   0.032396  -0.195303  -0.009307
    40  Cl  -0.000000  -0.000000  -0.000000  -0.001123   0.005569   0.000389
    41  C   -0.000008   0.000035  -0.000005  -0.193077   0.542134   0.085939
    42  C   -0.000002  -0.000132  -0.000195   0.026835  -0.044137   0.070895
    43  O   -0.000000   0.000001   0.000002   0.002720  -0.009102  -0.000870
    44  H    0.000001  -0.000010  -0.000000   0.516297  -0.197490   0.004845
              31         32         33         34         35         36
     1  C   -0.003159   0.158929  -0.134815  -0.000901   0.030550   0.000646
     2  H    0.006368   0.021674  -0.009946  -0.000057   0.000452   0.000012
     3  H    0.016182  -0.046323  -0.001636   0.000182   0.001241   0.000062
     4  H   -0.006025   0.029636  -0.015506  -0.000306   0.003240   0.000070
     5  N   -0.254333   0.413951  -0.096198   0.003461   0.065629  -0.000377
     6  C   -0.083044  -0.234696   0.001573  -0.019181  -0.201566   0.000411
     7  H   -0.041203   0.361980  -0.053460  -0.002129   0.016645  -0.000709
     8  H    0.050974  -0.092102   0.043259  -0.001066  -0.006080  -0.000078
     9  C   -2.385486  -5.466029   1.480799   0.146129   0.251893   0.011706
    10  C   -0.038384  -0.869026   0.314442  -0.062596  -0.029507  -0.011577
    11  C    0.838089   1.752543  -0.286906  -0.021926   0.149446   0.002346
    12  N   -0.082698  -0.084752   0.011459   0.000816  -0.000929  -0.000043
    13  O    0.005974   0.013144  -0.000513  -0.000124   0.000124   0.000008
    14  C   -0.036699  -0.105732   0.034797  -0.002517   0.006150   0.000036
    15  N   -0.042240  -0.074816  -0.002644   0.000592  -0.003770  -0.000080
    16  C    0.002306   0.007481   0.000839  -0.000208   0.000526   0.000017
    17  C   -0.002205  -0.000997   0.000388  -0.000022   0.000034   0.000000
    18  H   -0.000223  -0.000307   0.000077   0.000004  -0.000000  -0.000000
    19  H   -0.000042   0.000136   0.000017  -0.000003   0.000006   0.000000
    20  H    0.000144  -0.000402  -0.000094  -0.000005   0.000004   0.000000
    21  O   -0.000017  -0.000280  -0.000044   0.000001  -0.000008  -0.000000
    22  H   -0.000008  -0.000168   0.000020   0.000009   0.000003  -0.000000
    23  C    0.002692  -0.000587  -0.000207  -0.000054   0.000008   0.000001
    24  O    0.000868   0.000202  -0.000074  -0.000012   0.000000   0.000000
    25  H   -0.000045  -0.000044   0.000016  -0.000003   0.000004   0.000000
    26  H    0.000175   0.000013  -0.000020  -0.000000  -0.000002  -0.000000
    27  H    0.000026  -0.000021  -0.000015  -0.000008   0.000006   0.000000
    28  N    0.077074  -0.281118   0.023598   0.001044   0.158513   0.000092
    29  C    0.534457  -0.753152   0.414874  -0.021918  -0.558242   0.009518
    30  H   -0.286157   0.492194  -0.151872  -0.009256  -0.029886   0.005116
    31  N   11.018383  -3.943586   1.898676  -0.477791  -0.538097  -0.013464
    32  C   -3.943586  44.597398 -17.608500   2.265464   4.361152   0.121452
    33  C    1.898676 -17.608500  24.245204  -2.504232  -6.771603   0.768931
    34  H   -0.477791   2.265464  -2.504232   2.410240   0.771199  -0.071696
    35  C   -0.538097   4.361152  -6.771603   0.771199  14.545227  -1.121987
    36  H   -0.013464   0.121452   0.768931  -0.071696  -1.121987   1.699238
    37  C    0.603690  -8.440446   5.987570  -0.329279  -5.072898   0.567512
    38  H   -0.000145   0.136323  -0.469137  -0.022022   0.415924  -0.089602
    39  C   -0.515971   5.144825  -7.985867   0.293972   3.144475  -0.406761
    40  Cl  -0.000990  -0.278663   0.352655   0.001991  -0.259400   0.003544
    41  C    1.150235 -14.505528   6.797536  -0.667530  -4.773784  -0.023688
    42  C    0.470732  -0.894572  -1.301384   0.022581   1.028977  -0.003528
    43  O   -0.054561   0.075226   0.009267   0.000621  -0.025863  -0.000430
    44  H    0.038525  -0.000823   0.003339   0.001809  -0.002386  -0.000134
              37         38         39         40         41         42
     1  C   -0.031282  -0.000913   0.225227  -0.024523  -0.758840   0.324466
     2  H    0.001169  -0.000055   0.024794  -0.002509  -0.015452  -0.107917
     3  H    0.000436  -0.000067   0.020640  -0.003463  -0.196640   0.434243
     4  H   -0.002588  -0.000030   0.013382  -0.000348   0.041961  -0.122715
     5  N   -0.049658   0.000055  -0.052690   0.035283   0.072780  -0.560313
     6  C    0.250328   0.004398   0.219488   0.054141   0.620157  -0.944705
     7  H   -0.012967  -0.001398   0.037447   0.005536  -0.169008  -0.227635
     8  H    0.005039   0.000432   0.002149   0.004640   0.017148   0.044490
     9  C    0.080266  -0.009208  -0.943309  -0.009211   0.635906  -1.276758
    10  C   -0.037233   0.004639   0.146951   0.003101   0.364963  -0.061934
    11  C   -0.094042  -0.001162   0.055886  -0.000855  -0.704813  -0.468319
    12  N    0.000813   0.000020  -0.001069   0.000013   0.020077   0.005577
    13  O   -0.000037  -0.000001   0.000125  -0.000001  -0.003626   0.004410
    14  C   -0.002627  -0.000041  -0.009824   0.000092  -0.007223  -0.129499
    15  N    0.001102   0.000023  -0.000618   0.000092   0.025566   0.027840
    16  C   -0.000315  -0.000007  -0.000655  -0.000007  -0.004128  -0.007638
    17  C   -0.000024   0.000000  -0.000187   0.000003   0.000486  -0.003791
    18  H    0.000000   0.000000  -0.000028   0.000001   0.000074  -0.000189
    19  H   -0.000005  -0.000000  -0.000024   0.000000   0.000002  -0.000294
    20  H   -0.000002  -0.000000   0.000137  -0.000001  -0.000146  -0.000770
    21  O    0.000006   0.000000   0.000011   0.000000   0.000235   0.000105
    22  H   -0.000007  -0.000001  -0.000038  -0.000001  -0.000047   0.000497
    23  C   -0.000021  -0.000001  -0.000003  -0.000001   0.000718  -0.003158
    24  O   -0.000002  -0.000000   0.000004  -0.000000  -0.000027   0.000008
    25  H   -0.000001  -0.000000  -0.000003  -0.000000  -0.000008  -0.000002
    26  H    0.000000  -0.000000   0.000006  -0.000000   0.000035  -0.000132
    27  H   -0.000004  -0.000000  -0.000001  -0.000000  -0.000005  -0.000195
    28  N   -0.046958  -0.000655   0.032396  -0.001123  -0.193077   0.026835
    29  C    0.246484   0.001280  -0.195303   0.005569   0.542134  -0.044137
    30  H    0.004375  -0.000621  -0.009307   0.000389   0.085939   0.070895
    31  N    0.603690  -0.000145  -0.515971  -0.000990   1.150235   0.470732
    32  C   -8.440446   0.136323   5.144825  -0.278663 -14.505528  -0.894572
    33  C    5.987570  -0.469137  -7.985867   0.352655   6.797536  -1.301384
    34  H   -0.329279  -0.022022   0.293972   0.001991  -0.667530   0.022581
    35  C   -5.072898   0.415924   3.144475  -0.259400  -4.773784   1.028977
    36  H    0.567512  -0.089602  -0.406761   0.003544  -0.023688  -0.003528
    37  C   17.075642  -1.427232  -6.153120   0.347438   2.712256  -0.903896
    38  H   -1.427232   1.780794   1.141491  -0.105864   0.020108   0.054534
    39  C   -6.153120   1.141491  21.632456  -0.379359  -9.817298   1.269061
    40  Cl   0.347438  -0.105864  -0.379359  17.520242   0.410858  -0.357588
    41  C    2.712256   0.020108  -9.817298   0.410858  26.826485  -4.663184
    42  C   -0.903896   0.054534   1.269061  -0.357588  -4.663184  13.908396
    43  O   -0.018024   0.000619  -0.187321  -0.007184   0.510481  -0.359454
    44  H    0.001017   0.000031  -0.001036   0.000021   0.004424  -0.002716
              43         44
     1  C    0.013625  -0.000780
     2  H    0.009226  -0.000060
     3  H   -0.058038   0.000038
     4  H    0.021128  -0.000456
     5  N   -0.074467  -0.001888
     6  C    0.050635   0.014172
     7  H    0.011985  -0.000364
     8  H   -0.002760   0.001999
     9  C    0.100159  -0.035447
    10  C   -0.014673  -0.097542
    11  C    0.024198   0.010747
    12  N   -0.000134  -0.008500
    13  O   -0.000022   0.001212
    14  C    0.003642  -0.015733
    15  N    0.000089  -0.004179
    16  C    0.000277   0.001846
    17  C    0.000070   0.000012
    18  H    0.000004   0.000035
    19  H    0.000009  -0.000039
    20  H    0.000056   0.000109
    21  O    0.000000   0.000015
    22  H   -0.000029  -0.000017
    23  C    0.000021   0.000310
    24  O    0.000000   0.000015
    25  H   -0.000000   0.000001
    26  H    0.000001  -0.000010
    27  H    0.000002  -0.000000
    28  N    0.002720   0.516297
    29  C   -0.009102  -0.197490
    30  H   -0.000870   0.004845
    31  N   -0.054561   0.038525
    32  C    0.075226  -0.000823
    33  C    0.009267   0.003339
    34  H    0.000621   0.001809
    35  C   -0.025863  -0.002386
    36  H   -0.000430  -0.000134
    37  C   -0.018024   0.001017
    38  H    0.000619   0.000031
    39  C   -0.187321  -0.001036
    40  Cl  -0.007184   0.000021
    41  C    0.510481   0.004424
    42  C   -0.359454  -0.002716
    43  O    8.827877  -0.000015
    44  H   -0.000015   0.799509
 Mulliken charges:
               1
     1  C    0.793746
     2  H   -0.113546
     3  H   -0.218576
     4  H   -0.035511
     5  N   -0.551729
     6  C    1.013940
     7  H   -0.011163
     8  H   -0.223243
     9  C   -0.023474
    10  C    0.673847
    11  C    0.781236
    12  N   -0.414983
    13  O   -0.897495
    14  C    0.737668
    15  N   -0.541522
    16  C   -1.116970
    17  C    1.114479
    18  H    0.064488
    19  H   -0.017625
    20  H    0.056575
    21  O   -0.852099
    22  H    0.175290
    23  C    1.648710
    24  O   -0.802029
    25  H    0.193652
    26  H   -0.084617
    27  H   -0.078822
    28  N   -0.530488
    29  C    0.710851
    30  H   -0.330549
    31  N   -0.908996
    32  C   -0.271055
    33  C    1.005337
    34  H   -0.705275
    35  C    0.444581
    36  H   -0.446561
    37  C    0.737526
    38  H   -0.432507
    39  C   -0.745131
    40  Cl  -0.314517
    41  C    1.643486
    42  C    0.752777
    43  O   -0.848994
    44  H   -0.030713
 Sum of Mulliken charges =   1.00000
 Mulliken charges with hydrogens summed into heavy atoms:
               1
     1  C    0.426113
     5  N   -0.551729
     6  C    0.779534
     9  C   -0.023474
    10  C    0.673847
    11  C    0.781236
    12  N   -0.414983
    13  O   -0.897495
    14  C    0.737668
    15  N   -0.541522
    16  C   -1.116970
    17  C    1.217918
    21  O   -0.676810
    23  C    1.485271
    24  O   -0.608377
    28  N   -0.561201
    29  C    0.380303
    31  N   -0.908996
    32  C   -0.271055
    33  C    0.300062
    35  C   -0.001980
    37  C    0.305019
    39  C   -0.745131
    40  Cl  -0.314517
    41  C    1.643486
    42  C    0.752777
    43  O   -0.848994
 Electronic spatial extent (au):  <R**2>=          13192.5960
 Charge=              1.0000 electrons
 Dipole moment (field-independent basis, Debye):
    X=             -2.0790    Y=              9.3764    Z=              1.7571  Tot=              9.7636
 Quadrupole moment (field-independent basis, Debye-Ang):
   XX=            -81.5497   YY=           -131.9511   ZZ=           -155.0353
   XY=             25.7966   XZ=              5.6433   YZ=             -5.5001
 Traceless Quadrupole moment (field-independent basis, Debye-Ang):
   XX=             41.2957   YY=             -9.1058   ZZ=            -32.1899
   XY=             25.7966   XZ=              5.6433   YZ=             -5.5001
 Octapole moment (field-independent basis, Debye-Ang**2):
  XXX=           -297.4475  YYY=             86.2450  ZZZ=             29.9798  XYY=             37.9867
  XXY=             63.0269  XXZ=            161.8999  XZZ=            -61.9175  YZZ=             15.2903
  YYZ=            -27.0747  XYZ=            -23.5618
 Hexadecapole moment (field-independent basis, Debye-Ang**3):
 XXXX=          -9884.9602 YYYY=          -2105.0589 ZZZZ=           -941.7784 XXXY=            395.3858
 XXXZ=           -214.1134 YYYX=             60.9073 YYYZ=            -83.1841 ZZZX=           -185.9643
 ZZZY=            -34.2046 XXYY=          -2608.4159 XXZZ=          -2190.8843 YYZZ=           -528.0981
 XXYZ=            158.3482 YYXZ=             35.5768 ZZXY=             37.8236
 N-N= 2.641191325586D+03 E-N=-9.219919218973D+03  KE= 1.683045678103D+03
 Leave Link  601 at Sun Jul 18 20:55:41 2021, MaxMem=   262144000 cpu:               1.8 elap:               0.6
 (Enter /prod/apps/gaussian/g16b1/l9999.exe)
 1\1\GINC-PIRINEUS12\SP\RMP2-FC\Aug-CC-pVDZ\C17H17Cl1N5O4(1+)\UBATOR02\
 18-Jul-2021\0\\#p mp2/aug-cc-pVDZ scf=tight maxdisk=180GB geom=allchec
 k\\SET_328_BBB324_conf1.geo_180_120_300 geometry\\1,1\C,0,0.1754538771
 ,-0.7741481779,2.7713777538\H,0,0.1672259551,0.2654955697,3.1050326789
 \H,0,0.3608093676,-1.4319908634,3.6172049831\H,0,-0.79760722,-1.016912
 5453,2.3313585469\N,0,1.251786323,-0.9620683881,1.8001691294\C,0,1.245
 5293892,-0.1093083376,0.6081637067\H,0,2.2586541551,0.2351069752,0.385
 8057519\H,0,0.624112231,0.7623438195,0.8026386286\C,0,0.691695718,-0.8
 70722562,-0.5494376931\C,0,-0.4819629509,-0.8218435007,-1.2581876273\C
 ,0,-1.5952282822,0.1046941172,-1.1707957989\N,0,-2.695241944,-0.049277
 6946,-1.8712025883\O,0,-3.464410449,1.0562299266,-1.4810276373\C,0,-2.
 7377352049,1.74920933,-0.5870107877\N,0,-1.5755066571,1.2112126266,-0.
 3540360702\C,0,-3.3411955666,3.0048389463,0.0238746881\C,0,-4.48682884
 23,2.6270005194,0.9681847108\H,0,-5.2711557204,2.0783028387,0.44269055
 16\H,0,-4.9127680353,3.5396087664,1.3909162525\H,0,-4.1088469394,2.006
 9366591,1.7842888649\O,0,-2.3494351314,3.6592012503,0.7884670101\H,0,-
 1.7660370306,4.1114972551,0.1475936028\C,0,-3.8189279584,3.9353598072,
 -1.1025225463\O,0,-2.6548276352,4.2987705806,-1.8328525127\H,0,-2.8657
 730144,5.0773894157,-2.3758828231\H,0,-4.2933783314,4.8070659504,-0.63
 9237615\H,0,-4.5557158476,3.4279822468,-1.736579359\N,0,-0.4487507663,
 -1.8800099975,-2.1498729603\C,0,0.6791740181,-2.5589827828,-2.00302100
 43\H,0,0.9596646186,-3.439524234,-2.5545970133\N,0,1.3984348647,-1.967
 2778799,-1.0338953709\C,0,2.7211626194,-2.3224294189,-0.6117767504\C,0
 ,3.6510120258,-2.6637623781,-1.5923456272\H,0,3.3674456014,-2.65314682
 3,-2.6372001598\C,0,4.9501466811,-2.9818376148,-1.2153433003\H,0,5.681
 5429203,-3.2465746609,-1.9694940432\C,0,5.3230077551,-2.9262797539,0.1
 247025883\H,0,6.3400337648,-3.138824999,0.4275730204\C,0,4.3791104941,
 -2.5820745171,1.0888839\Cl,0,4.9348872125,-2.4875886557,2.7503343999\C
 ,0,3.0465885102,-2.2834408508,0.7575962532\C,0,2.0143176579,-2.0892698
 661,1.8529796827\O,0,1.9118138413,-2.9334353918,2.7421366629\H,0,-1.18
 32760741,-2.1155147069,-2.819654079\\Version=ES64L-G16RevB.01\State=1-
 A\HF=-1684.7683529\MP2=-1688.882781\RMSD=5.099e-09\PG=C01 [X(C17H17Cl1
 N5O4)]\\@


 THE REASON MAN'S BEST FRIEND IS A DOG IS BECAUSE
 HE WAGS HIS TAIL INSTEAD OF HIS TONGUE.
 Job cpu time:       0 days  9 hours 20 minutes 35.9 seconds.
 Elapsed time:       0 days  2 hours 35 minutes 14.7 seconds.
 File lengths (MBytes):  RWF= 156699 Int=      0 D2E=      0 Chk=     48 Scr=      1
 Normal termination of Gaussian 16 at Sun Jul 18 20:55:44 2021.
