 Entering Gaussian System, Link 0=g16
 Initial command:
 /prod/apps/gaussian/g16b1/l1.exe "/tmp/ubator02/1839571/Gau-223734.inp" -scrdir="/tmp/ubator02/1839571/"
 Entering Link 1 = /prod/apps/gaussian/g16b1/l1.exe PID=    223735.
  
 Copyright (c) 1988-2017, Gaussian, Inc.  All Rights Reserved.
  
 This is part of the Gaussian(R) 16 program.  It is based on
 the Gaussian(R) 09 system (copyright 2009, Gaussian, Inc.),
 the Gaussian(R) 03 system (copyright 2003, Gaussian, Inc.),
 the Gaussian(R) 98 system (copyright 1998, Gaussian, Inc.),
 the Gaussian(R) 94 system (copyright 1995, Gaussian, Inc.),
 the Gaussian 92(TM) system (copyright 1992, Gaussian, Inc.),
 the Gaussian 90(TM) system (copyright 1990, Gaussian, Inc.),
 the Gaussian 88(TM) system (copyright 1988, Gaussian, Inc.),
 the Gaussian 86(TM) system (copyright 1986, Carnegie Mellon
 University), and the Gaussian 82(TM) system (copyright 1983,
 Carnegie Mellon University). Gaussian is a federally registered
 trademark of Gaussian, Inc.
  
 This software contains proprietary and confidential information,
 including trade secrets, belonging to Gaussian, Inc.
  
 This software is provided under written license and may be
 used, copied, transmitted, or stored only in accord with that
 written license.
  
 The following legend is applicable only to US Government
 contracts under FAR:
  
                    RESTRICTED RIGHTS LEGEND
  
 Use, reproduction and disclosure by the US Government is
 subject to restrictions as set forth in subparagraphs (a)
 and (c) of the Commercial Computer Software - Restricted
 Rights clause in FAR 52.227-19.
  
 Gaussian, Inc.
 340 Quinnipiac St., Bldg. 40, Wallingford CT 06492
  
  
 ---------------------------------------------------------------
 Warning -- This program may not be used in any manner that
 competes with the business of Gaussian, Inc. or will provide
 assistance to any competitor of Gaussian, Inc.  The licensee
 of this program is prohibited from giving any competitor of
 Gaussian, Inc. access to this program.  By using this program,
 the user acknowledges that Gaussian, Inc. is engaged in the
 business of creating and licensing software in the field of
 computational chemistry and represents and warrants to the
 licensee that it is not a competitor of Gaussian, Inc. and that
 it will not use this program in any manner prohibited above.
 ---------------------------------------------------------------
  

 Cite this work as:
 Gaussian 16, Revision B.01,
 M. J. Frisch, G. W. Trucks, H. B. Schlegel, G. E. Scuseria, 
 M. A. Robb, J. R. Cheeseman, G. Scalmani, V. Barone, 
 G. A. Petersson, H. Nakatsuji, X. Li, M. Caricato, A. V. Marenich, 
 J. Bloino, B. G. Janesko, R. Gomperts, B. Mennucci, H. P. Hratchian, 
 J. V. Ortiz, A. F. Izmaylov, J. L. Sonnenberg, D. Williams-Young, 
 F. Ding, F. Lipparini, F. Egidi, J. Goings, B. Peng, A. Petrone, 
 T. Henderson, D. Ranasinghe, V. G. Zakrzewski, J. Gao, N. Rega, 
 G. Zheng, W. Liang, M. Hada, M. Ehara, K. Toyota, R. Fukuda, 
 J. Hasegawa, M. Ishida, T. Nakajima, Y. Honda, O. Kitao, H. Nakai, 
 T. Vreven, K. Throssell, J. A. Montgomery, Jr., J. E. Peralta, 
 F. Ogliaro, M. J. Bearpark, J. J. Heyd, E. N. Brothers, K. N. Kudin, 
 V. N. Staroverov, T. A. Keith, R. Kobayashi, J. Normand, 
 K. Raghavachari, A. P. Rendell, J. C. Burant, S. S. Iyengar, 
 J. Tomasi, M. Cossi, J. M. Millam, M. Klene, C. Adamo, R. Cammi, 
 J. W. Ochterski, R. L. Martin, K. Morokuma, O. Farkas, 
 J. B. Foresman, and D. J. Fox, Gaussian, Inc., Wallingford CT, 2016.
 
 ******************************************
 Gaussian 16:  ES64L-G16RevB.01 20-Dec-2017
                18-Jul-2021 
 ******************************************
 %mem=800MB
 %nproc=4
 Will use up to    4 processors via shared memory.
 %chk=SET_328_BBB288_conf1.geo_210_090_060.chk
 -----------------------------------------------------------
 #p b3lyp/6-31G(d) opt freq scrf=(iefpcm,read,solvent=water)
 -----------------------------------------------------------
 1/18=20,19=15,26=3,38=1,40=2/1,3;
 2/9=110,12=2,17=6,18=5,40=1/2;
 3/5=1,6=6,7=1,11=2,25=1,30=1,70=2203,71=1,72=1,74=-5/1,2,3;
 4//1;
 5/5=2,38=5,53=1/2;
 6/7=2,8=2,9=2,10=2,28=1/1;
 7//1,2,3,16;
 1/18=20,19=15,26=3/3(2);
 2/9=110/2;
 99//99;
 2/9=110/2;
 3/5=1,6=6,7=1,11=2,25=1,30=1,70=2205,71=1,72=1,74=-5/1,2,3;
 4/5=5,16=3,69=1/1;
 5/5=2,38=5,53=1/2;
 7//1,2,3,16;
 1/18=20,19=15,26=3/3(-5);
 2/9=110/2;
 6/7=2,8=2,9=2,10=2,19=2,28=1/1;
 99/9=1/99;
 Leave Link    1 at Sun Jul 18 13:45:01 2021, MaxMem=   104857600 cpu:               0.1 elap:               0.0
 (Enter /prod/apps/gaussian/g16b1/l101.exe)
 ---------------------------------------------
 SET_328_BBB288_conf1.geo_210_090_060 geometry
 ---------------------------------------------
 Symbolic Z-matrix:
 Charge = -1 Multiplicity = 1
 C                     0.718     2.08      3.791 
 H                     1.177     2.799     3.109 
 H                     1.313     1.867     4.681 
 H                    -0.242     2.508     4.085 
 C                     0.427     0.784     3.117 
 C                     0.11     -0.446     3.969 
 N                    -0.168    -1.483     3.165 
 C                    -0.138    -1.561     1.841 
 O                    -0.555    -2.595     1.446 
 O                     0.054    -0.504     5.177 
 C                     0.505     0.769     1.766 
 H                     0.797     1.636     1.187 
 N                     0.162    -0.454     1.16 
 C                     0.109    -0.517    -0.314 
 O                     1.055     0.363    -1.004 
 C                     0.546     0.785    -2.277 
 C                     1.522     0.308    -3.365 
 O                     1.647    -1.129    -3.406 
 H                     0.763    -1.526    -3.503 
 H                     2.529     0.719    -3.251 
 H                     1.112     0.565    -4.345 
 H                     0.464     1.874    -2.309 
 H                     0.375    -1.526    -0.661 
 C                    -1.229    -0.134    -0.884 
 H                    -1.619     0.78     -0.433 
 H                    -1.894    -0.997    -0.811 
 C                    -0.905     0.186    -2.302 
 H                    -1.61      0.944    -2.652 
 N                    -1.095    -1.03     -3.139 
 N                    -2.208    -1.247    -3.614 
 N                    -3.261    -1.51     -3.89 
 
 ITRead=  0  0  0  0  0  0  0  0  0  0  0  0  0  0  0  0  0  0  0  0
 ITRead=  0  0  0  0  0  0  0  0  0  0  0
 MicOpt= -1 -1 -1 -1 -1 -1 -1 -1 -1 -1 -1 -1 -1 -1 -1 -1 -1 -1 -1 -1
 MicOpt= -1 -1 -1 -1 -1 -1 -1 -1 -1 -1 -1
 NAtoms=     31 NQM=       31 NQMF=       0 NMMI=      0 NMMIF=      0
                NMic=       0 NMicF=      0.
                    Isotopes and Nuclear Properties:
 (Nuclear quadrupole moments (NQMom) in fm**2, nuclear magnetic moments (NMagM)
  in nuclear magnetons)

  Atom         1           2           3           4           5           6           7           8           9          10
 IAtWgt=          12           1           1           1          12          12          14          12          16          16
 AtmWgt=  12.0000000   1.0078250   1.0078250   1.0078250  12.0000000  12.0000000  14.0030740  12.0000000  15.9949146  15.9949146
 NucSpn=           0           1           1           1           0           0           2           0           0           0
 AtZEff=  -0.0000000  -0.0000000  -0.0000000  -0.0000000  -0.0000000  -0.0000000  -0.0000000  -0.0000000  -0.0000000  -0.0000000
 NQMom=    0.0000000   0.0000000   0.0000000   0.0000000   0.0000000   0.0000000   2.0440000   0.0000000   0.0000000   0.0000000
 NMagM=    0.0000000   2.7928460   2.7928460   2.7928460   0.0000000   0.0000000   0.4037610   0.0000000   0.0000000   0.0000000
 AtZNuc=   6.0000000   1.0000000   1.0000000   1.0000000   6.0000000   6.0000000   7.0000000   6.0000000   8.0000000   8.0000000

  Atom        11          12          13          14          15          16          17          18          19          20
 IAtWgt=          12           1          14          12          16          12          12          16           1           1
 AtmWgt=  12.0000000   1.0078250  14.0030740  12.0000000  15.9949146  12.0000000  12.0000000  15.9949146   1.0078250   1.0078250
 NucSpn=           0           1           2           0           0           0           0           0           1           1
 AtZEff=  -0.0000000  -0.0000000  -0.0000000  -0.0000000  -0.0000000  -0.0000000  -0.0000000  -0.0000000  -0.0000000  -0.0000000
 NQMom=    0.0000000   0.0000000   2.0440000   0.0000000   0.0000000   0.0000000   0.0000000   0.0000000   0.0000000   0.0000000
 NMagM=    0.0000000   2.7928460   0.4037610   0.0000000   0.0000000   0.0000000   0.0000000   0.0000000   2.7928460   2.7928460
 AtZNuc=   6.0000000   1.0000000   7.0000000   6.0000000   8.0000000   6.0000000   6.0000000   8.0000000   1.0000000   1.0000000

  Atom        21          22          23          24          25          26          27          28          29          30
 IAtWgt=           1           1           1          12           1           1          12           1          14          14
 AtmWgt=   1.0078250   1.0078250   1.0078250  12.0000000   1.0078250   1.0078250  12.0000000   1.0078250  14.0030740  14.0030740
 NucSpn=           1           1           1           0           1           1           0           1           2           2
 AtZEff=  -0.0000000  -0.0000000  -0.0000000  -0.0000000  -0.0000000  -0.0000000  -0.0000000  -0.0000000  -0.0000000  -0.0000000
 NQMom=    0.0000000   0.0000000   0.0000000   0.0000000   0.0000000   0.0000000   0.0000000   0.0000000   2.0440000   2.0440000
 NMagM=    2.7928460   2.7928460   2.7928460   0.0000000   2.7928460   2.7928460   0.0000000   2.7928460   0.4037610   0.4037610
 AtZNuc=   1.0000000   1.0000000   1.0000000   6.0000000   1.0000000   1.0000000   6.0000000   1.0000000   7.0000000   7.0000000

  Atom        31
 IAtWgt=          14
 AtmWgt=  14.0030740
 NucSpn=           2
 AtZEff=  -0.0000000
 NQMom=    2.0440000
 NMagM=    0.4037610
 AtZNuc=   7.0000000
 Leave Link  101 at Sun Jul 18 13:45:02 2021, MaxMem=   104857600 cpu:               0.6 elap:               0.2
 (Enter /prod/apps/gaussian/g16b1/l103.exe)

 GradGradGradGradGradGradGradGradGradGradGradGradGradGradGradGradGradGrad
 Berny optimization.
 Initialization pass.
                           ----------------------------
                           !    Initial Parameters    !
                           ! (Angstroms and Degrees)  !
 --------------------------                            --------------------------
 ! Name  Definition              Value          Derivative Info.                !
 --------------------------------------------------------------------------------
 ! R1    R(1,2)                  1.0921         estimate D2E/DX2                !
 ! R2    R(1,3)                  1.0916         estimate D2E/DX2                !
 ! R3    R(1,4)                  1.0914         estimate D2E/DX2                !
 ! R4    R(1,5)                  1.4895         estimate D2E/DX2                !
 ! R5    R(5,6)                  1.5295         estimate D2E/DX2                !
 ! R6    R(5,11)                 1.3533         estimate D2E/DX2                !
 ! R7    R(6,7)                  1.3413         estimate D2E/DX2                !
 ! R8    R(6,10)                 1.2107         estimate D2E/DX2                !
 ! R9    R(7,8)                  1.3266         estimate D2E/DX2                !
 ! R10   R(8,9)                  1.1828         estimate D2E/DX2                !
 ! R11   R(8,13)                 1.3339         estimate D2E/DX2                !
 ! R12   R(11,12)                1.0827         estimate D2E/DX2                !
 ! R13   R(11,13)                1.4073         estimate D2E/DX2                !
 ! R14   R(13,14)                1.4763         estimate D2E/DX2                !
 ! R15   R(14,15)                1.4647         estimate D2E/DX2                !
 ! R16   R(14,23)                1.0997         estimate D2E/DX2                !
 ! R17   R(14,24)                1.5039         estimate D2E/DX2                !
 ! R18   R(15,16)                1.4345         estimate D2E/DX2                !
 ! R19   R(16,17)                1.5375         estimate D2E/DX2                !
 ! R20   R(16,22)                1.0926         estimate D2E/DX2                !
 ! R21   R(16,27)                1.57           estimate D2E/DX2                !
 ! R22   R(17,18)                1.443          estimate D2E/DX2                !
 ! R23   R(17,20)                1.0936         estimate D2E/DX2                !
 ! R24   R(17,21)                1.093          estimate D2E/DX2                !
 ! R25   R(18,19)                0.9739         estimate D2E/DX2                !
 ! R26   R(24,25)                1.0913         estimate D2E/DX2                !
 ! R27   R(24,26)                1.0919         estimate D2E/DX2                !
 ! R28   R(24,27)                1.4893         estimate D2E/DX2                !
 ! R29   R(27,28)                1.0927         estimate D2E/DX2                !
 ! R30   R(27,29)                1.4884         estimate D2E/DX2                !
 ! R31   R(29,30)                1.2294         estimate D2E/DX2                !
 ! R32   R(30,31)                1.1199         estimate D2E/DX2                !
 ! A1    A(2,1,3)              114.1126         estimate D2E/DX2                !
 ! A2    A(2,1,4)              106.2431         estimate D2E/DX2                !
 ! A3    A(2,1,5)              111.8611         estimate D2E/DX2                !
 ! A4    A(3,1,4)              109.6542         estimate D2E/DX2                !
 ! A5    A(3,1,5)              107.7978         estimate D2E/DX2                !
 ! A6    A(4,1,5)              106.9331         estimate D2E/DX2                !
 ! A7    A(1,5,6)              119.2193         estimate D2E/DX2                !
 ! A8    A(1,5,11)             116.7506         estimate D2E/DX2                !
 ! A9    A(6,5,11)             123.9954         estimate D2E/DX2                !
 ! A10   A(5,6,7)              109.3173         estimate D2E/DX2                !
 ! A11   A(5,6,10)             127.1519         estimate D2E/DX2                !
 ! A12   A(7,6,10)             123.4676         estimate D2E/DX2                !
 ! A13   A(6,7,8)              129.7173         estimate D2E/DX2                !
 ! A14   A(7,8,9)              112.13           estimate D2E/DX2                !
 ! A15   A(7,8,13)             117.7634         estimate D2E/DX2                !
 ! A16   A(9,8,13)             129.3675         estimate D2E/DX2                !
 ! A17   A(5,11,12)            122.7198         estimate D2E/DX2                !
 ! A18   A(5,11,13)            115.1786         estimate D2E/DX2                !
 ! A19   A(12,11,13)           122.0969         estimate D2E/DX2                !
 ! A20   A(8,13,11)            123.7923         estimate D2E/DX2                !
 ! A21   A(8,13,14)            117.7918         estimate D2E/DX2                !
 ! A22   A(11,13,14)           118.409          estimate D2E/DX2                !
 ! A23   A(13,14,15)           114.9306         estimate D2E/DX2                !
 ! A24   A(13,14,23)           110.2144         estimate D2E/DX2                !
 ! A25   A(13,14,24)           113.5461         estimate D2E/DX2                !
 ! A26   A(15,14,23)           104.2638         estimate D2E/DX2                !
 ! A27   A(15,14,24)           104.0667         estimate D2E/DX2                !
 ! A28   A(23,14,24)           109.2249         estimate D2E/DX2                !
 ! A29   A(14,15,16)           111.4461         estimate D2E/DX2                !
 ! A30   A(15,16,17)           108.1481         estimate D2E/DX2                !
 ! A31   A(15,16,22)           110.2339         estimate D2E/DX2                !
 ! A32   A(15,16,27)           103.2873         estimate D2E/DX2                !
 ! A33   A(17,16,22)           109.6429         estimate D2E/DX2                !
 ! A34   A(17,16,27)           117.1975         estimate D2E/DX2                !
 ! A35   A(22,16,27)           108.0871         estimate D2E/DX2                !
 ! A36   A(16,17,18)           112.5849         estimate D2E/DX2                !
 ! A37   A(16,17,20)           113.2142         estimate D2E/DX2                !
 ! A38   A(16,17,21)           108.8705         estimate D2E/DX2                !
 ! A39   A(18,17,20)           107.3048         estimate D2E/DX2                !
 ! A40   A(18,17,21)           103.9563         estimate D2E/DX2                !
 ! A41   A(20,17,21)           110.5192         estimate D2E/DX2                !
 ! A42   A(17,18,19)           109.2776         estimate D2E/DX2                !
 ! A43   A(14,24,25)           112.0            estimate D2E/DX2                !
 ! A44   A(14,24,26)           108.3732         estimate D2E/DX2                !
 ! A45   A(14,24,27)           102.8281         estimate D2E/DX2                !
 ! A46   A(25,24,26)           114.6246         estimate D2E/DX2                !
 ! A47   A(25,24,27)           106.9341         estimate D2E/DX2                !
 ! A48   A(26,24,27)           111.4663         estimate D2E/DX2                !
 ! A49   A(16,27,24)           105.538          estimate D2E/DX2                !
 ! A50   A(16,27,28)           109.6769         estimate D2E/DX2                !
 ! A51   A(16,27,29)           116.0174         estimate D2E/DX2                !
 ! A52   A(24,27,28)           108.2789         estimate D2E/DX2                !
 ! A53   A(24,27,29)           109.3967         estimate D2E/DX2                !
 ! A54   A(28,27,29)           107.7125         estimate D2E/DX2                !
 ! A55   A(27,29,30)           118.4921         estimate D2E/DX2                !
 ! A56   L(29,30,31,26,-1)     171.7555         estimate D2E/DX2                !
 ! A57   L(29,30,31,26,-2)     183.7934         estimate D2E/DX2                !
 ! D1    D(2,1,5,6)            165.0652         estimate D2E/DX2                !
 ! D2    D(2,1,5,11)           -12.8778         estimate D2E/DX2                !
 ! D3    D(3,1,5,6)             38.8296         estimate D2E/DX2                !
 ! D4    D(3,1,5,11)          -139.1135         estimate D2E/DX2                !
 ! D5    D(4,1,5,6)            -79.0098         estimate D2E/DX2                !
 ! D6    D(4,1,5,11)           103.0472         estimate D2E/DX2                !
 ! D7    D(1,5,6,7)            177.6932         estimate D2E/DX2                !
 ! D8    D(1,5,6,10)             0.5251         estimate D2E/DX2                !
 ! D9    D(11,5,6,7)            -4.5223         estimate D2E/DX2                !
 ! D10   D(11,5,6,10)          178.3095         estimate D2E/DX2                !
 ! D11   D(1,5,11,12)            2.1258         estimate D2E/DX2                !
 ! D12   D(1,5,11,13)         -177.1025         estimate D2E/DX2                !
 ! D13   D(6,5,11,12)         -175.7088         estimate D2E/DX2                !
 ! D14   D(6,5,11,13)            5.0629         estimate D2E/DX2                !
 ! D15   D(5,6,7,8)              3.2505         estimate D2E/DX2                !
 ! D16   D(10,6,7,8)          -179.4551         estimate D2E/DX2                !
 ! D17   D(6,7,8,9)           -173.8098         estimate D2E/DX2                !
 ! D18   D(6,7,8,13)            -2.7328         estimate D2E/DX2                !
 ! D19   D(7,8,13,11)            2.9565         estimate D2E/DX2                !
 ! D20   D(7,8,13,14)         -176.0688         estimate D2E/DX2                !
 ! D21   D(9,8,13,11)          172.2457         estimate D2E/DX2                !
 ! D22   D(9,8,13,14)           -6.7796         estimate D2E/DX2                !
 ! D23   D(5,11,13,8)           -4.2264         estimate D2E/DX2                !
 ! D24   D(5,11,13,14)         174.7933         estimate D2E/DX2                !
 ! D25   D(12,11,13,8)         176.54           estimate D2E/DX2                !
 ! D26   D(12,11,13,14)         -4.4403         estimate D2E/DX2                !
 ! D27   D(8,13,14,15)        -149.0284         estimate D2E/DX2                !
 ! D28   D(8,13,14,23)         -31.5963         estimate D2E/DX2                !
 ! D29   D(8,13,14,24)          91.3065         estimate D2E/DX2                !
 ! D30   D(11,13,14,15)         31.8925         estimate D2E/DX2                !
 ! D31   D(11,13,14,23)        149.3246         estimate D2E/DX2                !
 ! D32   D(11,13,14,24)        -87.7726         estimate D2E/DX2                !
 ! D33   D(13,14,15,16)       -150.1591         estimate D2E/DX2                !
 ! D34   D(23,14,15,16)         89.0883         estimate D2E/DX2                !
 ! D35   D(24,14,15,16)        -25.3652         estimate D2E/DX2                !
 ! D36   D(13,14,24,25)         46.4905         estimate D2E/DX2                !
 ! D37   D(13,14,24,26)        -80.9347         estimate D2E/DX2                !
 ! D38   D(13,14,24,27)        160.9587         estimate D2E/DX2                !
 ! D39   D(15,14,24,25)        -79.1859         estimate D2E/DX2                !
 ! D40   D(15,14,24,26)        153.3889         estimate D2E/DX2                !
 ! D41   D(15,14,24,27)         35.2823         estimate D2E/DX2                !
 ! D42   D(23,14,24,25)        169.9358         estimate D2E/DX2                !
 ! D43   D(23,14,24,26)         42.5106         estimate D2E/DX2                !
 ! D44   D(23,14,24,27)        -75.5959         estimate D2E/DX2                !
 ! D45   D(14,15,16,17)       -120.063          estimate D2E/DX2                !
 ! D46   D(14,15,16,22)        120.0797         estimate D2E/DX2                !
 ! D47   D(14,15,16,27)          4.8005         estimate D2E/DX2                !
 ! D48   D(15,16,17,18)         61.5404         estimate D2E/DX2                !
 ! D49   D(15,16,17,20)        -60.3934         estimate D2E/DX2                !
 ! D50   D(15,16,17,21)        176.2629         estimate D2E/DX2                !
 ! D51   D(22,16,17,18)       -178.2316         estimate D2E/DX2                !
 ! D52   D(22,16,17,20)         59.8346         estimate D2E/DX2                !
 ! D53   D(22,16,17,21)        -63.5091         estimate D2E/DX2                !
 ! D54   D(27,16,17,18)        -54.5871         estimate D2E/DX2                !
 ! D55   D(27,16,17,20)       -176.5209         estimate D2E/DX2                !
 ! D56   D(27,16,17,21)         60.1354         estimate D2E/DX2                !
 ! D57   D(15,16,27,24)         17.851          estimate D2E/DX2                !
 ! D58   D(15,16,27,28)        134.2843         estimate D2E/DX2                !
 ! D59   D(15,16,27,29)       -103.4335         estimate D2E/DX2                !
 ! D60   D(17,16,27,24)        136.6136         estimate D2E/DX2                !
 ! D61   D(17,16,27,28)       -106.9532         estimate D2E/DX2                !
 ! D62   D(17,16,27,29)         15.329          estimate D2E/DX2                !
 ! D63   D(22,16,27,24)        -98.9548         estimate D2E/DX2                !
 ! D64   D(22,16,27,28)         17.4784         estimate D2E/DX2                !
 ! D65   D(22,16,27,29)        139.7606         estimate D2E/DX2                !
 ! D66   D(16,17,18,19)         54.5046         estimate D2E/DX2                !
 ! D67   D(20,17,18,19)        179.7262         estimate D2E/DX2                !
 ! D68   D(21,17,18,19)        -63.1616         estimate D2E/DX2                !
 ! D69   D(14,24,27,16)        -32.6921         estimate D2E/DX2                !
 ! D70   D(14,24,27,28)       -150.0727         estimate D2E/DX2                !
 ! D71   D(14,24,27,29)         92.7988         estimate D2E/DX2                !
 ! D72   D(25,24,27,16)         85.4033         estimate D2E/DX2                !
 ! D73   D(25,24,27,28)        -31.9773         estimate D2E/DX2                !
 ! D74   D(25,24,27,29)       -149.1058         estimate D2E/DX2                !
 ! D75   D(26,24,27,16)       -148.5991         estimate D2E/DX2                !
 ! D76   D(26,24,27,28)         94.0203         estimate D2E/DX2                !
 ! D77   D(26,24,27,29)        -23.1082         estimate D2E/DX2                !
 ! D78   D(16,27,29,30)       -152.5574         estimate D2E/DX2                !
 ! D79   D(24,27,29,30)         88.2413         estimate D2E/DX2                !
 ! D80   D(28,27,29,30)        -29.2436         estimate D2E/DX2                !
 --------------------------------------------------------------------------------
 Trust Radius=3.00D-01 FncErr=1.00D-07 GrdErr=1.00D-06 EigMax=2.50D+02 EigMin=1.00D-04
 Number of steps in this run=    179 maximum allowed number of steps=    186.
 GradGradGradGradGradGradGradGradGradGradGradGradGradGradGradGradGradGrad

 Leave Link  103 at Sun Jul 18 13:45:02 2021, MaxMem=   104857600 cpu:               0.1 elap:               0.0
 (Enter /prod/apps/gaussian/g16b1/l202.exe)
                          Input orientation:                          
 ---------------------------------------------------------------------
 Center     Atomic      Atomic             Coordinates (Angstroms)
 Number     Number       Type             X           Y           Z
 ---------------------------------------------------------------------
      1          6           0        0.718000    2.080000    3.791000
      2          1           0        1.177000    2.799000    3.109000
      3          1           0        1.313000    1.867000    4.681000
      4          1           0       -0.242000    2.508000    4.085000
      5          6           0        0.427000    0.784000    3.117000
      6          6           0        0.110000   -0.446000    3.969000
      7          7           0       -0.168000   -1.483000    3.165000
      8          6           0       -0.138000   -1.561000    1.841000
      9          8           0       -0.555000   -2.595000    1.446000
     10          8           0        0.054000   -0.504000    5.177000
     11          6           0        0.505000    0.769000    1.766000
     12          1           0        0.797000    1.636000    1.187000
     13          7           0        0.162000   -0.454000    1.160000
     14          6           0        0.109000   -0.517000   -0.314000
     15          8           0        1.055000    0.363000   -1.004000
     16          6           0        0.546000    0.785000   -2.277000
     17          6           0        1.522000    0.308000   -3.365000
     18          8           0        1.647000   -1.129000   -3.406000
     19          1           0        0.763000   -1.526000   -3.503000
     20          1           0        2.529000    0.719000   -3.251000
     21          1           0        1.112000    0.565000   -4.345000
     22          1           0        0.464000    1.874000   -2.309000
     23          1           0        0.375000   -1.526000   -0.661000
     24          6           0       -1.229000   -0.134000   -0.884000
     25          1           0       -1.619000    0.780000   -0.433000
     26          1           0       -1.894000   -0.997000   -0.811000
     27          6           0       -0.905000    0.186000   -2.302000
     28          1           0       -1.610000    0.944000   -2.652000
     29          7           0       -1.095000   -1.030000   -3.139000
     30          7           0       -2.208000   -1.247000   -3.614000
     31          7           0       -3.261000   -1.510000   -3.890000
 ---------------------------------------------------------------------
                    Distance matrix (angstroms):
                    1          2          3          4          5
     1  C    0.000000
     2  H    1.092138   0.000000
     3  H    1.091556   1.832568   0.000000
     4  H    1.091430   1.746659   1.784411   0.000000
     5  C    1.489487   2.150067   2.098566   2.087286   0.000000
     6  C    2.604232   3.522515   2.702614   2.977159   1.529475
     7  N    3.724492   4.488617   3.964104   4.096335   2.344273
     8  C    4.218070   4.727224   4.682113   4.647915   2.728814
     9  O    5.382860   5.904289   5.819286   5.753512   3.895408
    10  O    3.006484   4.055559   2.729970   3.217487   2.457981
    11  C    2.421717   2.525101   3.218026   2.993308   1.353333
    12  H    2.642762   2.278388   3.539442   3.199736   2.141893
    13  N    3.694923   3.925664   4.371417   4.182378   2.330819
    14  C    4.895540   4.883995   5.664194   5.350236   3.683135
    15  O    5.104281   4.781814   5.886239   5.672844   4.189781
    16  C    6.207031   5.784752   7.083274   6.638126   5.395313
    17  C    7.415844   6.945270   8.198309   7.965814   6.591049
    18  O    7.934578   7.622028   8.630593   8.538804   6.906338
    19  H    8.136811   7.911736   8.876531   8.652221   7.019501
    20  H    7.397419   6.826705   8.106367   8.043374   6.706270
    21  H    8.285225   7.781844   9.121638   8.756339   7.496575
    22  H    6.108760   5.542447   7.041374   6.464026   5.534523
    23  H    5.739442   5.793249   6.397598   6.259262   4.428554
    24  C    5.527045   5.507756   6.437002   5.713606   4.426405
    25  H    4.999374   4.943657   5.994263   5.029358   4.097393
    26  H    6.121183   6.261554   6.974913   6.243793   4.897774
    27  C    6.583769   6.359356   7.517152   6.828252   5.612253
    28  H    6.944230   6.663146   7.947877   7.050155   6.120158
    29  N    7.809223   7.672075   8.680062   8.088957   6.689142
    30  N    8.629277   8.545588   9.534226   8.788617   7.508299
    31  N    9.365805   9.340735  10.285312   9.426522   8.243896
                    6          7          8          9         10
     6  C    0.000000
     7  N    1.341294   0.000000
     8  C    2.415184   1.326635   0.000000
     9  O    3.380230   2.083572   1.182823   0.000000
    10  O    1.210687   2.248526   3.504712   4.320130   0.000000
    11  C    2.546656   2.735258   2.418258   3.541539   3.668631
    12  H    3.542064   3.817312   3.394518   4.449308   4.588218
    13  N    2.809493   2.277667   1.333870   2.275910   4.018763
    14  C    4.283589   3.621233   2.407274   2.802959   5.491291
    15  O    5.126230   4.720594   3.635801   4.164657   6.321270
    16  C    6.381064   5.938770   4.788475   5.147556   7.580613
    17  C    7.506651   6.978874   5.775050   5.990581   8.705178
    18  O    7.564356   6.826242   5.559124   5.526288   8.751923
    19  H    7.577836   6.732818   5.419535   5.231872   8.768670
    20  H    7.703063   7.299840   6.183830   6.523455   8.868627
    21  H    8.434970   7.888777   6.659502   6.804423   9.640052
    22  H    6.702313   6.452406   5.420713   5.925398   7.865315
    23  H    4.761673   3.864579   2.554290   2.539116   5.935467
    24  C    5.043994   4.397718   3.263776   3.455387   6.206344
    25  H    4.885706   4.491344   3.583953   4.006665   5.993303
    26  H    5.212295   4.361634   3.230284   3.072552   6.316162
    27  C    6.383971   5.763403   4.561222   4.680167   7.571738
    28  H    6.980554   6.465847   5.350594   5.516444   8.133809
    29  N    7.233032   6.387876   5.098844   4.874736   8.411464
    30  N    7.969731   7.083229   5.842989   5.491185   9.107710
    31  N    8.617402   7.703272   6.526875   6.080506   9.706274
                   11         12         13         14         15
    11  C    0.000000
    12  H    1.082679   0.000000
    13  N    1.407343   2.184503   0.000000
    14  C    2.477299   2.713255   1.476297   0.000000
    15  O    2.853110   2.547072   2.479483   1.464724   0.000000
    16  C    4.043240   3.575821   3.673628   2.395734   1.434466
    17  C    5.251092   4.796865   4.786008   3.462051   2.407371
    18  O    5.626380   5.428018   4.848629   3.507200   2.888967
    19  H    5.752908   5.656456   4.822235   3.408155   3.146202
    20  H    5.410117   4.851449   5.141550   4.001258   2.710797
    21  H    6.144460   5.643518   5.678546   4.292516   3.347586
    22  H    4.222361   3.519879   4.188645   3.134156   2.082169
    23  H    3.342791   3.686656   2.123816   1.099657   2.036755
    24  C    3.293124   3.395087   2.493034   1.503939   2.340527
    25  H    3.057302   3.032193   2.689306   2.163875   2.765901
    26  H    3.938894   4.262179   2.899453   2.118825   3.253221
    27  C    4.344722   4.143962   3.678795   2.339775   2.357484
    28  H    4.901283   4.583714   4.430094   3.248958   3.186799
    29  N    5.464012   5.422315   4.515886   3.113424   3.334842
    30  N    6.353662   6.355416   5.388583   4.097730   4.477876
    31  N    7.167073   7.220845   6.191491   5.013055   5.519509
                   16         17         18         19         20
    16  C    0.000000
    17  C    1.537481   0.000000
    18  O    2.479967   1.443009   0.000000
    19  H    2.625050   1.989643   0.973896   0.000000
    20  H    2.210276   1.093602   2.053546   2.867453   0.000000
    21  H    2.155314   1.092954   2.009374   2.281019   1.796786
    22  H    1.092552   2.164915   3.408945   3.615942   2.546687
    23  H    2.825140   3.462771   3.051331   2.868363   4.048190
    24  C    2.436316   3.730781   3.952453   3.572798   4.522484
    25  H    2.843868   4.322648   4.811420   4.518458   5.015052
    26  H    3.358315   4.460381   4.392053   3.819209   5.334903
    27  C    1.569977   2.652392   3.075832   2.674990   3.602367
    28  H    2.194138   3.274491   3.933687   3.529338   4.188167
    29  N    2.594253   2.947882   2.756747   1.957211   4.025534
    30  N    3.674386   4.048818   3.862410   2.986135   5.141604
    31  N    4.728852   5.143718   4.946502   4.042598   6.237056
                   21         22         23         24         25
    21  H    0.000000
    22  H    2.505730   0.000000
    23  H    4.299687   3.779395   0.000000
    24  C    4.236438   2.988133   2.135465   0.000000
    25  H    4.775807   3.009169   3.057067   1.091282   0.000000
    26  H    4.895410   4.005847   2.334674   1.091935   1.837454
    27  C    2.895821   2.173374   2.694852   1.489329   2.087054
    28  H    3.227875   2.298701   3.742353   2.105485   2.225070
    29  N    2.978139   3.398911   2.923594   2.430185   3.297440
    30  N    3.852286   4.310829   3.933184   3.106463   3.817645
    31  N    4.861664   5.275096   4.862838   3.880520   4.459945
                   26         27         28         29         30
    26  H    0.000000
    27  C    2.144922   0.000000
    28  H    2.690245   1.092744   0.000000
    29  N    2.461519   1.488397   2.097396   0.000000
    30  N    2.831591   2.339368   2.466481   1.229424   0.000000
    31  N    3.407653   3.308912   3.206331   2.342212   1.119890
                   31
    31  N    0.000000
 Stoichiometry    C10H12N5O4(1-)
 Framework group  C1[X(C10H12N5O4)]
 Deg. of freedom    87
 Full point group                 C1      NOp   1
 Largest Abelian subgroup         C1      NOp   1
 Largest concise Abelian subgroup C1      NOp   1
                         Standard orientation:                         
 ---------------------------------------------------------------------
 Center     Atomic      Atomic             Coordinates (Angstroms)
 Number     Number       Type             X           Y           Z
 ---------------------------------------------------------------------
      1          6           0       -4.065973    1.655574   -1.274843
      2          1           0       -3.514896    2.576912   -1.475385
      3          1           0       -4.999536    1.804157   -0.729062
      4          1           0       -4.276747    1.208003   -2.247712
      5          6           0       -3.245177    0.672831   -0.513868
      6          6           0       -3.934978   -0.517662    0.154110
      7          7           0       -3.011086   -1.296029    0.736895
      8          6           0       -1.699473   -1.124436    0.837819
      9          8           0       -1.162748   -2.063577    1.316369
     10          8           0       -5.116290   -0.782182    0.136937
     11          6           0       -1.918608    0.925747   -0.425789
     12          1           0       -1.462175    1.811010   -0.850257
     13          7           0       -1.165249   -0.055533    0.245146
     14          6           0        0.303481    0.089345    0.281149
     15          8           0        0.787366    1.471761    0.295190
     16          6           0        2.069540    1.585100   -0.337959
     17          6           0        3.067337    2.132638    0.695702
     18          8           0        3.224077    1.257487    1.832284
     19          1           0        3.465835    0.366792    1.521334
     20          1           0        2.792258    3.118847    1.080005
     21          1           0        4.062870    2.160920    0.245521
     22          1           0        2.011498    2.267145   -1.189496
     23          1           0        0.705865   -0.347971    1.206400
     24          6           0        0.997343   -0.528815   -0.901335
     25          1           0        0.516274   -0.261022   -1.843543
     26          1           0        1.086713   -1.602744   -0.725232
     27          6           0        2.328926    0.138150   -0.889211
     28          1           0        2.692614    0.196072   -1.918028
     29          7           0        3.290927   -0.692757   -0.114954
     30          7           0        3.918043   -1.568938   -0.706997
     31          7           0        4.345319   -2.463440   -1.228010
 ---------------------------------------------------------------------
 Rotational constants (GHZ):           0.7401777           0.1992383           0.1796238
 Leave Link  202 at Sun Jul 18 13:45:02 2021, MaxMem=   104857600 cpu:               0.1 elap:               0.0
 (Enter /prod/apps/gaussian/g16b1/l301.exe)
 Standard basis: 6-31G(d) (6D, 7F)
 Ernie: Thresh=  0.10000D-02 Tol=  0.10000D-05 Strict=F.
 There are   309 symmetry adapted cartesian basis functions of A   symmetry.
 There are   309 symmetry adapted basis functions of A   symmetry.
   309 basis functions,   580 primitive gaussians,   309 cartesian basis functions
    70 alpha electrons       70 beta electrons
       nuclear repulsion energy      1455.2195626139 Hartrees.
 IExCor=  402 DFT=T Ex+Corr=B3LYP ExCW=0 ScaHFX=  0.200000
 ScaDFX=  0.800000  0.720000  1.000000  0.810000 ScalE2=  1.000000  1.000000
 IRadAn=      5 IRanWt=     -1 IRanGd=            0 ICorTp=0 IEmpDi=  4
 NAtoms=   31 NActive=   31 NUniq=   31 SFac= 1.00D+00 NAtFMM=   60 NAOKFM=F Big=F
 Integral buffers will be    131072 words long.
 Raffenetti 2 integral format.
 Two-electron integral symmetry is turned on.
 Using the following non-standard input for PCM:
 MSTModel=DFT cav MSTCharged
 --- end of non-standard input.
 MST model for solvation energy: B3LYP parametrization.
 MST cavity parameters:
 ISph   IAn     Re0     Alpha   Atom Type   QCorr
 ------------------------------------------------
   1      6     1.50     1.25      CH3        F
   2      1     1.20     1.25      CH3        F
   3      1     1.20     1.25      CH3        F
   4      1     1.20     1.25      CH3        F
   5      6     1.50     1.25      C          F
   6      6     1.50     1.25      C          F
   7      7     1.40     1.15      N          T
   8      6     1.50     1.25      C          F
   9      8     1.40     1.25      O          F
  10      8     1.40     1.25      O          F
  11      6     1.50     1.25      CH         F
  12      1     1.20     1.25      CH         F
  13      7     1.40     1.25      N          F
  14      6     1.50     1.25      CH         F
  15      8     1.40     1.25      O          F
  16      6     1.50     1.25      CH         F
  17      6     1.50     1.25      CH2        F
  18      8     1.45     1.25      OH         F
  19      1     0.90     1.25      OH         F
  20      1     1.20     1.25      CH2        F
  21      1     1.20     1.25      CH2        F
  22      1     1.20     1.25      CH         F
  23      1     1.20     1.25      CH         F
  24      6     1.50     1.25      CH2        F
  25      1     1.20     1.25      CH2        F
  26      1     1.20     1.25      CH2        F
  27      6     1.50     1.25      CH         F
  28      1     1.20     1.25      CH         F
  29      7     1.40     1.25      N          F
  30      7     1.40     1.25      N          F
  31      7     1.40     1.25      N          F
 ------------------------------------------------------------------------------
 Polarizable Continuum Model (PCM)
 =================================
 Model                : PCM.
 Atomic radii         : MST.
 Polarization charges : Total charges.
 Charge compensation  : None.
 Solution method      : On-the-fly selection.
 Cavity type          : Scaled VdW (van der Waals Surface) (Alpha=1.250).
 Cavity algorithm     : GePol (No added spheres)
                        Default sphere list used, NSphG=   31.
                        Lebedev-Laikov grids with approx.  5.0 points / Ang**2.
                        Smoothing algorithm: York/Karplus (Gamma=1.0000).
                        Polarization charges: spherical gaussians, with
                                              point-specific exponents (IZeta= 3).
                        Self-potential: point-specific (ISelfS= 7).
                        Self-field    : sphere-specific E.n sum rule (ISelfD= 2).
 1st derivatives      : Analytical E(r).r(x)/FMM algorithm (CHGder, D1EAlg=3).
                        Cavity 1st derivative terms included.
 Solvent              : Water, Eps=  78.355300 Eps(inf)=   1.777849
 ------------------------------------------------------------------------------
 GePol: Number of generator spheres                  =      31
 GePol: Total number of spheres                      =      31
 GePol: Number of exposed spheres                    =      31 (100.00%)
 GePol: Number of points                             =    2216
 GePol: Average weight of points                     =       0.14
 GePol: Minimum weight of points                     =   0.98D-10
 GePol: Maximum weight of points                     =    0.22001
 GePol: Number of points with low weight             =     147
 GePol: Fraction of low-weight points (<1% of avg)   =       6.63%
 GePol: Cavity surface area                          =    305.163 Ang**2
 GePol: Cavity volume                                =    285.800 Ang**3
 PCM non-electrostatic energy =         0.0052832609 Hartrees.
 Nuclear repulsion after PCM non-electrostatic terms =     1455.2248458748 Hartrees.
 Leave Link  301 at Sun Jul 18 13:45:02 2021, MaxMem=   104857600 cpu:               0.4 elap:               0.1
 (Enter /prod/apps/gaussian/g16b1/l302.exe)
 NPDir=0 NMtPBC=     1 NCelOv=     1 NCel=       1 NClECP=     1 NCelD=      1
         NCelK=      1 NCelE2=     1 NClLst=     1 CellRange=     0.0.
 One-electron integrals computed using PRISM.
 One-electron integral symmetry used in STVInt
 NBasis=   309 RedAO= T EigKep=  1.13D-03  NBF=   309
 NBsUse=   309 1.00D-06 EigRej= -1.00D+00 NBFU=   309
 Precomputing XC quadrature grid using
 IXCGrd= 4 IRadAn=           5 IRanWt=          -1 IRanGd=           0 AccXCQ= 0.00D+00.
 Generated NRdTot=       0 NPtTot=           0 NUsed=           0 NTot=          32
 NSgBfM=   306   306   306   306   306 MxSgAt=    31 MxSgA2=    31.
 Leave Link  302 at Sun Jul 18 13:45:02 2021, MaxMem=   104857600 cpu:               1.8 elap:               0.5
 (Enter /prod/apps/gaussian/g16b1/l303.exe)
 DipDrv:  MaxL=1.
 Leave Link  303 at Sun Jul 18 13:45:02 2021, MaxMem=   104857600 cpu:               0.2 elap:               0.1
 (Enter /prod/apps/gaussian/g16b1/l401.exe)
 ExpMin= 1.61D-01 ExpMax= 5.48D+03 ExpMxC= 8.25D+02 IAcc=3 IRadAn=         5 AccDes= 0.00D+00
 Harris functional with IExCor=  402 and IRadAn=       5 diagonalized for initial guess.
 HarFok:  IExCor=  402 AccDes= 0.00D+00 IRadAn=         5 IDoV= 1 UseB2=F ITyADJ=14
 ICtDFT=  3500011 ScaDFX=  1.000000  1.000000  1.000000  1.000000
 FoFCou: FMM=F IPFlag=           0 FMFlag=      100000 FMFlg1=           0
         NFxFlg=           0 DoJE=T BraDBF=F KetDBF=T FulRan=T
         wScrn=  0.000000 ICntrl=       500 IOpCl=  0 I1Cent=   200000004 NGrid=           0
         NMat0=    1 NMatS0=      1 NMatT0=    0 NMatD0=    1 NMtDS0=    0 NMtDT0=    0
 Petite list used in FoFCou.
 Harris En= -963.002622428717    
 JPrj=0 DoOrth=F DoCkMO=F.
 Leave Link  401 at Sun Jul 18 13:45:04 2021, MaxMem=   104857600 cpu:               7.8 elap:               2.0
 (Enter /prod/apps/gaussian/g16b1/l502.exe)
 Integral symmetry usage will be decided dynamically.
 Closed shell SCF:
 Using DIIS extrapolation, IDIIS=  1040.
 NGot=   104857600 LenX=   104661394 LenY=   104565472
 Requested convergence on RMS density matrix=1.00D-08 within 128 cycles.
 Requested convergence on MAX density matrix=1.00D-06.
 Requested convergence on             energy=1.00D-06.
 No special actions if energy rises.
 Fock matrices will be formed incrementally for  20 cycles.

 Cycle   1  Pass 1  IDiag  1:
 FoFJK:  IHMeth= 1 ICntrl=       0 DoSepK=F KAlg= 0 I1Cent=           0 FoldK=F
 IRaf= 790000000 NMat=       1 IRICut=       1 DoRegI=T DoRafI=F ISym2E= 0 IDoP0=0 IntGTp=1.
 FoFCou: FMM=F IPFlag=           0 FMFlag=      100000 FMFlg1=           0
         NFxFlg=           0 DoJE=F BraDBF=F KetDBF=F FulRan=T
         wScrn=  0.000000 ICntrl=         0 IOpCl=  0 I1Cent=           0 NGrid=           0
         NMat0=    1 NMatS0=      1 NMatT0=    0 NMatD0=    1 NMtDS0=    0 NMtDT0=    0
 Symmetry not used in FoFCou.
 Inv3:  Mode=1 IEnd=    14731968.
 Iteration    1 A*A^-1 deviation from unit magnitude is 3.66D-15 for   1916.
 Iteration    1 A*A^-1 deviation from orthogonality  is 2.01D-15 for   1696     37.
 Iteration    1 A^-1*A deviation from unit magnitude is 4.22D-15 for    742.
 Iteration    1 A^-1*A deviation from orthogonality  is 2.85D-15 for   1925   1739.
 E= -962.479884049803    
 DIIS: error= 3.04D-02 at cycle   1 NSaved=   1.
 NSaved= 1 IEnMin= 1 EnMin= -962.479884049803     IErMin= 1 ErrMin= 3.04D-02
 ErrMax= 3.04D-02  0.00D+00 EMaxC= 1.00D-01 BMatC= 5.80D-01 BMatP= 5.80D-01
 IDIUse=3 WtCom= 6.96D-01 WtEn= 3.04D-01
 Coeff-Com:  0.100D+01
 Coeff-En:   0.100D+01
 Coeff:      0.100D+01
 Gap=     0.291 Goal=   None    Shift=    0.000
 GapD=    0.291 DampG=1.000 DampE=0.500 DampFc=0.5000 IDamp=-1.
 Damping current iteration by 5.00D-01
 RMSDP=5.93D-03 MaxDP=2.40D-01              OVMax= 2.65D-01

 Cycle   2  Pass 1  IDiag  1:
 RMSU=  2.96D-03    CP:  9.88D-01
 E= -962.651307663763     Delta-E=       -0.171423613960 Rises=F Damp=T
 DIIS: error= 7.63D-03 at cycle   2 NSaved=   2.
 NSaved= 2 IEnMin= 2 EnMin= -962.651307663763     IErMin= 2 ErrMin= 7.63D-03
 ErrMax= 7.63D-03  0.00D+00 EMaxC= 1.00D-01 BMatC= 6.09D-02 BMatP= 5.80D-01
 IDIUse=3 WtCom= 9.24D-01 WtEn= 7.63D-02
 Coeff-Com:  0.165D+00 0.835D+00
 Coeff-En:   0.259D+00 0.741D+00
 Coeff:      0.172D+00 0.828D+00
 Gap=     0.168 Goal=   None    Shift=    0.000
 RMSDP=1.54D-03 MaxDP=1.06D-01 DE=-1.71D-01 OVMax= 1.95D-01

 Cycle   3  Pass 1  IDiag  1:
 RMSU=  1.39D-03    CP:  9.79D-01  7.85D-01
 E= -962.928167645130     Delta-E=       -0.276859981367 Rises=F Damp=F
 DIIS: error= 8.51D-03 at cycle   3 NSaved=   3.
 NSaved= 3 IEnMin= 3 EnMin= -962.928167645130     IErMin= 2 ErrMin= 7.63D-03
 ErrMax= 8.51D-03  0.00D+00 EMaxC= 1.00D-01 BMatC= 3.84D-02 BMatP= 6.09D-02
 IDIUse=3 WtCom= 9.15D-01 WtEn= 8.51D-02
 Coeff-Com:  0.335D-01 0.438D+00 0.528D+00
 Coeff-En:   0.000D+00 0.000D+00 0.100D+01
 Coeff:      0.306D-01 0.401D+00 0.568D+00
 Gap=     0.175 Goal=   None    Shift=    0.000
 RMSDP=8.89D-04 MaxDP=4.40D-02 DE=-2.77D-01 OVMax= 6.49D-02

 Cycle   4  Pass 1  IDiag  1:
 RMSU=  5.56D-04    CP:  9.83D-01  8.60D-01  5.32D-01
 E= -962.955313087201     Delta-E=       -0.027145442070 Rises=F Damp=F
 DIIS: error= 3.54D-03 at cycle   4 NSaved=   4.
 NSaved= 4 IEnMin= 4 EnMin= -962.955313087201     IErMin= 4 ErrMin= 3.54D-03
 ErrMax= 3.54D-03  0.00D+00 EMaxC= 1.00D-01 BMatC= 7.81D-03 BMatP= 3.84D-02
 IDIUse=3 WtCom= 9.65D-01 WtEn= 3.54D-02
 Coeff-Com:  0.240D-02 0.101D+00 0.329D+00 0.568D+00
 Coeff-En:   0.000D+00 0.000D+00 0.170D+00 0.830D+00
 Coeff:      0.232D-02 0.972D-01 0.324D+00 0.577D+00
 Gap=     0.169 Goal=   None    Shift=    0.000
 RMSDP=3.19D-04 MaxDP=1.85D-02 DE=-2.71D-02 OVMax= 2.94D-02

 Cycle   5  Pass 1  IDiag  1:
 RMSU=  1.57D-04    CP:  9.82D-01  8.30D-01  6.56D-01  6.44D-01
 E= -962.961236396900     Delta-E=       -0.005923309699 Rises=F Damp=F
 DIIS: error= 7.21D-04 at cycle   5 NSaved=   5.
 NSaved= 5 IEnMin= 5 EnMin= -962.961236396900     IErMin= 5 ErrMin= 7.21D-04
 ErrMax= 7.21D-04  0.00D+00 EMaxC= 1.00D-01 BMatC= 6.14D-04 BMatP= 7.81D-03
 IDIUse=3 WtCom= 9.93D-01 WtEn= 7.21D-03
 Coeff-Com: -0.908D-03 0.132D-01 0.128D+00 0.318D+00 0.541D+00
 Coeff-En:   0.000D+00 0.000D+00 0.000D+00 0.000D+00 0.100D+01
 Coeff:     -0.902D-03 0.131D-01 0.127D+00 0.316D+00 0.544D+00
 Gap=     0.168 Goal=   None    Shift=    0.000
 RMSDP=8.74D-05 MaxDP=4.63D-03 DE=-5.92D-03 OVMax= 8.78D-03

 Cycle   6  Pass 1  IDiag  1:
 RMSU=  4.16D-05    CP:  9.82D-01  8.34D-01  6.54D-01  6.92D-01  5.49D-01
 E= -962.961706961769     Delta-E=       -0.000470564869 Rises=F Damp=F
 DIIS: error= 2.09D-04 at cycle   6 NSaved=   6.
 NSaved= 6 IEnMin= 6 EnMin= -962.961706961769     IErMin= 6 ErrMin= 2.09D-04
 ErrMax= 2.09D-04  0.00D+00 EMaxC= 1.00D-01 BMatC= 4.66D-05 BMatP= 6.14D-04
 IDIUse=3 WtCom= 9.98D-01 WtEn= 2.09D-03
 Coeff-Com: -0.622D-03 0.741D-03 0.471D-01 0.130D+00 0.300D+00 0.522D+00
 Coeff-En:   0.000D+00 0.000D+00 0.000D+00 0.000D+00 0.000D+00 0.100D+01
 Coeff:     -0.620D-03 0.740D-03 0.470D-01 0.130D+00 0.300D+00 0.523D+00
 Gap=     0.168 Goal=   None    Shift=    0.000
 RMSDP=2.14D-05 MaxDP=1.11D-03 DE=-4.71D-04 OVMax= 1.72D-03

 Cycle   7  Pass 1  IDiag  1:
 RMSU=  1.21D-05    CP:  9.82D-01  8.34D-01  6.57D-01  6.88D-01  5.96D-01
                    CP:  6.28D-01
 E= -962.961743024549     Delta-E=       -0.000036062780 Rises=F Damp=F
 DIIS: error= 5.87D-05 at cycle   7 NSaved=   7.
 NSaved= 7 IEnMin= 7 EnMin= -962.961743024549     IErMin= 7 ErrMin= 5.87D-05
 ErrMax= 5.87D-05  0.00D+00 EMaxC= 1.00D-01 BMatC= 2.95D-06 BMatP= 4.66D-05
 IDIUse=1 WtCom= 1.00D+00 WtEn= 0.00D+00
 Coeff-Com: -0.283D-03-0.774D-03 0.136D-01 0.400D-01 0.113D+00 0.272D+00
 Coeff-Com:  0.562D+00
 Coeff:     -0.283D-03-0.774D-03 0.136D-01 0.400D-01 0.113D+00 0.272D+00
 Coeff:      0.562D+00
 Gap=     0.168 Goal=   None    Shift=    0.000
 RMSDP=5.53D-06 MaxDP=2.45D-04 DE=-3.61D-05 OVMax= 3.43D-04

 Cycle   8  Pass 1  IDiag  1:
 RMSU=  4.04D-06    CP:  9.82D-01  8.34D-01  6.56D-01  6.90D-01  6.00D-01
                    CP:  6.54D-01  7.27D-01
 E= -962.961744993502     Delta-E=       -0.000001968952 Rises=F Damp=F
 DIIS: error= 2.82D-05 at cycle   8 NSaved=   8.
 NSaved= 8 IEnMin= 8 EnMin= -962.961744993502     IErMin= 8 ErrMin= 2.82D-05
 ErrMax= 2.82D-05  0.00D+00 EMaxC= 1.00D-01 BMatC= 4.36D-07 BMatP= 2.95D-06
 IDIUse=1 WtCom= 1.00D+00 WtEn= 0.00D+00
 Coeff-Com: -0.108D-03-0.467D-03 0.390D-02 0.117D-01 0.417D-01 0.116D+00
 Coeff-Com:  0.334D+00 0.493D+00
 Coeff:     -0.108D-03-0.467D-03 0.390D-02 0.117D-01 0.417D-01 0.116D+00
 Coeff:      0.334D+00 0.493D+00
 Gap=     0.168 Goal=   None    Shift=    0.000
 RMSDP=2.33D-06 MaxDP=1.20D-04 DE=-1.97D-06 OVMax= 1.93D-04

 Cycle   9  Pass 1  IDiag  1:
 RMSU=  1.68D-06    CP:  9.82D-01  8.34D-01  6.57D-01  6.90D-01  6.01D-01
                    CP:  6.62D-01  7.52D-01  6.35D-01
 E= -962.961745276415     Delta-E=       -0.000000282913 Rises=F Damp=F
 DIIS: error= 1.51D-05 at cycle   9 NSaved=   9.
 NSaved= 9 IEnMin= 9 EnMin= -962.961745276415     IErMin= 9 ErrMin= 1.51D-05
 ErrMax= 1.51D-05  0.00D+00 EMaxC= 1.00D-01 BMatC= 8.50D-08 BMatP= 4.36D-07
 IDIUse=1 WtCom= 1.00D+00 WtEn= 0.00D+00
 Coeff-Com: -0.242D-04-0.187D-03 0.434D-03 0.118D-02 0.981D-02 0.325D-01
 Coeff-Com:  0.126D+00 0.324D+00 0.506D+00
 Coeff:     -0.242D-04-0.187D-03 0.434D-03 0.118D-02 0.981D-02 0.325D-01
 Coeff:      0.126D+00 0.324D+00 0.506D+00
 Gap=     0.168 Goal=   None    Shift=    0.000
 RMSDP=1.10D-06 MaxDP=7.20D-05 DE=-2.83D-07 OVMax= 1.62D-04

 Cycle  10  Pass 1  IDiag  1:
 RMSU=  8.22D-07    CP:  9.82D-01  8.34D-01  6.57D-01  6.90D-01  6.02D-01
                    CP:  6.64D-01  7.62D-01  7.02D-01  6.20D-01
 E= -962.961745330500     Delta-E=       -0.000000054086 Rises=F Damp=F
 DIIS: error= 8.74D-06 at cycle  10 NSaved=  10.
 NSaved=10 IEnMin=10 EnMin= -962.961745330500     IErMin=10 ErrMin= 8.74D-06
 ErrMax= 8.74D-06  0.00D+00 EMaxC= 1.00D-01 BMatC= 2.50D-08 BMatP= 8.50D-08
 IDIUse=1 WtCom= 1.00D+00 WtEn= 0.00D+00
 Coeff-Com:  0.238D-06-0.368D-04-0.368D-03-0.135D-02-0.511D-03 0.131D-02
 Coeff-Com:  0.258D-01 0.140D+00 0.384D+00 0.451D+00
 Coeff:      0.238D-06-0.368D-04-0.368D-03-0.135D-02-0.511D-03 0.131D-02
 Coeff:      0.258D-01 0.140D+00 0.384D+00 0.451D+00
 Gap=     0.168 Goal=   None    Shift=    0.000
 RMSDP=4.72D-07 MaxDP=2.40D-05 DE=-5.41D-08 OVMax= 5.23D-05

 Cycle  11  Pass 1  IDiag  1:
 RMSU=  2.24D-07    CP:  9.82D-01  8.34D-01  6.57D-01  6.90D-01  6.02D-01
                    CP:  6.64D-01  7.67D-01  7.19D-01  7.20D-01  5.56D-01
 E= -962.961745352079     Delta-E=       -0.000000021579 Rises=F Damp=F
 DIIS: error= 7.15D-07 at cycle  11 NSaved=  11.
 NSaved=11 IEnMin=11 EnMin= -962.961745352079     IErMin=11 ErrMin= 7.15D-07
 ErrMax= 7.15D-07  0.00D+00 EMaxC= 1.00D-01 BMatC= 5.84D-10 BMatP= 2.50D-08
 IDIUse=1 WtCom= 1.00D+00 WtEn= 0.00D+00
 Coeff-Com:  0.224D-05-0.435D-05-0.199D-03-0.735D-03-0.974D-03-0.210D-02
 Coeff-Com:  0.340D-03 0.367D-01 0.134D+00 0.202D+00 0.630D+00
 Coeff:      0.224D-05-0.435D-05-0.199D-03-0.735D-03-0.974D-03-0.210D-02
 Coeff:      0.340D-03 0.367D-01 0.134D+00 0.202D+00 0.630D+00
 Gap=     0.168 Goal=   None    Shift=    0.000
 RMSDP=1.06D-07 MaxDP=4.85D-06 DE=-2.16D-08 OVMax= 9.11D-06

 Cycle  12  Pass 1  IDiag  1:
 RMSU=  7.60D-08    CP:  9.82D-01  8.34D-01  6.57D-01  6.90D-01  6.02D-01
                    CP:  6.64D-01  7.69D-01  7.21D-01  7.35D-01  5.97D-01
                    CP:  7.70D-01
 E= -962.961745352501     Delta-E=       -0.000000000422 Rises=F Damp=F
 DIIS: error= 5.47D-07 at cycle  12 NSaved=  12.
 NSaved=12 IEnMin=12 EnMin= -962.961745352501     IErMin=12 ErrMin= 5.47D-07
 ErrMax= 5.47D-07  0.00D+00 EMaxC= 1.00D-01 BMatC= 1.57D-10 BMatP= 5.84D-10
 IDIUse=1 WtCom= 1.00D+00 WtEn= 0.00D+00
 Coeff-Com:  0.156D-05 0.327D-05-0.813D-04-0.306D-03-0.614D-03-0.169D-02
 Coeff-Com: -0.404D-02 0.252D-02 0.282D-01 0.583D-01 0.383D+00 0.534D+00
 Coeff:      0.156D-05 0.327D-05-0.813D-04-0.306D-03-0.614D-03-0.169D-02
 Coeff:     -0.404D-02 0.252D-02 0.282D-01 0.583D-01 0.383D+00 0.534D+00
 Gap=     0.168 Goal=   None    Shift=    0.000
 RMSDP=4.57D-08 MaxDP=2.11D-06 DE=-4.22D-10 OVMax= 3.40D-06

 Cycle  13  Pass 1  IDiag  1:
 RMSU=  2.32D-08    CP:  9.82D-01  8.34D-01  6.57D-01  6.90D-01  6.02D-01
                    CP:  6.64D-01  7.69D-01  7.24D-01  7.39D-01  6.05D-01
                    CP:  8.50D-01  6.54D-01
 E= -962.961745352629     Delta-E=       -0.000000000128 Rises=F Damp=F
 DIIS: error= 8.55D-08 at cycle  13 NSaved=  13.
 NSaved=13 IEnMin=13 EnMin= -962.961745352629     IErMin=13 ErrMin= 8.55D-08
 ErrMax= 8.55D-08  0.00D+00 EMaxC= 1.00D-01 BMatC= 7.98D-12 BMatP= 1.57D-10
 IDIUse=1 WtCom= 1.00D+00 WtEn= 0.00D+00
 Coeff-Com:  0.473D-06 0.162D-05-0.112D-04-0.557D-04-0.136D-03-0.466D-03
 Coeff-Com: -0.165D-02-0.186D-02 0.100D-02 0.673D-02 0.112D+00 0.235D+00
 Coeff-Com:  0.649D+00
 Coeff:      0.473D-06 0.162D-05-0.112D-04-0.557D-04-0.136D-03-0.466D-03
 Coeff:     -0.165D-02-0.186D-02 0.100D-02 0.673D-02 0.112D+00 0.235D+00
 Coeff:      0.649D+00
 Gap=     0.168 Goal=   None    Shift=    0.000
 RMSDP=1.23D-08 MaxDP=5.74D-07 DE=-1.28D-10 OVMax= 9.35D-07

 Cycle  14  Pass 1  IDiag  1:
 RMSU=  9.00D-09    CP:  9.82D-01  8.34D-01  6.57D-01  6.90D-01  6.03D-01
                    CP:  6.64D-01  7.69D-01  7.24D-01  7.41D-01  6.06D-01
                    CP:  8.60D-01  7.23D-01  8.36D-01
 E= -962.961745352635     Delta-E=       -0.000000000006 Rises=F Damp=F
 DIIS: error= 4.84D-08 at cycle  14 NSaved=  14.
 NSaved=14 IEnMin=14 EnMin= -962.961745352635     IErMin=14 ErrMin= 4.84D-08
 ErrMax= 4.84D-08  0.00D+00 EMaxC= 1.00D-01 BMatC= 2.14D-12 BMatP= 7.98D-12
 IDIUse=1 WtCom= 1.00D+00 WtEn= 0.00D+00
 Coeff-Com:  0.940D-07 0.318D-06 0.521D-05 0.117D-04 0.610D-05-0.381D-04
 Coeff-Com: -0.440D-03-0.177D-02-0.433D-02-0.615D-02 0.570D-02 0.529D-01
 Coeff-Com:  0.381D+00 0.573D+00
 Coeff:      0.940D-07 0.318D-06 0.521D-05 0.117D-04 0.610D-05-0.381D-04
 Coeff:     -0.440D-03-0.177D-02-0.433D-02-0.615D-02 0.570D-02 0.529D-01
 Coeff:      0.381D+00 0.573D+00
 Gap=     0.168 Goal=   None    Shift=    0.000
 RMSDP=4.97D-09 MaxDP=2.76D-07 DE=-5.91D-12 OVMax= 3.33D-07

 Error on total polarization charges =  0.02066
 SCF Done:  E(RB3LYP) =  -962.961745353     A.U. after   14 cycles
            NFock= 14  Conv=0.50D-08     -V/T= 2.0082
 KE= 9.551672798241D+02 PE=-5.177650498076D+03 EE= 1.804296627024D+03
 Leave Link  502 at Sun Jul 18 13:46:06 2021, MaxMem=   104857600 cpu:             246.4 elap:              61.7
 (Enter /prod/apps/gaussian/g16b1/l601.exe)
 Copying SCF densities to generalized density rwf, IOpCl= 0 IROHF=0.

 **********************************************************************

            Population analysis using the SCF Density.

 **********************************************************************

 Orbital symmetries:
       Occupied  (A) (A) (A) (A) (A) (A) (A) (A) (A) (A) (A) (A)
                 (A) (A) (A) (A) (A) (A) (A) (A) (A) (A) (A) (A)
                 (A) (A) (A) (A) (A) (A) (A) (A) (A) (A) (A) (A)
                 (A) (A) (A) (A) (A) (A) (A) (A) (A) (A) (A) (A)
                 (A) (A) (A) (A) (A) (A) (A) (A) (A) (A) (A) (A)
                 (A) (A) (A) (A) (A) (A) (A) (A) (A) (A)
       Virtual   (A) (A) (A) (A) (A) (A) (A) (A) (A) (A) (A) (A)
                 (A) (A) (A) (A) (A) (A) (A) (A) (A) (A) (A) (A)
                 (A) (A) (A) (A) (A) (A) (A) (A) (A) (A) (A) (A)
                 (A) (A) (A) (A) (A) (A) (A) (A) (A) (A) (A) (A)
                 (A) (A) (A) (A) (A) (A) (A) (A) (A) (A) (A) (A)
                 (A) (A) (A) (A) (A) (A) (A) (A) (A) (A) (A) (A)
                 (A) (A) (A) (A) (A) (A) (A) (A) (A) (A) (A) (A)
                 (A) (A) (A) (A) (A) (A) (A) (A) (A) (A) (A) (A)
                 (A) (A) (A) (A) (A) (A) (A) (A) (A) (A) (A) (A)
                 (A) (A) (A) (A) (A) (A) (A) (A) (A) (A) (A) (A)
                 (A) (A) (A) (A) (A) (A) (A) (A) (A) (A) (A) (A)
                 (A) (A) (A) (A) (A) (A) (A) (A) (A) (A) (A) (A)
                 (A) (A) (A) (A) (A) (A) (A) (A) (A) (A) (A) (A)
                 (A) (A) (A) (A) (A) (A) (A) (A) (A) (A) (A) (A)
                 (A) (A) (A) (A) (A) (A) (A) (A) (A) (A) (A) (A)
                 (A) (A) (A) (A) (A) (A) (A) (A) (A) (A) (A) (A)
                 (A) (A) (A) (A) (A) (A) (A) (A) (A) (A) (A) (A)
                 (A) (A) (A) (A) (A) (A) (A) (A) (A) (A) (A) (A)
                 (A) (A) (A) (A) (A) (A) (A) (A) (A) (A) (A) (A)
                 (A) (A) (A) (A) (A) (A) (A) (A) (A) (A) (A)
 The electronic state is 1-A.
 Alpha  occ. eigenvalues --  -19.15500 -19.13001 -19.08207 -19.07358 -14.52142
 Alpha  occ. eigenvalues --  -14.41260 -14.38602 -14.36882 -14.25014 -10.27328
 Alpha  occ. eigenvalues --  -10.26696 -10.24998 -10.24598 -10.24538 -10.23161
 Alpha  occ. eigenvalues --  -10.21781 -10.18805 -10.17096 -10.16612  -1.15773
 Alpha  occ. eigenvalues --   -1.05296  -1.03902  -1.00353  -0.99876  -0.99005
 Alpha  occ. eigenvalues --   -0.94676  -0.84689  -0.81382  -0.78243  -0.75829
 Alpha  occ. eigenvalues --   -0.69202  -0.67788  -0.63916  -0.61105  -0.60657
 Alpha  occ. eigenvalues --   -0.57499  -0.55555  -0.53095  -0.52131  -0.51901
 Alpha  occ. eigenvalues --   -0.50592  -0.49064  -0.48010  -0.46510  -0.45351
 Alpha  occ. eigenvalues --   -0.45146  -0.43754  -0.43081  -0.42593  -0.41190
 Alpha  occ. eigenvalues --   -0.40626  -0.40089  -0.39779  -0.38475  -0.38160
 Alpha  occ. eigenvalues --   -0.37036  -0.35624  -0.35129  -0.34232  -0.33339
 Alpha  occ. eigenvalues --   -0.31363  -0.29335  -0.27558  -0.26075  -0.25643
 Alpha  occ. eigenvalues --   -0.24965  -0.23664  -0.21120  -0.20186  -0.19940
 Alpha virt. eigenvalues --   -0.03144   0.00446   0.00788   0.06205   0.08311
 Alpha virt. eigenvalues --    0.09651   0.11538   0.12015   0.13626   0.13748
 Alpha virt. eigenvalues --    0.14396   0.15378   0.16116   0.17005   0.17386
 Alpha virt. eigenvalues --    0.18734   0.18999   0.19150   0.19931   0.20825
 Alpha virt. eigenvalues --    0.22265   0.23111   0.24812   0.25407   0.25831
 Alpha virt. eigenvalues --    0.26809   0.28066   0.29161   0.31060   0.31614
 Alpha virt. eigenvalues --    0.33734   0.36449   0.39550   0.42191   0.43243
 Alpha virt. eigenvalues --    0.45482   0.48701   0.49029   0.50422   0.51328
 Alpha virt. eigenvalues --    0.52486   0.53898   0.54376   0.55383   0.56262
 Alpha virt. eigenvalues --    0.56674   0.57880   0.58878   0.59721   0.60622
 Alpha virt. eigenvalues --    0.61070   0.62789   0.63385   0.63682   0.65735
 Alpha virt. eigenvalues --    0.66122   0.67423   0.68534   0.69762   0.71032
 Alpha virt. eigenvalues --    0.71244   0.71727   0.72616   0.73569   0.74445
 Alpha virt. eigenvalues --    0.75829   0.76926   0.77581   0.79780   0.80619
 Alpha virt. eigenvalues --    0.81307   0.82495   0.83524   0.84351   0.85140
 Alpha virt. eigenvalues --    0.86620   0.86857   0.87227   0.88560   0.88707
 Alpha virt. eigenvalues --    0.89843   0.90825   0.91380   0.91815   0.92580
 Alpha virt. eigenvalues --    0.93313   0.93628   0.94544   0.95509   0.96707
 Alpha virt. eigenvalues --    0.97598   0.98580   1.01534   1.03805   1.04715
 Alpha virt. eigenvalues --    1.05777   1.06312   1.07445   1.08391   1.10227
 Alpha virt. eigenvalues --    1.13371   1.13645   1.14831   1.15660   1.17418
 Alpha virt. eigenvalues --    1.18486   1.19686   1.22848   1.24794   1.27117
 Alpha virt. eigenvalues --    1.29454   1.30225   1.32026   1.32577   1.38485
 Alpha virt. eigenvalues --    1.39858   1.40397   1.42931   1.43105   1.43933
 Alpha virt. eigenvalues --    1.45427   1.46662   1.48244   1.51710   1.52467
 Alpha virt. eigenvalues --    1.53367   1.54528   1.55542   1.57334   1.58725
 Alpha virt. eigenvalues --    1.60970   1.63152   1.64905   1.66004   1.68834
 Alpha virt. eigenvalues --    1.70015   1.73524   1.75144   1.76789   1.77845
 Alpha virt. eigenvalues --    1.79051   1.79349   1.80119   1.81769   1.82442
 Alpha virt. eigenvalues --    1.84288   1.85245   1.87099   1.88188   1.90186
 Alpha virt. eigenvalues --    1.91936   1.92187   1.94435   1.95123   1.95837
 Alpha virt. eigenvalues --    1.96843   1.98610   1.99101   2.00215   2.02009
 Alpha virt. eigenvalues --    2.02214   2.03464   2.05673   2.07936   2.08804
 Alpha virt. eigenvalues --    2.09131   2.12058   2.12990   2.14209   2.14726
 Alpha virt. eigenvalues --    2.18552   2.19419   2.20947   2.21972   2.24670
 Alpha virt. eigenvalues --    2.26003   2.28646   2.30839   2.31500   2.31958
 Alpha virt. eigenvalues --    2.34028   2.34872   2.35353   2.36865   2.39263
 Alpha virt. eigenvalues --    2.41789   2.42944   2.44421   2.45154   2.49671
 Alpha virt. eigenvalues --    2.51303   2.52427   2.54819   2.57107   2.58602
 Alpha virt. eigenvalues --    2.62952   2.66070   2.69333   2.69897   2.73613
 Alpha virt. eigenvalues --    2.74232   2.77556   2.77975   2.78280   2.79487
 Alpha virt. eigenvalues --    2.81064   2.82633   2.87032   2.88715   2.92934
 Alpha virt. eigenvalues --    2.95291   2.99446   3.03007   3.06109   3.07711
 Alpha virt. eigenvalues --    3.09203   3.12690   3.16967   3.37972   3.51142
 Alpha virt. eigenvalues --    3.53352   3.78725   3.85285   4.04532   4.05566
 Alpha virt. eigenvalues --    4.08734   4.14527   4.19388   4.22887   4.25884
 Alpha virt. eigenvalues --    4.34311   4.35064   4.41713   4.43471   4.47166
 Alpha virt. eigenvalues --    4.59822   4.69168   4.73440   4.81384
          Condensed to atoms (all electrons):
               1          2          3          4          5          6
     1  C    5.211396   0.362771   0.361749   0.365911   0.318769  -0.036614
     2  H    0.362771   0.563588  -0.021679  -0.031852  -0.031487   0.003067
     3  H    0.361749  -0.021679   0.575583  -0.032976  -0.041674  -0.002280
     4  H    0.365911  -0.031852  -0.032976   0.584416  -0.036235  -0.001029
     5  C    0.318769  -0.031487  -0.041674  -0.036235   5.191496   0.310085
     6  C   -0.036614   0.003067  -0.002280  -0.001029   0.310085   4.382677
     7  N    0.009722  -0.000183   0.000356  -0.000109  -0.114671   0.339857
     8  C    0.000381  -0.000039  -0.000051  -0.000012  -0.001793  -0.034255
     9  O    0.000004  -0.000000   0.000000  -0.000000  -0.000367   0.004137
    10  O    0.003967   0.000141   0.008890   0.000731  -0.108629   0.597044
    11  C   -0.071302  -0.002276   0.002788  -0.003922   0.578516  -0.017034
    12  H   -0.008953   0.006311  -0.000038   0.000321  -0.032391   0.002918
    13  N    0.006187   0.000090  -0.000094  -0.000034  -0.039578  -0.011016
    14  C   -0.000188  -0.000010   0.000004   0.000002   0.006080   0.000058
    15  O   -0.000007  -0.000002  -0.000000   0.000000   0.000996  -0.000008
    16  C    0.000000  -0.000000   0.000000  -0.000000   0.000013   0.000000
    17  C   -0.000000   0.000000   0.000000  -0.000000   0.000001  -0.000000
    18  O    0.000000  -0.000000   0.000000   0.000000  -0.000000   0.000000
    19  H    0.000000   0.000000  -0.000000   0.000000  -0.000000   0.000000
    20  H   -0.000000  -0.000000  -0.000000  -0.000000   0.000000   0.000000
    21  H    0.000000  -0.000000   0.000000  -0.000000  -0.000000   0.000000
    22  H    0.000000   0.000000   0.000000   0.000000  -0.000014   0.000000
    23  H    0.000003  -0.000000  -0.000000   0.000000   0.000024  -0.000084
    24  C   -0.000002   0.000000   0.000000  -0.000001  -0.000480   0.000056
    25  H    0.000005   0.000002  -0.000000  -0.000003  -0.000194   0.000012
    26  H   -0.000000   0.000000   0.000000  -0.000000   0.000030  -0.000011
    27  C   -0.000000  -0.000000  -0.000000   0.000000  -0.000005  -0.000000
    28  H    0.000000   0.000000   0.000000  -0.000000  -0.000000  -0.000000
    29  N    0.000000  -0.000000  -0.000000   0.000000  -0.000000   0.000000
    30  N    0.000000  -0.000000   0.000000  -0.000000  -0.000000   0.000000
    31  N    0.000000  -0.000000  -0.000000   0.000000   0.000000  -0.000000
               7          8          9         10         11         12
     1  C    0.009722   0.000381   0.000004   0.003967  -0.071302  -0.008953
     2  H   -0.000183  -0.000039  -0.000000   0.000141  -0.002276   0.006311
     3  H    0.000356  -0.000051   0.000000   0.008890   0.002788  -0.000038
     4  H   -0.000109  -0.000012  -0.000000   0.000731  -0.003922   0.000321
     5  C   -0.114671  -0.001793  -0.000367  -0.108629   0.578516  -0.032391
     6  C    0.339857  -0.034255   0.004137   0.597044  -0.017034   0.002918
     7  N    7.445730   0.429378  -0.167532  -0.105467  -0.050857  -0.001089
     8  C    0.429378   4.150371   0.607197   0.002042  -0.039742   0.001468
     9  O   -0.167532   0.607197   8.241761  -0.000011   0.000653  -0.000083
    10  O   -0.105467   0.002042  -0.000011   8.224578   0.002773  -0.000054
    11  C   -0.050857  -0.039742   0.000653   0.002773   4.986038   0.361982
    12  H   -0.001089   0.001468  -0.000083  -0.000054   0.361982   0.518314
    13  N   -0.109981   0.247062  -0.102411  -0.000005   0.273460  -0.043864
    14  C    0.006098  -0.014073   0.008082   0.000004  -0.035981  -0.005005
    15  O   -0.000040   0.000396   0.000122  -0.000000   0.006387   0.010798
    16  C    0.000002   0.000030  -0.000004   0.000000   0.000064   0.000174
    17  C   -0.000000  -0.000003  -0.000000  -0.000000   0.000036   0.000036
    18  O    0.000000  -0.000001   0.000000   0.000000  -0.000000   0.000001
    19  H   -0.000000  -0.000001  -0.000000  -0.000000  -0.000001  -0.000000
    20  H   -0.000000  -0.000000  -0.000000  -0.000000   0.000001   0.000004
    21  H    0.000000   0.000000   0.000000   0.000000  -0.000001  -0.000001
    22  H   -0.000000   0.000003   0.000000  -0.000000  -0.000116  -0.000152
    23  H    0.000528   0.001282   0.011221   0.000000   0.004930   0.000419
    24  C   -0.000316  -0.001668  -0.001936  -0.000000  -0.001532   0.000275
    25  H   -0.000043  -0.000032  -0.000052  -0.000000   0.004357   0.001043
    26  H   -0.000005   0.002148   0.004597   0.000000   0.000130  -0.000021
    27  C    0.000003   0.000155   0.000103   0.000000  -0.000175  -0.000105
    28  H   -0.000000  -0.000003   0.000000  -0.000000  -0.000012  -0.000010
    29  N   -0.000000  -0.000034  -0.000004   0.000000  -0.000000   0.000001
    30  N   -0.000000  -0.000001  -0.000000  -0.000000   0.000000   0.000000
    31  N    0.000000   0.000000  -0.000000   0.000000  -0.000000  -0.000000
              13         14         15         16         17         18
     1  C    0.006187  -0.000188  -0.000007   0.000000  -0.000000   0.000000
     2  H    0.000090  -0.000010  -0.000002  -0.000000   0.000000  -0.000000
     3  H   -0.000094   0.000004  -0.000000   0.000000   0.000000   0.000000
     4  H   -0.000034   0.000002   0.000000  -0.000000  -0.000000   0.000000
     5  C   -0.039578   0.006080   0.000996   0.000013   0.000001  -0.000000
     6  C   -0.011016   0.000058  -0.000008   0.000000  -0.000000   0.000000
     7  N   -0.109981   0.006098  -0.000040   0.000002  -0.000000   0.000000
     8  C    0.247062  -0.014073   0.000396   0.000030  -0.000003  -0.000001
     9  O   -0.102411   0.008082   0.000122  -0.000004  -0.000000   0.000000
    10  O   -0.000005   0.000004  -0.000000   0.000000  -0.000000   0.000000
    11  C    0.273460  -0.035981   0.006387   0.000064   0.000036  -0.000000
    12  H   -0.043864  -0.005005   0.010798   0.000174   0.000036   0.000001
    13  N    7.186187   0.240629  -0.038097   0.001832  -0.000174   0.000041
    14  C    0.240629   4.743779   0.213337  -0.045505  -0.001315   0.001528
    15  O   -0.038097   0.213337   8.365559   0.228275  -0.049629   0.001012
    16  C    0.001832  -0.045505   0.228275   4.879387   0.327666  -0.035792
    17  C   -0.000174  -0.001315  -0.049629   0.327666   4.880655   0.258023
    18  O    0.000041   0.001528   0.001012  -0.035792   0.258023   8.329684
    19  H    0.000002   0.000174   0.000477  -0.003831  -0.030322   0.236106
    20  H   -0.000006  -0.000152  -0.001747  -0.028273   0.378478  -0.035295
    21  H    0.000004   0.000130   0.003823  -0.042497   0.350978  -0.042605
    22  H    0.000228   0.005434  -0.039054   0.355036  -0.047579   0.003079
    23  H   -0.054140   0.372739  -0.044390   0.005314   0.000795   0.004840
    24  C   -0.051847   0.329298  -0.053072  -0.082921   0.004225  -0.000318
    25  H   -0.005630  -0.029234  -0.001524   0.004752  -0.000030  -0.000002
    26  H   -0.002989  -0.022763   0.003979   0.004770  -0.000011  -0.000013
    27  C    0.004222  -0.063443  -0.048044   0.349052  -0.026577  -0.010608
    28  H   -0.000090   0.006013   0.003089  -0.029082   0.001510  -0.000183
    29  N    0.000052  -0.000316   0.000116  -0.037831  -0.001505  -0.013584
    30  N   -0.000001   0.000178  -0.000056   0.001635   0.000581   0.000528
    31  N    0.000000   0.000008   0.000000  -0.000143   0.000012  -0.000002
              19         20         21         22         23         24
     1  C    0.000000  -0.000000   0.000000   0.000000   0.000003  -0.000002
     2  H    0.000000  -0.000000  -0.000000   0.000000  -0.000000   0.000000
     3  H   -0.000000  -0.000000   0.000000   0.000000  -0.000000   0.000000
     4  H    0.000000  -0.000000  -0.000000   0.000000   0.000000  -0.000001
     5  C   -0.000000   0.000000  -0.000000  -0.000014   0.000024  -0.000480
     6  C    0.000000   0.000000   0.000000   0.000000  -0.000084   0.000056
     7  N   -0.000000  -0.000000   0.000000  -0.000000   0.000528  -0.000316
     8  C   -0.000001  -0.000000   0.000000   0.000003   0.001282  -0.001668
     9  O   -0.000000  -0.000000   0.000000   0.000000   0.011221  -0.001936
    10  O   -0.000000  -0.000000   0.000000  -0.000000   0.000000  -0.000000
    11  C   -0.000001   0.000001  -0.000001  -0.000116   0.004930  -0.001532
    12  H   -0.000000   0.000004  -0.000001  -0.000152   0.000419   0.000275
    13  N    0.000002  -0.000006   0.000004   0.000228  -0.054140  -0.051847
    14  C    0.000174  -0.000152   0.000130   0.005434   0.372739   0.329298
    15  O    0.000477  -0.001747   0.003823  -0.039054  -0.044390  -0.053072
    16  C   -0.003831  -0.028273  -0.042497   0.355036   0.005314  -0.082921
    17  C   -0.030322   0.378478   0.350978  -0.047579   0.000795   0.004225
    18  O    0.236106  -0.035295  -0.042605   0.003079   0.004840  -0.000318
    19  H    0.317454   0.004491  -0.003038  -0.000091  -0.000355   0.000137
    20  H    0.004491   0.550992  -0.037856  -0.001668   0.000015  -0.000098
    21  H   -0.003038  -0.037856   0.625514   0.006073   0.000006   0.000084
    22  H   -0.000091  -0.001668   0.006073   0.596022  -0.000368  -0.000815
    23  H   -0.000355   0.000015   0.000006  -0.000368   0.596607  -0.060283
    24  C    0.000137  -0.000098   0.000084  -0.000815  -0.060283   5.256132
    25  H   -0.000015   0.000004  -0.000014  -0.000094   0.005196   0.359410
    26  H    0.000090   0.000003  -0.000010  -0.000204  -0.002302   0.352300
    27  C   -0.002419   0.003707  -0.006545  -0.037681  -0.006064   0.347003
    28  H    0.000532  -0.000134   0.000276  -0.005578  -0.000151  -0.039707
    29  N    0.042223   0.000066   0.002965   0.003642   0.005412  -0.069551
    30  N   -0.001581   0.000003   0.000234   0.000044   0.000407  -0.004372
    31  N   -0.000016  -0.000000   0.000008   0.000002   0.000001   0.001632
              25         26         27         28         29         30
     1  C    0.000005  -0.000000  -0.000000   0.000000   0.000000   0.000000
     2  H    0.000002   0.000000  -0.000000   0.000000  -0.000000  -0.000000
     3  H   -0.000000   0.000000  -0.000000   0.000000  -0.000000   0.000000
     4  H   -0.000003  -0.000000   0.000000  -0.000000   0.000000  -0.000000
     5  C   -0.000194   0.000030  -0.000005  -0.000000  -0.000000  -0.000000
     6  C    0.000012  -0.000011  -0.000000  -0.000000   0.000000   0.000000
     7  N   -0.000043  -0.000005   0.000003  -0.000000  -0.000000  -0.000000
     8  C   -0.000032   0.002148   0.000155  -0.000003  -0.000034  -0.000001
     9  O   -0.000052   0.004597   0.000103   0.000000  -0.000004  -0.000000
    10  O   -0.000000   0.000000   0.000000  -0.000000   0.000000  -0.000000
    11  C    0.004357   0.000130  -0.000175  -0.000012  -0.000000   0.000000
    12  H    0.001043  -0.000021  -0.000105  -0.000010   0.000001   0.000000
    13  N   -0.005630  -0.002989   0.004222  -0.000090   0.000052  -0.000001
    14  C   -0.029234  -0.022763  -0.063443   0.006013  -0.000316   0.000178
    15  O   -0.001524   0.003979  -0.048044   0.003089   0.000116  -0.000056
    16  C    0.004752   0.004770   0.349052  -0.029082  -0.037831   0.001635
    17  C   -0.000030  -0.000011  -0.026577   0.001510  -0.001505   0.000581
    18  O   -0.000002  -0.000013  -0.010608  -0.000183  -0.013584   0.000528
    19  H   -0.000015   0.000090  -0.002419   0.000532   0.042223  -0.001581
    20  H    0.000004   0.000003   0.003707  -0.000134   0.000066   0.000003
    21  H   -0.000014  -0.000010  -0.006545   0.000276   0.002965   0.000234
    22  H   -0.000094  -0.000204  -0.037681  -0.005578   0.003642   0.000044
    23  H    0.005196  -0.002302  -0.006064  -0.000151   0.005412   0.000407
    24  C    0.359410   0.352300   0.347003  -0.039707  -0.069551  -0.004372
    25  H    0.539372  -0.020012  -0.032317  -0.008286   0.005111   0.000206
    26  H   -0.020012   0.533319  -0.029327   0.002429  -0.007807  -0.000609
    27  C   -0.032317  -0.029327   5.060657   0.367505   0.209940  -0.048244
    28  H   -0.008286   0.002429   0.367505   0.559967  -0.040813  -0.008329
    29  N    0.005111  -0.007807   0.209940  -0.040813   7.156074   0.345613
    30  N    0.000206  -0.000609  -0.048244  -0.008329   0.345613   5.616819
    31  N   -0.000092   0.000451  -0.002156   0.003612  -0.142752   0.617653
              31
     1  C    0.000000
     2  H   -0.000000
     3  H   -0.000000
     4  H    0.000000
     5  C    0.000000
     6  C   -0.000000
     7  N    0.000000
     8  C    0.000000
     9  O   -0.000000
    10  O    0.000000
    11  C   -0.000000
    12  H   -0.000000
    13  N    0.000000
    14  C    0.000008
    15  O    0.000000
    16  C   -0.000143
    17  C    0.000012
    18  O   -0.000002
    19  H   -0.000016
    20  H   -0.000000
    21  H    0.000008
    22  H    0.000002
    23  H    0.000001
    24  C    0.001632
    25  H   -0.000092
    26  H    0.000451
    27  C   -0.002156
    28  H    0.003612
    29  N   -0.142752
    30  N    0.617653
    31  N    6.801971
 Mulliken charges:
               1
     1  C   -0.523800
     2  H    0.151557
     3  H    0.149422
     4  H    0.154791
     5  C    0.001508
     6  C    0.462421
     7  N   -0.681380
     8  C    0.649794
     9  O   -0.605476
    10  O   -0.626003
    11  C    0.000833
    12  H    0.187702
    13  N   -0.500039
    14  C    0.284409
    15  O   -0.562697
    16  C    0.147878
    17  C   -0.045851
    18  O   -0.696437
    19  H    0.439983
    20  H    0.167465
    21  H    0.142470
    22  H    0.163850
    23  H    0.158400
    24  C   -0.281633
    25  H    0.178106
    26  H    0.181839
    27  C   -0.028633
    28  H    0.187441
    29  N   -0.457018
    30  N    0.479290
    31  N   -0.280191
 Sum of Mulliken charges =  -1.00000
 Mulliken charges with hydrogens summed into heavy atoms:
               1
     1  C   -0.068030
     5  C    0.001508
     6  C    0.462421
     7  N   -0.681380
     8  C    0.649794
     9  O   -0.605476
    10  O   -0.626003
    11  C    0.188535
    13  N   -0.500039
    14  C    0.442808
    15  O   -0.562697
    16  C    0.311727
    17  C    0.264084
    18  O   -0.256455
    24  C    0.078312
    27  C    0.158808
    29  N   -0.457018
    30  N    0.479290
    31  N   -0.280191
 Electronic spatial extent (au):  <R**2>=           6007.5797
 Charge=             -1.0000 electrons
 Dipole moment (field-independent basis, Debye):
    X=             17.8050    Y=              9.5023    Z=             -9.1132  Tot=             22.1441
 Quadrupole moment (field-independent basis, Debye-Ang):
   XX=           -189.4709   YY=           -128.6523   ZZ=           -118.0008
   XY=            -19.5690   XZ=              2.2747   YZ=              1.3814
 Traceless Quadrupole moment (field-independent basis, Debye-Ang):
   XX=            -44.0963   YY=             16.7224   ZZ=             27.3738
   XY=            -19.5690   XZ=              2.2747   YZ=              1.3814
 Octapole moment (field-independent basis, Debye-Ang**2):
  XXX=            375.9126  YYY=             59.6158  ZZZ=            -17.6027  XYY=             32.3216
  XXY=            113.0599  XXZ=            -41.2283  XZZ=              0.0949  YZZ=              7.6813
  YYZ=            -18.6529  XYZ=            -45.1700
 Hexadecapole moment (field-independent basis, Debye-Ang**3):
 XXXX=          -7838.8740 YYYY=          -1373.0517 ZZZZ=           -642.7378 XXXY=           -235.1299
 XXXZ=             90.0098 YYYX=             51.4643 YYYZ=             21.3485 ZZZX=            -29.1693
 ZZZY=             -5.9275 XXYY=          -1392.5982 XXZZ=          -1164.2611 YYZZ=           -365.7552
[...]
 Alpha virt. eigenvalues --    2.41745   2.42280   2.43715   2.44350   2.46010
 Alpha virt. eigenvalues --    2.48293   2.48476   2.48892   2.50569   2.51314
 Alpha virt. eigenvalues --    2.52104   2.52954   2.53313   2.54594   2.55707
 Alpha virt. eigenvalues --    2.56767   2.57663   2.58130   2.59172   2.60050
 Alpha virt. eigenvalues --    2.61508   2.63081   2.63897   2.64708   2.65832
 Alpha virt. eigenvalues --    2.67199   2.67963   2.68126   2.69247   2.70028
 Alpha virt. eigenvalues --    2.70565   2.73433   2.73818   2.75459   2.75981
 Alpha virt. eigenvalues --    2.77987   2.78441   2.78607   2.80991   2.81085
 Alpha virt. eigenvalues --    2.82151   2.83176   2.84362   2.85880   2.86227
 Alpha virt. eigenvalues --    2.88331   2.88926   2.91524   2.92772   2.94359
 Alpha virt. eigenvalues --    2.96770   2.97561   2.98303   2.99480   3.01277
 Alpha virt. eigenvalues --    3.03526   3.03618   3.05311   3.05771   3.07457
 Alpha virt. eigenvalues --    3.08443   3.09987   3.12431   3.13277   3.13528
 Alpha virt. eigenvalues --    3.17417   3.18392   3.19031   3.20019   3.20946
 Alpha virt. eigenvalues --    3.23287   3.24274   3.26223   3.26980   3.28509
 Alpha virt. eigenvalues --    3.30084   3.33718   3.35839   3.38096   3.40237
 Alpha virt. eigenvalues --    3.43490   3.46368   3.48835   3.52888   3.56616
 Alpha virt. eigenvalues --    3.60075   3.60345   3.62816   3.64698   3.66646
 Alpha virt. eigenvalues --    3.75402   3.77912   3.80551   3.92218   3.93512
 Alpha virt. eigenvalues --    3.96540   3.97136   3.97703   3.98180   4.01059
 Alpha virt. eigenvalues --    4.01400   4.02344   4.04337   4.06973   4.09505
 Alpha virt. eigenvalues --    4.12439   4.13214   4.14172   4.19987   4.20681
 Alpha virt. eigenvalues --    4.25299   4.29172   4.33289   4.37608   4.42725
 Alpha virt. eigenvalues --    4.47002   4.48521   4.66409   4.68325   4.87675
          Condensed to atoms (all electrons):
               1          2          3          4          5          6
     1  C    5.204833   0.108813   0.318941   0.381175   0.302311  -0.218938
     2  H    0.108813   1.161064  -0.109973  -0.096937   0.209235  -0.069937
     3  H    0.318941  -0.109973   0.816945  -0.115489   0.064303  -0.003504
     4  H    0.381175  -0.096937  -0.115489   0.814594  -0.033956   0.003928
     5  C    0.302311   0.209235   0.064303  -0.033956   8.212685  -1.450527
     6  C   -0.218938  -0.069937  -0.003504   0.003928  -1.450527   7.736858
     7  N   -0.008158  -0.009167   0.002227  -0.001103   0.300118  -0.153970
     8  C   -0.044511   0.017576  -0.010854  -0.012510   0.145098  -0.473107
     9  O    0.002124   0.000179   0.000150   0.000181   0.045720   0.050510
    10  O    0.003063  -0.007113   0.023504   0.024217  -0.103691   0.110151
    11  C   -0.515502  -0.095707  -0.034955   0.006330  -1.557632   0.086347
    12  H    0.025320  -0.045736   0.006662  -0.022672   0.019903  -0.093229
    13  N   -0.007299   0.054423  -0.011173  -0.008082  -0.189966   0.006188
    14  C   -0.039674   0.067613  -0.012204  -0.010012  -0.086393  -0.208455
    15  O   -0.004224  -0.002355  -0.000144   0.000209  -0.013085   0.003013
    16  C    0.000374   0.001347  -0.002456  -0.000430  -0.013804  -0.007894
    17  C   -0.000494   0.001175  -0.000335  -0.000004   0.004961  -0.001364
    18  O    0.000046   0.000031  -0.000000   0.000002  -0.000880   0.000242
    19  H   -0.000001   0.000012  -0.000003  -0.000000  -0.000195  -0.000001
    20  H   -0.000388   0.000016  -0.000006  -0.000037  -0.000336  -0.000407
    21  H    0.000141   0.000016  -0.000026   0.000025   0.001389   0.000020
    22  H    0.001628  -0.002305   0.000312   0.000129  -0.016125   0.005196
    23  H   -0.007954   0.002422  -0.000656  -0.000803  -0.004842  -0.019800
    24  C   -0.009472  -0.003828  -0.001400  -0.000915  -0.006975  -0.012280
    25  H    0.009204  -0.002848  -0.002421   0.004776  -0.023821   0.012168
    26  H    0.001107  -0.000440   0.000019  -0.000009  -0.022918   0.008019
    27  C    0.005789  -0.002292   0.001977   0.000104   0.007428   0.006690
    28  H    0.000019   0.000003   0.000196  -0.000112   0.008225  -0.000858
    29  N    0.000242   0.000077  -0.000026   0.000034  -0.000070   0.000586
    30  N   -0.000516   0.000183  -0.000051  -0.000016   0.002392  -0.000925
    31  N    0.000021  -0.000029   0.000002   0.000003  -0.000015   0.000030
               7          8          9         10         11         12
     1  C   -0.008158  -0.044511   0.002124   0.003063  -0.515502   0.025320
     2  H   -0.009167   0.017576   0.000179  -0.007113  -0.095707  -0.045736
     3  H    0.002227  -0.010854   0.000150   0.023504  -0.034955   0.006662
     4  H   -0.001103  -0.012510   0.000181   0.024217   0.006330  -0.022672
     5  C    0.300118   0.145098   0.045720  -0.103691  -1.557632   0.019903
     6  C   -0.153970  -0.473107   0.050510   0.110151   0.086347  -0.093229
     7  N    8.219233   0.060344  -0.198325  -0.159769  -0.035651   0.029879
     8  C    0.060344   5.549322   0.149619   0.073365  -0.746062   0.019752
     9  O   -0.198325   0.149619   8.966137  -0.006682  -0.079456   0.002265
    10  O   -0.159769   0.073365  -0.006682   9.052940   0.036081   0.005067
    11  C   -0.035651  -0.746062  -0.079456   0.036081  11.329402  -1.154408
    12  H    0.029879   0.019752   0.002265   0.005067  -1.154408   2.918725
    13  N   -0.100077   0.245866  -0.182670   0.005848  -0.297118   0.087255
    14  C   -0.054640   0.146468   0.215799   0.004340  -2.271098   0.059093
    15  O   -0.010266  -0.043379   0.006053   0.000746   0.222174   0.002936
    16  C   -0.004736  -0.049973   0.013813   0.001625  -0.284130  -0.025855
    17  C    0.001177  -0.008508   0.001771  -0.000015  -0.009983  -0.023430
    18  O   -0.000000  -0.000921  -0.000122   0.000000   0.005630  -0.000171
    19  H    0.000022  -0.000473   0.000189   0.000005   0.000930  -0.000805
    20  H   -0.000236   0.004018  -0.000150   0.000014  -0.018234  -0.000950
    21  H    0.000140  -0.002019   0.000046  -0.000003   0.007347   0.001667
    22  H   -0.001131  -0.009965   0.000734   0.000137   0.141604  -0.052049
    23  H   -0.026551   0.104492  -0.022312   0.000575  -0.121272   0.016663
    24  C   -0.006832  -0.011542  -0.024523   0.005284  -0.315912   0.020674
    25  H   -0.001915  -0.019872  -0.006683   0.000737   0.164187  -0.094698
    26  H    0.001286  -0.042208   0.003093   0.000170   0.142427   0.002972
    27  C    0.007804  -0.021880  -0.008847  -0.000909   0.327995  -0.013963
    28  H   -0.000027   0.009200   0.000072  -0.000040  -0.058410   0.012529
    29  N    0.001170  -0.012327   0.001244   0.000015   0.056873  -0.001111
    30  N    0.000307  -0.011266  -0.001520   0.000005  -0.051268  -0.005938
    31  N   -0.000002   0.002490   0.000114  -0.000000   0.004332   0.002108
              13         14         15         16         17         18
     1  C   -0.007299  -0.039674  -0.004224   0.000374  -0.000494   0.000046
     2  H    0.054423   0.067613  -0.002355   0.001347   0.001175   0.000031
     3  H   -0.011173  -0.012204  -0.000144  -0.002456  -0.000335  -0.000000
     4  H   -0.008082  -0.010012   0.000209  -0.000430  -0.000004   0.000002
     5  C   -0.189966  -0.086393  -0.013085  -0.013804   0.004961  -0.000880
     6  C    0.006188  -0.208455   0.003013  -0.007894  -0.001364   0.000242
     7  N   -0.100077  -0.054640  -0.010266  -0.004736   0.001177  -0.000000
     8  C    0.245866   0.146468  -0.043379  -0.049973  -0.008508  -0.000921
     9  O   -0.182670   0.215799   0.006053   0.013813   0.001771  -0.000122
    10  O    0.005848   0.004340   0.000746   0.001625  -0.000015   0.000000
    11  C   -0.297118  -2.271098   0.222174  -0.284130  -0.009983   0.005630
    12  H    0.087255   0.059093   0.002936  -0.025855  -0.023430  -0.000171
    13  N    8.845934  -0.723684   0.061617  -0.168699   0.008515   0.005249
    14  C   -0.723684  10.840229  -0.567472  -0.419860  -0.058516  -0.073229
    15  O    0.061617  -0.567472   9.753091  -0.406059   0.054844  -0.001460
    16  C   -0.168699  -0.419860  -0.406059   8.328129   0.020942   0.059917
    17  C    0.008515  -0.058516   0.054844   0.020942   4.483517  -0.000100
    18  O    0.005249  -0.073229  -0.001460   0.059917  -0.000100   8.597314
    19  H   -0.001996   0.004447  -0.007557   0.009945  -0.003877   0.276964
    20  H   -0.009505   0.059899  -0.092241   0.161357   0.188913  -0.147296
    21  H    0.007969  -0.078718   0.102244  -0.052641   0.230396  -0.051067
    22  H   -0.007696  -0.069631  -0.021954  -0.575688  -0.113095   0.035259
    23  H   -0.142575  -0.362231  -0.193551  -0.050612   0.022686   0.005544
    24  C    0.181332  -1.261512   0.076511   1.022218   0.075898   0.010792
    25  H    0.012936  -0.388319   0.069656  -0.068771   0.028339   0.002498
    26  H   -0.114418   0.222545   0.049566   0.101785  -0.009364  -0.003072
    27  C    0.274854  -0.190602   0.093429  -2.332152  -0.246529  -0.003452
    28  H   -0.006071   0.226359  -0.010100   0.157153  -0.004859  -0.011147
    29  N   -0.012025   0.185976   0.071555  -0.196895  -0.018589  -0.007351
    30  N    0.014886  -0.274002  -0.013329   0.118452   0.075007   0.008632
    31  N    0.003775   0.025137   0.000314   0.035509  -0.001927   0.003716
              19         20         21         22         23         24
     1  C   -0.000001  -0.000388   0.000141   0.001628  -0.007954  -0.009472
     2  H    0.000012   0.000016   0.000016  -0.002305   0.002422  -0.003828
     3  H   -0.000003  -0.000006  -0.000026   0.000312  -0.000656  -0.001400
     4  H   -0.000000  -0.000037   0.000025   0.000129  -0.000803  -0.000915
     5  C   -0.000195  -0.000336   0.001389  -0.016125  -0.004842  -0.006975
     6  C   -0.000001  -0.000407   0.000020   0.005196  -0.019800  -0.012280
     7  N    0.000022  -0.000236   0.000140  -0.001131  -0.026551  -0.006832
     8  C   -0.000473   0.004018  -0.002019  -0.009965   0.104492  -0.011542
     9  O    0.000189  -0.000150   0.000046   0.000734  -0.022312  -0.024523
    10  O    0.000005   0.000014  -0.000003   0.000137   0.000575   0.005284
    11  C    0.000930  -0.018234   0.007347   0.141604  -0.121272  -0.315912
    12  H   -0.000805  -0.000950   0.001667  -0.052049   0.016663   0.020674
    13  N   -0.001996  -0.009505   0.007969  -0.007696  -0.142575   0.181332
    14  C    0.004447   0.059899  -0.078718  -0.069631  -0.362231  -1.261512
    15  O   -0.007557  -0.092241   0.102244  -0.021954  -0.193551   0.076511
    16  C    0.009945   0.161357  -0.052641  -0.575688  -0.050612   1.022218
    17  C   -0.003877   0.188913   0.230396  -0.113095   0.022686   0.075898
    18  O    0.276964  -0.147296  -0.051067   0.035259   0.005544   0.010792
    19  H    0.495206   0.012746  -0.037164   0.013539   0.006651  -0.002582
    20  H    0.012746   1.267223  -0.265836  -0.043875   0.008781  -0.038769
    21  H   -0.037164  -0.265836   1.216839  -0.062723  -0.005281   0.079240
    22  H    0.013539  -0.043875  -0.062723   1.877508   0.005712  -0.190065
    23  H    0.006651   0.008781  -0.005281   0.005712   2.192680   0.190170
    24  C   -0.002582  -0.038769   0.079240  -0.190065   0.190170   7.004361
    25  H    0.000875  -0.003595   0.006883   0.032563   0.045626   0.143261
    26  H   -0.000581  -0.000846  -0.000423  -0.000767  -0.148554  -0.005548
    27  C   -0.011712   0.053512  -0.061694   0.378840  -0.039769  -2.005113
    28  H   -0.000424   0.010830   0.011466  -0.137876   0.011870   0.235105
    29  N    0.025653  -0.022937   0.000471   0.099536  -0.008318  -0.033802
    30  N    0.000944  -0.011656   0.039926  -0.033168   0.013430   0.367540
    31  N   -0.001801   0.000012  -0.000274   0.000247   0.001093   0.021195
              25         26         27         28         29         30
     1  C    0.009204   0.001107   0.005789   0.000019   0.000242  -0.000516
     2  H   -0.002848  -0.000440  -0.002292   0.000003   0.000077   0.000183
     3  H   -0.002421   0.000019   0.001977   0.000196  -0.000026  -0.000051
     4  H    0.004776  -0.000009   0.000104  -0.000112   0.000034  -0.000016
     5  C   -0.023821  -0.022918   0.007428   0.008225  -0.000070   0.002392
     6  C    0.012168   0.008019   0.006690  -0.000858   0.000586  -0.000925
     7  N   -0.001915   0.001286   0.007804  -0.000027   0.001170   0.000307
     8  C   -0.019872  -0.042208  -0.021880   0.009200  -0.012327  -0.011266
     9  O   -0.006683   0.003093  -0.008847   0.000072   0.001244  -0.001520
    10  O    0.000737   0.000170  -0.000909  -0.000040   0.000015   0.000005
    11  C    0.164187   0.142427   0.327995  -0.058410   0.056873  -0.051268
    12  H   -0.094698   0.002972  -0.013963   0.012529  -0.001111  -0.005938
    13  N    0.012936  -0.114418   0.274854  -0.006071  -0.012025   0.014886
    14  C   -0.388319   0.222545  -0.190602   0.226359   0.185976  -0.274002
    15  O    0.069656   0.049566   0.093429  -0.010100   0.071555  -0.013329
    16  C   -0.068771   0.101785  -2.332152   0.157153  -0.196895   0.118452
    17  C    0.028339  -0.009364  -0.246529  -0.004859  -0.018589   0.075007
    18  O    0.002498  -0.003072  -0.003452  -0.011147  -0.007351   0.008632
    19  H    0.000875  -0.000581  -0.011712  -0.000424   0.025653   0.000944
    20  H   -0.003595  -0.000846   0.053512   0.010830  -0.022937  -0.011656
    21  H    0.006883  -0.000423  -0.061694   0.011466   0.000471   0.039926
    22  H    0.032563  -0.000767   0.378840  -0.137876   0.099536  -0.033168
    23  H    0.045626  -0.148554  -0.039769   0.011870  -0.008318   0.013430
    24  C    0.143261  -0.005548  -2.005113   0.235105  -0.033802   0.367540
    25  H    1.453053  -0.213410   0.123571  -0.133964   0.056572   0.011949
    26  H   -0.213410   1.495942  -0.266964   0.028131   0.013406  -0.054949
    27  C    0.123571  -0.266964  11.157163  -0.636315  -0.547208  -0.314078
    28  H   -0.133964   0.028131  -0.636315   1.710179  -0.117127  -0.064989
    29  N    0.056572   0.013406  -0.547208  -0.117127  10.009451  -1.904186
    30  N    0.011949  -0.054949  -0.314078  -0.064989  -1.904186   9.041640
    31  N   -0.000462  -0.019331  -0.171716   0.010017   0.129867  -0.302126
              31
     1  C    0.000021
     2  H   -0.000029
     3  H    0.000002
     4  H    0.000003
     5  C   -0.000015
     6  C    0.000030
     7  N   -0.000002
     8  C    0.002490
     9  O    0.000114
    10  O   -0.000000
    11  C    0.004332
    12  H    0.002108
    13  N    0.003775
    14  C    0.025137
    15  O    0.000314
    16  C    0.035509
    17  C   -0.001927
    18  O    0.003716
    19  H   -0.001801
    20  H    0.000012
    21  H   -0.000274
    22  H    0.000247
    23  H    0.001093
    24  C    0.021195
    25  H   -0.000462
    26  H   -0.019331
    27  C   -0.171716
    28  H    0.010017
    29  N    0.129867
    30  N   -0.302126
    31  N    7.629328
 Mulliken charges:
               1
     1  C    0.491976
     2  H   -0.175519
     3  H    0.070437
     4  H    0.067378
     5  C    0.201461
     6  C    0.685249
     7  N   -0.851151
     8  C    0.993765
     9  O   -0.928523
    10  O   -1.069668
    11  C    1.115136
    12  H   -0.698453
    13  N   -0.833593
    14  C    1.092347
    15  O   -1.180779
    16  C    0.628088
    17  C    1.302848
    18  O   -0.711568
    19  H    0.221046
    20  H   -0.110022
    21  H   -0.088358
    22  H   -0.254832
    23  H   -0.473316
    24  C    0.497488
    25  H   -0.218074
    26  H   -0.166668
    27  C    0.436036
    28  H   -0.249035
    29  N   -0.770758
    30  N    0.348689
    31  N   -0.371627
 Sum of Mulliken charges =  -1.00000
 Mulliken charges with hydrogens summed into heavy atoms:
               1
     1  C    0.454272
     5  C    0.201461
     6  C    0.685249
     7  N   -0.851151
     8  C    0.993765
     9  O   -0.928523
    10  O   -1.069668
    11  C    0.416682
    13  N   -0.833593
    14  C    0.619032
    15  O   -1.180779
    16  C    0.373256
    17  C    1.104469
    18  O   -0.490522
    24  C    0.112746
    27  C    0.187001
    29  N   -0.770758
    30  N    0.348689
    31  N   -0.371627
 Electronic spatial extent (au):  <R**2>=           6059.9727
 Charge=             -1.0000 electrons
 Dipole moment (field-independent basis, Debye):
    X=             15.7487    Y=              7.1031    Z=             -8.7324  Tot=             19.3580
 Quadrupole moment (field-independent basis, Debye-Ang):
   XX=           -200.1609   YY=           -128.6531   ZZ=           -128.3393
   XY=            -14.5958   XZ=              3.3009   YZ=              4.9232
 Traceless Quadrupole moment (field-independent basis, Debye-Ang):
   XX=            -47.7765   YY=             23.7314   ZZ=             24.0451
   XY=            -14.5958   XZ=              3.3009   YZ=              4.9232
 Octapole moment (field-independent basis, Debye-Ang**2):
  XXX=            376.9248  YYY=             45.3026  ZZZ=            -18.0563  XYY=             34.7852
  XXY=             68.9676  XXZ=            -36.1962  XZZ=              1.4724  YZZ=             11.7530
  YYZ=            -17.5150  XYZ=            -44.7756
 Hexadecapole moment (field-independent basis, Debye-Ang**3):
 XXXX=          -8406.1914 YYYY=          -1271.1845 ZZZZ=           -895.7397 XXXY=           -155.5243
 XXXZ=            136.3389 YYYX=              4.9270 YYYZ=             63.4898 ZZZX=            -24.6040
 ZZZY=             14.8589 XXYY=          -1362.4904 XXZZ=          -1297.6011 YYZZ=           -390.9964
 XXYZ=            -35.7386 YYXZ=             56.7900 ZZXY=            -31.8505
 N-N= 1.448577511890D+03 E-N=-5.160576511607D+03  KE= 9.558878563233D+02
 Leave Link  601 at Sun Jul 18 15:12:40 2021, MaxMem=   262144000 cpu:               1.2 elap:               0.4
 (Enter /prod/apps/gaussian/g16b1/l9999.exe)
 1\1\GINC-PIRINEUS39\SP\RMP2-FC\Aug-CC-pVDZ\C10H12N5O4(1-)\UBATOR02\18-
 Jul-2021\0\\#p mp2/aug-cc-pVDZ scf=tight maxdisk=180GB geom=allcheck\\
 SET_328_BBB288_conf1.geo_210_090_060 geometry\\-1,1\C,0,0.5753481552,2
 .1874401708,3.6478417105\H,0,0.5327941735,2.9751127338,2.890375076\H,0
 ,1.5433200849,2.254870435,4.1574319875\H,0,-0.1882937838,2.3984419239,
 4.404515504\C,0,0.3739803073,0.8341146444,3.03415678\C,0,0.3941918667,
 -0.3625892576,3.8891319405\N,0,0.2277537138,-1.5984607796,3.3205271916
 \C,0,0.0391315196,-1.7587453929,1.9932234176\O,0,-0.1069466955,-2.8753
 319346,1.4547171424\O,0,0.5677110692,-0.2456611261,5.1255986983\C,0,0.
 1790097526,0.6500616842,1.7109081964\H,0,0.1678499263,1.4749263851,1.0
 066620145\N,0,-0.0080864126,-0.6004318345,1.16515137\C,0,-0.154241051,
 -0.7509316718,-0.2693732164\O,0,1.00917542,-0.231441268,-0.9389232044\
 C,0,0.6342539734,0.5438805153,-2.0886806085\C,0,1.5796417318,0.2424775
 687,-3.2525382901\O,0,1.6969446474,-1.1313844844,-3.5755882472\H,0,0.8
 017175096,-1.4363493473,-3.8153240763\H,0,2.5830525417,0.5785729582,-2
 .975543983\H,0,1.2581709008,0.8451782711,-4.114625507\H,0,0.7403649464
 ,1.6120301018,-1.8534160248\H,0,-0.2192626415,-1.8251573825,-0.4342726
 96\C,0,-1.3448586525,-0.005217797,-0.8856097128\H,0,-1.5136573767,0.94
 30902893,-0.3676921501\H,0,-2.2687470298,-0.5858426608,-0.8456026733\C
 ,0,-0.8645531929,0.2823863388,-2.3088759676\H,0,-1.3548705542,1.149572
 8777,-2.7586452929\N,0,-1.0459570024,-0.8988466126,-3.2045584607\N,0,-
 2.1822393018,-1.0585212777,-3.6521475735\N,0,-3.1916985455,-1.29924407
 09,-4.1248233447\\Version=ES64L-G16RevB.01\State=1-A\HF=-957.4498879\M
 P2=-960.5051375\RMSD=8.050e-09\PG=C01 [X(C10H12N5O4)]\\@


 LOGIC IS A SYSTEMATIC METHOD OF COMING TO THE
 WRONG CONCLUSION WITH CONFIDENCE.
 Job cpu time:       0 days  2 hours 51 minutes 45.7 seconds.
 Elapsed time:       0 days  0 hours 50 minutes 25.5 seconds.
 File lengths (MBytes):  RWF=  85395 Int=      0 D2E=      0 Chk=     25 Scr=      1
 Normal termination of Gaussian 16 at Sun Jul 18 15:12:43 2021.
