 Entering Gaussian System, Link 0=g16
 Initial command:
 /prod/apps/gaussian/g16b1/l1.exe "/tmp/ubator02/1839561/Gau-126949.inp" -scrdir="/tmp/ubator02/1839561/"
 Entering Link 1 = /prod/apps/gaussian/g16b1/l1.exe PID=    126950.
  
 Copyright (c) 1988-2017, Gaussian, Inc.  All Rights Reserved.
  
 This is part of the Gaussian(R) 16 program.  It is based on
 the Gaussian(R) 09 system (copyright 2009, Gaussian, Inc.),
 the Gaussian(R) 03 system (copyright 2003, Gaussian, Inc.),
 the Gaussian(R) 98 system (copyright 1998, Gaussian, Inc.),
 the Gaussian(R) 94 system (copyright 1995, Gaussian, Inc.),
 the Gaussian 92(TM) system (copyright 1992, Gaussian, Inc.),
 the Gaussian 90(TM) system (copyright 1990, Gaussian, Inc.),
 the Gaussian 88(TM) system (copyright 1988, Gaussian, Inc.),
 the Gaussian 86(TM) system (copyright 1986, Carnegie Mellon
 University), and the Gaussian 82(TM) system (copyright 1983,
 Carnegie Mellon University). Gaussian is a federally registered
 trademark of Gaussian, Inc.
  
 This software contains proprietary and confidential information,
 including trade secrets, belonging to Gaussian, Inc.
  
 This software is provided under written license and may be
 used, copied, transmitted, or stored only in accord with that
 written license.
  
 The following legend is applicable only to US Government
 contracts under FAR:
  
                    RESTRICTED RIGHTS LEGEND
  
 Use, reproduction and disclosure by the US Government is
 subject to restrictions as set forth in subparagraphs (a)
 and (c) of the Commercial Computer Software - Restricted
 Rights clause in FAR 52.227-19.
  
 Gaussian, Inc.
 340 Quinnipiac St., Bldg. 40, Wallingford CT 06492
  
  
 ---------------------------------------------------------------
 Warning -- This program may not be used in any manner that
 competes with the business of Gaussian, Inc. or will provide
 assistance to any competitor of Gaussian, Inc.  The licensee
 of this program is prohibited from giving any competitor of
 Gaussian, Inc. access to this program.  By using this program,
 the user acknowledges that Gaussian, Inc. is engaged in the
 business of creating and licensing software in the field of
 computational chemistry and represents and warrants to the
 licensee that it is not a competitor of Gaussian, Inc. and that
 it will not use this program in any manner prohibited above.
 ---------------------------------------------------------------
  

 Cite this work as:
 Gaussian 16, Revision B.01,
 M. J. Frisch, G. W. Trucks, H. B. Schlegel, G. E. Scuseria, 
 M. A. Robb, J. R. Cheeseman, G. Scalmani, V. Barone, 
 G. A. Petersson, H. Nakatsuji, X. Li, M. Caricato, A. V. Marenich, 
 J. Bloino, B. G. Janesko, R. Gomperts, B. Mennucci, H. P. Hratchian, 
 J. V. Ortiz, A. F. Izmaylov, J. L. Sonnenberg, D. Williams-Young, 
 F. Ding, F. Lipparini, F. Egidi, J. Goings, B. Peng, A. Petrone, 
 T. Henderson, D. Ranasinghe, V. G. Zakrzewski, J. Gao, N. Rega, 
 G. Zheng, W. Liang, M. Hada, M. Ehara, K. Toyota, R. Fukuda, 
 J. Hasegawa, M. Ishida, T. Nakajima, Y. Honda, O. Kitao, H. Nakai, 
 T. Vreven, K. Throssell, J. A. Montgomery, Jr., J. E. Peralta, 
 F. Ogliaro, M. J. Bearpark, J. J. Heyd, E. N. Brothers, K. N. Kudin, 
 V. N. Staroverov, T. A. Keith, R. Kobayashi, J. Normand, 
 K. Raghavachari, A. P. Rendell, J. C. Burant, S. S. Iyengar, 
 J. Tomasi, M. Cossi, J. M. Millam, M. Klene, C. Adamo, R. Cammi, 
 J. W. Ochterski, R. L. Martin, K. Morokuma, O. Farkas, 
 J. B. Foresman, and D. J. Fox, Gaussian, Inc., Wallingford CT, 2016.
 
 ******************************************
 Gaussian 16:  ES64L-G16RevB.01 20-Dec-2017
                18-Jul-2021 
 ******************************************
 %mem=800MB
 %nproc=4
 Will use up to    4 processors via shared memory.
 %chk=SET_328_BBB272_conf1.geo_120_300_180.chk
 -----------------------------------------------------------
 #p b3lyp/6-31G(d) opt freq scrf=(iefpcm,read,solvent=water)
 -----------------------------------------------------------
 1/18=20,19=15,26=3,38=1,40=2/1,3;
 2/9=110,12=2,17=6,18=5,40=1/2;
 3/5=1,6=6,7=1,11=2,25=1,30=1,70=2203,71=1,72=1,74=-5/1,2,3;
 4//1;
 5/5=2,38=5,53=1/2;
 6/7=2,8=2,9=2,10=2,28=1/1;
 7//1,2,3,16;
 1/18=20,19=15,26=3/3(2);
 2/9=110/2;
 99//99;
 2/9=110/2;
 3/5=1,6=6,7=1,11=2,25=1,30=1,70=2205,71=1,72=1,74=-5/1,2,3;
 4/5=5,16=3,69=1/1;
 5/5=2,38=5,53=1/2;
 7//1,2,3,16;
 1/18=20,19=15,26=3/3(-5);
 2/9=110/2;
 6/7=2,8=2,9=2,10=2,19=2,28=1/1;
 99/9=1/99;
 Leave Link    1 at Sun Jul 18 13:42:43 2021, MaxMem=   104857600 cpu:               0.2 elap:               0.1
 (Enter /prod/apps/gaussian/g16b1/l101.exe)
 ---------------------------------------------
 SET_328_BBB272_conf1.geo_120_300_180 geometry
 ---------------------------------------------
 Symbolic Z-matrix:
 Charge = -1 Multiplicity = 1
 C                    -2.075     1.779     2.083 
 H                    -2.797     0.96      2.109 
 H                    -2.503     2.55      1.438 
 H                    -1.993     2.253     3.063 
 C                    -0.716     1.361     1.647 
 O                     0.376     1.554     2.113 
 O                    -0.819     0.71      0.509 
 C                     0.254     0.164    -0.216 
 C                     0.136    -1.117    -0.657 
 C                    -1.051    -1.927    -0.243 
 O                    -1.086    -2.205     0.971 
 O                    -2.016    -2.055    -0.937 
 C                     1.014    -1.663    -1.597 
 H                     0.857    -2.634    -2.061 
 C                     2.015    -0.846    -2.115 
 H                     2.737    -1.277    -2.804 
 C                     2.215     0.423    -1.627 
 H                     2.99      1.086    -2.001 
 C                     1.298     0.949    -0.69 
 H                     1.368     1.974    -0.336 
 
 ITRead=  0  0  0  0  0  0  0  0  0  0  0  0  0  0  0  0  0  0  0  0
 MicOpt= -1 -1 -1 -1 -1 -1 -1 -1 -1 -1 -1 -1 -1 -1 -1 -1 -1 -1 -1 -1
 NAtoms=     20 NQM=       20 NQMF=       0 NMMI=      0 NMMIF=      0
                NMic=       0 NMicF=      0.
                    Isotopes and Nuclear Properties:
 (Nuclear quadrupole moments (NQMom) in fm**2, nuclear magnetic moments (NMagM)
  in nuclear magnetons)

  Atom         1           2           3           4           5           6           7           8           9          10
 IAtWgt=          12           1           1           1          12          16          16          12          12          12
 AtmWgt=  12.0000000   1.0078250   1.0078250   1.0078250  12.0000000  15.9949146  15.9949146  12.0000000  12.0000000  12.0000000
 NucSpn=           0           1           1           1           0           0           0           0           0           0
 AtZEff=  -0.0000000  -0.0000000  -0.0000000  -0.0000000  -0.0000000  -0.0000000  -0.0000000  -0.0000000  -0.0000000  -0.0000000
 NQMom=    0.0000000   0.0000000   0.0000000   0.0000000   0.0000000   0.0000000   0.0000000   0.0000000   0.0000000   0.0000000
 NMagM=    0.0000000   2.7928460   2.7928460   2.7928460   0.0000000   0.0000000   0.0000000   0.0000000   0.0000000   0.0000000
 AtZNuc=   6.0000000   1.0000000   1.0000000   1.0000000   6.0000000   8.0000000   8.0000000   6.0000000   6.0000000   6.0000000

  Atom        11          12          13          14          15          16          17          18          19          20
 IAtWgt=          16          16          12           1          12           1          12           1          12           1
 AtmWgt=  15.9949146  15.9949146  12.0000000   1.0078250  12.0000000   1.0078250  12.0000000   1.0078250  12.0000000   1.0078250
 NucSpn=           0           0           0           1           0           1           0           1           0           1
 AtZEff=  -0.0000000  -0.0000000  -0.0000000  -0.0000000  -0.0000000  -0.0000000  -0.0000000  -0.0000000  -0.0000000  -0.0000000
 NQMom=    0.0000000   0.0000000   0.0000000   0.0000000   0.0000000   0.0000000   0.0000000   0.0000000   0.0000000   0.0000000
 NMagM=    0.0000000   0.0000000   0.0000000   2.7928460   0.0000000   2.7928460   0.0000000   2.7928460   0.0000000   2.7928460
 AtZNuc=   8.0000000   8.0000000   6.0000000   1.0000000   6.0000000   1.0000000   6.0000000   1.0000000   6.0000000   1.0000000
 Leave Link  101 at Sun Jul 18 13:42:43 2021, MaxMem=   104857600 cpu:               0.6 elap:               0.2
 (Enter /prod/apps/gaussian/g16b1/l103.exe)

 GradGradGradGradGradGradGradGradGradGradGradGradGradGradGradGradGradGrad
 Berny optimization.
 Initialization pass.
                           ----------------------------
                           !    Initial Parameters    !
                           ! (Angstroms and Degrees)  !
 --------------------------                            --------------------------
 ! Name  Definition              Value          Derivative Info.                !
 --------------------------------------------------------------------------------
 ! R1    R(1,2)                  1.0921         estimate D2E/DX2                !
 ! R2    R(1,3)                  1.0925         estimate D2E/DX2                !
 ! R3    R(1,4)                  1.0917         estimate D2E/DX2                !
 ! R4    R(1,5)                  1.4872         estimate D2E/DX2                !
 ! R5    R(5,6)                  1.2029         estimate D2E/DX2                !
 ! R6    R(5,7)                  1.3151         estimate D2E/DX2                !
 ! R7    R(7,8)                  1.4054         estimate D2E/DX2                !
 ! R8    R(8,9)                  1.3599         estimate D2E/DX2                !
 ! R9    R(8,19)                 1.3895         estimate D2E/DX2                !
 ! R10   R(9,10)                 1.4955         estimate D2E/DX2                !
 ! R11   R(9,13)                 1.3974         estimate D2E/DX2                !
 ! R12   R(10,11)                1.2459         estimate D2E/DX2                !
 ! R13   R(10,12)                1.1955         estimate D2E/DX2                !
 ! R14   R(13,14)                1.0876         estimate D2E/DX2                !
 ! R15   R(13,15)                1.3921         estimate D2E/DX2                !
 ! R16   R(15,16)                1.0871         estimate D2E/DX2                !
 ! R17   R(15,17)                1.3742         estimate D2E/DX2                !
 ! R18   R(17,18)                1.0863         estimate D2E/DX2                !
 ! R19   R(17,19)                1.4126         estimate D2E/DX2                !
 ! R20   R(19,20)                1.0867         estimate D2E/DX2                !
 ! A1    A(2,1,3)              106.516          estimate D2E/DX2                !
 ! A2    A(2,1,4)              110.7255         estimate D2E/DX2                !
 ! A3    A(2,1,5)              113.5983         estimate D2E/DX2                !
 ! A4    A(3,1,4)              104.6542         estimate D2E/DX2                !
 ! A5    A(3,1,5)              112.5352         estimate D2E/DX2                !
 ! A6    A(4,1,5)              108.4559         estimate D2E/DX2                !
 ! A7    A(1,5,6)              132.1378         estimate D2E/DX2                !
 ! A8    A(1,5,7)              108.7391         estimate D2E/DX2                !
 ! A9    A(6,5,7)              119.0631         estimate D2E/DX2                !
 ! A10   A(5,7,8)              125.3756         estimate D2E/DX2                !
 ! A11   A(7,8,9)              117.8402         estimate D2E/DX2                !
 ! A12   A(7,8,19)             122.0142         estimate D2E/DX2                !
 ! A13   A(9,8,19)             119.1254         estimate D2E/DX2                !
 ! A14   A(8,9,10)             119.2946         estimate D2E/DX2                !
 ! A15   A(8,9,13)             122.1197         estimate D2E/DX2                !
 ! A16   A(10,9,13)            118.2494         estimate D2E/DX2                !
 ! A17   A(9,10,11)            114.3867         estimate D2E/DX2                !
 ! A18   A(9,10,12)            122.5456         estimate D2E/DX2                !
 ! A19   A(11,10,12)           121.2699         estimate D2E/DX2                !
 ! A20   A(9,13,14)            123.0355         estimate D2E/DX2                !
 ! A21   A(9,13,15)            118.2172         estimate D2E/DX2                !
 ! A22   A(14,13,15)           117.9725         estimate D2E/DX2                !
 ! A23   A(13,15,16)           118.7337         estimate D2E/DX2                !
 ! A24   A(13,15,17)           120.9623         estimate D2E/DX2                !
 ! A25   A(16,15,17)           119.6382         estimate D2E/DX2                !
 ! A26   A(15,17,18)           123.0355         estimate D2E/DX2                !
 ! A27   A(15,17,19)           119.0067         estimate D2E/DX2                !
 ! A28   A(18,17,19)           117.6598         estimate D2E/DX2                !
 ! A29   A(8,19,17)            120.2402         estimate D2E/DX2                !
 ! A30   A(8,19,20)            118.0439         estimate D2E/DX2                !
 ! A31   A(17,19,20)           121.7012         estimate D2E/DX2                !
 ! D1    D(2,1,5,6)           -130.6529         estimate D2E/DX2                !
 ! D2    D(2,1,5,7)             52.2724         estimate D2E/DX2                !
 ! D3    D(3,1,5,6)            108.2066         estimate D2E/DX2                !
 ! D4    D(3,1,5,7)            -68.868          estimate D2E/DX2                !
 ! D5    D(4,1,5,6)             -7.0853         estimate D2E/DX2                !
 ! D6    D(4,1,5,7)            175.8401         estimate D2E/DX2                !
 ! D7    D(1,5,7,8)            179.7422         estimate D2E/DX2                !
 ! D8    D(6,5,7,8)              2.2237         estimate D2E/DX2                !
 ! D9    D(5,7,8,9)            132.0968         estimate D2E/DX2                !
 ! D10   D(5,7,8,19)           -59.5645         estimate D2E/DX2                !
 ! D11   D(7,8,9,10)            -6.0347         estimate D2E/DX2                !
 ! D12   D(7,8,9,13)           167.1878         estimate D2E/DX2                !
 ! D13   D(19,8,9,10)         -174.7203         estimate D2E/DX2                !
 ! D14   D(19,8,9,13)           -1.4978         estimate D2E/DX2                !
 ! D15   D(7,8,19,17)         -167.6116         estimate D2E/DX2                !
 ! D16   D(7,8,19,20)           11.0145         estimate D2E/DX2                !
 ! D17   D(9,8,19,17)            0.5823         estimate D2E/DX2                !
 ! D18   D(9,8,19,20)          179.2084         estimate D2E/DX2                !
 ! D19   D(8,9,10,11)          -67.389          estimate D2E/DX2                !
 ! D20   D(8,9,10,12)           97.4966         estimate D2E/DX2                !
 ! D21   D(13,9,10,11)         119.1261         estimate D2E/DX2                !
 ! D22   D(13,9,10,12)         -75.9883         estimate D2E/DX2                !
 ! D23   D(8,9,13,14)         -171.4034         estimate D2E/DX2                !
 ! D24   D(8,9,13,15)           -1.7017         estimate D2E/DX2                !
 ! D25   D(10,9,13,14)           1.887          estimate D2E/DX2                !
 ! D26   D(10,9,13,15)         171.5887         estimate D2E/DX2                !
 ! D27   D(9,13,15,16)         176.5824         estimate D2E/DX2                !
 ! D28   D(9,13,15,17)           5.9685         estimate D2E/DX2                !
 ! D29   D(14,13,15,16)        -13.1878         estimate D2E/DX2                !
 ! D30   D(14,13,15,17)        176.1983         estimate D2E/DX2                !
 ! D31   D(13,15,17,18)        179.5434         estimate D2E/DX2                !
 ! D32   D(13,15,17,19)         -6.8777         estimate D2E/DX2                !
 ! D33   D(16,15,17,18)          9.0134         estimate D2E/DX2                !
 ! D34   D(16,15,17,19)       -177.4077         estimate D2E/DX2                !
 ! D35   D(15,17,19,8)           3.5571         estimate D2E/DX2                !
 ! D36   D(15,17,19,20)       -175.0177         estimate D2E/DX2                !
 ! D37   D(18,17,19,8)         177.4809         estimate D2E/DX2                !
 ! D38   D(18,17,19,20)         -1.0939         estimate D2E/DX2                !
 --------------------------------------------------------------------------------
 Trust Radius=3.00D-01 FncErr=1.00D-07 GrdErr=1.00D-06 EigMax=2.50D+02 EigMin=1.00D-04
 Number of steps in this run=     99 maximum allowed number of steps=    120.
 GradGradGradGradGradGradGradGradGradGradGradGradGradGradGradGradGradGrad

 Leave Link  103 at Sun Jul 18 13:42:43 2021, MaxMem=   104857600 cpu:               0.0 elap:               0.0
 (Enter /prod/apps/gaussian/g16b1/l202.exe)
                          Input orientation:                          
 ---------------------------------------------------------------------
 Center     Atomic      Atomic             Coordinates (Angstroms)
 Number     Number       Type             X           Y           Z
 ---------------------------------------------------------------------
      1          6           0       -2.075000    1.779000    2.083000
      2          1           0       -2.797000    0.960000    2.109000
      3          1           0       -2.503000    2.550000    1.438000
      4          1           0       -1.993000    2.253000    3.063000
      5          6           0       -0.716000    1.361000    1.647000
      6          8           0        0.376000    1.554000    2.113000
      7          8           0       -0.819000    0.710000    0.509000
      8          6           0        0.254000    0.164000   -0.216000
      9          6           0        0.136000   -1.117000   -0.657000
     10          6           0       -1.051000   -1.927000   -0.243000
     11          8           0       -1.086000   -2.205000    0.971000
     12          8           0       -2.016000   -2.055000   -0.937000
     13          6           0        1.014000   -1.663000   -1.597000
     14          1           0        0.857000   -2.634000   -2.061000
     15          6           0        2.015000   -0.846000   -2.115000
     16          1           0        2.737000   -1.277000   -2.804000
     17          6           0        2.215000    0.423000   -1.627000
     18          1           0        2.990000    1.086000   -2.001000
     19          6           0        1.298000    0.949000   -0.690000
     20          1           0        1.368000    1.974000   -0.336000
 ---------------------------------------------------------------------
                    Distance matrix (angstroms):
                    1          2          3          4          5
     1  C    0.000000
     2  H    1.092118   0.000000
     3  H    1.092543   1.750650   0.000000
     4  H    1.091696   1.796770   1.728853   0.000000
     5  C    1.487179   2.169056   2.156565   2.105101   0.000000
     6  O    2.461489   3.228123   3.120302   2.646368   1.202859
     7  O    2.279862   2.556361   2.661672   3.206562   1.315087
     8  C    3.649365   3.917632   4.003718   4.490520   2.417536
     9  C    4.558831   4.535105   4.979983   5.452334   3.489241
    10  C    4.493694   4.112808   4.997759   5.411968   3.807265
    11  O    4.252872   3.773565   4.983573   5.007282   3.648319
    12  O    4.880926   4.356409   5.204212   5.878724   4.476172
    13  C    5.910303   5.927756   6.271354   6.789161   4.760358
    14  H    6.726361   6.607379   7.099750   7.632866   5.673061
    15  C    6.421988   6.652756   6.675998   7.244277   5.146052
    16  H    7.508478   7.730905   7.752296   8.321988   6.220422
    17  C    5.831547   6.274250   6.014805   6.561422   4.493293
    18  H    6.543205   7.099109   6.644025   7.199741   5.207491
    19  C    4.444722   4.960196   4.641033   5.159080   3.112476
    20  H    4.212343   4.934921   4.296917   4.788253   2.941278
                    6          7          8          9         10
     6  O    0.000000
     7  O    2.170985   0.000000
     8  C    2.715000   1.405372   0.000000
     9  C    3.855482   2.368440   1.359914   0.000000
    10  C    4.438967   2.751926   2.464961   1.495482   0.000000
    11  O    4.191860   2.963437   2.969298   2.308119   1.245915
    12  O    5.296135   3.341998   3.255258   2.364180   1.195510
    13  C    4.951791   3.664185   2.413025   1.397355   2.483392
    14  H    5.932367   4.538305   3.405354   2.189143   2.728633
    15  C    5.130527   4.163901   2.779824   2.393710   3.751440
    16  H    6.145386   5.250645   3.865167   3.376449   4.618459
    17  C    4.318412   3.721562   2.429717   2.763104   4.254963
    18  H    4.896633   4.577112   3.394408   3.847709   5.338391
    19  C    3.012128   2.444670   1.389546   2.370588   3.740185
    20  H    2.675456   2.663586   2.128731   3.342925   4.591080
                   11         12         13         14         15
    11  O    0.000000
    12  O    2.127878   0.000000
    13  C    3.361307   3.125726   0.000000
    14  H    3.626612   3.138908   1.087560   0.000000
    15  C    4.581100   4.370163   1.392054   2.130921   0.000000
    16  H    5.452260   5.165460   2.138825   2.434728   1.087091
    17  C    4.955057   4.951560   2.407218   3.373095   1.374229
    18  H    6.023059   6.004832   3.409515   4.288553   2.167082
    19  C    4.288367   4.479690   2.779541   3.861607   2.401404
    20  H    5.019403   5.295800   3.865644   4.946758   3.396447
                   16         17         18         19         20
    16  H    0.000000
    17  C    2.132560   0.000000
    18  H    2.508503   1.086310   0.000000
    19  C    3.390397   1.412634   2.144844   0.000000
    20  H    4.305135   2.188536   2.488303   1.086665   0.000000
 Stoichiometry    C9H7O4(1-)
 Framework group  C1[X(C9H7O4)]
 Deg. of freedom    54
 Full point group                 C1      NOp   1
 Largest Abelian subgroup         C1      NOp   1
 Largest concise Abelian subgroup C1      NOp   1
                         Standard orientation:                         
 ---------------------------------------------------------------------
 Center     Atomic      Atomic             Coordinates (Angstroms)
 Number     Number       Type             X           Y           Z
 ---------------------------------------------------------------------
      1          6           0        3.432445    0.015299   -0.525355
      2          1           0        3.393836    1.106711   -0.518238
      3          1           0        3.568689   -0.283880   -1.567266
      4          1           0        4.328943   -0.342901   -0.015665
      5          6           0        2.246323   -0.626482    0.101489
      6          8           0        2.140690   -1.491739    0.930368
      7          8           0        1.158656   -0.131836   -0.447837
      8          6           0       -0.157714   -0.497919   -0.118863
      9          6           0       -1.056878    0.497642    0.104135
     10          6           0       -0.586528    1.917061    0.126138
     11          8           0        0.157026    2.197795    1.085628
     12          8           0       -0.673103    2.638085   -0.823533
     13          6           0       -2.431092    0.255060    0.176883
     14          1           0       -3.172094    1.050024    0.218509
     15          6           0       -2.881016   -1.047169   -0.022067
     16          1           0       -3.942144   -1.256039    0.088143
     17          6           0       -1.994506   -2.087839   -0.162107
     18          1           0       -2.308283   -3.117078   -0.311377
     19          6           0       -0.613363   -1.804185   -0.248821
     20          1           0        0.118874   -2.584075   -0.439715
 ---------------------------------------------------------------------
 Rotational constants (GHZ):           1.0994785           0.7486617           0.4932557
 Leave Link  202 at Sun Jul 18 13:42:43 2021, MaxMem=   104857600 cpu:               0.1 elap:               0.0
 (Enter /prod/apps/gaussian/g16b1/l301.exe)
 Standard basis: 6-31G(d) (6D, 7F)
 Ernie: Thresh=  0.10000D-02 Tol=  0.10000D-05 Strict=F.
 There are   209 symmetry adapted cartesian basis functions of A   symmetry.
 There are   209 symmetry adapted basis functions of A   symmetry.
   209 basis functions,   392 primitive gaussians,   209 cartesian basis functions
    47 alpha electrons       47 beta electrons
       nuclear repulsion energy       766.5419453227 Hartrees.
 IExCor=  402 DFT=T Ex+Corr=B3LYP ExCW=0 ScaHFX=  0.200000
 ScaDFX=  0.800000  0.720000  1.000000  0.810000 ScalE2=  1.000000  1.000000
 IRadAn=      5 IRanWt=     -1 IRanGd=            0 ICorTp=0 IEmpDi=  4
 NAtoms=   20 NActive=   20 NUniq=   20 SFac= 1.00D+00 NAtFMM=   60 NAOKFM=F Big=F
 Integral buffers will be    131072 words long.
 Raffenetti 2 integral format.
 Two-electron integral symmetry is turned on.
 Using the following non-standard input for PCM:
 MSTModel=DFT cav MSTCharged
 --- end of non-standard input.
 MST model for solvation energy: B3LYP parametrization.
 MST cavity parameters:
 ISph   IAn     Re0     Alpha   Atom Type   QCorr
 ------------------------------------------------
   1      6     1.50     1.25      CH3        F
   2      1     1.20     1.25      CH3        F
   3      1     1.20     1.25      CH3        F
   4      1     1.20     1.25      CH3        F
   5      6     1.50     1.25      C          F
   6      8     1.40     1.25      O          F
   7      8     1.40     1.25      O          F
   8      6     1.50     1.25      C          F
   9      6     1.50     1.25      C          F
  10      6     1.50     1.15      C          T
  11      8     1.40     1.15      O          T
  12      8     1.40     1.15      O          T
  13      6     1.50     1.25      CH         F
  14      1     1.20     1.25      CH         F
  15      6     1.50     1.25      CH         F
  16      1     1.20     1.25      CH         F
  17      6     1.50     1.25      CH         F
  18      1     1.20     1.25      CH         F
  19      6     1.50     1.25      CH         F
  20      1     1.20     1.25      CH         F
 ------------------------------------------------------------------------------
 Polarizable Continuum Model (PCM)
 =================================
 Model                : PCM.
 Atomic radii         : MST.
 Polarization charges : Total charges.
 Charge compensation  : None.
 Solution method      : On-the-fly selection.
 Cavity type          : Scaled VdW (van der Waals Surface) (Alpha=1.250).
 Cavity algorithm     : GePol (No added spheres)
                        Default sphere list used, NSphG=   20.
                        Lebedev-Laikov grids with approx.  5.0 points / Ang**2.
                        Smoothing algorithm: York/Karplus (Gamma=1.0000).
                        Polarization charges: spherical gaussians, with
                                              point-specific exponents (IZeta= 3).
                        Self-potential: point-specific (ISelfS= 7).
                        Self-field    : sphere-specific E.n sum rule (ISelfD= 2).
 1st derivatives      : Analytical E(r).r(x)/FMM algorithm (CHGder, D1EAlg=3).
                        Cavity 1st derivative terms included.
 Solvent              : Water, Eps=  78.355300 Eps(inf)=   1.777849
 ------------------------------------------------------------------------------
 Spheres list:
 ISph  on   Nord     Re0    Alpha      Xe            Ye            Ze
    1   C      1    1.5000  1.250      3.432445      0.015299     -0.525355
    2   H      2    1.2000  1.250      3.393836      1.106711     -0.518238
    3   H      3    1.2000  1.250      3.568689     -0.283880     -1.567266
    4   H      4    1.2000  1.250      4.328943     -0.342901     -0.015665
    5   C      5    1.5000  1.250      2.246323     -0.626482      0.101489
    6   O      6    1.4000  1.250      2.140690     -1.491739      0.930368
    7   O      7    1.4000  1.250      1.158656     -0.131836     -0.447837
    8   C      8    1.5000  1.250     -0.157714     -0.497919     -0.118863
    9   C      9    1.5000  1.250     -1.056878      0.497642      0.104135
   10   C     10    1.5000  1.150     -0.586528      1.917061      0.126138
   11   O     11    1.4000  1.150      0.157026      2.197795      1.085628
   12   O     12    1.4000  1.150     -0.673103      2.638085     -0.823533
   13   C     13    1.5000  1.250     -2.431092      0.255060      0.176883
   14   H     14    1.2000  1.250     -3.172094      1.050024      0.218509
   15   C     15    1.5000  1.250     -2.881016     -1.047169     -0.022067
   16   H     16    1.2000  1.250     -3.942144     -1.256039      0.088143
   17   C     17    1.5000  1.250     -1.994506     -2.087839     -0.162107
   18   H     18    1.2000  1.250     -2.308283     -3.117078     -0.311377
   19   C     19    1.5000  1.250     -0.613363     -1.804185     -0.248821
   20   H     20    1.2000  1.250      0.118874     -2.584075     -0.439715
 ------------------------------------------------------------------------------
 GePol: Number of generator spheres                  =      20
 GePol: Total number of spheres                      =      20
 GePol: Number of exposed spheres                    =      20 (100.00%)
 GePol: Number of points                             =    1650
 GePol: Average weight of points                     =       0.13
 GePol: Minimum weight of points                     =   0.38D-11
 GePol: Maximum weight of points                     =    0.22001
 GePol: Number of points with low weight             =     104
 GePol: Fraction of low-weight points (<1% of avg)   =       6.30%
 GePol: Cavity surface area                          =    221.754 Ang**2
 GePol: Cavity volume                                =    194.457 Ang**3
 PCM non-electrostatic energy =         0.0033871198 Hartrees.
 Nuclear repulsion after PCM non-electrostatic terms =      766.5453324425 Hartrees.
 Leave Link  301 at Sun Jul 18 13:42:43 2021, MaxMem=   104857600 cpu:               0.3 elap:               0.1
 (Enter /prod/apps/gaussian/g16b1/l302.exe)
 NPDir=0 NMtPBC=     1 NCelOv=     1 NCel=       1 NClECP=     1 NCelD=      1
         NCelK=      1 NCelE2=     1 NClLst=     1 CellRange=     0.0.
 One-electron integrals computed using PRISM.
 One-electron integral symmetry used in STVInt
 NBasis=   209 RedAO= T EigKep=  4.57D-04  NBF=   209
 NBsUse=   209 1.00D-06 EigRej= -1.00D+00 NBFU=   209
 Precomputing XC quadrature grid using
 IXCGrd= 4 IRadAn=           5 IRanWt=          -1 IRanGd=           0 AccXCQ= 0.00D+00.
 Generated NRdTot=       0 NPtTot=           0 NUsed=           0 NTot=          32
 NSgBfM=   209   209   209   209   209 MxSgAt=    20 MxSgA2=    20.
 Leave Link  302 at Sun Jul 18 13:42:43 2021, MaxMem=   104857600 cpu:               1.0 elap:               0.3
 (Enter /prod/apps/gaussian/g16b1/l303.exe)
 DipDrv:  MaxL=1.
 Leave Link  303 at Sun Jul 18 13:42:43 2021, MaxMem=   104857600 cpu:               0.1 elap:               0.0
 (Enter /prod/apps/gaussian/g16b1/l401.exe)
 ExpMin= 1.61D-01 ExpMax= 5.48D+03 ExpMxC= 8.25D+02 IAcc=3 IRadAn=         5 AccDes= 0.00D+00
 Harris functional with IExCor=  402 and IRadAn=       5 diagonalized for initial guess.
 HarFok:  IExCor=  402 AccDes= 0.00D+00 IRadAn=         5 IDoV= 1 UseB2=F ITyADJ=14
 ICtDFT=  3500011 ScaDFX=  1.000000  1.000000  1.000000  1.000000
 FoFCou: FMM=F IPFlag=           0 FMFlag=      100000 FMFlg1=           0
         NFxFlg=           0 DoJE=T BraDBF=F KetDBF=T FulRan=T
         wScrn=  0.000000 ICntrl=       500 IOpCl=  0 I1Cent=   200000004 NGrid=           0
         NMat0=    1 NMatS0=      1 NMatT0=    0 NMatD0=    1 NMtDS0=    0 NMtDT0=    0
 Petite list used in FoFCou.
 Harris En= -648.327910717141    
 JPrj=0 DoOrth=F DoCkMO=F.
 Leave Link  401 at Sun Jul 18 13:42:44 2021, MaxMem=   104857600 cpu:               4.2 elap:               1.1
 (Enter /prod/apps/gaussian/g16b1/l502.exe)
 Integral symmetry usage will be decided dynamically.
 Closed shell SCF:
 Using DIIS extrapolation, IDIIS=  1040.
 NGot=   104857600 LenX=   104766669 LenY=   104722547
 Requested convergence on RMS density matrix=1.00D-08 within 128 cycles.
 Requested convergence on MAX density matrix=1.00D-06.
 Requested convergence on             energy=1.00D-06.
 No special actions if energy rises.
 Fock matrices will be formed incrementally for  20 cycles.

 Cycle   1  Pass 1  IDiag  1:
 FoFJK:  IHMeth= 1 ICntrl=       0 DoSepK=F KAlg= 0 I1Cent=           0 FoldK=F
 IRaf= 890000000 NMat=       1 IRICut=       1 DoRegI=T DoRafI=F ISym2E= 0 IDoP0=0 IntGTp=1.
 FoFCou: FMM=F IPFlag=           0 FMFlag=      100000 FMFlg1=           0
         NFxFlg=           0 DoJE=F BraDBF=F KetDBF=F FulRan=T
         wScrn=  0.000000 ICntrl=         0 IOpCl=  0 I1Cent=           0 NGrid=           0
         NMat0=    1 NMatS0=      1 NMatT0=    0 NMatD0=    1 NMtDS0=    0 NMtDT0=    0
 Symmetry not used in FoFCou.
 Inv3:  Mode=1 IEnd=     8167500.
 Iteration    1 A*A^-1 deviation from unit magnitude is 3.33D-15 for   1115.
 Iteration    1 A*A^-1 deviation from orthogonality  is 2.33D-15 for   1319    126.
 Iteration    1 A^-1*A deviation from unit magnitude is 3.55D-15 for   1115.
 Iteration    1 A^-1*A deviation from orthogonality  is 7.85D-15 for   1628   1617.
 E= -647.816800401583    
 DIIS: error= 2.78D-02 at cycle   1 NSaved=   1.
 NSaved= 1 IEnMin= 1 EnMin= -647.816800401583     IErMin= 1 ErrMin= 2.78D-02
 ErrMax= 2.78D-02  0.00D+00 EMaxC= 1.00D-01 BMatC= 4.64D-01 BMatP= 4.64D-01
 IDIUse=3 WtCom= 7.22D-01 WtEn= 2.78D-01
 Coeff-Com:  0.100D+01
 Coeff-En:   0.100D+01
 Coeff:      0.100D+01
 Gap=     0.213 Goal=   None    Shift=    0.000
 GapD=    0.213 DampG=1.000 DampE=0.500 DampFc=0.5000 IDamp=-1.
 Damping current iteration by 5.00D-01
 RMSDP=6.85D-03 MaxDP=1.78D-01              OVMax= 2.07D-01

 Cycle   2  Pass 1  IDiag  1:
 RMSU=  3.39D-03    CP:  9.81D-01
 E= -647.964002800684     Delta-E=       -0.147202399101 Rises=F Damp=T
 DIIS: error= 1.00D-02 at cycle   2 NSaved=   2.
 NSaved= 2 IEnMin= 2 EnMin= -647.964002800684     IErMin= 2 ErrMin= 1.00D-02
 ErrMax= 1.00D-02  0.00D+00 EMaxC= 1.00D-01 BMatC= 4.18D-02 BMatP= 4.64D-01
 IDIUse=3 WtCom= 9.00D-01 WtEn= 1.00D-01
 Coeff-Com:  0.149D+00 0.851D+00
 Coeff-En:   0.227D+00 0.773D+00
 Coeff:      0.157D+00 0.843D+00
 Gap=     0.186 Goal=   None    Shift=    0.000
 RMSDP=1.75D-03 MaxDP=4.26D-02 DE=-1.47D-01 OVMax= 1.41D-01

 Cycle   3  Pass 1  IDiag  1:
 RMSU=  1.68D-03    CP:  9.73D-01  8.70D-01
 E= -648.174599508587     Delta-E=       -0.210596707904 Rises=F Damp=F
 DIIS: error= 1.18D-02 at cycle   3 NSaved=   3.
 NSaved= 3 IEnMin= 3 EnMin= -648.174599508587     IErMin= 2 ErrMin= 1.00D-02
 ErrMax= 1.18D-02  0.00D+00 EMaxC= 1.00D-01 BMatC= 3.57D-02 BMatP= 4.18D-02
 IDIUse=3 WtCom= 8.82D-01 WtEn= 1.18D-01
 Coeff-Com:  0.371D-01 0.478D+00 0.485D+00
 Coeff-En:   0.000D+00 0.000D+00 0.100D+01
 Coeff:      0.327D-01 0.422D+00 0.545D+00
 Gap=     0.194 Goal=   None    Shift=    0.000
 RMSDP=1.11D-03 MaxDP=3.72D-02 DE=-2.11D-01 OVMax= 7.92D-02

 Cycle   4  Pass 1  IDiag  1:
 RMSU=  6.78D-04    CP:  9.77D-01  9.06D-01  4.84D-01
 E= -648.199690964038     Delta-E=       -0.025091455450 Rises=F Damp=F
 DIIS: error= 5.24D-03 at cycle   4 NSaved=   4.
 NSaved= 4 IEnMin= 4 EnMin= -648.199690964038     IErMin= 4 ErrMin= 5.24D-03
 ErrMax= 5.24D-03  0.00D+00 EMaxC= 1.00D-01 BMatC= 7.25D-03 BMatP= 3.57D-02
 IDIUse=3 WtCom= 9.48D-01 WtEn= 5.24D-02
 Coeff-Com:  0.722D-02 0.108D+00 0.323D+00 0.562D+00
 Coeff-En:   0.000D+00 0.000D+00 0.168D+00 0.832D+00
 Coeff:      0.684D-02 0.103D+00 0.315D+00 0.576D+00
 Gap=     0.188 Goal=   None    Shift=    0.000
 RMSDP=3.84D-04 MaxDP=1.46D-02 DE=-2.51D-02 OVMax= 2.85D-02

 Cycle   5  Pass 1  IDiag  1:
 RMSU=  1.97D-04    CP:  9.77D-01  8.85D-01  6.11D-01  6.47D-01
 E= -648.204778023403     Delta-E=       -0.005087059365 Rises=F Damp=F
 DIIS: error= 1.00D-03 at cycle   5 NSaved=   5.
 NSaved= 5 IEnMin= 5 EnMin= -648.204778023403     IErMin= 5 ErrMin= 1.00D-03
 ErrMax= 1.00D-03  0.00D+00 EMaxC= 1.00D-01 BMatC= 6.47D-04 BMatP= 7.25D-03
 IDIUse=3 WtCom= 9.90D-01 WtEn= 1.00D-02
 Coeff-Com:  0.150D-02 0.858D-02 0.129D+00 0.342D+00 0.520D+00
 Coeff-En:   0.000D+00 0.000D+00 0.000D+00 0.791D-02 0.992D+00
 Coeff:      0.149D-02 0.849D-02 0.127D+00 0.338D+00 0.524D+00
 Gap=     0.191 Goal=   None    Shift=    0.000
 RMSDP=1.13D-04 MaxDP=3.05D-03 DE=-5.09D-03 OVMax= 5.57D-03

 Cycle   6  Pass 1  IDiag  1:
 RMSU=  5.83D-05    CP:  9.76D-01  8.88D-01  6.14D-01  6.82D-01  5.30D-01
 E= -648.205252548302     Delta-E=       -0.000474524899 Rises=F Damp=F
 DIIS: error= 2.02D-04 at cycle   6 NSaved=   6.
 NSaved= 6 IEnMin= 6 EnMin= -648.205252548302     IErMin= 6 ErrMin= 2.02D-04
 ErrMax= 2.02D-04  0.00D+00 EMaxC= 1.00D-01 BMatC= 2.62D-05 BMatP= 6.47D-04
 IDIUse=3 WtCom= 9.98D-01 WtEn= 2.02D-03
 Coeff-Com:  0.338D-03-0.161D-02 0.453D-01 0.133D+00 0.264D+00 0.559D+00
 Coeff-En:   0.000D+00 0.000D+00 0.000D+00 0.000D+00 0.000D+00 0.100D+01
 Coeff:      0.337D-03-0.161D-02 0.452D-01 0.133D+00 0.263D+00 0.560D+00
 Gap=     0.191 Goal=   None    Shift=    0.000
 RMSDP=2.62D-05 MaxDP=9.45D-04 DE=-4.75D-04 OVMax= 1.54D-03

 Cycle   7  Pass 1  IDiag  1:
 RMSU=  1.57D-05    CP:  9.76D-01  8.89D-01  6.14D-01  6.88D-01  5.75D-01
                    CP:  6.79D-01
 E= -648.205273332792     Delta-E=       -0.000020784490 Rises=F Damp=F
 DIIS: error= 5.21D-05 at cycle   7 NSaved=   7.
 NSaved= 7 IEnMin= 7 EnMin= -648.205273332792     IErMin= 7 ErrMin= 5.21D-05
 ErrMax= 5.21D-05  0.00D+00 EMaxC= 1.00D-01 BMatC= 1.77D-06 BMatP= 2.62D-05
 IDIUse=1 WtCom= 1.00D+00 WtEn= 0.00D+00
 Coeff-Com:  0.869D-04-0.141D-02 0.126D-01 0.389D-01 0.907D-01 0.276D+00
 Coeff-Com:  0.583D+00
 Coeff:      0.869D-04-0.141D-02 0.126D-01 0.389D-01 0.907D-01 0.276D+00
 Coeff:      0.583D+00
 Gap=     0.191 Goal=   None    Shift=    0.000
 RMSDP=7.06D-06 MaxDP=3.46D-04 DE=-2.08D-05 OVMax= 6.16D-04

 Cycle   8  Pass 1  IDiag  1:
 RMSU=  4.64D-06    CP:  9.76D-01  8.88D-01  6.15D-01  6.88D-01  5.76D-01
                    CP:  7.06D-01  6.94D-01
 E= -648.205274911992     Delta-E=       -0.000001579200 Rises=F Damp=F
 DIIS: error= 1.51D-05 at cycle   8 NSaved=   8.
 NSaved= 8 IEnMin= 8 EnMin= -648.205274911992     IErMin= 8 ErrMin= 1.51D-05
 ErrMax= 1.51D-05  0.00D+00 EMaxC= 1.00D-01 BMatC= 1.49D-07 BMatP= 1.77D-06
 IDIUse=1 WtCom= 1.00D+00 WtEn= 0.00D+00
 Coeff-Com:  0.257D-04-0.546D-03 0.266D-02 0.840D-02 0.246D-01 0.924D-01
 Coeff-Com:  0.291D+00 0.581D+00
 Coeff:      0.257D-04-0.546D-03 0.266D-02 0.840D-02 0.246D-01 0.924D-01
 Coeff:      0.291D+00 0.581D+00
 Gap=     0.191 Goal=   None    Shift=    0.000
 RMSDP=2.31D-06 MaxDP=7.24D-05 DE=-1.58D-06 OVMax= 1.63D-04

 Cycle   9  Pass 1  IDiag  1:
 RMSU=  1.42D-06    CP:  9.76D-01  8.88D-01  6.15D-01  6.88D-01  5.77D-01
                    CP:  7.06D-01  7.24D-01  6.32D-01
 E= -648.205275048216     Delta-E=       -0.000000136223 Rises=F Damp=F
 DIIS: error= 4.24D-06 at cycle   9 NSaved=   9.
 NSaved= 9 IEnMin= 9 EnMin= -648.205275048216     IErMin= 9 ErrMin= 4.24D-06
 ErrMax= 4.24D-06  0.00D+00 EMaxC= 1.00D-01 BMatC= 1.43D-08 BMatP= 1.49D-07
 IDIUse=1 WtCom= 1.00D+00 WtEn= 0.00D+00
 Coeff-Com:  0.111D-05-0.886D-04-0.377D-03-0.124D-02-0.334D-03 0.570D-02
 Coeff-Com:  0.561D-01 0.276D+00 0.665D+00
 Coeff:      0.111D-05-0.886D-04-0.377D-03-0.124D-02-0.334D-03 0.570D-02
 Coeff:      0.561D-01 0.276D+00 0.665D+00
 Gap=     0.191 Goal=   None    Shift=    0.000
 RMSDP=6.73D-07 MaxDP=2.05D-05 DE=-1.36D-07 OVMax= 3.99D-05

 Cycle  10  Pass 1  IDiag  1:
 RMSU=  3.67D-07    CP:  9.76D-01  8.88D-01  6.15D-01  6.88D-01  5.77D-01
                    CP:  7.08D-01  7.35D-01  7.08D-01  7.76D-01
 E= -648.205275061269     Delta-E=       -0.000000013053 Rises=F Damp=F
 DIIS: error= 1.40D-06 at cycle  10 NSaved=  10.
 NSaved=10 IEnMin=10 EnMin= -648.205275061269     IErMin=10 ErrMin= 1.40D-06
 ErrMax= 1.40D-06  0.00D+00 EMaxC= 1.00D-01 BMatC= 1.15D-09 BMatP= 1.43D-08
 IDIUse=1 WtCom= 1.00D+00 WtEn= 0.00D+00
 Coeff-Com: -0.540D-07-0.210D-04-0.260D-03-0.883D-03-0.995D-03-0.709D-03
 Coeff-Com:  0.169D-01 0.116D+00 0.332D+00 0.538D+00
 Coeff:     -0.540D-07-0.210D-04-0.260D-03-0.883D-03-0.995D-03-0.709D-03
 Coeff:      0.169D-01 0.116D+00 0.332D+00 0.538D+00
 Gap=     0.191 Goal=   None    Shift=    0.000
 RMSDP=1.87D-07 MaxDP=7.05D-06 DE=-1.31D-08 OVMax= 9.95D-06

 Cycle  11  Pass 1  IDiag  1:
 RMSU=  1.27D-07    CP:  9.76D-01  8.88D-01  6.15D-01  6.88D-01  5.77D-01
                    CP:  7.08D-01  7.35D-01  7.17D-01  8.07D-01  6.70D-01
 E= -648.205275062170     Delta-E=       -0.000000000901 Rises=F Damp=F
 DIIS: error= 7.37D-07 at cycle  11 NSaved=  11.
 NSaved=11 IEnMin=11 EnMin= -648.205275062170     IErMin=11 ErrMin= 7.37D-07
 ErrMax= 7.37D-07  0.00D+00 EMaxC= 1.00D-01 BMatC= 1.49D-10 BMatP= 1.15D-09
 IDIUse=1 WtCom= 1.00D+00 WtEn= 0.00D+00
 Coeff-Com: -0.574D-06 0.311D-05-0.949D-04-0.328D-03-0.547D-03-0.142D-02
 Coeff-Com:  0.876D-03 0.217D-01 0.738D-01 0.288D+00 0.618D+00
 Coeff:     -0.574D-06 0.311D-05-0.949D-04-0.328D-03-0.547D-03-0.142D-02
 Coeff:      0.876D-03 0.217D-01 0.738D-01 0.288D+00 0.618D+00
 Gap=     0.191 Goal=   None    Shift=    0.000
 RMSDP=6.78D-08 MaxDP=2.39D-06 DE=-9.01D-10 OVMax= 4.87D-06

 Cycle  12  Pass 1  IDiag  1:
 RMSU=  4.26D-08    CP:  9.76D-01  8.88D-01  6.15D-01  6.88D-01  5.77D-01
                    CP:  7.08D-01  7.36D-01  7.17D-01  8.14D-01  7.56D-01
                    CP:  7.11D-01
 E= -648.205275062261     Delta-E=       -0.000000000092 Rises=F Damp=F
 DIIS: error= 3.17D-07 at cycle  12 NSaved=  12.
 NSaved=12 IEnMin=12 EnMin= -648.205275062261     IErMin=12 ErrMin= 3.17D-07
 ErrMax= 3.17D-07  0.00D+00 EMaxC= 1.00D-01 BMatC= 2.81D-11 BMatP= 1.49D-10
 IDIUse=1 WtCom= 1.00D+00 WtEn= 0.00D+00
 Coeff-Com: -0.464D-06 0.408D-05-0.385D-04-0.133D-03-0.274D-03-0.925D-03
 Coeff-Com: -0.124D-02 0.218D-02 0.132D-01 0.138D+00 0.397D+00 0.453D+00
 Coeff:     -0.464D-06 0.408D-05-0.385D-04-0.133D-03-0.274D-03-0.925D-03
 Coeff:     -0.124D-02 0.218D-02 0.132D-01 0.138D+00 0.397D+00 0.453D+00
 Gap=     0.191 Goal=   None    Shift=    0.000
 RMSDP=2.45D-08 MaxDP=8.14D-07 DE=-9.16D-11 OVMax= 1.85D-06

 Cycle  13  Pass 1  IDiag  1:
 RMSU=  1.24D-08    CP:  9.76D-01  8.88D-01  6.15D-01  6.88D-01  5.77D-01
                    CP:  7.08D-01  7.36D-01  7.18D-01  8.15D-01  7.61D-01
                    CP:  7.68D-01  5.57D-01
 E= -648.205275062287     Delta-E=       -0.000000000026 Rises=F Damp=F
 DIIS: error= 3.66D-08 at cycle  13 NSaved=  13.
 NSaved=13 IEnMin=13 EnMin= -648.205275062287     IErMin=13 ErrMin= 3.66D-08
 ErrMax= 3.66D-08  0.00D+00 EMaxC= 1.00D-01 BMatC= 6.07D-13 BMatP= 2.81D-11
 IDIUse=1 WtCom= 1.00D+00 WtEn= 0.00D+00
 Coeff-Com: -0.945D-07 0.814D-06 0.788D-07-0.119D-06-0.169D-04-0.129D-03
 Coeff-Com: -0.469D-03-0.204D-02-0.581D-02 0.126D-01 0.560D-01 0.151D+00
 Coeff-Com:  0.788D+00
 Coeff:     -0.945D-07 0.814D-06 0.788D-07-0.119D-06-0.169D-04-0.129D-03
 Coeff:     -0.469D-03-0.204D-02-0.581D-02 0.126D-01 0.560D-01 0.151D+00
 Coeff:      0.788D+00
 Gap=     0.191 Goal=   None    Shift=    0.000
 RMSDP=4.94D-09 MaxDP=1.54D-07 DE=-2.57D-11 OVMax= 2.94D-07

 Error on total polarization charges =  0.01929
 SCF Done:  E(RB3LYP) =  -648.205275062     A.U. after   13 cycles
            NFock= 13  Conv=0.49D-08     -V/T= 2.0078
 KE= 6.431635529785D+02 PE=-3.064927198965D+03 EE= 1.007013038481D+03
 Leave Link  502 at Sun Jul 18 13:43:11 2021, MaxMem=   104857600 cpu:             105.9 elap:              26.5
 (Enter /prod/apps/gaussian/g16b1/l601.exe)
 Copying SCF densities to generalized density rwf, IOpCl= 0 IROHF=0.

 **********************************************************************

            Population analysis using the SCF Density.

 **********************************************************************

 Orbital symmetries:
       Occupied  (A) (A) (A) (A) (A) (A) (A) (A) (A) (A) (A) (A)
                 (A) (A) (A) (A) (A) (A) (A) (A) (A) (A) (A) (A)
                 (A) (A) (A) (A) (A) (A) (A) (A) (A) (A) (A) (A)
                 (A) (A) (A) (A) (A) (A) (A) (A) (A) (A) (A)
       Virtual   (A) (A) (A) (A) (A) (A) (A) (A) (A) (A) (A) (A)
                 (A) (A) (A) (A) (A) (A) (A) (A) (A) (A) (A) (A)
                 (A) (A) (A) (A) (A) (A) (A) (A) (A) (A) (A) (A)
                 (A) (A) (A) (A) (A) (A) (A) (A) (A) (A) (A) (A)
                 (A) (A) (A) (A) (A) (A) (A) (A) (A) (A) (A) (A)
                 (A) (A) (A) (A) (A) (A) (A) (A) (A) (A) (A) (A)
                 (A) (A) (A) (A) (A) (A) (A) (A) (A) (A) (A) (A)
                 (A) (A) (A) (A) (A) (A) (A) (A) (A) (A) (A) (A)
                 (A) (A) (A) (A) (A) (A) (A) (A) (A) (A) (A) (A)
                 (A) (A) (A) (A) (A) (A) (A) (A) (A) (A) (A) (A)
                 (A) (A) (A) (A) (A) (A) (A) (A) (A) (A) (A) (A)
                 (A) (A) (A) (A) (A) (A) (A) (A) (A) (A) (A) (A)
                 (A) (A) (A) (A) (A) (A) (A) (A) (A) (A) (A) (A)
                 (A) (A) (A) (A) (A) (A)
 The electronic state is 1-A.
 Alpha  occ. eigenvalues --  -19.19713 -19.13792 -19.07060 -19.05580 -10.32331
 Alpha  occ. eigenvalues --  -10.24763 -10.24676 -10.19295 -10.19161 -10.18949
 Alpha  occ. eigenvalues --  -10.18811 -10.18540 -10.18442  -1.12502  -1.03373
 Alpha  occ. eigenvalues --   -1.02200  -0.92005  -0.86146  -0.78184  -0.75134
 Alpha  occ. eigenvalues --   -0.73467  -0.64670  -0.62356  -0.57435  -0.52386
 Alpha  occ. eigenvalues --   -0.49953  -0.48837  -0.48548  -0.46451  -0.45001
 Alpha  occ. eigenvalues --   -0.43533  -0.42127  -0.41343  -0.39874  -0.39100
 Alpha  occ. eigenvalues --   -0.38784  -0.38029  -0.36462  -0.35908  -0.34670
 Alpha  occ. eigenvalues --   -0.31735  -0.28142  -0.25703  -0.24680  -0.23177
 Alpha  occ. eigenvalues --   -0.22934  -0.19975
 Alpha virt. eigenvalues --   -0.00890  -0.00221   0.02181   0.07904   0.10288
 Alpha virt. eigenvalues --    0.12023   0.14466   0.15533   0.16393   0.17682
 Alpha virt. eigenvalues --    0.18570   0.19050   0.19923   0.25110   0.27525
 Alpha virt. eigenvalues --    0.28659   0.31681   0.33094   0.34365   0.35858
 Alpha virt. eigenvalues --    0.38246   0.40665   0.41379   0.49599   0.50696
 Alpha virt. eigenvalues --    0.51305   0.52919   0.54865   0.56445   0.57130
 Alpha virt. eigenvalues --    0.57754   0.59229   0.59682   0.60574   0.60933
 Alpha virt. eigenvalues --    0.61856   0.63059   0.63396   0.64744   0.66190
 Alpha virt. eigenvalues --    0.67600   0.69027   0.70224   0.72982   0.74524
 Alpha virt. eigenvalues --    0.75903   0.78759   0.82267   0.83204   0.84280
 Alpha virt. eigenvalues --    0.84562   0.85820   0.87139   0.87862   0.89160
 Alpha virt. eigenvalues --    0.89498   0.90389   0.91205   0.92002   0.95855
 Alpha virt. eigenvalues --    0.98557   0.98883   1.01034   1.02789   1.05201
 Alpha virt. eigenvalues --    1.06012   1.07156   1.09111   1.11144   1.12290
 Alpha virt. eigenvalues --    1.13507   1.14222   1.18492   1.21037   1.23908
 Alpha virt. eigenvalues --    1.25745   1.27304   1.32341   1.39437   1.41338
 Alpha virt. eigenvalues --    1.43926   1.45873   1.48164   1.49341   1.50014
 Alpha virt. eigenvalues --    1.51472   1.55447   1.57288   1.61506   1.65919
 Alpha virt. eigenvalues --    1.69372   1.72985   1.74750   1.77837   1.79003
 Alpha virt. eigenvalues --    1.81525   1.82353   1.82776   1.84046   1.86767
 Alpha virt. eigenvalues --    1.87830   1.90139   1.91805   1.92425   1.93861
 Alpha virt. eigenvalues --    1.94753   1.96977   2.00108   2.01436   2.04389
 Alpha virt. eigenvalues --    2.06712   2.08516   2.10972   2.12051   2.14346
 Alpha virt. eigenvalues --    2.17235   2.17799   2.20783   2.23346   2.24395
 Alpha virt. eigenvalues --    2.28905   2.30824   2.32724   2.35568   2.39334
 Alpha virt. eigenvalues --    2.43929   2.46880   2.51534   2.53852   2.59368
 Alpha virt. eigenvalues --    2.60079   2.63637   2.65830   2.71240   2.74776
 Alpha virt. eigenvalues --    2.76205   2.79489   2.80739   2.83444   2.85444
 Alpha virt. eigenvalues --    2.91606   2.95904   2.97118   3.01502   3.06819
 Alpha virt. eigenvalues --    3.15258   3.21312   3.29575   3.44878   3.95435
 Alpha virt. eigenvalues --    4.02765   4.09918   4.11987   4.15946   4.18771
 Alpha virt. eigenvalues --    4.20283   4.27272   4.33763   4.42620   4.47933
 Alpha virt. eigenvalues --    4.56390   4.80894
          Condensed to atoms (all electrons):
               1          2          3          4          5          6
     1  C    5.270752   0.354783   0.360262   0.353934   0.367738  -0.065316
     2  H    0.354783   0.495293  -0.023335  -0.019677  -0.013933   0.001295
     3  H    0.360262  -0.023335   0.496212  -0.025408  -0.016753   0.000452
     4  H    0.353934  -0.019677  -0.025408   0.528810  -0.026202   0.002534
     5  C    0.367738  -0.013933  -0.016753  -0.026202   4.229688   0.592454
     6  O   -0.065316   0.001295   0.000452   0.002534   0.592454   8.082443
     7  O   -0.101375   0.001419   0.000230   0.004298   0.259596  -0.104976
     8  C    0.003403  -0.000202   0.000052  -0.000091  -0.005605   0.006966
     9  C   -0.000502   0.000045  -0.000010   0.000005   0.000079  -0.000963
    10  C   -0.000235   0.000212   0.000004   0.000003   0.000622   0.000021
    11  O   -0.000348   0.000558   0.000001  -0.000000   0.003130  -0.000071
    12  O    0.000029  -0.000039  -0.000000  -0.000000  -0.000109  -0.000000
    13  C    0.000009   0.000000  -0.000000  -0.000000  -0.000081  -0.000028
    14  H   -0.000000  -0.000000  -0.000000   0.000000  -0.000001  -0.000000
    15  C   -0.000000   0.000000   0.000000  -0.000000   0.000039   0.000010
    16  H    0.000000  -0.000000  -0.000000  -0.000000   0.000000   0.000000
    17  C    0.000010   0.000000  -0.000001  -0.000000   0.000095   0.000040
    18  H   -0.000000   0.000000   0.000000   0.000000  -0.000010  -0.000003
    19  C    0.000258   0.000002   0.000006   0.000005  -0.001324   0.003956
    20  H   -0.000176   0.000001  -0.000016   0.000008   0.003125   0.004174
               7          8          9         10         11         12
     1  C   -0.101375   0.003403  -0.000502  -0.000235  -0.000348   0.000029
     2  H    0.001419  -0.000202   0.000045   0.000212   0.000558  -0.000039
     3  H    0.000230   0.000052  -0.000010   0.000004   0.000001  -0.000000
     4  H    0.004298  -0.000091   0.000005   0.000003  -0.000000  -0.000000
     5  C    0.259596  -0.005605   0.000079   0.000622   0.003130  -0.000109
     6  O   -0.104976   0.006966  -0.000963   0.000021  -0.000071  -0.000000
     7  O    8.349054   0.201327  -0.060318  -0.000848  -0.003251  -0.000827
     8  C    0.201327   4.604402   0.527877  -0.044139   0.001178  -0.001708
     9  C   -0.060318   0.527877   5.223351   0.227464  -0.142996  -0.133071
    10  C   -0.000848  -0.044139   0.227464   4.411074   0.488878   0.551033
    11  O   -0.003251   0.001178  -0.142996   0.488878   8.477392  -0.137053
    12  O   -0.000827  -0.001708  -0.133071   0.551033  -0.137053   8.327058
    13  C    0.003831  -0.014565   0.486060  -0.031746  -0.000170   0.002508
    14  H   -0.000035   0.003760  -0.047059  -0.003704   0.000367   0.001987
    15  C   -0.000170  -0.047990  -0.018748   0.004053  -0.000062  -0.000097
    16  H    0.000002   0.000702   0.005156  -0.000085   0.000002   0.000001
    17  C    0.003721  -0.008165  -0.050105  -0.000443  -0.000057  -0.000003
    18  H   -0.000044   0.003722   0.000455   0.000003  -0.000000  -0.000000
    19  C   -0.056097   0.484424  -0.048674   0.008208   0.000596  -0.000039
    20  H   -0.006434  -0.036592   0.007541  -0.000084   0.000009   0.000002
              13         14         15         16         17         18
     1  C    0.000009  -0.000000  -0.000000   0.000000   0.000010  -0.000000
     2  H    0.000000  -0.000000   0.000000  -0.000000   0.000000   0.000000
     3  H   -0.000000  -0.000000   0.000000  -0.000000  -0.000001   0.000000
     4  H   -0.000000   0.000000  -0.000000  -0.000000  -0.000000   0.000000
     5  C   -0.000081  -0.000001   0.000039   0.000000   0.000095  -0.000010
     6  O   -0.000028  -0.000000   0.000010   0.000000   0.000040  -0.000003
     7  O    0.003831  -0.000035  -0.000170   0.000002   0.003721  -0.000044
     8  C   -0.014565   0.003760  -0.047990   0.000702  -0.008165   0.003722
     9  C    0.486060  -0.047059  -0.018748   0.005156  -0.050105   0.000455
    10  C   -0.031746  -0.003704   0.004053  -0.000085  -0.000443   0.000003
    11  O   -0.000170   0.000367  -0.000062   0.000002  -0.000057  -0.000000
    12  O    0.002508   0.001987  -0.000097   0.000001  -0.000003  -0.000000
    13  C    5.000554   0.369195   0.507761  -0.040445  -0.030145   0.004549
    14  H    0.369195   0.566096  -0.043306  -0.005245   0.004849  -0.000182
    15  C    0.507761  -0.043306   4.908072   0.358277   0.536335  -0.040873
    16  H   -0.040445  -0.005245   0.358277   0.584343  -0.045248  -0.005385
    17  C   -0.030145   0.004849   0.536335  -0.045248   4.924384   0.365279
    18  H    0.004549  -0.000182  -0.040873  -0.005385   0.365279   0.565245
    19  C   -0.059188   0.000211  -0.018423   0.005194   0.493040  -0.039901
    20  H    0.000607   0.000014   0.004643  -0.000143  -0.042325  -0.005419
              19         20
     1  C    0.000258  -0.000176
     2  H    0.000002   0.000001
     3  H    0.000006  -0.000016
     4  H    0.000005   0.000008
     5  C   -0.001324   0.003125
     6  O    0.003956   0.004174
     7  O   -0.056097  -0.006434
     8  C    0.484424  -0.036592
     9  C   -0.048674   0.007541
    10  C    0.008208  -0.000084
    11  O    0.000596   0.000009
    12  O   -0.000039   0.000002
    13  C   -0.059188   0.000607
    14  H    0.000211   0.000014
    15  C   -0.018423   0.004643
    16  H    0.005194  -0.000143
    17  C    0.493040  -0.042325
    18  H   -0.039901  -0.005419
    19  C    5.065742   0.348996
    20  H    0.348996   0.567467
 Mulliken charges:
               1
     1  C   -0.543225
     2  H    0.203576
     3  H    0.208304
     4  H    0.181782
     5  C    0.607452
     6  O   -0.522987
     7  O   -0.489104
     8  C    0.321243
     9  C    0.024412
    10  C    0.389709
    11  O   -0.688102
    12  O   -0.609673
    13  C   -0.198709
    14  H    0.153053
    15  C   -0.149519
    16  H    0.142874
    17  C   -0.151261
    18  H    0.152565
    19  C   -0.186991
    20  H    0.154601
 Sum of Mulliken charges =  -1.00000
 Mulliken charges with hydrogens summed into heavy atoms:
               1
     1  C    0.050437
     5  C    0.607452
     6  O   -0.522987
     7  O   -0.489104
     8  C    0.321243
     9  C    0.024412
    10  C    0.389709
    11  O   -0.688102
    12  O   -0.609673
    13  C   -0.045656
    15  C   -0.006646
    17  C    0.001304
    19  C   -0.032390
 Electronic spatial extent (au):  <R**2>=           2288.1841
 Charge=             -1.0000 electrons
 Dipole moment (field-independent basis, Debye):
    X=              0.4231    Y=            -10.0521    Z=             -2.9584  Tot=             10.4869
 Quadrupole moment (field-independent basis, Debye-Ang):
   XX=            -63.8609   YY=           -103.8310   ZZ=            -83.9859
   XY=              6.7873   XZ=             -8.7831   YZ=              3.8876
 Traceless Quadrupole moment (field-independent basis, Debye-Ang):
   XX=             20.0317   YY=            -19.9384   ZZ=             -0.0933
   XY=              6.7873   XZ=             -8.7831   YZ=              3.8876
 Octapole moment (field-independent basis, Debye-Ang**2):
  XXX=             23.9556  YYY=            -80.4152  ZZZ=             -5.1360  XYY=             -1.7450
  XXY=              8.0785  XXZ=            -12.0295  XZZ=              9.6568  YZZ=             -8.5576
  YYZ=             -6.3850  XYZ=             -0.4102
 Hexadecapole moment (field-independent basis, Debye-Ang**3):
 XXXX=          -1510.1992 YYYY=          -1229.0845 ZZZZ=           -205.6344 XXXY=             15.4040
 XXXZ=            -45.7312 YYYX=             41.2873 YYYZ=             24.9772 ZZZX=             -8.5170
 ZZZY=             -6.9522 XXYY=           -460.5885 XXZZ=           -331.9669 YYZZ=           -255.1523
 XXYZ=             21.9590 YYXZ=            -28.1219 ZZXY=             -1.2391
 N-N= 7.665453324425D+02 E-N=-3.064927200147D+03  KE= 6.431635529785D+02
 No NMR shielding tensors so no spin-rotation constants.
 Leave Link  601 at Sun Jul 18 13:43:11 2021, MaxMem=   104857600 cpu:               0.5 elap:               0.1
 (Enter /prod/apps/gaussian/g16b1/l701.exe)
 ... and contract with generalized density number  0.
 Compute integral first derivatives.
 D1PCM: PCM CHGder 1st derivatives, ID1Alg=3 FixD1E=F DoIter=F DoCFld=F I1PDM=0.
 GePol: Maximum number of non-zero 1st derivatives   =     171
 Leave Link  701 at Sun Jul 18 13:43:12 2021, MaxMem=   104857600 cpu:               4.3 elap:               1.1
 (Enter /prod/apps/gaussian/g16b1/l702.exe)
 L702 exits ... SP integral derivatives will be done elsewhere.
 Leave Link  702 at Sun Jul 18 13:43:12 2021, MaxMem=   104857600 cpu:               0.1 elap:               0.0
 (Enter /prod/apps/gaussian/g16b1/l703.exe)
 Integral derivatives from FoFJK, PRISM(SPDF).
 Compute integral first derivatives, UseDBF=F ICtDFT=           0.
 Calling FoFJK, ICntrl=      2127 FMM=F ISym2X=0 I1Cent= 0 IOpClX= 0 NMat=1 NMatS=1 NMatT=0.
 FoFJK:  IHMeth= 1 ICntrl=    2127 DoSepK=F KAlg= 0 I1Cent=           0 FoldK=F
 IRaf=         0 NMat=       1 IRICut=       1 DoRegI=T DoRafI=F ISym2E= 0 IDoP0=0 IntGTp=1.
 FoFCou: FMM=F IPFlag=           0 FMFlag=      100000 FMFlg1=         800
         NFxFlg=           0 DoJE=F BraDBF=F KetDBF=F FulRan=T
         wScrn=  0.000000 ICntrl=      2127 IOpCl=  0 I1Cent=           0 NGrid=           0
         NMat0=    1 NMatS0=      1 NMatT0=    0 NMatD0=    1 NMtDS0=    0 NMtDT0=    0
 Symmetry not used in FoFCou.
 Leave Link  703 at Sun Jul 18 13:43:18 2021, MaxMem=   104857600 cpu:              23.6 elap:               5.9
 (Enter /prod/apps/gaussian/g16b1/l716.exe)
 Dipole        = 1.66443216D-01-3.95480164D+00-1.16393186D+00
 ***** Axes restored to original set *****
 -------------------------------------------------------------------
 Center     Atomic                   Forces (Hartrees/Bohr)
 Number     Number              X              Y              Z
 -------------------------------------------------------------------
      1        6          -0.006691023    0.016589306    0.021514333
      2        1           0.004730974   -0.002568057    0.000295117
      3        1           0.004338563   -0.001535715   -0.006880944
      4        1          -0.001979576   -0.004192052    0.002807352
      5        6           0.006724439   -0.000810221   -0.010872248
      6        8           0.012356601    0.014375498    0.031161277
      7        8          -0.015015938   -0.028335806   -0.042040670
      8        6           0.011132421    0.030615043    0.001738368
      9        6          -0.012346867   -0.047589341   -0.022434071
     10        6           0.025879228    0.029645409    0.066321481
     11        8           0.021127618   -0.018879137    0.044984068
     12        8          -0.065568035   -0.014031660   -0.089588513
     13        6           0.002899529    0.017367558   -0.010437958
     14        1          -0.002500275   -0.000747966    0.008194739
     15        6           0.019250707   -0.023813507   -0.001418882
     16        1          -0.002718795    0.002507023   -0.004106904
     17        6          -0.013322531    0.028105084    0.013957257
     18        1           0.000977710   -0.004249040    0.000021222
     19        6           0.007691164    0.008976398   -0.000404823
     20        1           0.003034083   -0.001428816   -0.002810201
 -------------------------------------------------------------------
 Cartesian Forces:  Max     0.089588513 RMS     0.023552724
 Leave Link  716 at Sun Jul 18 13:43:18 2021, MaxMem=   104857600 cpu:               0.1 elap:               0.0
 (Enter /prod/apps/gaussian/g16b1/l103.exe)

 GradGradGradGradGradGradGradGradGradGradGradGradGradGradGradGradGradGrad
 Berny optimization.
 FormGI is forming the generalized inverse of G from B-inverse, IUseBI=4.
 GSVD:  received Info=                   1 from GESDD.
 Internal  Forces:  Max     0.106404425 RMS     0.016899466
 Search for a local minimum.
 Step number   1 out of a maximum of   99
 All quantities printed in internal units (Hartrees-Bohrs-Radians)
 RMS Force = .16899D-01 SwitMx=.10000D-02 MixMth= 1
 Mixed Optimization -- RFO/linear search
 Second derivative matrix not updated -- first step.
 ITU=  0
     Eigenvalues ---    0.00826   0.00936   0.01281   0.01306   0.01621
     Eigenvalues ---    0.01932   0.02056   0.02106   0.02189   0.02214
     Eigenvalues ---    0.02280   0.02353   0.02376   0.02455   0.02815
     Eigenvalues ---    0.06897   0.07523   0.15701   0.15841   0.15920
     Eigenvalues ---    0.15996   0.16000   0.16000   0.16000   0.21958
     Eigenvalues ---    0.22452   0.24365   0.24479   0.24862   0.24981
     Eigenvalues ---    0.25000   0.25000   0.25000   0.25000   0.32856
     Eigenvalues ---    0.33761   0.34520   0.34569   0.34617   0.35096
     Eigenvalues ---    0.35151   0.35201   0.35243   0.41071   0.43893
     Eigenvalues ---    0.44742   0.45164   0.47180   0.48778   0.52101
     Eigenvalues ---    0.63172   0.84764   1.03400   1.07112
 RFO step:  Lambda=-5.70652618D-02 EMin= 8.25718250D-03
 Linear search not attempted -- first point.
 Maximum step size (   0.300) exceeded in Quadratic search.
    -- Step size scaled by   0.975
 Iteration  1 RMS(Cart)=  0.09310454 RMS(Int)=  0.01285571
 Iteration  2 RMS(Cart)=  0.01427375 RMS(Int)=  0.00577595
 Iteration  3 RMS(Cart)=  0.00058800 RMS(Int)=  0.00575530
 Iteration  4 RMS(Cart)=  0.00001479 RMS(Int)=  0.00575529
 Iteration  5 RMS(Cart)=  0.00000050 RMS(Int)=  0.00575529
 ITry= 1 IFail=0 DXMaxC= 4.26D-01 DCOld= 1.00D+10 DXMaxT= 3.00D-01 DXLimC= 3.00D+00 Rises=F
 Variable       Old X    -DE/DX   Delta X   Delta X   Delta X     New X
                                 (Linear)    (Quad)   (Total)
    R1        2.06380  -0.00120   0.00000  -0.00290  -0.00290   2.06090
    R2        2.06461   0.00128   0.00000   0.00310   0.00310   2.06771
    R3        2.06301   0.00055   0.00000   0.00134   0.00134   2.06434
    R4        2.81036   0.00716   0.00000   0.01770   0.01770   2.82806
    R5        2.27307   0.02560   0.00000   0.02289   0.02289   2.29596
    R6        2.48515   0.04525   0.00000   0.06409   0.06409   2.54924
    R7        2.65577  -0.00800   0.00000  -0.01547  -0.01547   2.64030
    R8        2.56986   0.03542   0.00000   0.05979   0.05992   2.62979
    R9        2.62586   0.00636   0.00000   0.01186   0.01173   2.63759
   R10        2.82605   0.02251   0.00000   0.05695   0.05695   2.88300
   R11        2.64062   0.00314   0.00000   0.00675   0.00700   2.64762
   R12        2.35444   0.04748   0.00000   0.05120   0.05120   2.40564
   R13        2.25919   0.10640   0.00000   0.09200   0.09200   2.35119
   R14        2.05519  -0.00247   0.00000  -0.00590  -0.00590   2.04929
   R15        2.63060   0.00835   0.00000   0.01524   0.01535   2.64595
   R16        2.05430  -0.00020   0.00000  -0.00047  -0.00047   2.05383
   R17        2.59692   0.02041   0.00000   0.03473   0.03461   2.63153
   R18        2.05283  -0.00190   0.00000  -0.00454  -0.00454   2.04829
   R19        2.66949  -0.01195   0.00000  -0.02451  -0.02477   2.64472
   R20        2.05350  -0.00207   0.00000  -0.00494  -0.00494   2.04856
    A1        1.85906   0.00623   0.00000   0.02130   0.02019   1.87924
    A2        1.93252  -0.00067   0.00000  -0.00560  -0.00543   1.92710
    A3        1.98266  -0.00693   0.00000  -0.03633  -0.03681   1.94585
    A4        1.82656   0.00596   0.00000   0.03741   0.03771   1.86427
    A5        1.96411  -0.00908   0.00000  -0.03973  -0.04017   1.92394
    A6        1.89291   0.00540   0.00000   0.02813   0.02837   1.92128
    A7        2.30624  -0.03112   0.00000  -0.09856  -0.09872   2.20752
    A8        1.89786   0.00379   0.00000   0.01243   0.01228   1.91014
    A9        2.07804   0.02741   0.00000   0.08752   0.08739   2.16543
   A10        2.18822  -0.01593   0.00000  -0.05060  -0.05060   2.13762
   A11        2.05670  -0.00596   0.00000  -0.01786  -0.01816   2.03854
   A12        2.12955  -0.00523   0.00000  -0.01589  -0.01628   2.11327
   A13        2.07913   0.01182   0.00000   0.04089   0.04082   2.11995
   A14        2.08208   0.00678   0.00000   0.02114   0.02071   2.10280
   A15        2.13139  -0.01961   0.00000  -0.05931  -0.05902   2.07237
   A16        2.06384   0.01309   0.00000   0.04145   0.04113   2.10497
   A17        1.99643  -0.00175   0.00000   0.02253  -0.00828   1.98814
   A18        2.13882  -0.02651   0.00000  -0.05626  -0.08703   2.05179
   A19        2.11656   0.03486   0.00000   0.13983   0.10831   2.22487
   A20        2.14737  -0.01138   0.00000  -0.04543  -0.04626   2.10112
   A21        2.06328   0.00931   0.00000   0.03442   0.03445   2.09773
   A22        2.05901   0.00279   0.00000   0.01937   0.01884   2.07785
   A23        2.07229   0.00221   0.00000   0.01236   0.01200   2.08429
   A24        2.11119  -0.00206   0.00000  -0.00927  -0.00960   2.10159
   A25        2.08808   0.00046   0.00000   0.00414   0.00369   2.09177
   A26        2.14738  -0.00534   0.00000  -0.01932  -0.01932   2.12805
   A27        2.07706   0.00410   0.00000   0.01067   0.01026   2.08732
   A28        2.05355   0.00147   0.00000   0.01144   0.01148   2.06503
   A29        2.09859  -0.00321   0.00000  -0.01325  -0.01357   2.08502
   A30        2.06025   0.00554   0.00000   0.02442   0.02454   2.08480
   A31        2.12409  -0.00231   0.00000  -0.01089  -0.01077   2.11331
    D1       -2.28032   0.00072   0.00000   0.01230   0.01229  -2.26804
    D2        0.91233  -0.00226   0.00000  -0.02495  -0.02391   0.88842
    D3        1.88856   0.00458   0.00000   0.04155   0.04046   1.92902
    D4       -1.20197   0.00160   0.00000   0.00430   0.00426  -1.19771
    D5       -0.12366  -0.00090   0.00000   0.00097   0.00049  -0.12317
    D6        3.06899  -0.00389   0.00000  -0.03628  -0.03570   3.03329
    D7        3.13709  -0.00037   0.00000   0.00479   0.00642  -3.13967
    D8        0.03881  -0.00103   0.00000  -0.02083  -0.02246   0.01635
    D9        2.30552  -0.00373   0.00000  -0.03900  -0.03841   2.26711
   D10       -1.03960   0.00126   0.00000   0.00612   0.00554  -1.03406
   D11       -0.10533  -0.00005   0.00000   0.00697   0.00784  -0.09749
   D12        2.91798   0.00349   0.00000   0.04290   0.04290   2.96087
   D13       -3.04944  -0.00292   0.00000  -0.03022  -0.02940  -3.07885
   D14       -0.02614   0.00062   0.00000   0.00571   0.00565  -0.02049
   D15       -2.92537  -0.00381   0.00000  -0.04662  -0.04650  -2.97187
   D16        0.19224  -0.00279   0.00000  -0.03395  -0.03385   0.15839
   D17        0.01016  -0.00079   0.00000  -0.00766  -0.00750   0.00267
   D18        3.12778   0.00024   0.00000   0.00501   0.00515   3.13293
   D19       -1.17616  -0.01537   0.00000  -0.20846  -0.20484  -1.38100
   D20        1.70164   0.01753   0.00000   0.25075   0.24831   1.94995
   D21        2.07914  -0.01655   0.00000  -0.23620  -0.23376   1.84539
   D22       -1.32625   0.01634   0.00000   0.22302   0.21940  -1.10685
   D23       -2.99155  -0.00397   0.00000  -0.03930  -0.03799  -3.02955
   D24       -0.02970   0.00119   0.00000   0.01809   0.01845  -0.01125
   D25        0.03293  -0.00085   0.00000  -0.00496  -0.00423   0.02871
   D26        2.99479   0.00431   0.00000   0.05243   0.05221   3.04700
   D27        3.08194   0.00070   0.00000   0.00824   0.00790   3.08985
   D28        0.10417  -0.00361   0.00000  -0.04277  -0.04296   0.06121
   D29       -0.23017   0.00405   0.00000   0.05577   0.05676  -0.17341
   D30        3.07524  -0.00026   0.00000   0.00476   0.00590   3.08114
   D31        3.13362   0.00079   0.00000   0.01047   0.01048  -3.13908
   D32       -0.12004   0.00334   0.00000   0.04126   0.04113  -0.07891
   D33        0.15731  -0.00372   0.00000  -0.04174  -0.04136   0.11595
   D34       -3.09635  -0.00117   0.00000  -0.01095  -0.01071  -3.10706
   D35        0.06208  -0.00105   0.00000  -0.01469  -0.01505   0.04703
   D36       -3.05463  -0.00223   0.00000  -0.02832  -0.02841  -3.08304
   D37        3.09763   0.00091   0.00000   0.01245   0.01251   3.11013
   D38       -0.01909  -0.00027   0.00000  -0.00118  -0.00085  -0.01994
         Item               Value     Threshold  Converged?
 Maximum Force            0.106404     0.000450     NO 
 RMS     Force            0.016899     0.000300     NO 
 Maximum Displacement     0.426335     0.001800     NO 
 RMS     Displacement     0.098201     0.001200     NO 
 Predicted change in Energy=-3.787948D-02
 Lowest energy point so far.  Saving SCF results.
 GradGradGradGradGradGradGradGradGradGradGradGradGradGradGradGradGradGrad

 Leave Link  103 at Sun Jul 18 13:43:18 2021, MaxMem=   104857600 cpu:               0.1 elap:               0.0
 (Enter /prod/apps/gaussian/g16b1/l202.exe)
                          Input orientation:                          
 ---------------------------------------------------------------------
 Center     Atomic      Atomic             Coordinates (Angstroms)
 Number     Number       Type             X           Y           Z
 ---------------------------------------------------------------------
      1          6           0       -2.029680    1.846990    2.128115
      2          1           0       -2.757020    1.034466    2.140401
      3          1           0       -2.427733    2.639463    1.487191
      4          1           0       -1.918939    2.274407    3.127312
      5          6           0       -0.701118    1.385803    1.616368
      6          8           0        0.378382    1.566042    2.143951
      7          8           0       -0.871091    0.739116    0.444740
      8          6           0        0.196207    0.191773   -0.271791
      9          6           0        0.062518   -1.130565   -0.684301
     10          6           0       -1.141970   -1.959221   -0.248350
     11          8           0       -1.053311   -2.414364    0.937201
     12          8           0       -1.966518   -2.280607   -1.122912
     13          6           0        0.998862   -1.652804   -1.586241
     14          1           0        0.863123   -2.643668   -2.005493
     15          6           0        2.037739   -0.847127   -2.068026
     16          1           0        2.784981   -1.278157   -2.729137
     17          6           0        2.193788    0.455671   -1.601604
     18          1           0        2.987582    1.101338   -1.959187
     19          6           0        1.250067    0.991004   -0.717592
     20          1           0        1.318134    2.019439   -0.381645
 ---------------------------------------------------------------------
                    Distance matrix (angstroms):
                    1          2          3          4          5
     1  C    0.000000
     2  H    1.090582   0.000000
     3  H    1.094186   1.763840   0.000000
     4  H    1.092403   1.792715   1.755600   0.000000
     5  C    1.496547   2.150530   2.137650   2.134398   0.000000
     6  O    2.424447   3.180146   3.075361   2.597395   1.214969
     7  O    2.324535   2.553277   2.668549   3.263632   1.349002
     8  C    3.667950   3.905169   3.996281   4.512771   2.407497
     9  C    4.599218   4.540495   5.012967   5.481642   3.494042
    10  C    4.574151   4.156522   5.080668   5.470135   3.854959
    11  O    4.531082   4.030476   5.266184   5.246948   3.876412
    12  O    5.254542   4.718454   5.588600   6.230154   4.748415
    13  C    5.934396   5.934301   6.293734   6.793683   4.730726
    14  H    6.754334   6.619859   7.137229   7.633676   5.639269
    15  C    6.435042   6.651388   6.688521   7.238150   5.105103
    16  H    7.519335   7.731391   7.765150   8.309366   6.175191
    17  C    5.803814   6.232825   5.972274   6.525716   4.427299
    18  H    6.514211   7.057729   6.600681   7.163973   5.145097
    19  C    4.425777   4.922069   4.593985   5.145193   3.067631
    20  H    4.187659   4.892624   4.231843   4.780840   2.910486
                    6          7          8          9         10
     6  O    0.000000
     7  O    2.265460   0.000000
     8  C    2.785249   1.397185   0.000000
     9  C    3.920519   2.375304   1.391624   0.000000
    10  C    4.523500   2.799066   2.533386   1.525619   0.000000
    11  O    4.398820   3.196898   3.132875   2.349996   1.273007
    12  O    5.564859   3.574383   3.393294   2.373175   1.244196
    13  C    4.965914   3.652792   2.403019   1.401060   2.543031
    14  H    5.930811   4.522650   3.389723   2.162405   2.752529
    15  C    5.130069   4.158300   2.774350   2.428278   3.828645
    16  H    6.134181   5.244974   3.860181   3.408070   4.694582
    17  C    4.307878   3.696127   2.414203   2.810677   4.334776
    18  H    4.884631   4.560639   3.386206   3.893935   5.417304
    19  C    3.046134   2.431826   1.395754   2.431551   3.826991
    20  H    2.732644   2.667367   2.147359   3.404512   4.679702
                   11         12         13         14         15
    11  O    0.000000
    12  O    2.257411   0.000000
    13  C    3.340531   3.066314   0.000000
    14  H    3.519197   2.986239   1.084439   0.000000
    15  C    4.587179   4.356854   1.400178   2.147369   0.000000
    16  H    5.428212   5.114841   2.153322   2.466135   1.086842
    17  C    5.022577   5.002450   2.423582   3.397013   1.392545
    18  H    6.089174   6.056402   3.417513   4.305873   2.170383
    19  C    4.431751   4.605881   2.794168   3.875468   2.413053
    20  H    5.198241   5.461575   3.877932   4.958677   3.402780
                   16         17         18         19         20
    16  H    0.000000
    17  C    2.151046   0.000000
    18  H    2.509157   1.083910   0.000000
    19  C    3.398730   1.399524   2.138385   0.000000
    20  H    4.305404   2.168050   2.473581   1.084054   0.000000
 Stoichiometry    C9H7O4(1-)
 Framework group  C1[X(C9H7O4)]
 Deg. of freedom    54
 Full point group                 C1      NOp   1
 RotChk:  IX=0 Diff= 1.54D-01
 Largest Abelian subgroup         C1      NOp   1
 Largest concise Abelian subgroup C1      NOp   1
                         Standard orientation:                         
 ---------------------------------------------------------------------
 Center     Atomic      Atomic             Coordinates (Angstroms)
 Number     Number       Type             X           Y           Z
 ---------------------------------------------------------------------
      1          6           0        3.485574    0.285344   -0.494927
      2          1           0        3.326130    1.363956   -0.518268
      3          1           0        3.656218   -0.047539   -1.523184
      4          1           0        4.390066    0.045982    0.068939
      5          6           0        2.309569   -0.430092    0.092285
      6          8           0        2.338636   -1.264397    0.975032
      7          8           0        1.181609   -0.021760   -0.524785
      8          6           0       -0.080269   -0.516513   -0.185651
      9          6           0       -1.078599    0.422693    0.054863
     10          6           0       -0.751668    1.912785    0.070823
     11          8           0       -0.216150    2.311979    1.154527
     12          8           0       -1.211976    2.612995   -0.848876
     13          6           0       -2.402390   -0.018543    0.180789
     14          1           0       -3.213322    0.696574    0.264486
     15          6           0       -2.706363   -1.379225    0.051774
     16          1           0       -3.729717   -1.714019    0.199713
     17          6           0       -1.690594   -2.314321   -0.129857
     18          1           0       -1.898085   -3.373000   -0.234769
     19          6           0       -0.368820   -1.878966   -0.278335
     20          1           0        0.433121   -2.581468   -0.474686
 ---------------------------------------------------------------------
 Rotational constants (GHZ):           1.0419305           0.7308853           0.4787324
 Leave Link  202 at Sun Jul 18 13:43:18 2021, MaxMem=   104857600 cpu:               0.0 elap:               0.0
 (Enter /prod/apps/gaussian/g16b1/l301.exe)
 Standard basis: 6-31G(d) (6D, 7F)
 Ernie: Thresh=  0.10000D-02 Tol=  0.10000D-05 Strict=F.
 There are   209 symmetry adapted cartesian basis functions of A   symmetry.
 There are   209 symmetry adapted basis functions of A   symmetry.
   209 basis functions,   392 primitive gaussians,   209 cartesian basis functions
    47 alpha electrons       47 beta electrons
       nuclear repulsion energy       755.2487103032 Hartrees.
 IExCor=  402 DFT=T Ex+Corr=B3LYP ExCW=0 ScaHFX=  0.200000
 ScaDFX=  0.800000  0.720000  1.000000  0.810000 ScalE2=  1.000000  1.000000
 IRadAn=      5 IRanWt=     -1 IRanGd=            0 ICorTp=0 IEmpDi=  4
 NAtoms=   20 NActive=   20 NUniq=   20 SFac= 1.00D+00 NAtFMM=   60 NAOKFM=F Big=F
 Integral buffers will be    131072 words long.
 Raffenetti 2 integral format.
 Two-electron integral symmetry is turned on.
 ------------------------------------------------------------------------------
 Polarizable Continuum Model (PCM)
 =================================
 Model                : PCM.
 Atomic radii         : MST.
 Polarization charges : Total charges.
 Charge compensation  : None.
 Solution method      : On-the-fly selection.
 Cavity type          : Scaled VdW (van der Waals Surface) (Alpha=1.250).
 Cavity algorithm     : GePol (No added spheres)
                        Default sphere list used, NSphG=   20.
                        Lebedev-Laikov grids with approx.  5.0 points / Ang**2.
                        Smoothing algorithm: York/Karplus (Gamma=1.0000).
                        Polarization charges: spherical gaussians, with
                                              point-specific exponents (IZeta= 3).
                        Self-potential: point-specific (ISelfS= 7).
                        Self-field    : sphere-specific E.n sum rule (ISelfD= 2).
 1st derivatives      : Analytical E(r).r(x)/FMM algorithm (CHGder, D1EAlg=3).
                        Cavity 1st derivative terms included.
 Solvent              : Water, Eps=  78.355300 Eps(inf)=   1.777849
 ------------------------------------------------------------------------------
 Spheres list:
 ISph  on   Nord     Re0    Alpha      Xe            Ye            Ze
    1   C      1    1.5000  1.250      3.485574      0.285344     -0.494927
    2   H      2    1.2000  1.250      3.326130      1.363956     -0.518268
    3   H      3    1.2000  1.250      3.656218     -0.047539     -1.523184
    4   H      4    1.2000  1.250      4.390066      0.045982      0.068939
    5   C      5    1.5000  1.250      2.309569     -0.430092      0.092285
    6   O      6    1.4000  1.250      2.338636     -1.264397      0.975032
    7   O      7    1.4000  1.250      1.181609     -0.021760     -0.524785
    8   C      8    1.5000  1.250     -0.080269     -0.516513     -0.185651
    9   C      9    1.5000  1.250     -1.078599      0.422693      0.054863
   10   C     10    1.5000  1.150     -0.751668      1.912785      0.070823
   11   O     11    1.4000  1.150     -0.216150      2.311979      1.154527
   12   O     12    1.4000  1.150     -1.211976      2.612995     -0.848876
   13   C     13    1.5000  1.250     -2.402390     -0.018543      0.180789
   14   H     14    1.2000  1.250     -3.213322      0.696574      0.264486
   15   C     15    1.5000  1.250     -2.706363     -1.379225      0.051774
[...]
 Largest core mixing into a valence orbital is  4.15D-05
 Range of M.O.s used for correlation:    14   362
 NBasis=   362 NAE=    47 NBE=    47 NFC=    13 NFV=     0
 NROrb=    349 NOA=    34 NOB=    34 NVA=   315 NVB=   315

 **** Warning!!: The largest alpha MO coefficient is  0.11072375D+03

 Leave Link  801 at Sun Jul 18 14:08:03 2021, MaxMem=   262144000 cpu:               0.6 elap:               0.2
 (Enter /prod/apps/gaussian/g16b1/l906.exe)
 FulOut=F Deriv=F AODrv=F NAtomX=    20
   MMem=          14  MDisk=          34 MDiskD=          34
  W3Min=     4155480 MinDsk=     4703468 NBas6D=         388
 NBas2D=       76015    NTT=       75466    LW2=     2000000
    MDV=   261163601 MDiskM=        9277 NBas2p=       73237
 Disk-based method using OVN memory for 34 occupieds at a time.
 Estimated scratch disk usage=  2156502670 words.
 IMap=   1   2   3   4   5   6   7   8   9  10  11  12  13  14  15  16  17  18  19  20
 IMap=  21  22  23  24  25  26  27  28  29  30  31  32  33  34
 Actual    scratch disk usage=  1965537934 words.
 JobTyp=1 Pass  1:  I=   1 to  34 NPSUse=  4 ParTrn=T ParDer=T DoDerP=F.
 Spin components of T(2) and E(2):
     alpha-alpha T2 =       0.9615720730D-01 E2=     -0.2750134127D+00
     alpha-beta  T2 =       0.4826113549D+00 E2=     -0.1456004088D+01
     beta-beta   T2 =       0.9615720730D-01 E2=     -0.2750134127D+00
 The integrals were generated   1 times.
 ANorm=    0.1294189232D+01
 E2 =    -0.2006030914D+01 EUMP2 =    -0.64649566020973D+03
 Leave Link  906 at Sun Jul 18 14:10:07 2021, MaxMem=   262144000 cpu:             459.2 elap:             123.7
 (Enter /prod/apps/gaussian/g16b1/l601.exe)
 Copying SCF densities to generalized density rwf, IOpCl= 0 IROHF=0.

 **********************************************************************

            Population analysis using the SCF Density.

 **********************************************************************

 Orbital symmetries:
       Occupied  (A) (A) (A) (A) (A) (A) (A) (A) (A) (A) (A) (A)
                 (A) (A) (A) (A) (A) (A) (A) (A) (A) (A) (A) (A)
                 (A) (A) (A) (A) (A) (A) (A) (A) (A) (A) (A) (A)
                 (A) (A) (A) (A) (A) (A) (A) (A) (A) (A) (A)
       Virtual   (A) (A) (A) (A) (A) (A) (A) (A) (A) (A) (A) (A)
                 (A) (A) (A) (A) (A) (A) (A) (A) (A) (A) (A) (A)
                 (A) (A) (A) (A) (A) (A) (A) (A) (A) (A) (A) (A)
                 (A) (A) (A) (A) (A) (A) (A) (A) (A) (A) (A) (A)
                 (A) (A) (A) (A) (A) (A) (A) (A) (A) (A) (A) (A)
                 (A) (A) (A) (A) (A) (A) (A) (A) (A) (A) (A) (A)
                 (A) (A) (A) (A) (A) (A) (A) (A) (A) (A) (A) (A)
                 (A) (A) (A) (A) (A) (A) (A) (A) (A) (A) (A) (A)
                 (A) (A) (A) (A) (A) (A) (A) (A) (A) (A) (A) (A)
                 (A) (A) (A) (A) (A) (A) (A) (A) (A) (A) (A) (A)
                 (A) (A) (A) (A) (A) (A) (A) (A) (A) (A) (A) (A)
                 (A) (A) (A) (A) (A) (A) (A) (A) (A) (A) (A) (A)
                 (A) (A) (A) (A) (A) (A) (A) (A) (A) (A) (A) (A)
                 (A) (A) (A) (A) (A) (A) (A) (A) (A) (A) (A) (A)
                 (A) (A) (A) (A) (A) (A) (A) (A) (A) (A) (A) (A)
                 (A) (A) (A) (A) (A) (A) (A) (A) (A) (A) (A) (A)
                 (A) (A) (A) (A) (A) (A) (A) (A) (A) (A) (A) (A)
                 (A) (A) (A) (A) (A) (A) (A) (A) (A) (A) (A) (A)
                 (A) (A) (A) (A) (A) (A) (A) (A) (A) (A) (A) (A)
                 (A) (A) (A) (A) (A) (A) (A) (A) (A) (A) (A) (A)
                 (A) (A) (A) (A) (A) (A) (A) (A) (A) (A) (A) (A)
                 (A) (A) (A) (A) (A) (A) (A) (A) (A) (A) (A) (A)
                 (A) (A) (A) (A) (A) (A) (A) (A) (A) (A) (A) (A)
                 (A) (A) (A) (A) (A) (A) (A) (A) (A) (A) (A) (A)
                 (A) (A) (A) (A) (A) (A) (A) (A) (A) (A) (A) (A)
                 (A) (A) (A) (A) (A) (A) (A) (A) (A) (A) (A) (A)
                 (A) (A) (A)
 The electronic state is 1-A.
 Alpha  occ. eigenvalues --  -20.48837 -20.42577 -20.32414 -20.32333 -11.26997
 Alpha  occ. eigenvalues --  -11.18597 -11.17568 -11.13456 -11.13114 -11.12679
 Alpha  occ. eigenvalues --  -11.12412 -11.11655 -11.11208  -1.33861  -1.23763
 Alpha  occ. eigenvalues --   -1.19442  -1.09010  -1.03310  -0.92189  -0.90236
 Alpha  occ. eigenvalues --   -0.87691  -0.74092  -0.72125  -0.65755  -0.60257
 Alpha  occ. eigenvalues --   -0.57143  -0.55937  -0.54799  -0.52857  -0.49851
 Alpha  occ. eigenvalues --   -0.48339  -0.46505  -0.45919  -0.44764  -0.42514
 Alpha  occ. eigenvalues --   -0.41600  -0.40522  -0.39609  -0.37769  -0.36145
 Alpha  occ. eigenvalues --   -0.33970  -0.32214  -0.23584  -0.23245  -0.21656
 Alpha  occ. eigenvalues --   -0.21050  -0.20629
 Alpha virt. eigenvalues --    0.10883   0.11537   0.12186   0.13245   0.14163
 Alpha virt. eigenvalues --    0.15499   0.15934   0.18396   0.20040   0.20604
 Alpha virt. eigenvalues --    0.21181   0.21543   0.21839   0.22427   0.23013
 Alpha virt. eigenvalues --    0.23161   0.23343   0.23820   0.24075   0.24975
 Alpha virt. eigenvalues --    0.25299   0.25748   0.26750   0.26844   0.27468
 Alpha virt. eigenvalues --    0.27731   0.28638   0.29301   0.29452   0.30062
 Alpha virt. eigenvalues --    0.30179   0.30297   0.31567   0.32293   0.32901
 Alpha virt. eigenvalues --    0.34057   0.35226   0.35488   0.36005   0.37747
 Alpha virt. eigenvalues --    0.38513   0.39359   0.39986   0.41115   0.41461
 Alpha virt. eigenvalues --    0.41896   0.42572   0.43898   0.44042   0.44666
 Alpha virt. eigenvalues --    0.45005   0.46130   0.46703   0.47558   0.47768
 Alpha virt. eigenvalues --    0.48541   0.48855   0.49506   0.49597   0.49936
 Alpha virt. eigenvalues --    0.50442   0.50817   0.51562   0.51989   0.52792
 Alpha virt. eigenvalues --    0.53041   0.53920   0.54505   0.54764   0.55498
 Alpha virt. eigenvalues --    0.56199   0.56694   0.57501   0.58476   0.58727
 Alpha virt. eigenvalues --    0.59117   0.60230   0.61411   0.62239   0.62252
 Alpha virt. eigenvalues --    0.64551   0.65820   0.66350   0.66724   0.67350
 Alpha virt. eigenvalues --    0.67963   0.68136   0.68741   0.69711   0.70320
 Alpha virt. eigenvalues --    0.71525   0.71984   0.72423   0.73587   0.73668
 Alpha virt. eigenvalues --    0.74285   0.74790   0.75703   0.77050   0.77579
 Alpha virt. eigenvalues --    0.78148   0.79548   0.80071   0.80334   0.81079
 Alpha virt. eigenvalues --    0.81669   0.82600   0.82890   0.83817   0.84756
 Alpha virt. eigenvalues --    0.85067   0.85575   0.86930   0.87305   0.88564
 Alpha virt. eigenvalues --    0.88869   0.89631   0.90518   0.92021   0.92905
 Alpha virt. eigenvalues --    0.93295   0.95419   0.95998   0.97123   0.98562
 Alpha virt. eigenvalues --    0.98642   0.99864   1.00407   1.01933   1.02701
 Alpha virt. eigenvalues --    1.03957   1.04327   1.05191   1.05899   1.06927
 Alpha virt. eigenvalues --    1.07932   1.08105   1.08743   1.08965   1.11171
 Alpha virt. eigenvalues --    1.11532   1.12382   1.12611   1.13861   1.15317
 Alpha virt. eigenvalues --    1.16320   1.17100   1.17590   1.18661   1.20085
 Alpha virt. eigenvalues --    1.21549   1.22158   1.23007   1.24119   1.25178
 Alpha virt. eigenvalues --    1.25538   1.27621   1.28640   1.30083   1.31825
 Alpha virt. eigenvalues --    1.32686   1.33941   1.34716   1.37583   1.40547
 Alpha virt. eigenvalues --    1.41104   1.42238   1.43718   1.45526   1.47373
 Alpha virt. eigenvalues --    1.48970   1.51561   1.52475   1.52672   1.54507
 Alpha virt. eigenvalues --    1.56743   1.57143   1.59249   1.60645   1.62067
 Alpha virt. eigenvalues --    1.63733   1.64790   1.65116   1.65920   1.66649
 Alpha virt. eigenvalues --    1.67680   1.68111   1.69841   1.70899   1.71947
 Alpha virt. eigenvalues --    1.72962   1.73938   1.74265   1.76044   1.76691
 Alpha virt. eigenvalues --    1.78567   1.80451   1.82372   1.83628   1.84431
 Alpha virt. eigenvalues --    1.85250   1.86414   1.87695   1.88179   1.89817
 Alpha virt. eigenvalues --    1.90395   1.91452   1.92942   1.94049   1.96835
 Alpha virt. eigenvalues --    1.97225   1.99114   2.00647   2.01980   2.02781
 Alpha virt. eigenvalues --    2.03940   2.05775   2.06434   2.06904   2.07234
 Alpha virt. eigenvalues --    2.07978   2.09633   2.10263   2.12131   2.13022
 Alpha virt. eigenvalues --    2.14039   2.16498   2.17411   2.19498   2.20653
 Alpha virt. eigenvalues --    2.23007   2.23298   2.24986   2.26649   2.27423
 Alpha virt. eigenvalues --    2.28703   2.31240   2.33101   2.33744   2.35254
 Alpha virt. eigenvalues --    2.36998   2.38031   2.38328   2.40112   2.40395
 Alpha virt. eigenvalues --    2.41811   2.43485   2.45736   2.47204   2.47396
 Alpha virt. eigenvalues --    2.49338   2.50575   2.50782   2.52349   2.53158
 Alpha virt. eigenvalues --    2.54994   2.56925   2.58622   2.60969   2.63539
 Alpha virt. eigenvalues --    2.64171   2.70211   2.72005   2.74819   2.77454
 Alpha virt. eigenvalues --    2.79009   2.80866   2.84724   2.85810   2.90783
 Alpha virt. eigenvalues --    2.93680   2.94635   2.97479   2.98263   3.01550
 Alpha virt. eigenvalues --    3.05837   3.08696   3.11651   3.12282   3.13353
 Alpha virt. eigenvalues --    3.16998   3.25789   3.28031   3.32287   3.38213
 Alpha virt. eigenvalues --    3.41770   3.42923   3.46025   3.48695   3.58519
 Alpha virt. eigenvalues --    3.75450   3.77643   3.78359   3.91040   3.94330
 Alpha virt. eigenvalues --    3.97410   3.97720   3.99904   4.00848   4.01689
 Alpha virt. eigenvalues --    4.04436   4.05285   4.08066   4.10637   4.14260
 Alpha virt. eigenvalues --    4.14677   4.16621   4.19352   4.26435   4.28756
 Alpha virt. eigenvalues --    4.35025   4.38670   4.43763   4.46617   4.90415
          Condensed to atoms (all electrons):
               1          2          3          4          5          6
     1  C    4.721472   0.415273   0.311375   0.298500   0.006104  -0.005246
     2  H    0.415273   0.729561  -0.059081  -0.097227  -0.035613   0.002481
     3  H    0.311375  -0.059081   0.888605  -0.110606   0.049143  -0.002177
     4  H    0.298500  -0.097227  -0.110606   0.933340  -0.064130   0.023189
     5  C    0.006104  -0.035613   0.049143  -0.064130   5.416306   0.128430
     6  O   -0.005246   0.002481  -0.002177   0.023189   0.128430   8.646604
     7  O   -0.059838  -0.024860  -0.059826   0.063567   0.167679  -0.009721
     8  C    0.099455  -0.009864  -0.036143  -0.016457  -0.650253   0.063879
     9  C   -0.010240   0.028123  -0.018981   0.010850   0.163201  -0.094060
    10  C    0.062996  -0.004895  -0.002120   0.005591  -0.211338   0.023985
    11  O    0.009457  -0.002403   0.002527   0.005044  -0.046517   0.006270
    12  O    0.004477   0.001109   0.000305   0.000227  -0.015023  -0.000379
    13  C    0.050982   0.004020   0.000274   0.001611  -0.141337   0.009723
    14  H   -0.000480   0.000138  -0.000036  -0.000207   0.000313   0.000623
    15  C   -0.013982   0.000087  -0.002726   0.001090   0.047412  -0.004816
    16  H   -0.000268  -0.000001  -0.000016   0.000041   0.001988  -0.000204
    17  C    0.013624  -0.000601   0.008381  -0.002496   0.000162   0.021682
    18  H   -0.000960  -0.000080   0.000033  -0.000102  -0.000389   0.000268
    19  C   -0.155362  -0.023023   0.022774  -0.005035   0.420833   0.003424
    20  H    0.006131   0.001055   0.002694  -0.001032   0.014679  -0.004496
               7          8          9         10         11         12
     1  C   -0.059838   0.099455  -0.010240   0.062996   0.009457   0.004477
     2  H   -0.024860  -0.009864   0.028123  -0.004895  -0.002403   0.001109
     3  H   -0.059826  -0.036143  -0.018981  -0.002120   0.002527   0.000305
     4  H    0.063567  -0.016457   0.010850   0.005591   0.005044   0.000227
     5  C    0.167679  -0.650253   0.163201  -0.211338  -0.046517  -0.015023
     6  O   -0.009721   0.063879  -0.094060   0.023985   0.006270  -0.000379
     7  O   10.026243  -1.117394   0.362392  -0.056953  -0.041020  -0.004518
     8  C   -1.117394  18.548765  -4.707351  -0.247651   0.085843  -0.007688
     9  C    0.362392  -4.707351  14.007643  -1.379833   0.168431   0.046184
    10  C   -0.056953  -0.247651  -1.379833   7.417754   0.138296   0.202932
    11  O   -0.041020   0.085843   0.168431   0.138296   8.974990  -0.136957
    12  O   -0.004518  -0.007688   0.046184   0.202932  -0.136957   8.993002
    13  C   -0.063123   0.468232  -3.865913  -0.498627  -0.120345   0.070189
    14  H   -0.009404  -0.040993   0.726689   0.086968   0.001650  -0.028126
    15  C    0.104656  -3.567642   1.555508  -0.369695  -0.029828  -0.114849
    16  H    0.004998   0.020922  -0.064984   0.021425   0.000276   0.000879
    17  C   -0.184681   1.834265  -2.981794   0.279735  -0.007744  -0.003165
    18  H   -0.007460  -0.046730   0.018169  -0.011909  -0.000186   0.000024
    19  C    0.260539  -6.403191   1.688479  -0.332635  -0.054206  -0.019687
    20  H   -0.157144   0.991105  -0.259521   0.001319   0.000442   0.000132
              13         14         15         16         17         18
     1  C    0.050982  -0.000480  -0.013982  -0.000268   0.013624  -0.000960
     2  H    0.004020   0.000138   0.000087  -0.000001  -0.000601  -0.000080
     3  H    0.000274  -0.000036  -0.002726  -0.000016   0.008381   0.000033
     4  H    0.001611  -0.000207   0.001090   0.000041  -0.002496  -0.000102
     5  C   -0.141337   0.000313   0.047412   0.001988   0.000162  -0.000389
     6  O    0.009723   0.000623  -0.004816  -0.000204   0.021682   0.000268
     7  O   -0.063123  -0.009404   0.104656   0.004998  -0.184681  -0.007460
     8  C    0.468232  -0.040993  -3.567642   0.020922   1.834265  -0.046730
     9  C   -3.865913   0.726689   1.555508  -0.064984  -2.981794   0.018169
    10  C   -0.498627   0.086968  -0.369695   0.021425   0.279735  -0.011909
    11  O   -0.120345   0.001650  -0.029828   0.000276  -0.007744  -0.000186
    12  O    0.070189  -0.028126  -0.114849   0.000879  -0.003165   0.000024
    13  C   15.710384  -1.112808  -3.826407   0.600960   2.899431  -0.176657
    14  H   -1.112808   1.881909   0.276353  -0.088399  -0.212993  -0.012963
    15  C   -3.826407   0.276353  11.734912  -0.840463  -3.104991   0.421001
    16  H    0.600960  -0.088399  -0.840463   1.694689   0.371320  -0.058540
    17  C    2.899431  -0.212993  -3.104991   0.371320  10.397779  -0.784530
    18  H   -0.176657  -0.012963   0.421001  -0.058540  -0.784530   1.704976
    19  C   -4.886091   0.140045   3.501901  -0.173792  -3.358474   0.486126
    20  H    0.180577   0.010561  -0.225459  -0.017375   0.431843  -0.068852
              19         20
     1  C   -0.155362   0.006131
     2  H   -0.023023   0.001055
     3  H    0.022774   0.002694
     4  H   -0.005035  -0.001032
     5  C    0.420833   0.014679
     6  O    0.003424  -0.004496
     7  O    0.260539  -0.157144
     8  C   -6.403191   0.991105
     9  C    1.688479  -0.259521
    10  C   -0.332635   0.001319
    11  O   -0.054206   0.000442
    12  O   -0.019687   0.000132
    13  C   -4.886091   0.180577
    14  H    0.140045   0.010561
    15  C    3.501901  -0.225459
    16  H   -0.173792  -0.017375
    17  C   -3.358474   0.431843
    18  H    0.486126  -0.068852
    19  C   15.864608  -1.292326
    20  H   -1.292326   1.987736
 Mulliken charges:
               1
     1  C    0.246531
     2  H    0.075801
     3  H    0.005600
     4  H   -0.045758
     5  C    0.748349
     6  O   -0.809458
     7  O   -1.194130
     8  C    0.738891
     9  C    0.607008
    10  C    0.874654
    11  O   -0.954021
    12  O   -0.989067
    13  C    0.694924
    14  H   -0.618840
    15  C    0.457939
    16  H   -0.473456
    17  C    0.383247
    18  H   -0.461240
    19  C    0.315094
    20  H   -0.602071
 Sum of Mulliken charges =  -1.00000
 Mulliken charges with hydrogens summed into heavy atoms:
               1
     1  C    0.282173
     5  C    0.748349
     6  O   -0.809458
     7  O   -1.194130
     8  C    0.738891
     9  C    0.607008
    10  C    0.874654
    11  O   -0.954021
    12  O   -0.989067
    13  C    0.076084
    15  C   -0.015517
    17  C   -0.077992
    19  C   -0.286976
 Electronic spatial extent (au):  <R**2>=           2260.9934
 Charge=             -1.0000 electrons
 Dipole moment (field-independent basis, Debye):
    X=             -0.4369    Y=             -9.1418    Z=             -1.6791  Tot=              9.3050
 Quadrupole moment (field-independent basis, Debye-Ang):
   XX=            -79.4539   YY=           -107.2929   ZZ=            -85.7430
   XY=              0.4813   XZ=             -6.0617   YZ=              3.5692
 Traceless Quadrupole moment (field-independent basis, Debye-Ang):
   XX=             11.3760   YY=            -16.4629   ZZ=              5.0869
   XY=              0.4813   XZ=             -6.0617   YZ=              3.5692
 Octapole moment (field-independent basis, Debye-Ang**2):
  XXX=             28.5504  YYY=            -94.4597  ZZZ=             -5.6595  XYY=             12.5273
  XXY=             -8.7329  XXZ=             -2.6352  XZZ=              3.9546  YZZ=             10.4477
  YYZ=              0.8304  XYZ=              1.8243
 Hexadecapole moment (field-independent basis, Debye-Ang**3):
 XXXX=          -1726.1215 YYYY=          -1331.1034 ZZZZ=           -221.8773 XXXY=            -20.0683
 XXXZ=            -31.5332 YYYX=             35.1230 YYYZ=             17.7176 ZZZX=            -10.3473
 ZZZY=              3.2905 XXYY=           -506.3854 XXZZ=           -370.3292 YYZZ=           -225.1702
 XXYZ=              7.3460 YYXZ=             -8.7647 ZZXY=             -3.6272
 N-N= 7.678633910166D+02 E-N=-3.064371339573D+03  KE= 6.435892595606D+02
 Leave Link  601 at Sun Jul 18 14:10:07 2021, MaxMem=   262144000 cpu:               0.7 elap:               0.2
 (Enter /prod/apps/gaussian/g16b1/l9999.exe)
 1\1\GINC-PIRINEUS38\SP\RMP2-FC\Aug-CC-pVDZ\C9H7O4(1-)\UBATOR02\18-Jul-
 2021\0\\#p mp2/aug-cc-pVDZ scf=tight maxdisk=180GB geom=allcheck\\SET_
 328_BBB272_conf1.geo_120_300_180 geometry\\-1,1\C,0,-1.995740513,1.701
 3670377,2.2018510683\H,0,-2.8646871295,1.0896955016,1.9474015766\H,0,-
 2.1467467865,2.693544627,1.7703954787\H,0,-1.9020463337,1.7744196912,3
 .2842423831\C,0,-0.7661370135,1.0611446419,1.6254336753\O,0,0.14612882
 08,0.5741601543,2.2570192398\O,0,-0.775182689,1.1535376481,0.267430295
 6\C,0,0.1854866537,0.4280262962,-0.4452484208\C,0,0.0261004097,-0.9460
 02893,-0.6845166205\C,0,-1.1272264617,-1.7955147954,-0.1383329365\O,0,
 -1.8145764351,-1.3213428506,0.8080653687\O,0,-1.28832987,-2.9213464436
 ,-0.6821848721\C,0,0.9949091992,-1.561462179,-1.4908959564\H,0,0.87138
 76618,-2.6196528432,-1.6919979297\C,0,2.0719245836,-0.8572738131,-2.02
 46379442\H,0,2.8050604678,-1.3692575562,-2.6391811585\C,0,2.1980191101
 ,0.5101197094,-1.7719712838\H,0,3.0260142074,1.0736474325,-2.186129760
 1\C,0,1.2471772757,1.1539178315,-0.9814458922\H,0,1.3124648422,2.21727
 28026,-0.7762963117\\Version=ES64L-G16RevB.01\State=1-A\HF=-644.489629
 3\MP2=-646.4956602\RMSD=5.979e-09\PG=C01 [X(C9H7O4)]\\@


 I (ERNEST RUTHERFORD) CAME INTO THE ROOM, WHICH WAS HALF DARK, AND PRESENTLY
 SPOTTED LORD KELVIN IN THE AUDIENCE AND REALIZED I WAS IN TROUBLE AT
 THE LAST PART OF MY SPEECH DEALING THE AGE OF THE EARTH, WHERE MY VIEWS
 CONFLICTED WITH HIS.  TO MY RELIEF KELVIN FELL FAST ASLEEP, BUT AS I CAME
 TO THE IMPORTANT POINT, I SAW THE OLD BIRD SIT UP AND COCK A BALEFUL GLANCE
 AT ME! THEN A SUDDEN INSPIRATION CAME AND I SAID LORD KELVIN HAD LIMITED
 THE AGE OF THE EARTH PROVIDED NO NEW SOURCE WAS DISCOVERED. THAT
 PROPHETIC UTTERANCE REFERS TO WHAT WE ARE NOW CONSIDERING TONIGHT, RADIUM!
 BEHOLD!  THE OLD BOY BEAMED UPON ME.
 Job cpu time:       0 days  0 hours 18 minutes 14.5 seconds.
 Elapsed time:       0 days  0 hours  4 minutes 42.9 seconds.
 File lengths (MBytes):  RWF=  15069 Int=      0 D2E=      0 Chk=     12 Scr=      1
 Normal termination of Gaussian 16 at Sun Jul 18 14:10:09 2021.
