 Entering Gaussian System, Link 0=g16
 Initial command:
 /prod/apps/gaussian/g16b1/l1.exe "/tmp/ubator02/1839656/Gau-211329.inp" -scrdir="/tmp/ubator02/1839656/"
 Entering Link 1 = /prod/apps/gaussian/g16b1/l1.exe PID=    211330.
  
 Copyright (c) 1988-2017, Gaussian, Inc.  All Rights Reserved.
  
 This is part of the Gaussian(R) 16 program.  It is based on
 the Gaussian(R) 09 system (copyright 2009, Gaussian, Inc.),
 the Gaussian(R) 03 system (copyright 2003, Gaussian, Inc.),
 the Gaussian(R) 98 system (copyright 1998, Gaussian, Inc.),
 the Gaussian(R) 94 system (copyright 1995, Gaussian, Inc.),
 the Gaussian 92(TM) system (copyright 1992, Gaussian, Inc.),
 the Gaussian 90(TM) system (copyright 1990, Gaussian, Inc.),
 the Gaussian 88(TM) system (copyright 1988, Gaussian, Inc.),
 the Gaussian 86(TM) system (copyright 1986, Carnegie Mellon
 University), and the Gaussian 82(TM) system (copyright 1983,
 Carnegie Mellon University). Gaussian is a federally registered
 trademark of Gaussian, Inc.
  
 This software contains proprietary and confidential information,
 including trade secrets, belonging to Gaussian, Inc.
  
 This software is provided under written license and may be
 used, copied, transmitted, or stored only in accord with that
 written license.
  
 The following legend is applicable only to US Government
 contracts under FAR:
  
                    RESTRICTED RIGHTS LEGEND
  
 Use, reproduction and disclosure by the US Government is
 subject to restrictions as set forth in subparagraphs (a)
 and (c) of the Commercial Computer Software - Restricted
 Rights clause in FAR 52.227-19.
  
 Gaussian, Inc.
 340 Quinnipiac St., Bldg. 40, Wallingford CT 06492
  
  
 ---------------------------------------------------------------
 Warning -- This program may not be used in any manner that
 competes with the business of Gaussian, Inc. or will provide
 assistance to any competitor of Gaussian, Inc.  The licensee
 of this program is prohibited from giving any competitor of
 Gaussian, Inc. access to this program.  By using this program,
 the user acknowledges that Gaussian, Inc. is engaged in the
 business of creating and licensing software in the field of
 computational chemistry and represents and warrants to the
 licensee that it is not a competitor of Gaussian, Inc. and that
 it will not use this program in any manner prohibited above.
 ---------------------------------------------------------------
  

 Cite this work as:
 Gaussian 16, Revision B.01,
 M. J. Frisch, G. W. Trucks, H. B. Schlegel, G. E. Scuseria, 
 M. A. Robb, J. R. Cheeseman, G. Scalmani, V. Barone, 
 G. A. Petersson, H. Nakatsuji, X. Li, M. Caricato, A. V. Marenich, 
 J. Bloino, B. G. Janesko, R. Gomperts, B. Mennucci, H. P. Hratchian, 
 J. V. Ortiz, A. F. Izmaylov, J. L. Sonnenberg, D. Williams-Young, 
 F. Ding, F. Lipparini, F. Egidi, J. Goings, B. Peng, A. Petrone, 
 T. Henderson, D. Ranasinghe, V. G. Zakrzewski, J. Gao, N. Rega, 
 G. Zheng, W. Liang, M. Hada, M. Ehara, K. Toyota, R. Fukuda, 
 J. Hasegawa, M. Ishida, T. Nakajima, Y. Honda, O. Kitao, H. Nakai, 
 T. Vreven, K. Throssell, J. A. Montgomery, Jr., J. E. Peralta, 
 F. Ogliaro, M. J. Bearpark, J. J. Heyd, E. N. Brothers, K. N. Kudin, 
 V. N. Staroverov, T. A. Keith, R. Kobayashi, J. Normand, 
 K. Raghavachari, A. P. Rendell, J. C. Burant, S. S. Iyengar, 
 J. Tomasi, M. Cossi, J. M. Millam, M. Klene, C. Adamo, R. Cammi, 
 J. W. Ochterski, R. L. Martin, K. Morokuma, O. Farkas, 
 J. B. Foresman, and D. J. Fox, Gaussian, Inc., Wallingford CT, 2016.
 
 ******************************************
 Gaussian 16:  ES64L-G16RevB.01 20-Dec-2017
                18-Jul-2021 
 ******************************************
 %mem=800MB
 %nproc=4
 Will use up to    4 processors via shared memory.
 %chk=SET_328_BBB321_conf1.geo_030_210_300.chk
 -----------------------------------------------------------
 #p b3lyp/6-31G(d) opt freq scrf=(iefpcm,read,solvent=water)
 -----------------------------------------------------------
 1/18=20,19=15,26=3,38=1,40=2/1,3;
 2/9=110,12=2,17=6,18=5,40=1/2;
 3/5=1,6=6,7=1,11=2,25=1,30=1,70=2203,71=1,72=1,74=-5/1,2,3;
 4//1;
 5/5=2,38=5,53=1/2;
 6/7=2,8=2,9=2,10=2,28=1/1;
 7//1,2,3,16;
 1/18=20,19=15,26=3/3(2);
 2/9=110/2;
 99//99;
 2/9=110/2;
 3/5=1,6=6,7=1,11=2,25=1,30=1,70=2205,71=1,72=1,74=-5/1,2,3;
 4/5=5,16=3,69=1/1;
 5/5=2,38=5,53=1/2;
 7//1,2,3,16;
 1/18=20,19=15,26=3/3(-5);
 2/9=110/2;
 6/7=2,8=2,9=2,10=2,19=2,28=1/1;
 99/9=1/99;
 Leave Link    1 at Sun Jul 18 15:06:14 2021, MaxMem=   104857600 cpu:               0.1 elap:               0.0
 (Enter /prod/apps/gaussian/g16b1/l101.exe)
 ---------------------------------------------
 SET_328_BBB321_conf1.geo_030_210_300 geometry
 ---------------------------------------------
 Symbolic Z-matrix:
 Charge =  1 Multiplicity = 1
 C                     1.652    -0.879    -5.6 
 H                     2.684    -0.606    -5.831 
 H                     0.944    -0.066    -5.774 
 H                     1.222    -1.566    -6.331 
 C                     1.598    -1.415    -4.214 
 O                     1.076    -2.426    -3.804 
 N                     2.127    -0.529    -3.355 
 H                     2.49      0.354    -3.681 
 C                     2.014    -0.489    -1.973 
 C                     3.164    -0.688    -1.237 
 C                     3.136    -0.582     0.165 
 C                     1.896    -0.264     0.745 
 H                     1.91     -0.113     1.822 
 H                     4.007    -0.715     0.802 
 H                     4.106    -0.933    -1.723 
 C                     0.778    -0.312    -1.429 
 H                    -0.101    -0.339    -2.068 
 C                     0.739    -0.082    -0.031 
 C                    -0.471     0.204     0.672 
 N                    -0.531     0.886     1.886 
 C                    -1.692    -0.187     0.282 
 H                    -1.9      -0.875    -0.528 
 S                    -2.95      0.247     1.347 
 C                    -1.717     0.68      2.431 
 N                    -2.172     1.364     3.564 
 C                    -3.296     1.186     4.037 
 N                    -3.585     2.078     4.907 
 H                    -2.868     2.682     4.52 
 H                    -4.519     2.377     4.648 
 N                    -3.272     0.181     4.888 
 H                    -4.055     0.435     5.481 
 H                    -2.413     0.393     5.383 
 H                    -1.562     2.022     4.006 
 
 ITRead=  0  0  0  0  0  0  0  0  0  0  0  0  0  0  0  0  0  0  0  0
 ITRead=  0  0  0  0  0  0  0  0  0  0  0  0  0
 MicOpt= -1 -1 -1 -1 -1 -1 -1 -1 -1 -1 -1 -1 -1 -1 -1 -1 -1 -1 -1 -1
 MicOpt= -1 -1 -1 -1 -1 -1 -1 -1 -1 -1 -1 -1 -1
 NAtoms=     33 NQM=       33 NQMF=       0 NMMI=      0 NMMIF=      0
                NMic=       0 NMicF=      0.
                    Isotopes and Nuclear Properties:
 (Nuclear quadrupole moments (NQMom) in fm**2, nuclear magnetic moments (NMagM)
  in nuclear magnetons)

  Atom         1           2           3           4           5           6           7           8           9          10
 IAtWgt=          12           1           1           1          12          16          14           1          12          12
 AtmWgt=  12.0000000   1.0078250   1.0078250   1.0078250  12.0000000  15.9949146  14.0030740   1.0078250  12.0000000  12.0000000
 NucSpn=           0           1           1           1           0           0           2           1           0           0
 AtZEff=  -0.0000000  -0.0000000  -0.0000000  -0.0000000  -0.0000000  -0.0000000  -0.0000000  -0.0000000  -0.0000000  -0.0000000
 NQMom=    0.0000000   0.0000000   0.0000000   0.0000000   0.0000000   0.0000000   2.0440000   0.0000000   0.0000000   0.0000000
 NMagM=    0.0000000   2.7928460   2.7928460   2.7928460   0.0000000   0.0000000   0.4037610   2.7928460   0.0000000   0.0000000
 AtZNuc=   6.0000000   1.0000000   1.0000000   1.0000000   6.0000000   8.0000000   7.0000000   1.0000000   6.0000000   6.0000000

  Atom        11          12          13          14          15          16          17          18          19          20
 IAtWgt=          12          12           1           1           1          12           1          12          12          14
 AtmWgt=  12.0000000  12.0000000   1.0078250   1.0078250   1.0078250  12.0000000   1.0078250  12.0000000  12.0000000  14.0030740
 NucSpn=           0           0           1           1           1           0           1           0           0           2
 AtZEff=  -0.0000000  -0.0000000  -0.0000000  -0.0000000  -0.0000000  -0.0000000  -0.0000000  -0.0000000  -0.0000000  -0.0000000
 NQMom=    0.0000000   0.0000000   0.0000000   0.0000000   0.0000000   0.0000000   0.0000000   0.0000000   0.0000000   2.0440000
 NMagM=    0.0000000   0.0000000   2.7928460   2.7928460   2.7928460   0.0000000   2.7928460   0.0000000   0.0000000   0.4037610
 AtZNuc=   6.0000000   6.0000000   1.0000000   1.0000000   1.0000000   6.0000000   1.0000000   6.0000000   6.0000000   7.0000000

  Atom        21          22          23          24          25          26          27          28          29          30
 IAtWgt=          12           1          32          12          14          12          14           1           1          14
 AtmWgt=  12.0000000   1.0078250  31.9720718  12.0000000  14.0030740  12.0000000  14.0030740   1.0078250   1.0078250  14.0030740
 NucSpn=           0           1           0           0           2           0           2           1           1           2
 AtZEff=  -0.0000000  -0.0000000  -0.0000000  -0.0000000  -0.0000000  -0.0000000  -0.0000000  -0.0000000  -0.0000000  -0.0000000
 NQMom=    0.0000000   0.0000000   0.0000000   0.0000000   2.0440000   0.0000000   2.0440000   0.0000000   0.0000000   2.0440000
 NMagM=    0.0000000   2.7928460   0.0000000   0.0000000   0.4037610   0.0000000   0.4037610   2.7928460   2.7928460   0.4037610
 AtZNuc=   6.0000000   1.0000000  16.0000000   6.0000000   7.0000000   6.0000000   7.0000000   1.0000000   1.0000000   7.0000000

  Atom        31          32          33
 IAtWgt=           1           1           1
 AtmWgt=   1.0078250   1.0078250   1.0078250
 NucSpn=           1           1           1
 AtZEff=  -0.0000000  -0.0000000  -0.0000000
 NQMom=    0.0000000   0.0000000   0.0000000
 NMagM=    2.7928460   2.7928460   2.7928460
 AtZNuc=   1.0000000   1.0000000   1.0000000
 Leave Link  101 at Sun Jul 18 15:06:14 2021, MaxMem=   104857600 cpu:               0.5 elap:               0.1
 (Enter /prod/apps/gaussian/g16b1/l103.exe)

 GradGradGradGradGradGradGradGradGradGradGradGradGradGradGradGradGradGrad
 Berny optimization.
 Initialization pass.
                           ----------------------------
                           !    Initial Parameters    !
                           ! (Angstroms and Degrees)  !
 --------------------------                            --------------------------
 ! Name  Definition              Value          Derivative Info.                !
 --------------------------------------------------------------------------------
 ! R1    R(1,2)                  1.0922         estimate D2E/DX2                !
 ! R2    R(1,3)                  1.092          estimate D2E/DX2                !
 ! R3    R(1,4)                  1.0914         estimate D2E/DX2                !
 ! R4    R(1,5)                  1.487          estimate D2E/DX2                !
 ! R5    R(5,6)                  1.2094         estimate D2E/DX2                !
 ! R6    R(5,7)                  1.3427         estimate D2E/DX2                !
 ! R7    R(7,8)                  1.0088         estimate D2E/DX2                !
 ! R8    R(7,9)                  1.3872         estimate D2E/DX2                !
 ! R9    R(9,10)                 1.3798         estimate D2E/DX2                !
 ! R10   R(9,16)                 1.362          estimate D2E/DX2                !
 ! R11   R(10,11)                1.4063         estimate D2E/DX2                !
 ! R12   R(10,15)                1.0879         estimate D2E/DX2                !
 ! R13   R(11,12)                1.4054         estimate D2E/DX2                !
 ! R14   R(11,14)                1.0872         estimate D2E/DX2                !
 ! R15   R(12,13)                1.0876         estimate D2E/DX2                !
 ! R16   R(12,18)                1.405          estimate D2E/DX2                !
 ! R17   R(16,17)                1.0871         estimate D2E/DX2                !
 ! R18   R(16,18)                1.4173         estimate D2E/DX2                !
 ! R19   R(18,19)                1.4283         estimate D2E/DX2                !
 ! R20   R(19,20)                1.3937         estimate D2E/DX2                !
 ! R21   R(19,21)                1.3401         estimate D2E/DX2                !
 ! R22   R(20,24)                1.3214         estimate D2E/DX2                !
 ! R23   R(21,22)                1.0829         estimate D2E/DX2                !
 ! R24   R(21,23)                1.7044         estimate D2E/DX2                !
 ! R25   R(23,24)                1.6979         estimate D2E/DX2                !
 ! R26   R(24,25)                1.3995         estimate D2E/DX2                !
 ! R27   R(25,26)                1.2324         estimate D2E/DX2                !
 ! R28   R(25,33)                1.0002         estimate D2E/DX2                !
 ! R29   R(26,27)                1.2791         estimate D2E/DX2                !
 ! R30   R(26,30)                1.3171         estimate D2E/DX2                !
 ! R31   R(27,28)                1.0142         estimate D2E/DX2                !
 ! R32   R(27,29)                1.0143         estimate D2E/DX2                !
 ! R33   R(30,31)                1.0145         estimate D2E/DX2                !
 ! R34   R(30,32)                1.0138         estimate D2E/DX2                !
 ! A1    A(2,1,3)              113.1297         estimate D2E/DX2                !
 ! A2    A(2,1,4)              112.8263         estimate D2E/DX2                !
 ! A3    A(2,1,5)              108.7561         estimate D2E/DX2                !
 ! A4    A(3,1,4)               96.1118         estimate D2E/DX2                !
 ! A5    A(3,1,5)              113.1615         estimate D2E/DX2                !
 ! A6    A(4,1,5)              112.524          estimate D2E/DX2                !
 ! A7    A(1,5,6)              129.2693         estimate D2E/DX2                !
 ! A8    A(1,5,7)              110.13           estimate D2E/DX2                !
 ! A9    A(6,5,7)              120.3173         estimate D2E/DX2                !
 ! A10   A(5,7,8)              120.8377         estimate D2E/DX2                !
 ! A11   A(5,7,9)              128.6322         estimate D2E/DX2                !
 ! A12   A(8,7,9)              109.0268         estimate D2E/DX2                !
 ! A13   A(7,9,10)             117.3465         estimate D2E/DX2                !
 ! A14   A(7,9,16)             118.3984         estimate D2E/DX2                !
 ! A15   A(10,9,16)            124.1985         estimate D2E/DX2                !
 ! A16   A(9,10,11)            120.2868         estimate D2E/DX2                !
 ! A17   A(9,10,15)            121.055          estimate D2E/DX2                !
 ! A18   A(11,10,15)           118.6577         estimate D2E/DX2                !
 ! A19   A(10,11,12)           116.4914         estimate D2E/DX2                !
 ! A20   A(10,11,14)           123.9819         estimate D2E/DX2                !
 ! A21   A(12,11,14)           119.5194         estimate D2E/DX2                !
 ! A22   A(11,12,13)           115.3865         estimate D2E/DX2                !
 ! A23   A(11,12,18)           121.8677         estimate D2E/DX2                !
 ! A24   A(13,12,18)           122.6526         estimate D2E/DX2                !
 ! A25   A(9,16,17)            119.7225         estimate D2E/DX2                !
 ! A26   A(9,16,18)            116.1061         estimate D2E/DX2                !
 ! A27   A(17,16,18)           124.1658         estimate D2E/DX2                !
 ! A28   A(12,18,16)           120.0734         estimate D2E/DX2                !
 ! A29   A(12,18,19)           116.8542         estimate D2E/DX2                !
 ! A30   A(16,18,19)           122.7706         estimate D2E/DX2                !
 ! A31   A(18,19,20)           124.2747         estimate D2E/DX2                !
 ! A32   A(18,19,21)           124.7646         estimate D2E/DX2                !
 ! A33   A(20,19,21)           110.9188         estimate D2E/DX2                !
 ! A34   A(19,20,24)           108.7603         estimate D2E/DX2                !
 ! A35   A(19,21,22)           125.314          estimate D2E/DX2                !
 ! A36   A(19,21,23)           114.604          estimate D2E/DX2                !
 ! A37   A(22,21,23)           119.168          estimate D2E/DX2                !
 ! A38   A(21,23,24)            85.8639         estimate D2E/DX2                !
 ! A39   A(20,24,23)           115.3551         estimate D2E/DX2                !
 ! A40   A(20,24,25)           123.3342         estimate D2E/DX2                !
 ! A41   A(23,24,25)           113.9169         estimate D2E/DX2                !
 ! A42   A(24,25,26)           122.4561         estimate D2E/DX2                !
 ! A43   A(24,25,33)           118.7512         estimate D2E/DX2                !
 ! A44   A(26,25,33)           118.7927         estimate D2E/DX2                !
 ! A45   A(25,26,27)           111.4936         estimate D2E/DX2                !
 ! A46   A(25,26,30)           109.9725         estimate D2E/DX2                !
 ! A47   A(27,26,30)            95.5531         estimate D2E/DX2                !
 ! A48   A(26,27,28)            89.7732         estimate D2E/DX2                !
 ! A49   A(26,27,29)           103.8832         estimate D2E/DX2                !
 ! A50   A(28,27,29)           112.2086         estimate D2E/DX2                !
 ! A51   A(26,30,31)            99.9366         estimate D2E/DX2                !
 ! A52   A(26,30,32)            99.866          estimate D2E/DX2                !
 ! A53   A(31,30,32)           108.4324         estimate D2E/DX2                !
 ! D1    D(2,1,5,6)           -131.4158         estimate D2E/DX2                !
 ! D2    D(2,1,5,7)             54.7933         estimate D2E/DX2                !
 ! D3    D(3,1,5,6)            101.9658         estimate D2E/DX2                !
 ! D4    D(3,1,5,7)            -71.8251         estimate D2E/DX2                !
 ! D5    D(4,1,5,6)             -5.6588         estimate D2E/DX2                !
 ! D6    D(4,1,5,7)           -179.4497         estimate D2E/DX2                !
 ! D7    D(1,5,7,8)             -0.0482         estimate D2E/DX2                !
 ! D8    D(1,5,7,9)            164.3578         estimate D2E/DX2                !
 ! D9    D(6,5,7,8)           -174.4818         estimate D2E/DX2                !
 ! D10   D(6,5,7,9)            -10.0758         estimate D2E/DX2                !
 ! D11   D(5,7,9,10)           114.4947         estimate D2E/DX2                !
 ! D12   D(5,7,9,16)           -62.8862         estimate D2E/DX2                !
 ! D13   D(8,7,9,10)           -79.6371         estimate D2E/DX2                !
 ! D14   D(8,7,9,16)           102.982          estimate D2E/DX2                !
 ! D15   D(7,9,10,11)          176.2287         estimate D2E/DX2                !
 ! D16   D(7,9,10,15)           -4.0362         estimate D2E/DX2                !
 ! D17   D(16,9,10,11)          -6.5569         estimate D2E/DX2                !
 ! D18   D(16,9,10,15)         173.1782         estimate D2E/DX2                !
 ! D19   D(7,9,16,17)            8.1174         estimate D2E/DX2                !
 ! D20   D(7,9,16,18)         -171.055          estimate D2E/DX2                !
 ! D21   D(10,9,16,17)        -169.0698         estimate D2E/DX2                !
 ! D22   D(10,9,16,18)          11.7578         estimate D2E/DX2                !
 ! D23   D(9,10,11,12)          -0.2473         estimate D2E/DX2                !
 ! D24   D(9,10,11,14)        -179.2535         estimate D2E/DX2                !
 ! D25   D(15,10,11,12)       -179.9887         estimate D2E/DX2                !
 ! D26   D(15,10,11,14)          1.0051         estimate D2E/DX2                !
 ! D27   D(10,11,12,13)       -175.5959         estimate D2E/DX2                !
 ! D28   D(10,11,12,18)          0.9818         estimate D2E/DX2                !
 ! D29   D(14,11,12,13)          3.4571         estimate D2E/DX2                !
 ! D30   D(14,11,12,18)       -179.9653         estimate D2E/DX2                !
 ! D31   D(11,12,18,16)          4.5471         estimate D2E/DX2                !
 ! D32   D(11,12,18,19)        178.4127         estimate D2E/DX2                !
 ! D33   D(13,12,18,16)       -179.1255         estimate D2E/DX2                !
 ! D34   D(13,12,18,19)         -5.2599         estimate D2E/DX2                !
 ! D35   D(9,16,18,12)         -10.5072         estimate D2E/DX2                !
 ! D36   D(9,16,18,19)         176.0031         estimate D2E/DX2                !
 ! D37   D(17,16,18,12)        170.3615         estimate D2E/DX2                !
 ! D38   D(17,16,18,19)         -3.1282         estimate D2E/DX2                !
 ! D39   D(12,18,19,20)         30.281          estimate D2E/DX2                !
 ! D40   D(12,18,19,21)       -147.1475         estimate D2E/DX2                !
 ! D41   D(16,18,19,20)       -156.0331         estimate D2E/DX2                !
 ! D42   D(16,18,19,21)         26.5384         estimate D2E/DX2                !
 ! D43   D(18,19,20,24)       -163.706          estimate D2E/DX2                !
 ! D44   D(21,19,20,24)         14.0326         estimate D2E/DX2                !
 ! D45   D(18,19,21,22)          8.9086         estimate D2E/DX2                !
 ! D46   D(18,19,21,23)        177.8137         estimate D2E/DX2                !
 ! D47   D(20,19,21,22)       -168.8166         estimate D2E/DX2                !
 ! D48   D(20,19,21,23)          0.0885         estimate D2E/DX2                !
 ! D49   D(19,20,24,23)        -23.0493         estimate D2E/DX2                !
 ! D50   D(19,20,24,25)       -171.1147         estimate D2E/DX2                !
 ! D51   D(19,21,23,24)        -10.4332         estimate D2E/DX2                !
 ! D52   D(22,21,23,24)        159.2069         estimate D2E/DX2                !
 ! D53   D(21,23,24,20)         19.508          estimate D2E/DX2                !
 ! D54   D(21,23,24,25)        170.5978         estimate D2E/DX2                !
 ! D55   D(20,24,25,26)        177.9221         estimate D2E/DX2                !
 ! D56   D(20,24,25,33)         -2.0619         estimate D2E/DX2                !
 ! D57   D(23,24,25,26)         29.4489         estimate D2E/DX2                !
 ! D58   D(23,24,25,33)       -150.5351         estimate D2E/DX2                !
 ! D59   D(24,25,26,27)       -168.1243         estimate D2E/DX2                !
 ! D60   D(24,25,26,30)         87.1753         estimate D2E/DX2                !
 ! D61   D(33,25,26,27)         11.8597         estimate D2E/DX2                !
 ! D62   D(33,25,26,30)        -92.8408         estimate D2E/DX2                !
 ! D63   D(25,26,27,28)         19.7402         estimate D2E/DX2                !
 ! D64   D(25,26,27,29)        132.5939         estimate D2E/DX2                !
 ! D65   D(30,26,27,28)        133.7639         estimate D2E/DX2                !
 ! D66   D(30,26,27,29)       -113.3825         estimate D2E/DX2                !
 ! D67   D(25,26,30,31)        154.1533         estimate D2E/DX2                !
 ! D68   D(25,26,30,32)         43.281          estimate D2E/DX2                !
 ! D69   D(27,26,30,31)         38.875          estimate D2E/DX2                !
 ! D70   D(27,26,30,32)        -71.9974         estimate D2E/DX2                !
 --------------------------------------------------------------------------------
 Trust Radius=3.00D-01 FncErr=1.00D-07 GrdErr=1.00D-06 EigMax=2.50D+02 EigMin=1.00D-04
 Number of steps in this run=    167 maximum allowed number of steps=    198.
 GradGradGradGradGradGradGradGradGradGradGradGradGradGradGradGradGradGrad

 Leave Link  103 at Sun Jul 18 15:06:14 2021, MaxMem=   104857600 cpu:               0.0 elap:               0.0
 (Enter /prod/apps/gaussian/g16b1/l202.exe)
                          Input orientation:                          
 ---------------------------------------------------------------------
 Center     Atomic      Atomic             Coordinates (Angstroms)
 Number     Number       Type             X           Y           Z
 ---------------------------------------------------------------------
      1          6           0        1.652000   -0.879000   -5.600000
      2          1           0        2.684000   -0.606000   -5.831000
      3          1           0        0.944000   -0.066000   -5.774000
      4          1           0        1.222000   -1.566000   -6.331000
      5          6           0        1.598000   -1.415000   -4.214000
      6          8           0        1.076000   -2.426000   -3.804000
      7          7           0        2.127000   -0.529000   -3.355000
      8          1           0        2.490000    0.354000   -3.681000
      9          6           0        2.014000   -0.489000   -1.973000
     10          6           0        3.164000   -0.688000   -1.237000
     11          6           0        3.136000   -0.582000    0.165000
     12          6           0        1.896000   -0.264000    0.745000
     13          1           0        1.910000   -0.113000    1.822000
     14          1           0        4.007000   -0.715000    0.802000
     15          1           0        4.106000   -0.933000   -1.723000
     16          6           0        0.778000   -0.312000   -1.429000
     17          1           0       -0.101000   -0.339000   -2.068000
     18          6           0        0.739000   -0.082000   -0.031000
     19          6           0       -0.471000    0.204000    0.672000
     20          7           0       -0.531000    0.886000    1.886000
     21          6           0       -1.692000   -0.187000    0.282000
     22          1           0       -1.900000   -0.875000   -0.528000
     23         16           0       -2.950000    0.247000    1.347000
     24          6           0       -1.717000    0.680000    2.431000
     25          7           0       -2.172000    1.364000    3.564000
     26          6           0       -3.296000    1.186000    4.037000
     27          7           0       -3.585000    2.078000    4.907000
     28          1           0       -2.868000    2.682000    4.520000
     29          1           0       -4.519000    2.377000    4.648000
     30          7           0       -3.272000    0.181000    4.888000
     31          1           0       -4.055000    0.435000    5.481000
     32          1           0       -2.413000    0.393000    5.383000
     33          1           0       -1.562000    2.022000    4.006000
 ---------------------------------------------------------------------
                    Distance matrix (angstroms):
                    1          2          3          4          5
     1  C    0.000000
     2  H    1.092206   0.000000
     3  H    1.092021   1.822759   0.000000
     4  H    1.091435   1.819078   1.624048   0.000000
     5  C    1.487013   2.109162   2.163589   2.155427   0.000000
     6  O    2.439385   3.163352   3.076999   2.673321   1.209423
     7  N    2.321239   2.539046   2.732292   3.278867   1.342653
     8  H    2.430040   2.362570   2.635748   3.509519   2.051613
     9  C    3.665825   3.917493   3.971326   4.558438   2.460206
    10  C    4.621514   4.619736   5.089170   5.521873   3.441426
    11  C    5.960343   6.013060   6.351601   6.843221   4.715398
    12  C    6.379403   6.631869   6.591120   7.226289   5.099538
    13  H    7.465883   7.707823   7.657322   8.309992   6.182705
    14  H    6.823381   6.764532   7.283333   7.704552   5.608345
    15  H    4.588699   4.359435   5.211577   5.472825   3.567558
    16  C    4.299140   4.805921   4.355123   5.079297   3.105678
    17  H    3.979904   4.689103   3.860180   4.629150   2.941036
    18  C    5.699345   6.139837   5.746680   6.490419   4.473506
    19  C    6.709546   7.273179   6.605001   7.418973   5.547515
    20  N    7.995055   8.492018   7.858596   8.752394   6.858370
    21  C    6.801406   7.529522   6.605927   7.356956   5.704919
    22  H    6.192084   7.014786   6.021904   6.625645   5.110205
    23  S    8.408751   9.164783   8.122182   8.924362   7.373688
    24  C    8.847463   9.448981   8.657913   9.510777   7.715846
    25  N   10.180026  10.757679   9.947492  10.863478   9.079263
    26  C   11.028087  11.676861  10.761079  11.639641   9.939589
    27  N   12.106489  12.720411  11.797980  12.754553  11.056997
    28  H   11.641543  12.197494  11.315886  12.349810  10.630772
    29  H   12.397753  13.061047  12.017933  13.001722  11.416304
    30  N   11.634755  12.287810  11.467951  12.211225  10.445598
    31  H   12.533356  13.208298  12.325422  13.090992  11.374178
    32  H   11.780004  12.358447  11.660136  12.420495  10.557433
    33  H   10.536642  11.031839  10.309616  11.290614   9.453410
                    6          7          8          9         10
     6  O    0.000000
     7  N    2.214681   0.000000
     8  H    3.121366   1.008828   0.000000
     9  C    2.825663   1.387189   1.963285   0.000000
    10  C    3.737630   2.363593   2.741017   1.379782   0.000000
    11  C    4.837034   3.662143   4.010627   2.416315   1.406280
    12  C    5.102945   4.115044   4.508241   2.729849   2.390800
    13  H    6.139821   5.198218   5.553152   3.814999   3.355685
    14  H    5.721321   4.566141   4.851942   3.423996   2.206558
    15  H    3.967431   2.596744   2.846329   2.153160   1.087927
    16  C    3.193497   2.361433   2.906201   1.361970   2.423063
    17  H    2.958816   2.580010   3.129744   2.122440   3.387121
    18  C    4.454597   3.629784   4.071682   2.358525   2.775301
    19  C    5.417073   4.848053   5.266748   3.694793   4.201568
    20  N    6.777012   6.044441   6.356174   4.822814   5.087596
    21  C    5.419441   5.284836   5.786810   4.348639   5.112641
    22  H    4.689814   4.932380   5.542919   4.190038   5.116810
    23  S    7.063031   6.963254   7.408497   6.017092   6.703154
    24  C    7.504886   7.050944   7.427090   5.889154   6.256981
    25  N    8.899496   8.362859   8.674351   7.184328   7.465467
    26  C    9.676890   9.326940   9.681815   8.192791   8.547430
    27  N   10.857829  10.377092  10.659810   9.234321   9.536692
    28  H   10.532605   9.862868  10.068970   8.720563   8.993607
    29  H   11.216467  10.801026  11.072075   9.733020  10.151647
    30  N   10.062426   9.879289  10.327552   8.687003   8.927087
    31  H   10.987434  10.826879  11.259921   9.656534   9.925050
    32  H   10.223544   9.890113  10.305194   8.630585   8.723296
    33  H    9.366955   8.619782   8.848214   7.405494   7.560967
                   11         12         13         14         15
    11  C    0.000000
    12  C    1.405391   0.000000
    13  H    2.113927   1.087624   0.000000
    14  H    1.087244   2.159391   2.408363   0.000000
    15  H    2.151429   3.379746   4.249922   2.536326   0.000000
    16  C    2.859003   2.445098   3.448192   3.945404   3.398185
    17  H    3.939988   3.450595   4.384894   5.025330   4.262712
    18  C    2.456425   1.404973   2.192216   3.431385   3.863127
    19  C    3.726298   2.413927   2.663109   4.573177   5.289397
    20  N    4.308568   2.917998   2.638291   4.932717   6.151050
    21  C    4.845544   3.618569   3.918096   5.746981   6.180076
    22  H    5.091895   4.050119   4.540842   6.056992   6.124004
    23  S    6.254899   4.909913   4.896409   7.044311   7.784885
    24  C    5.502637   4.097255   3.762294   6.112597   7.332449
    25  N    6.596589   5.210160   4.677480   7.080320   8.523020
    26  C    7.712900   6.316378   5.804831   8.210532   9.615475
    27  N    8.644883   7.269702   6.671786   9.071402  10.591246
    28  H    8.103563   6.754646   6.157963   8.522251  10.033940
    29  H    9.351577   7.959932   7.451068   9.851135  11.222137
    30  N    7.996960   6.638577   6.028260   8.395359   9.969012
    31  H    9.000257   7.637585   7.019246   9.392092  10.971370
    32  H    7.679163   6.364760   5.623619   7.964272   9.734006
    33  H    6.603431   5.274247   4.624161   6.983591   8.583687
                   16         17         18         19         20
    16  C    0.000000
    17  H    1.087056   0.000000
    18  C    1.417330   2.218337   0.000000
    19  C    2.498091   2.817685   1.428322   0.000000
    20  N    3.760041   4.161687   2.494958   1.393743   0.000000
    21  C    3.007332   2.841986   2.453315   1.340083   2.252125
    22  H    2.881051   2.428023   2.800032   2.155524   3.286743
    23  S    4.681521   4.485802   3.951689   2.569614   2.559376
    24  C    4.701988   4.887823   3.560060   2.207526   1.321385
    25  N    6.036682   6.237682   4.846531   3.550023   2.395214
    26  C    6.979874   7.057243   5.868362   4.502019   3.515967
    27  N    8.055605   8.162767   6.909878   5.580690   4.458051
    28  H    7.592625   7.757865   6.431310   5.166546   3.952865
    29  H    8.498168   8.485283   7.455621   6.075920   5.075024
    30  N    7.519976   7.662348   6.352468   5.061698   4.125786
    31  H    8.465459   8.556903   7.323378   6.002074   5.054305
    32  H    7.555319   7.835724   6.282685   5.099079   4.001747
    33  H    6.361005   6.678497   5.100861   3.951071   2.616841
                   21         22         23         24         25
    21  C    0.000000
    22  H    1.082916   0.000000
    23  S    1.704449   2.424254   0.000000
    24  C    2.317437   3.347715   1.697891   0.000000
    25  N    3.661629   4.672426   2.601550   1.399489   0.000000
    26  C    4.307896   5.199592   2.870111   2.308357   1.232392
    27  N    5.486738   6.410824   4.053318   3.402118   2.076057
    28  H    5.251169   6.250726   4.000485   3.113957   1.770728
    29  H    5.798964   6.650236   4.230279   3.955515   2.776623
    30  N    4.883345   5.685998   3.556223   2.950233   2.088651
    31  H    5.744585   6.516763   4.283261   3.850814   2.843171
    32  H    5.184249   6.067200   4.074185   3.046488   2.075978
    33  H    4.331831   5.391105   3.485319   2.074997   1.000214
                   26         27         28         29         30
    26  C    0.000000
    27  N    1.279095   0.000000
    28  H    1.629260   1.014236   0.000000
    29  H    1.813155   1.014317   1.683808   0.000000
    30  N    1.317119   1.922743   2.560008   2.536735   0.000000
    31  H    1.795889   1.802727   2.716891   2.163458   1.014522
    32  H    1.794507   2.106985   2.488235   2.985250   1.013829
    33  H    1.925257   2.215280   1.550946   3.046644   2.662950
                   31         32         33
    31  H    0.000000
    32  H    1.645458   0.000000
    33  H    3.302914   2.296513   0.000000
 Stoichiometry    C12H14N5OS(1+)
 Framework group  C1[X(C12H14N5OS)]
 Deg. of freedom    93
 Full point group                 C1      NOp   1
 Largest Abelian subgroup         C1      NOp   1
 Largest concise Abelian subgroup C1      NOp   1
                         Standard orientation:                         
 ---------------------------------------------------------------------
 Center     Atomic      Atomic             Coordinates (Angstroms)
 Number     Number       Type             X           Y           Z
 ---------------------------------------------------------------------
      1          6           0        5.983858   -1.632999   -0.691800
      2          1           0        6.671797   -0.872408   -1.067506
      3          1           0        5.546597   -2.244679   -1.483734
      4          1           0        6.495020   -2.451374   -0.181696
      5          6           0        4.965282   -0.973679    0.167855
      6          8           0        4.584610   -1.278323    1.274646
      7          7           0        4.359324    0.014921   -0.509051
      8          1           0        4.615081    0.220885   -1.462939
      9          6           0        3.177784    0.675087   -0.205017
     10          6           0        3.263197    2.016715    0.105686
     11          6           0        2.096854    2.764677    0.346145
     12          6           0        0.877179    2.073721    0.245665
     13          1           0       -0.015489    2.684246    0.361116
     14          1           0        2.093510    3.825648    0.583694
     15          1           0        4.227016    2.516649    0.174273
     16          6           0        2.021985   -0.044883   -0.177939
     17          1           0        2.059726   -1.128134   -0.260606
     18          6           0        0.824014    0.702976   -0.057948
     19          6           0       -0.470596    0.100981   -0.099069
     20          7           0       -1.637275    0.772356   -0.460505
     21          6           0       -0.735825   -1.165452    0.249674
     22          1           0       -0.039253   -1.841553    0.729656
     23         16           0       -2.381969   -1.597403    0.155997
     24          6           0       -2.677477    0.059910   -0.064956
     25          7           0       -3.996101    0.357784   -0.426996
     26          6           0       -4.950972   -0.339493   -0.079413
     27          7           0       -6.015623   -0.027089   -0.715816
     28          1           0       -5.451957    0.415874   -1.433268
     29          1           0       -6.389071   -0.920210   -1.018652
     30          7           0       -5.387997    0.051706    1.099898
     31          1           0       -6.352701   -0.256574    1.040185
     32          1           0       -5.363998    1.056814    0.969391
     33          1           0       -4.169660    1.166743   -0.989037
 ---------------------------------------------------------------------
 Rotational constants (GHZ):           0.9828680           0.1313016           0.1204020
 Leave Link  202 at Sun Jul 18 15:06:14 2021, MaxMem=   104857600 cpu:               0.1 elap:               0.0
 (Enter /prod/apps/gaussian/g16b1/l301.exe)
 Standard basis: 6-31G(d) (6D, 7F)
 Ernie: Thresh=  0.10000D-02 Tol=  0.10000D-05 Strict=F.
 There are   317 symmetry adapted cartesian basis functions of A   symmetry.
 There are   317 symmetry adapted basis functions of A   symmetry.
   317 basis functions,   612 primitive gaussians,   317 cartesian basis functions
    72 alpha electrons       72 beta electrons
       nuclear repulsion energy      1472.5418343933 Hartrees.
 IExCor=  402 DFT=T Ex+Corr=B3LYP ExCW=0 ScaHFX=  0.200000
 ScaDFX=  0.800000  0.720000  1.000000  0.810000 ScalE2=  1.000000  1.000000
 IRadAn=      5 IRanWt=     -1 IRanGd=            0 ICorTp=0 IEmpDi=  4
 NAtoms=   33 NActive=   33 NUniq=   33 SFac= 1.00D+00 NAtFMM=   60 NAOKFM=F Big=F
 Integral buffers will be    131072 words long.
 Raffenetti 2 integral format.
 Two-electron integral symmetry is turned on.
 Using the following non-standard input for PCM:
 MSTModel=DFT cav MSTCharged
 --- end of non-standard input.
 MST model for solvation energy: B3LYP parametrization.
 MST cavity parameters:
 ISph   IAn     Re0     Alpha   Atom Type   QCorr
 ------------------------------------------------
   1      6     1.50     1.25      CH3        F
   2      1     1.20     1.25      CH3        F
   3      1     1.20     1.25      CH3        F
   4      1     1.20     1.25      CH3        F
   5      6     1.50     1.25      C          F
   6      8     1.40     1.25      O          F
   7      7     1.50     1.25      NH         F
   8      1     0.90     1.25      NH         F
   9      6     1.50     1.25      C          F
  10      6     1.50     1.25      CH         F
  11      6     1.50     1.25      CH         F
  12      6     1.50     1.25      CH         F
  13      1     1.20     1.25      CH         F
  14      1     1.20     1.25      CH         F
  15      1     1.20     1.25      CH         F
  16      6     1.50     1.25      CH         F
  17      1     1.20     1.25      CH         F
  18      6     1.50     1.25      C          F
  19      6     1.50     1.25      C          F
  20      7     1.40     1.25      N          F
  21      6     1.50     1.25      CH         F
  22      1     1.20     1.25      CH         F
  23     16     1.75     1.25      S          F
  24      6     1.50     1.25      C          F
  25      7     1.50     1.15      NH         T
  26      6     1.50     1.15      C          T
  27      7     1.55     1.15      NH         T
  28      1     0.90     1.15      NH         T
  29      1     0.90     1.15      NH         T
  30      7     1.55     1.15      NH         T
  31      1     0.90     1.15      NH         T
  32      1     0.90     1.15      NH         T
  33      1     0.90     1.15      NH         T
 ------------------------------------------------------------------------------
 Polarizable Continuum Model (PCM)
 =================================
 Model                : PCM.
 Atomic radii         : MST.
 Polarization charges : Total charges.
 Charge compensation  : None.
 Solution method      : On-the-fly selection.
 Cavity type          : Scaled VdW (van der Waals Surface) (Alpha=1.250).
 Cavity algorithm     : GePol (No added spheres)
                        Default sphere list used, NSphG=   33.
                        Lebedev-Laikov grids with approx.  5.0 points / Ang**2.
                        Smoothing algorithm: York/Karplus (Gamma=1.0000).
                        Polarization charges: spherical gaussians, with
                                              point-specific exponents (IZeta= 3).
                        Self-potential: point-specific (ISelfS= 7).
                        Self-field    : sphere-specific E.n sum rule (ISelfD= 2).
 1st derivatives      : Analytical E(r).r(x)/FMM algorithm (CHGder, D1EAlg=3).
                        Cavity 1st derivative terms included.
 Solvent              : Water, Eps=  78.355300 Eps(inf)=   1.777849
 ------------------------------------------------------------------------------
 GePol: Number of generator spheres                  =      33
 GePol: Total number of spheres                      =      33
 GePol: Number of exposed spheres                    =      33 (100.00%)
 GePol: Number of points                             =    2496
 GePol: Average weight of points                     =       0.13
 GePol: Minimum weight of points                     =   0.50D-11
 GePol: Maximum weight of points                     =    0.22001
 GePol: Number of points with low weight             =     149
 GePol: Fraction of low-weight points (<1% of avg)   =       5.97%
 GePol: Cavity surface area                          =    313.805 Ang**2
 GePol: Cavity volume                                =    293.168 Ang**3
 PCM non-electrostatic energy =         0.0015542652 Hartrees.
 Nuclear repulsion after PCM non-electrostatic terms =     1472.5433886584 Hartrees.
 Leave Link  301 at Sun Jul 18 15:06:14 2021, MaxMem=   104857600 cpu:               0.3 elap:               0.1
 (Enter /prod/apps/gaussian/g16b1/l302.exe)
 NPDir=0 NMtPBC=     1 NCelOv=     1 NCel=       1 NClECP=     1 NCelD=      1
         NCelK=      1 NCelE2=     1 NClLst=     1 CellRange=     0.0.
 One-electron integrals computed using PRISM.
 One-electron integral symmetry used in STVInt
 NBasis=   317 RedAO= T EigKep=  4.99D-04  NBF=   317
 NBsUse=   317 1.00D-06 EigRej= -1.00D+00 NBFU=   317
 Precomputing XC quadrature grid using
 IXCGrd= 4 IRadAn=           5 IRanWt=          -1 IRanGd=           0 AccXCQ= 0.00D+00.
 Generated NRdTot=       0 NPtTot=           0 NUsed=           0 NTot=          32
 NSgBfM=   313   313   313   313   313 MxSgAt=    33 MxSgA2=    33.
 Leave Link  302 at Sun Jul 18 15:06:14 2021, MaxMem=   104857600 cpu:               1.7 elap:               0.4
 (Enter /prod/apps/gaussian/g16b1/l303.exe)
 DipDrv:  MaxL=1.
 Leave Link  303 at Sun Jul 18 15:06:14 2021, MaxMem=   104857600 cpu:               0.1 elap:               0.1
 (Enter /prod/apps/gaussian/g16b1/l401.exe)
 ExpMin= 1.17D-01 ExpMax= 2.19D+04 ExpMxC= 3.30D+03 IAcc=3 IRadAn=         5 AccDes= 0.00D+00
 Harris functional with IExCor=  402 and IRadAn=       5 diagonalized for initial guess.
 HarFok:  IExCor=  402 AccDes= 0.00D+00 IRadAn=         5 IDoV= 1 UseB2=F ITyADJ=14
 ICtDFT=  3500011 ScaDFX=  1.000000  1.000000  1.000000  1.000000
 FoFCou: FMM=F IPFlag=           0 FMFlag=      100000 FMFlg1=           0
         NFxFlg=           0 DoJE=T BraDBF=F KetDBF=T FulRan=T
         wScrn=  0.000000 ICntrl=       500 IOpCl=  0 I1Cent=   200000004 NGrid=           0
         NMat0=    1 NMatS0=      1 NMatT0=    0 NMatD0=    1 NMtDS0=    0 NMtDT0=    0
 Petite list used in FoFCou.
 Harris En= -1212.33694140965    
 JPrj=0 DoOrth=F DoCkMO=F.
 Leave Link  401 at Sun Jul 18 15:06:16 2021, MaxMem=   104857600 cpu:               7.8 elap:               2.0
 (Enter /prod/apps/gaussian/g16b1/l502.exe)
 Integral symmetry usage will be decided dynamically.
 Closed shell SCF:
 Using DIIS extrapolation, IDIIS=  1040.
 NGot=   104857600 LenX=   104651207 LenY=   104550277
 Requested convergence on RMS density matrix=1.00D-08 within 128 cycles.
 Requested convergence on MAX density matrix=1.00D-06.
 Requested convergence on             energy=1.00D-06.
 No special actions if energy rises.
 Fock matrices will be formed incrementally for  20 cycles.

 Cycle   1  Pass 1  IDiag  1:
 FoFJK:  IHMeth= 1 ICntrl=       0 DoSepK=F KAlg= 0 I1Cent=           0 FoldK=F
 IRaf= 710000000 NMat=       1 IRICut=       1 DoRegI=T DoRafI=F ISym2E= 0 IDoP0=0 IntGTp=1.
 FoFCou: FMM=F IPFlag=           0 FMFlag=      100000 FMFlg1=           0
         NFxFlg=           0 DoJE=F BraDBF=F KetDBF=F FulRan=T
         wScrn=  0.000000 ICntrl=         0 IOpCl=  0 I1Cent=           0 NGrid=           0
         NMat0=    1 NMatS0=      1 NMatT0=    0 NMatD0=    1 NMtDS0=    0 NMtDT0=    0
 Symmetry not used in FoFCou.
 Inv3:  Mode=1 IEnd=    18690048.
 Iteration    1 A*A^-1 deviation from unit magnitude is 2.78D-15 for     28.
 Iteration    1 A*A^-1 deviation from orthogonality  is 2.56D-15 for   2367   1817.
 Iteration    1 A^-1*A deviation from unit magnitude is 3.33D-15 for   1107.
 Iteration    1 A^-1*A deviation from orthogonality  is 2.00D-15 for   2259   1769.
 E= -1211.94845839278    
 DIIS: error= 2.34D-02 at cycle   1 NSaved=   1.
 NSaved= 1 IEnMin= 1 EnMin= -1211.94845839278     IErMin= 1 ErrMin= 2.34D-02
 ErrMax= 2.34D-02  0.00D+00 EMaxC= 1.00D-01 BMatC= 5.47D-01 BMatP= 5.47D-01
 IDIUse=3 WtCom= 7.66D-01 WtEn= 2.34D-01
 Coeff-Com:  0.100D+01
 Coeff-En:   0.100D+01
 Coeff:      0.100D+01
 Gap=     0.087 Goal=   None    Shift=    0.000
 GapD=    0.087 DampG=0.500 DampE=0.500 DampFc=0.2500 IDamp=-1.
 Damping current iteration by 2.50D-01
 RMSDP=7.28D-03 MaxDP=2.84D-01              OVMax= 8.48D-01

 Cycle   2  Pass 1  IDiag  1:
 RMSU=  1.80D-03    CP:  9.88D-01
 E= -1212.10740529005     Delta-E=       -0.158946897266 Rises=F Damp=T
 DIIS: error= 1.28D-02 at cycle   2 NSaved=   2.
 NSaved= 2 IEnMin= 2 EnMin= -1212.10740529005     IErMin= 2 ErrMin= 1.28D-02
 ErrMax= 1.28D-02  0.00D+00 EMaxC= 1.00D-01 BMatC= 1.12D-01 BMatP= 5.47D-01
 IDIUse=3 WtCom= 8.72D-01 WtEn= 1.28D-01
 Coeff-Com: -0.494D+00 0.149D+01
 Coeff-En:   0.000D+00 0.100D+01
 Coeff:     -0.431D+00 0.143D+01
 Gap=    -0.020 Goal=   None    Shift=    0.000
 RMSDP=2.26D-03 MaxDP=8.46D-02 DE=-1.59D-01 OVMax= 9.65D-01

 Cycle   3  Pass 1  IDiag  1:
 RMSU=  2.23D-03    CP:  9.74D-01  9.22D-01
 E= -1212.33927616640     Delta-E=       -0.231870876352 Rises=F Damp=F
 DIIS: error= 1.27D-02 at cycle   3 NSaved=   3.
 NSaved= 3 IEnMin= 3 EnMin= -1212.33927616640     IErMin= 3 ErrMin= 1.27D-02
 ErrMax= 1.27D-02  0.00D+00 EMaxC= 1.00D-01 BMatC= 1.30D-01 BMatP= 1.12D-01
 IDIUse=2 WtCom= 0.00D+00 WtEn= 1.00D+00
 Coeff-En:   0.000D+00 0.000D+00 0.100D+01
 Coeff:      0.000D+00 0.000D+00 0.100D+01
 Gap=     0.061 Goal=   None    Shift=    0.000
 RMSDP=4.94D-03 MaxDP=2.71D-01 DE=-2.32D-01 OVMax= 9.00D-01

 Cycle   4  Pass 1  IDiag  1:
 RMSU=  2.37D-03    CP:  9.67D-01  2.52D+00 -4.46D-01
 E= -1211.52136496438     Delta-E=        0.817911202022 Rises=F Damp=F
 DIIS: error= 3.40D-02 at cycle   4 NSaved=   4.
 NSaved= 4 IEnMin= 3 EnMin= -1212.33927616640     IErMin= 3 ErrMin= 1.27D-02
 ErrMax= 3.40D-02  0.00D+00 EMaxC= 1.00D-01 BMatC= 8.18D-01 BMatP= 1.12D-01
 IDIUse=2 WtCom= 0.00D+00 WtEn= 1.00D+00
 Coeff-En:   0.000D+00 0.000D+00 0.844D+00 0.156D+00
 Coeff:      0.000D+00 0.000D+00 0.844D+00 0.156D+00
 Gap=    -0.026 Goal=   None    Shift=    0.000
 RMSDP=4.41D-03 MaxDP=2.25D-01 DE= 8.18D-01 OVMax= 9.34D-01

 Cycle   5  Pass 1  IDiag  1:
 RMSU=  1.45D-03    CP:  9.81D-01  9.35D-01  6.39D-01  2.46D-01
 E= -1212.41112790122     Delta-E=       -0.889762936840 Rises=F Damp=F
 DIIS: error= 7.88D-03 at cycle   5 NSaved=   5.
 NSaved= 5 IEnMin= 5 EnMin= -1212.41112790122     IErMin= 5 ErrMin= 7.88D-03
 ErrMax= 7.88D-03  0.00D+00 EMaxC= 1.00D-01 BMatC= 5.50D-02 BMatP= 1.12D-01
 IDIUse=3 WtCom= 9.21D-01 WtEn= 7.88D-02
 Coeff-Com: -0.114D+00 0.277D+00 0.407D+00 0.298D-01 0.400D+00
 Coeff-En:   0.000D+00 0.000D+00 0.303D+00 0.000D+00 0.697D+00
 Coeff:     -0.105D+00 0.255D+00 0.399D+00 0.275D-01 0.424D+00
 Gap=     0.076 Goal=   None    Shift=    0.000
 RMSDP=8.80D-04 MaxDP=5.47D-02 DE=-8.90D-01 OVMax= 6.96D-02

 Cycle   6  Pass 1  IDiag  1:
 RMSU=  3.49D-04    CP:  9.78D-01  8.81D-01  7.98D-01  1.66D-01  5.23D-01
 E= -1212.45414627217     Delta-E=       -0.043018370948 Rises=F Damp=F
 DIIS: error= 2.47D-03 at cycle   6 NSaved=   6.
 NSaved= 6 IEnMin= 6 EnMin= -1212.45414627217     IErMin= 6 ErrMin= 2.47D-03
 ErrMax= 2.47D-03  0.00D+00 EMaxC= 1.00D-01 BMatC= 5.58D-03 BMatP= 5.50D-02
 IDIUse=3 WtCom= 9.75D-01 WtEn= 2.47D-02
 Coeff-Com: -0.658D-01 0.100D+00 0.119D+00-0.773D-02 0.287D+00 0.567D+00
 Coeff-En:   0.000D+00 0.000D+00 0.000D+00 0.000D+00 0.705D-01 0.930D+00
 Coeff:     -0.642D-01 0.979D-01 0.116D+00-0.754D-02 0.282D+00 0.576D+00
 Gap=     0.076 Goal=   None    Shift=    0.000
 RMSDP=2.48D-04 MaxDP=1.23D-02 DE=-4.30D-02 OVMax= 1.87D-02

 Cycle   7  Pass 1  IDiag  1:
 RMSU=  8.56D-05    CP:  9.78D-01  9.26D-01  7.86D-01  1.62D-01  6.45D-01
                    CP:  6.45D-01
 E= -1212.45911887162     Delta-E=       -0.004972599450 Rises=F Damp=F
 DIIS: error= 3.79D-04 at cycle   7 NSaved=   7.
 NSaved= 7 IEnMin= 7 EnMin= -1212.45911887162     IErMin= 7 ErrMin= 3.79D-04
 ErrMax= 3.79D-04  0.00D+00 EMaxC= 1.00D-01 BMatC= 9.50D-05 BMatP= 5.58D-03
 IDIUse=3 WtCom= 9.96D-01 WtEn= 3.79D-03
 Coeff-Com: -0.150D-01 0.178D-01-0.244D-02-0.188D-02 0.384D-01 0.184D+00
 Coeff-Com:  0.779D+00
 Coeff-En:   0.000D+00 0.000D+00 0.000D+00 0.000D+00 0.000D+00 0.000D+00
 Coeff-En:   0.100D+01
 Coeff:     -0.150D-01 0.177D-01-0.243D-02-0.188D-02 0.383D-01 0.184D+00
 Coeff:      0.780D+00
 Gap=     0.078 Goal=   None    Shift=    0.000
 RMSDP=3.99D-05 MaxDP=1.44D-03 DE=-4.97D-03 OVMax= 3.25D-03

 Cycle   8  Pass 1  IDiag  1:
 RMSU=  3.52D-05    CP:  9.78D-01  9.21D-01  7.86D-01  1.64D-01  6.49D-01
                    CP:  6.84D-01  9.75D-01
 E= -1212.45918683391     Delta-E=       -0.000067962294 Rises=F Damp=F
 DIIS: error= 1.94D-04 at cycle   8 NSaved=   8.
 NSaved= 8 IEnMin= 8 EnMin= -1212.45918683391     IErMin= 8 ErrMin= 1.94D-04
 ErrMax= 1.94D-04  0.00D+00 EMaxC= 1.00D-01 BMatC= 2.04D-05 BMatP= 9.50D-05
 IDIUse=3 WtCom= 9.98D-01 WtEn= 1.94D-03
 Coeff-Com: -0.608D-02 0.714D-02-0.938D-02-0.361D-03 0.169D-02 0.733D-01
 Coeff-Com:  0.464D+00 0.470D+00
 Coeff-En:   0.000D+00 0.000D+00 0.000D+00 0.000D+00 0.000D+00 0.000D+00
 Coeff-En:   0.359D-01 0.964D+00
 Coeff:     -0.607D-02 0.713D-02-0.936D-02-0.360D-03 0.169D-02 0.732D-01
 Coeff:      0.463D+00 0.471D+00
 Gap=     0.078 Goal=   None    Shift=    0.000
 RMSDP=1.71D-05 MaxDP=8.06D-04 DE=-6.80D-05 OVMax= 1.23D-03

 Cycle   9  Pass 1  IDiag  1:
 RMSU=  1.22D-05    CP:  9.78D-01  9.23D-01  7.86D-01  1.64D-01  6.48D-01
                    CP:  6.87D-01  1.00D+00  6.83D-01
 E= -1212.45920457927     Delta-E=       -0.000017745356 Rises=F Damp=F
 DIIS: error= 3.79D-05 at cycle   9 NSaved=   9.
 NSaved= 9 IEnMin= 9 EnMin= -1212.45920457927     IErMin= 9 ErrMin= 3.79D-05
 ErrMax= 3.79D-05  0.00D+00 EMaxC= 1.00D-01 BMatC= 1.07D-06 BMatP= 2.04D-05
 IDIUse=1 WtCom= 1.00D+00 WtEn= 0.00D+00
 Coeff-Com: -0.115D-02 0.103D-02-0.535D-02 0.988D-04-0.457D-02 0.161D-01
 Coeff-Com:  0.126D+00 0.189D+00 0.679D+00
 Coeff:     -0.115D-02 0.103D-02-0.535D-02 0.988D-04-0.457D-02 0.161D-01
 Coeff:      0.126D+00 0.189D+00 0.679D+00
 Gap=     0.078 Goal=   None    Shift=    0.000
 RMSDP=7.03D-06 MaxDP=2.56D-04 DE=-1.77D-05 OVMax= 9.75D-04

 Cycle  10  Pass 1  IDiag  1:
 RMSU=  5.41D-06    CP:  9.78D-01  9.22D-01  7.86D-01  1.63D-01  6.49D-01
                    CP:  6.89D-01  1.03D+00  7.80D-01  9.67D-01
 E= -1212.45920573513     Delta-E=       -0.000001155860 Rises=F Damp=F
 DIIS: error= 1.84D-05 at cycle  10 NSaved=  10.
 NSaved=10 IEnMin=10 EnMin= -1212.45920573513     IErMin=10 ErrMin= 1.84D-05
 ErrMax= 1.84D-05  0.00D+00 EMaxC= 1.00D-01 BMatC= 3.93D-07 BMatP= 1.07D-06
 IDIUse=1 WtCom= 1.00D+00 WtEn= 0.00D+00
 Coeff-Com: -0.113D-03 0.211D-03-0.164D-02 0.115D-04-0.275D-02-0.860D-03
 Coeff-Com: -0.903D-02-0.200D-02 0.385D+00 0.632D+00
 Coeff:     -0.113D-03 0.211D-03-0.164D-02 0.115D-04-0.275D-02-0.860D-03
 Coeff:     -0.903D-02-0.200D-02 0.385D+00 0.632D+00
 Gap=     0.078 Goal=   None    Shift=    0.000
 RMSDP=3.24D-06 MaxDP=1.00D-04 DE=-1.16D-06 OVMax= 4.79D-04

 Cycle  11  Pass 1  IDiag  1:
 RMSU=  1.80D-06    CP:  9.78D-01  9.22D-01  7.86D-01  1.63D-01  6.49D-01
                    CP:  6.89D-01  1.04D+00  7.99D-01  1.14D+00  9.54D-01
 E= -1212.45920616875     Delta-E=       -0.000000433622 Rises=F Damp=F
 DIIS: error= 7.10D-06 at cycle  11 NSaved=  11.
 NSaved=11 IEnMin=11 EnMin= -1212.45920616875     IErMin=11 ErrMin= 7.10D-06
 ErrMax= 7.10D-06  0.00D+00 EMaxC= 1.00D-01 BMatC= 3.73D-08 BMatP= 3.93D-07
 IDIUse=1 WtCom= 1.00D+00 WtEn= 0.00D+00
 Coeff-Com:  0.535D-04-0.305D-04-0.183D-03-0.562D-05-0.584D-03-0.127D-02
 Coeff-Com: -0.204D-01-0.363D-01 0.886D-01 0.254D+00 0.716D+00
 Coeff:      0.535D-04-0.305D-04-0.183D-03-0.562D-05-0.584D-03-0.127D-02
 Coeff:     -0.204D-01-0.363D-01 0.886D-01 0.254D+00 0.716D+00
 Gap=     0.078 Goal=   None    Shift=    0.000
 RMSDP=1.46D-06 MaxDP=6.36D-05 DE=-4.34D-07 OVMax= 2.34D-04

 Cycle  12  Pass 1  IDiag  1:
 RMSU=  6.68D-07    CP:  9.78D-01  9.22D-01  7.86D-01  1.63D-01  6.49D-01
                    CP:  6.89D-01  1.04D+00  8.12D-01  1.21D+00  1.09D+00
                    CP:  1.08D+00
 E= -1212.45920621842     Delta-E=       -0.000000049670 Rises=F Damp=F
 DIIS: error= 4.82D-06 at cycle  12 NSaved=  12.
 NSaved=12 IEnMin=12 EnMin= -1212.45920621842     IErMin=12 ErrMin= 4.82D-06
 ErrMax= 4.82D-06  0.00D+00 EMaxC= 1.00D-01 BMatC= 7.90D-09 BMatP= 3.73D-08
 IDIUse=1 WtCom= 1.00D+00 WtEn= 0.00D+00
 Coeff-Com:  0.575D-04-0.827D-04 0.691D-04 0.260D-05 0.377D-05-0.316D-03
 Coeff-Com: -0.944D-02-0.221D-01-0.118D-02 0.331D-01 0.357D+00 0.643D+00
 Coeff:      0.575D-04-0.827D-04 0.691D-04 0.260D-05 0.377D-05-0.316D-03
 Coeff:     -0.944D-02-0.221D-01-0.118D-02 0.331D-01 0.357D+00 0.643D+00
 Gap=     0.078 Goal=   None    Shift=    0.000
 RMSDP=7.85D-07 MaxDP=2.79D-05 DE=-4.97D-08 OVMax= 1.44D-04

 Cycle  13  Pass 1  IDiag  1:
 RMSU=  3.45D-07    CP:  9.78D-01  9.22D-01  7.86D-01  1.63D-01  6.49D-01
                    CP:  6.89D-01  1.05D+00  8.17D-01  1.24D+00  1.14D+00
                    CP:  1.28D+00  9.37D-01
 E= -1212.45920623025     Delta-E=       -0.000000011831 Rises=F Damp=F
 DIIS: error= 2.32D-06 at cycle  13 NSaved=  13.
 NSaved=13 IEnMin=13 EnMin= -1212.45920623025     IErMin=13 ErrMin= 2.32D-06
 ErrMax= 2.32D-06  0.00D+00 EMaxC= 1.00D-01 BMatC= 2.43D-09 BMatP= 7.90D-09
 IDIUse=1 WtCom= 1.00D+00 WtEn= 0.00D+00
 Coeff-Com: -0.953D-05 0.142D-04 0.924D-05-0.454D-05 0.420D-04 0.267D-03
 Coeff-Com:  0.339D-03-0.389D-02-0.112D-01-0.383D-01-0.323D-01 0.375D+00
 Coeff-Com:  0.710D+00
 Coeff:     -0.953D-05 0.142D-04 0.924D-05-0.454D-05 0.420D-04 0.267D-03
 Coeff:      0.339D-03-0.389D-02-0.112D-01-0.383D-01-0.323D-01 0.375D+00
 Coeff:      0.710D+00
 Gap=     0.078 Goal=   None    Shift=    0.000
 RMSDP=4.41D-07 MaxDP=1.76D-05 DE=-1.18D-08 OVMax= 8.06D-05

 Cycle  14  Pass 1  IDiag  1:
 RMSU=  1.55D-07    CP:  9.78D-01  9.22D-01  7.86D-01  1.63D-01  6.49D-01
                    CP:  6.89D-01  1.05D+00  8.19D-01  1.25D+00  1.17D+00
                    CP:  1.38D+00  1.20D+00  1.05D+00
 E= -1212.45920623384     Delta-E=       -0.000000003593 Rises=F Damp=F
 DIIS: error= 6.93D-07 at cycle  14 NSaved=  14.
 NSaved=14 IEnMin=14 EnMin= -1212.45920623384     IErMin=14 ErrMin= 6.93D-07
 ErrMax= 6.93D-07  0.00D+00 EMaxC= 1.00D-01 BMatC= 3.78D-10 BMatP= 2.43D-09
 IDIUse=1 WtCom= 1.00D+00 WtEn= 0.00D+00
 Coeff-Com: -0.121D-04 0.144D-04-0.280D-04-0.181D-05 0.321D-05 0.228D-03
 Coeff-Com:  0.201D-02 0.140D-02-0.481D-02-0.279D-01-0.103D+00 0.112D+00
 Coeff-Com:  0.406D+00 0.614D+00
 Coeff:     -0.121D-04 0.144D-04-0.280D-04-0.181D-05 0.321D-05 0.228D-03
 Coeff:      0.201D-02 0.140D-02-0.481D-02-0.279D-01-0.103D+00 0.112D+00
 Coeff:      0.406D+00 0.614D+00
 Gap=     0.078 Goal=   None    Shift=    0.000
 RMSDP=1.76D-07 MaxDP=7.27D-06 DE=-3.59D-09 OVMax= 3.15D-05

 Cycle  15  Pass 1  IDiag  1:
 RMSU=  5.22D-08    CP:  9.78D-01  9.22D-01  7.86D-01  1.63D-01  6.49D-01
                    CP:  6.89D-01  1.05D+00  8.20D-01  1.26D+00  1.18D+00
                    CP:  1.42D+00  1.30D+00  1.22D+00  9.96D-01
 E= -1212.45920623441     Delta-E=       -0.000000000573 Rises=F Damp=F
 DIIS: error= 1.86D-07 at cycle  15 NSaved=  15.
 NSaved=15 IEnMin=15 EnMin= -1212.45920623441     IErMin=15 ErrMin= 1.86D-07
 ErrMax= 1.86D-07  0.00D+00 EMaxC= 1.00D-01 BMatC= 3.73D-11 BMatP= 3.78D-10
 IDIUse=1 WtCom= 1.00D+00 WtEn= 0.00D+00
 Coeff-Com: -0.153D-05 0.723D-06-0.244D-04 0.970D-07-0.174D-04 0.360D-04
 Coeff-Com:  0.804D-03 0.113D-02 0.460D-03-0.422D-02-0.500D-01-0.111D-01
 Coeff-Com:  0.686D-01 0.239D+00 0.756D+00
 Coeff:     -0.153D-05 0.723D-06-0.244D-04 0.970D-07-0.174D-04 0.360D-04
 Coeff:      0.804D-03 0.113D-02 0.460D-03-0.422D-02-0.500D-01-0.111D-01
 Coeff:      0.686D-01 0.239D+00 0.756D+00
 Gap=     0.078 Goal=   None    Shift=    0.000
 RMSDP=7.98D-08 MaxDP=3.43D-06 DE=-5.73D-10 OVMax= 1.42D-05

 Cycle  16  Pass 1  IDiag  1:
 RMSU=  2.24D-08    CP:  9.78D-01  9.22D-01  7.86D-01  1.63D-01  6.49D-01
                    CP:  6.89D-01  1.05D+00  8.21D-01  1.26D+00  1.19D+00
                    CP:  1.44D+00  1.35D+00  1.31D+00  1.15D+00  1.06D+00
 E= -1212.45920623450     Delta-E=       -0.000000000086 Rises=F Damp=F
 DIIS: error= 1.01D-07 at cycle  16 NSaved=  16.
 NSaved=16 IEnMin=16 EnMin= -1212.45920623450     IErMin=16 ErrMin= 1.01D-07
 ErrMax= 1.01D-07  0.00D+00 EMaxC= 1.00D-01 BMatC= 8.15D-12 BMatP= 3.73D-11
 IDIUse=1 WtCom= 1.00D+00 WtEn= 0.00D+00
 Coeff-Com:  0.124D-05-0.162D-05-0.841D-05 0.254D-06-0.866D-05-0.282D-04
 Coeff-Com:  0.669D-04 0.389D-03 0.106D-02 0.343D-02-0.109D-01-0.280D-01
 Coeff-Com: -0.370D-01 0.290D-03 0.395D+00 0.676D+00
 Coeff:      0.124D-05-0.162D-05-0.841D-05 0.254D-06-0.866D-05-0.282D-04
 Coeff:      0.669D-04 0.389D-03 0.106D-02 0.343D-02-0.109D-01-0.280D-01
 Coeff:     -0.370D-01 0.290D-03 0.395D+00 0.676D+00
 Gap=     0.078 Goal=   None    Shift=    0.000
 RMSDP=3.20D-08 MaxDP=1.33D-06 DE=-8.64D-11 OVMax= 4.78D-06

 Cycle  17  Pass 1  IDiag  1:
 RMSU=  8.96D-09    CP:  9.78D-01  9.22D-01  7.86D-01  1.63D-01  6.49D-01
                    CP:  6.89D-01  1.05D+00  8.21D-01  1.26D+00  1.19D+00
                    CP:  1.45D+00  1.36D+00  1.35D+00  1.22D+00  1.24D+00
                    CP:  8.78D-01
 E= -1212.45920623451     Delta-E=       -0.000000000010 Rises=F Damp=F
 DIIS: error= 4.61D-08 at cycle  17 NSaved=  17.
 NSaved=17 IEnMin=17 EnMin= -1212.45920623451     IErMin=17 ErrMin= 4.61D-08
 ErrMax= 4.61D-08  0.00D+00 EMaxC= 1.00D-01 BMatC= 1.42D-12 BMatP= 8.15D-12
 IDIUse=1 WtCom= 1.00D+00 WtEn= 0.00D+00
 Coeff-Com:  0.724D-06-0.942D-06-0.187D-05 0.485D-07-0.190D-05-0.167D-04
 Coeff-Com: -0.719D-04 0.580D-04 0.702D-03 0.310D-02 0.249D-02-0.120D-01
 Coeff-Com: -0.285D-01-0.404D-01 0.805D-01 0.348D+00 0.647D+00
 Coeff:      0.724D-06-0.942D-06-0.187D-05 0.485D-07-0.190D-05-0.167D-04
 Coeff:     -0.719D-04 0.580D-04 0.702D-03 0.310D-02 0.249D-02-0.120D-01
 Coeff:     -0.285D-01-0.404D-01 0.805D-01 0.348D+00 0.647D+00
 Gap=     0.078 Goal=   None    Shift=    0.000
 RMSDP=6.83D-09 MaxDP=2.45D-07 DE=-1.05D-11 OVMax= 7.83D-07

 Error on total polarization charges =  0.02622
 SCF Done:  E(RB3LYP) =  -1212.45920623     A.U. after   17 cycles
            NFock= 17  Conv=0.68D-08     -V/T= 2.0054
 KE= 1.205888095797D+03 PE=-5.766754741547D+03 EE= 1.875864050856D+03
 Leave Link  502 at Sun Jul 18 15:07:36 2021, MaxMem=   104857600 cpu:             320.4 elap:              80.2
 (Enter /prod/apps/gaussian/g16b1/l601.exe)
 Copying SCF densities to generalized density rwf, IOpCl= 0 IROHF=0.

 **********************************************************************

            Population analysis using the SCF Density.

 **********************************************************************

 Orbital symmetries:
       Occupied  (A) (A) (A) (A) (A) (A) (A) (A) (A) (A) (A) (A)
                 (A) (A) (A) (A) (A) (A) (A) (A) (A) (A) (A) (A)
                 (A) (A) (A) (A) (A) (A) (A) (A) (A) (A) (A) (A)
                 (A) (A) (A) (A) (A) (A) (A) (A) (A) (A) (A) (A)
                 (A) (A) (A) (A) (A) (A) (A) (A) (A) (A) (A) (A)
                 (A) (A) (A) (A) (A) (A) (A) (A) (A) (A) (A) (A)
       Virtual   (A) (A) (A) (A) (A) (A) (A) (A) (A) (A) (A) (A)
                 (A) (A) (A) (A) (A) (A) (A) (A) (A) (A) (A) (A)
                 (A) (A) (A) (A) (A) (A) (A) (A) (A) (A) (A) (A)
                 (A) (A) (A) (A) (A) (A) (A) (A) (A) (A) (A) (A)
                 (A) (A) (A) (A) (A) (A) (A) (A) (A) (A) (A) (A)
                 (A) (A) (A) (A) (A) (A) (A) (A) (A) (A) (A) (A)
                 (A) (A) (A) (A) (A) (A) (A) (A) (A) (A) (A) (A)
                 (A) (A) (A) (A) (A) (A) (A) (A) (A) (A) (A) (A)
                 (A) (A) (A) (A) (A) (A) (A) (A) (A) (A) (A) (A)
                 (A) (A) (A) (A) (A) (A) (A) (A) (A) (A) (A) (A)
                 (A) (A) (A) (A) (A) (A) (A) (A) (A) (A) (A) (A)
                 (A) (A) (A) (A) (A) (A) (A) (A) (A) (A) (A) (A)
                 (A) (A) (A) (A) (A) (A) (A) (A) (A) (A) (A) (A)
                 (A) (A) (A) (A) (A) (A) (A) (A) (A) (A) (A) (A)
                 (A) (A) (A) (A) (A) (A) (A) (A) (A) (A) (A) (A)
                 (A) (A) (A) (A) (A) (A) (A) (A) (A) (A) (A) (A)
                 (A) (A) (A) (A) (A) (A) (A) (A) (A) (A) (A) (A)
                 (A) (A) (A) (A) (A) (A) (A) (A) (A) (A) (A) (A)
                 (A) (A) (A) (A) (A) (A) (A) (A) (A) (A) (A) (A)
                 (A) (A) (A) (A) (A) (A) (A) (A) (A) (A) (A) (A)
                 (A) (A) (A) (A) (A)
 The electronic state is 1-A.
 Alpha  occ. eigenvalues --  -88.94102 -19.11711 -14.43085 -14.36375 -14.35042
 Alpha  occ. eigenvalues --  -14.34442 -14.33808 -10.33488 -10.31600 -10.28922
 Alpha  occ. eigenvalues --  -10.24453 -10.23052 -10.22838 -10.21556 -10.20334
 Alpha  occ. eigenvalues --  -10.20106 -10.19985 -10.19793 -10.18320  -8.00454
 Alpha  occ. eigenvalues --   -5.96846  -5.96481  -5.96112  -1.14119  -1.04892
 Alpha  occ. eigenvalues --   -1.01605  -0.96406  -0.94418  -0.90534  -0.86507
 Alpha  occ. eigenvalues --   -0.83326  -0.80317  -0.77009  -0.74917  -0.72429
 Alpha  occ. eigenvalues --   -0.69275  -0.67012  -0.64042  -0.62331  -0.58649
 Alpha  occ. eigenvalues --   -0.57849  -0.57239  -0.54781  -0.54327  -0.52843
 Alpha  occ. eigenvalues --   -0.50551  -0.49683  -0.48222  -0.47563  -0.47314
 Alpha  occ. eigenvalues --   -0.46146  -0.45518  -0.44813  -0.44234  -0.42886
 Alpha  occ. eigenvalues --   -0.41903  -0.41338  -0.40605  -0.39419  -0.38624
 Alpha  occ. eigenvalues --   -0.36709  -0.36000  -0.35750  -0.34249  -0.31686
 Alpha  occ. eigenvalues --   -0.29780  -0.28086  -0.27427  -0.26068  -0.24839
 Alpha  occ. eigenvalues --   -0.23861  -0.23064
 Alpha virt. eigenvalues --   -0.15306  -0.05224  -0.03933  -0.01400   0.01618
 Alpha virt. eigenvalues --    0.02872   0.05330   0.07941   0.09756   0.10528
 Alpha virt. eigenvalues --    0.11350   0.11704   0.12045   0.14268   0.15039
 Alpha virt. eigenvalues --    0.15420   0.15726   0.15996   0.16557   0.17167
 Alpha virt. eigenvalues --    0.18373   0.19074   0.19486   0.20120   0.21718
 Alpha virt. eigenvalues --    0.24062   0.25494   0.26529   0.26777   0.28779
 Alpha virt. eigenvalues --    0.29231   0.29981   0.31209   0.32689   0.34239
 Alpha virt. eigenvalues --    0.34710   0.36109   0.36801   0.38551   0.38926
 Alpha virt. eigenvalues --    0.40735   0.41979   0.43653   0.44357   0.49815
 Alpha virt. eigenvalues --    0.50110   0.50926   0.51835   0.52739   0.53620
 Alpha virt. eigenvalues --    0.54155   0.54806   0.55733   0.56051   0.56726
 Alpha virt. eigenvalues --    0.57471   0.58125   0.58369   0.59350   0.60188
 Alpha virt. eigenvalues --    0.60443   0.61579   0.62138   0.64913   0.65556
 Alpha virt. eigenvalues --    0.65838   0.66402   0.67966   0.69332   0.69987
 Alpha virt. eigenvalues --    0.71105   0.71432   0.72281   0.73075   0.73584
 Alpha virt. eigenvalues --    0.74778   0.75440   0.76006   0.77067   0.78819
 Alpha virt. eigenvalues --    0.79811   0.80802   0.81574   0.82486   0.83302
 Alpha virt. eigenvalues --    0.83669   0.83929   0.84388   0.84817   0.86328
 Alpha virt. eigenvalues --    0.86783   0.87355   0.87937   0.88892   0.89570
 Alpha virt. eigenvalues --    0.90333   0.90754   0.91375   0.92928   0.94067
 Alpha virt. eigenvalues --    0.95138   0.95409   0.96278   0.96690   0.98435
 Alpha virt. eigenvalues --    0.98856   1.00260   1.01152   1.02080   1.02531
 Alpha virt. eigenvalues --    1.03736   1.05342   1.08445   1.08627   1.09759
 Alpha virt. eigenvalues --    1.11713   1.13028   1.13962   1.15344   1.17022
 Alpha virt. eigenvalues --    1.17973   1.18953   1.24325   1.25295   1.27253
 Alpha virt. eigenvalues --    1.28630   1.29490   1.30492   1.31173   1.34527
 Alpha virt. eigenvalues --    1.38231   1.39151   1.41408   1.42432   1.43895
 Alpha virt. eigenvalues --    1.44878   1.47396   1.48676   1.49867   1.50619
 Alpha virt. eigenvalues --    1.51501   1.55168   1.60543   1.63533   1.66099
 Alpha virt. eigenvalues --    1.67728   1.71829   1.73505   1.74506   1.76522
 Alpha virt. eigenvalues --    1.77508   1.78920   1.79314   1.81650   1.82885
 Alpha virt. eigenvalues --    1.84197   1.84447   1.85563   1.86007   1.86835
 Alpha virt. eigenvalues --    1.89220   1.90126   1.92688   1.93622   1.94927
 Alpha virt. eigenvalues --    1.97825   1.98955   2.00285   2.01369   2.05408
 Alpha virt. eigenvalues --    2.07071   2.07126   2.10102   2.11771   2.13757
 Alpha virt. eigenvalues --    2.14676   2.15538   2.16262   2.17935   2.20572
 Alpha virt. eigenvalues --    2.22130   2.23115   2.24450   2.25472   2.27022
 Alpha virt. eigenvalues --    2.27843   2.28959   2.30736   2.32854   2.36074
 Alpha virt. eigenvalues --    2.37111   2.37611   2.38902   2.41425   2.44557
 Alpha virt. eigenvalues --    2.46907   2.47458   2.49089   2.50997   2.51876
 Alpha virt. eigenvalues --    2.53859   2.57845   2.60189   2.61074   2.62502
 Alpha virt. eigenvalues --    2.64617   2.66304   2.66893   2.68949   2.70825
 Alpha virt. eigenvalues --    2.75370   2.76869   2.79479   2.80511   2.81817
 Alpha virt. eigenvalues --    2.82937   2.85668   2.94809   2.95013   3.01443
 Alpha virt. eigenvalues --    3.03237   3.11853   3.15602   3.21897   3.26296
 Alpha virt. eigenvalues --    3.43883   3.82425   3.84223   3.92323   3.98745
 Alpha virt. eigenvalues --    4.04805   4.07859   4.08901   4.11670   4.12268
 Alpha virt. eigenvalues --    4.16414   4.17601   4.24624   4.28569   4.35351
 Alpha virt. eigenvalues --    4.35947   4.46088   4.51263   4.53295   4.74961
          Condensed to atoms (all electrons):
               1          2          3          4          5          6
     1  C    5.348933   0.351950   0.362749   0.351394   0.351617  -0.077350
     2  H    0.351950   0.507214  -0.018360  -0.016993  -0.018612   0.001825
     3  H    0.362749  -0.018360   0.513762  -0.039037  -0.017830   0.000790
     4  H    0.351394  -0.016993  -0.039037   0.543357  -0.021666   0.002686
     5  C    0.351617  -0.018612  -0.017830  -0.021666   4.258828   0.642288
     6  O   -0.077350   0.001825   0.000790   0.002686   0.642288   8.105853
     7  N   -0.142576   0.002286  -0.002027   0.006417   0.254164  -0.125615
     8  H    0.000314   0.001004   0.000238  -0.000014  -0.019651   0.003542
     9  C    0.007870  -0.000185  -0.000259  -0.000126  -0.009981   0.013776
    10  C   -0.000417   0.000047  -0.000003   0.000004  -0.000457  -0.001226
    11  C    0.000003  -0.000000   0.000000  -0.000000   0.000027  -0.000014
    12  C    0.000001   0.000000  -0.000000  -0.000000  -0.000002   0.000002
    13  H    0.000000  -0.000000  -0.000000  -0.000000  -0.000000   0.000000
    14  H   -0.000000  -0.000000  -0.000000   0.000000  -0.000001   0.000000
    15  H   -0.000055   0.000012   0.000000   0.000001   0.000485  -0.000023
    16  C    0.000183  -0.000016   0.000068   0.000001  -0.001115   0.002270
    17  H   -0.000196   0.000002  -0.000012   0.000011   0.003482   0.001786
    18  C   -0.000005   0.000001  -0.000002   0.000000   0.000087  -0.000031
    19  C   -0.000000  -0.000000   0.000000   0.000000   0.000002   0.000005
    20  N    0.000000  -0.000000  -0.000000  -0.000000   0.000000   0.000000
    21  C   -0.000000   0.000000   0.000000  -0.000000  -0.000003  -0.000003
    22  H    0.000000  -0.000000  -0.000000   0.000000  -0.000000   0.000001
    23  S   -0.000000  -0.000000   0.000000   0.000000  -0.000000  -0.000000
    24  C    0.000000   0.000000   0.000000   0.000000  -0.000000  -0.000000
    25  N    0.000000  -0.000000   0.000000   0.000000   0.000000  -0.000000
    26  C   -0.000000  -0.000000   0.000000   0.000000  -0.000000  -0.000000
    27  N   -0.000000   0.000000   0.000000   0.000000  -0.000000  -0.000000
    28  H   -0.000000  -0.000000   0.000000   0.000000  -0.000000  -0.000000
    29  H    0.000000   0.000000   0.000000   0.000000  -0.000000   0.000000
    30  N    0.000000   0.000000  -0.000000   0.000000   0.000000   0.000000
    31  H   -0.000000  -0.000000   0.000000   0.000000  -0.000000  -0.000000
    32  H   -0.000000  -0.000000   0.000000   0.000000  -0.000000  -0.000000
    33  H   -0.000000  -0.000000   0.000000  -0.000000  -0.000000  -0.000000
               7          8          9         10         11         12
     1  C   -0.142576   0.000314   0.007870  -0.000417   0.000003   0.000001
     2  H    0.002286   0.001004  -0.000185   0.000047  -0.000000   0.000000
     3  H   -0.002027   0.000238  -0.000259  -0.000003   0.000000  -0.000000
     4  H    0.006417  -0.000014  -0.000126   0.000004  -0.000000  -0.000000
     5  C    0.254164  -0.019651  -0.009981  -0.000457   0.000027  -0.000002
     6  O   -0.125615   0.003542   0.013776  -0.001226  -0.000014   0.000002
     7  N    7.313905   0.298544   0.181776  -0.058987   0.005762   0.001147
     8  H    0.298544   0.346566  -0.019972  -0.003374  -0.000178   0.000048
     9  C    0.181776  -0.019972   4.586023   0.550245  -0.017067  -0.035023
    10  C   -0.058987  -0.003374   0.550245   4.978472   0.509487  -0.046594
    11  C    0.005762  -0.000178  -0.017067   0.509487   4.916529   0.502132
    12  C    0.001147   0.000048  -0.035023  -0.046594   0.502132   5.047198
    13  H    0.000006  -0.000000   0.000389   0.005267  -0.043385   0.363411
    14  H   -0.000126   0.000002   0.003453  -0.033343   0.359739  -0.036628
    15  H   -0.004229   0.001082  -0.041478   0.357264  -0.041475   0.004890
    16  C   -0.061524   0.002003   0.535170  -0.067781  -0.038598  -0.075528
    17  H   -0.007715   0.000250  -0.031767   0.005508   0.000013   0.004376
    18  C    0.003524  -0.000068   0.000919  -0.039941  -0.010217   0.495419
    19  C   -0.000352   0.000009   0.004978   0.001571   0.006083  -0.049900
    20  N    0.000000  -0.000000  -0.000118  -0.000001   0.000477  -0.008114
    21  C    0.000013   0.000000   0.000475  -0.000006  -0.000268   0.009793
    22  H   -0.000002   0.000000   0.000080   0.000001  -0.000005  -0.000258
    23  S    0.000000  -0.000000  -0.000004  -0.000000   0.000012   0.000159
    24  C   -0.000000   0.000000   0.000000  -0.000000   0.000005  -0.000100
    25  N   -0.000000  -0.000000  -0.000000  -0.000000  -0.000000  -0.000018
    26  C   -0.000000   0.000000   0.000000   0.000000  -0.000000   0.000001
    27  N    0.000000  -0.000000  -0.000000  -0.000000  -0.000000  -0.000000
    28  H    0.000000  -0.000000   0.000000   0.000000  -0.000000   0.000000
    29  H   -0.000000   0.000000   0.000000  -0.000000   0.000000   0.000000
    30  N    0.000000   0.000000  -0.000000   0.000000   0.000000  -0.000000
    31  H    0.000000  -0.000000   0.000000  -0.000000  -0.000000  -0.000000
    32  H    0.000000  -0.000000   0.000000   0.000000  -0.000000   0.000000
    33  H    0.000000  -0.000000   0.000000   0.000000   0.000000   0.000002
              13         14         15         16         17         18
     1  C    0.000000  -0.000000  -0.000055   0.000183  -0.000196  -0.000005
     2  H   -0.000000  -0.000000   0.000012  -0.000016   0.000002   0.000001
     3  H   -0.000000  -0.000000   0.000000   0.000068  -0.000012  -0.000002
     4  H   -0.000000   0.000000   0.000001   0.000001   0.000011   0.000000
     5  C   -0.000000  -0.000001   0.000485  -0.001115   0.003482   0.000087
     6  O    0.000000   0.000000  -0.000023   0.002270   0.001786  -0.000031
     7  N    0.000006  -0.000126  -0.004229  -0.061524  -0.007715   0.003524
     8  H   -0.000000   0.000002   0.001082   0.002003   0.000250  -0.000068
     9  C    0.000389   0.003453  -0.041478   0.535170  -0.031767   0.000919
    10  C    0.005267  -0.033343   0.357264  -0.067781   0.005508  -0.039941
    11  C   -0.043385   0.359739  -0.041475  -0.038598   0.000013  -0.010217
    12  C    0.363411  -0.036628   0.004890  -0.075528   0.004376   0.495419
    13  H    0.562275  -0.004934  -0.000195   0.004670  -0.000094  -0.045823
    14  H   -0.004934   0.546000  -0.004399   0.000659   0.000013   0.003462
    15  H   -0.000195  -0.004399   0.563205   0.005982  -0.000140   0.000347
    16  C    0.004670   0.000659   0.005982   5.078625   0.349396   0.489627
    17  H   -0.000094   0.000013  -0.000140   0.349396   0.535238  -0.033971
    18  C   -0.045823   0.003462   0.000347   0.489627  -0.033971   4.832454
    19  C   -0.011300  -0.000186   0.000010  -0.037530  -0.007762   0.332554
    20  N    0.010606  -0.000008   0.000000   0.004161  -0.000017  -0.052528
    21  C    0.000579   0.000002  -0.000000  -0.018626   0.004954  -0.057857
    22  H   -0.000019   0.000000  -0.000000   0.003627   0.001789  -0.005972
    23  S    0.000113  -0.000000   0.000000   0.000142  -0.000073   0.005223
    24  C   -0.000050  -0.000000  -0.000000   0.000068  -0.000008   0.005441
    25  N   -0.000026   0.000000  -0.000000   0.000002  -0.000000  -0.000174
    26  C    0.000000   0.000000   0.000000   0.000000   0.000000  -0.000006
    27  N    0.000000   0.000000  -0.000000  -0.000000  -0.000000  -0.000000
    28  H   -0.000000   0.000000   0.000000   0.000000   0.000000  -0.000000
    29  H   -0.000000  -0.000000   0.000000   0.000000  -0.000000  -0.000000
    30  N   -0.000000  -0.000000  -0.000000  -0.000000  -0.000000   0.000000
    31  H   -0.000000   0.000000  -0.000000  -0.000000  -0.000000   0.000000
    32  H    0.000000   0.000000   0.000000   0.000000   0.000000  -0.000000
    33  H    0.000016  -0.000000   0.000000  -0.000000   0.000000  -0.000022
              19         20         21         22         23         24
     1  C   -0.000000   0.000000  -0.000000   0.000000  -0.000000   0.000000
     2  H   -0.000000  -0.000000   0.000000  -0.000000  -0.000000   0.000000
     3  H    0.000000  -0.000000   0.000000  -0.000000   0.000000   0.000000
     4  H    0.000000  -0.000000  -0.000000   0.000000   0.000000   0.000000
     5  C    0.000002   0.000000  -0.000003  -0.000000  -0.000000  -0.000000
     6  O    0.000005   0.000000  -0.000003   0.000001  -0.000000  -0.000000
     7  N   -0.000352   0.000000   0.000013  -0.000002   0.000000  -0.000000
     8  H    0.000009  -0.000000   0.000000   0.000000  -0.000000   0.000000
     9  C    0.004978  -0.000118   0.000475   0.000080  -0.000004   0.000000
    10  C    0.001571  -0.000001  -0.000006   0.000001  -0.000000  -0.000000
    11  C    0.006083   0.000477  -0.000268  -0.000005   0.000012   0.000005
    12  C   -0.049900  -0.008114   0.009793  -0.000258   0.000159  -0.000100
    13  H   -0.011300   0.010606   0.000579  -0.000019   0.000113  -0.000050
    14  H   -0.000186  -0.000008   0.000002   0.000000  -0.000000  -0.000000
    15  H    0.000010   0.000000  -0.000000  -0.000000   0.000000  -0.000000
    16  C   -0.037530   0.004161  -0.018626   0.003627   0.000142   0.000068
    17  H   -0.007762  -0.000017   0.004954   0.001789  -0.000073  -0.000008
    18  C    0.332554  -0.052528  -0.057857  -0.005972   0.005223   0.005441
    19  C    4.690799   0.394371   0.520131  -0.009566  -0.058001  -0.057264
    20  N    0.394371   6.970180  -0.113510   0.006017  -0.094086   0.436671
    21  C    0.520131  -0.113510   5.441338   0.339123   0.318911  -0.065008
    22  H   -0.009566   0.006017   0.339123   0.474526  -0.031977   0.002553
    23  S   -0.058001  -0.094086   0.318911  -0.031977  15.266714   0.314327
    24  C   -0.057264   0.436671  -0.065008   0.002553   0.314327   4.869364
    25  N    0.001763  -0.047349   0.004867  -0.000082  -0.090198   0.241677
    26  C   -0.000134   0.003322  -0.000184  -0.000008   0.018862  -0.043354
    27  N    0.000001  -0.000168  -0.000004   0.000000   0.000468   0.010067
    28  H    0.000009  -0.000169   0.000005  -0.000000  -0.000974   0.000448
    29  H   -0.000000   0.000003  -0.000001   0.000000   0.000098  -0.000438
    30  N    0.000040  -0.000324   0.000050   0.000000  -0.001400  -0.008906
    31  H   -0.000000   0.000008   0.000000   0.000000  -0.000204   0.000489
    32  H   -0.000002   0.000093  -0.000018  -0.000000   0.000474   0.001997
    33  H    0.000191   0.004356   0.000006  -0.000001   0.004480  -0.010414
              25         26         27         28         29         30
     1  C    0.000000  -0.000000  -0.000000  -0.000000   0.000000   0.000000
     2  H   -0.000000  -0.000000   0.000000  -0.000000   0.000000   0.000000
     3  H    0.000000   0.000000   0.000000   0.000000   0.000000  -0.000000
     4  H    0.000000   0.000000   0.000000   0.000000   0.000000   0.000000
     5  C    0.000000  -0.000000  -0.000000  -0.000000  -0.000000   0.000000
     6  O   -0.000000  -0.000000  -0.000000  -0.000000   0.000000   0.000000
     7  N   -0.000000  -0.000000   0.000000   0.000000  -0.000000   0.000000
     8  H   -0.000000   0.000000  -0.000000  -0.000000   0.000000   0.000000
     9  C   -0.000000   0.000000  -0.000000   0.000000   0.000000  -0.000000
    10  C   -0.000000   0.000000  -0.000000   0.000000  -0.000000   0.000000
    11  C   -0.000000  -0.000000  -0.000000  -0.000000   0.000000   0.000000
    12  C   -0.000018   0.000001  -0.000000   0.000000   0.000000  -0.000000
[...]
 Alpha virt. eigenvalues --    4.01980   4.03968   4.14842   4.18901   4.95057
          Condensed to atoms (all electrons):
               1          2          3          4          5          6
     1  C    4.815547   0.150385   0.359947   0.320529  -0.087840  -0.085627
     2  H    0.150385   1.139321  -0.093800  -0.068709   0.291762  -0.003195
     3  H    0.359947  -0.093800   0.739844  -0.038226  -0.074714   0.014010
     4  H    0.320529  -0.068709  -0.038226   0.716191  -0.016428   0.005352
     5  C   -0.087840   0.291762  -0.074714  -0.016428   5.834922   0.137762
     6  O   -0.085627  -0.003195   0.014010   0.005352   0.137762   8.831262
     7  N    0.006702  -0.184027   0.062635   0.041177   0.096068  -0.116033
     8  H   -0.078531  -0.006854  -0.003006  -0.001223  -0.099228  -0.013519
     9  C    0.047538  -0.058473  -0.016491  -0.020988  -0.602023   0.182148
    10  C   -0.065567  -0.032873   0.003327   0.003241  -0.699562   0.090485
    11  C   -0.012325   0.002603  -0.000878  -0.000519   0.007773   0.003740
    12  C    0.018466  -0.007569   0.001506   0.001197   0.106391  -0.017600
    13  H    0.001362   0.000046   0.000058   0.000042  -0.000220  -0.000208
    14  H   -0.001304  -0.000030  -0.000065  -0.000029   0.003833  -0.000502
    15  H    0.008473  -0.000363   0.000681   0.000178   0.015089   0.005012
    16  C    0.008354   0.051092   0.010488   0.006533   0.277216   0.029110
    17  H    0.011829   0.002682  -0.002022  -0.000326   0.074639  -0.040740
    18  C   -0.060108   0.009180  -0.002948  -0.003720   0.367165  -0.131353
    19  C    0.012334  -0.000347   0.000146   0.000974  -0.061086   0.013891
    20  N    0.001895   0.000037   0.000045   0.000154   0.017282   0.000238
    21  C   -0.008475  -0.000083   0.000096  -0.000416   0.011672   0.003468
    22  H   -0.004292  -0.000139   0.000081  -0.000069   0.014754  -0.010415
    23  S    0.000211   0.000068   0.000024  -0.000009   0.006217   0.001111
    24  C    0.000259  -0.000029  -0.000033   0.000099  -0.002639  -0.000986
    25  N    0.000019  -0.000001   0.000003   0.000001   0.000710   0.000010
    26  C   -0.000014  -0.000001  -0.000001  -0.000000  -0.000114  -0.000036
    27  N    0.000000   0.000000   0.000000   0.000000   0.000009   0.000000
    28  H    0.000000   0.000000   0.000000   0.000000   0.000007  -0.000000
    29  H   -0.000000  -0.000000   0.000000  -0.000000  -0.000000  -0.000000
    30  N    0.000002   0.000000   0.000000   0.000000   0.000047   0.000002
    31  H    0.000000   0.000000   0.000000   0.000000   0.000005  -0.000000
    32  H    0.000002   0.000000  -0.000000   0.000000  -0.000007   0.000006
    33  H   -0.000031  -0.000002  -0.000001  -0.000003  -0.000320   0.000005
               7          8          9         10         11         12
     1  C    0.006702  -0.078531   0.047538  -0.065567  -0.012325   0.018466
     2  H   -0.184027  -0.006854  -0.058473  -0.032873   0.002603  -0.007569
     3  H    0.062635  -0.003006  -0.016491   0.003327  -0.000878   0.001506
     4  H    0.041177  -0.001223  -0.020988   0.003241  -0.000519   0.001197
     5  C    0.096068  -0.099228  -0.602023  -0.699562   0.007773   0.106391
     6  O   -0.116033  -0.013519   0.182148   0.090485   0.003740  -0.017600
     7  N    8.199466   0.246541  -1.391437   1.083353  -0.533980   0.349655
     8  H    0.246541   0.998061   0.149851  -0.097155   0.043745   0.046424
     9  C   -1.391437   0.149851  22.371794  -9.943199   5.334606  -4.735346
    10  C    1.083353  -0.097155  -9.943199  21.260604  -6.405403   3.666358
    11  C   -0.533980   0.043745   5.334606  -6.405403  17.486484  -6.560141
    12  C    0.349655   0.046424  -4.735346   3.666358  -6.560141  24.240774
    13  H    0.004482  -0.003430   0.028660  -0.167818   0.573835  -1.474563
    14  H   -0.001688   0.006956  -0.539667   0.534635  -1.321131   1.167257
    15  H   -0.230687   0.006531   1.868972  -2.207175   0.569937  -0.497216
    16  C    0.654646  -0.175424  -8.493965   4.315306  -5.289802  -1.017342
    17  H   -0.186179  -0.000884   0.435850  -0.291372   0.129358  -0.215702
    18  C   -0.461104   0.013825   1.903764  -6.416374   2.465929  -7.297221
    19  C   -0.051505   0.001412  -0.550962   0.768276  -1.174709  -0.802646
    20  N    0.001553   0.000728  -0.027159  -0.006076  -0.020837   0.115194
    21  C    0.009064   0.004100   0.702266  -0.481450   0.510991  -1.363462
    22  H   -0.000819   0.001982  -0.053771  -0.045193   0.032430   0.101517
    23  S    0.003027  -0.000357  -0.075648   0.006952  -0.002880   0.083448
    24  C   -0.011154   0.000482   0.212763  -0.012188  -0.131547  -0.645588
    25  N    0.001117  -0.000017  -0.037625   0.016108   0.010500   0.068773
    26  C    0.000258   0.000011  -0.006522   0.000616   0.014607   0.011212
    27  N    0.000001  -0.000001  -0.000169   0.000086   0.000049   0.002889
    28  H   -0.000000  -0.000000   0.000050  -0.000095   0.000625   0.000930
    29  H    0.000001   0.000000  -0.000036   0.000016   0.000056   0.000101
    30  N   -0.000008  -0.000002   0.000165   0.000050  -0.000706  -0.001482
    31  H    0.000002  -0.000000  -0.000118   0.000004   0.000115   0.000534
    32  H   -0.000031  -0.000001   0.000722   0.000015  -0.000594  -0.002109
    33  H    0.000041   0.000005  -0.000274   0.001974  -0.000339   0.000560
              13         14         15         16         17         18
     1  C    0.001362  -0.001304   0.008473   0.008354   0.011829  -0.060108
     2  H    0.000046  -0.000030  -0.000363   0.051092   0.002682   0.009180
     3  H    0.000058  -0.000065   0.000681   0.010488  -0.002022  -0.002948
     4  H    0.000042  -0.000029   0.000178   0.006533  -0.000326  -0.003720
     5  C   -0.000220   0.003833   0.015089   0.277216   0.074639   0.367165
     6  O   -0.000208  -0.000502   0.005012   0.029110  -0.040740  -0.131353
     7  N    0.004482  -0.001688  -0.230687   0.654646  -0.186179  -0.461104
     8  H   -0.003430   0.006956   0.006531  -0.175424  -0.000884   0.013825
     9  C    0.028660  -0.539667   1.868972  -8.493965   0.435850   1.903764
    10  C   -0.167818   0.534635  -2.207175   4.315306  -0.291372  -6.416374
    11  C    0.573835  -1.321131   0.569937  -5.289802   0.129358   2.465929
    12  C   -1.474563   1.167257  -0.497216  -1.017342  -0.215702  -7.297221
    13  H    2.176971  -0.103909  -0.002463  -0.220451  -0.003865   1.007006
    14  H   -0.103909   1.788217  -0.097529   0.088150   0.006694  -0.055674
    15  H   -0.002463  -0.097529   2.241949   0.076412  -0.023717  -0.014398
    16  C   -0.220451   0.088150   0.076412  28.272504  -2.085313 -10.723385
    17  H   -0.003865   0.006694  -0.023717  -2.085313   2.618712   1.073752
    18  C    1.007006  -0.055674  -0.014398 -10.723385   1.073752  26.934427
    19  C    0.076205  -0.009571   0.010747   0.964978   0.067672  -6.387955
    20  N   -0.155916   0.012022  -0.000083   0.053908  -0.009155   0.171143
    21  C   -0.038489   0.005112  -0.004838  -2.285476   0.205834   2.422959
    22  H   -0.002021   0.000575  -0.000176   0.164724  -0.104895  -0.260642
    23  S    0.003241  -0.000579   0.000560   0.028722  -0.001953  -0.096671
    24  C    0.011016   0.005941  -0.001415   0.039968  -0.003028   0.484418
    25  N   -0.024529  -0.000502   0.000318   0.134918   0.001685  -0.463281
    26  C   -0.009901   0.000331  -0.000055   0.002830  -0.001225  -0.160188
    27  N    0.000985  -0.000018   0.000006  -0.000072  -0.000020   0.004127
    28  H    0.000006   0.000005  -0.000004  -0.000850  -0.000057   0.000653
    29  H   -0.000114   0.000004   0.000000   0.000125   0.000008  -0.000827
    30  N    0.001323  -0.000047   0.000007  -0.002735  -0.000049   0.026046
    31  H   -0.000063  -0.000002  -0.000000  -0.000075  -0.000010  -0.001459
    32  H    0.000170  -0.000007   0.000004   0.000192  -0.000141   0.004339
    33  H   -0.006268   0.000654   0.000012  -0.005987   0.000836   0.015317
              19         20         21         22         23         24
     1  C    0.012334   0.001895  -0.008475  -0.004292   0.000211   0.000259
     2  H   -0.000347   0.000037  -0.000083  -0.000139   0.000068  -0.000029
     3  H    0.000146   0.000045   0.000096   0.000081   0.000024  -0.000033
     4  H    0.000974   0.000154  -0.000416  -0.000069  -0.000009   0.000099
     5  C   -0.061086   0.017282   0.011672   0.014754   0.006217  -0.002639
     6  O    0.013891   0.000238   0.003468  -0.010415   0.001111  -0.000986
     7  N   -0.051505   0.001553   0.009064  -0.000819   0.003027  -0.011154
     8  H    0.001412   0.000728   0.004100   0.001982  -0.000357   0.000482
     9  C   -0.550962  -0.027159   0.702266  -0.053771  -0.075648   0.212763
    10  C    0.768276  -0.006076  -0.481450  -0.045193   0.006952  -0.012188
    11  C   -1.174709  -0.020837   0.510991   0.032430  -0.002880  -0.131547
    12  C   -0.802646   0.115194  -1.363462   0.101517   0.083448  -0.645588
    13  H    0.076205  -0.155916  -0.038489  -0.002021   0.003241   0.011016
    14  H   -0.009571   0.012022   0.005112   0.000575  -0.000579   0.005941
    15  H    0.010747  -0.000083  -0.004838  -0.000176   0.000560  -0.001415
    16  C    0.964978   0.053908  -2.285476   0.164724   0.028722   0.039968
    17  H    0.067672  -0.009155   0.205834  -0.104895  -0.001953  -0.003028
    18  C   -6.387955   0.171143   2.422959  -0.260642  -0.096671   0.484418
    19  C   22.474876  -0.844342  -7.322128   1.006692  -0.426500  -1.696931
    20  N   -0.844342   8.278724   0.344763  -0.003338  -0.000268   0.553510
    21  C   -7.322128   0.344763  13.661764  -0.763595   0.389328  -0.734765
    22  H    1.006692  -0.003338  -0.763595   1.778159  -0.275255   0.035099
    23  S   -0.426500  -0.000268   0.389328  -0.275255  15.937875   0.036608
    24  C   -1.696931   0.553510  -0.734765   0.035099   0.036608   8.545681
    25  N    0.415982  -0.443675   0.108877  -0.003322  -0.116989  -0.768239
    26  C   -0.176409  -0.339448   0.102844   0.015001   0.019911  -0.655118
    27  N    0.026701   0.010015  -0.008327   0.000413  -0.023216   0.116472
    28  H   -0.008272  -0.000131  -0.000675   0.000008   0.001636  -0.007704
    29  H   -0.000256   0.000362   0.001499   0.000076   0.002558  -0.003540
    30  N   -0.012380   0.022022  -0.042684  -0.001585  -0.058308   0.233636
    31  H    0.000415   0.000797   0.002092   0.000235   0.005515  -0.045871
    32  H   -0.016836   0.000470   0.000656  -0.000563   0.030526   0.025945
    33  H   -0.067754   0.040967   0.012648  -0.000222  -0.004404  -0.047030
              25         26         27         28         29         30
     1  C    0.000019  -0.000014   0.000000   0.000000  -0.000000   0.000002
     2  H   -0.000001  -0.000001   0.000000   0.000000  -0.000000   0.000000
     3  H    0.000003  -0.000001   0.000000   0.000000   0.000000   0.000000
     4  H    0.000001  -0.000000   0.000000   0.000000  -0.000000   0.000000
     5  C    0.000710  -0.000114   0.000009   0.000007  -0.000000   0.000047
     6  O    0.000010  -0.000036   0.000000  -0.000000  -0.000000   0.000002
     7  N    0.001117   0.000258   0.000001  -0.000000   0.000001  -0.000008
     8  H   -0.000017   0.000011  -0.000001  -0.000000   0.000000  -0.000002
     9  C   -0.037625  -0.006522  -0.000169   0.000050  -0.000036   0.000165
    10  C    0.016108   0.000616   0.000086  -0.000095   0.000016   0.000050
    11  C    0.010500   0.014607   0.000049   0.000625   0.000056  -0.000706
    12  C    0.068773   0.011212   0.002889   0.000930   0.000101  -0.001482
    13  H   -0.024529  -0.009901   0.000985   0.000006  -0.000114   0.001323
    14  H   -0.000502   0.000331  -0.000018   0.000005   0.000004  -0.000047
    15  H    0.000318  -0.000055   0.000006  -0.000004   0.000000   0.000007
    16  C    0.134918   0.002830  -0.000072  -0.000850   0.000125  -0.002735
    17  H    0.001685  -0.001225  -0.000020  -0.000057   0.000008  -0.000049
    18  C   -0.463281  -0.160188   0.004127   0.000653  -0.000827   0.026046
    19  C    0.415982  -0.176409   0.026701  -0.008272  -0.000256  -0.012380
    20  N   -0.443675  -0.339448   0.010015  -0.000131   0.000362   0.022022
    21  C    0.108877   0.102844  -0.008327  -0.000675   0.001499  -0.042684
    22  H   -0.003322   0.015001   0.000413   0.000008   0.000076  -0.001585
    23  S   -0.116989   0.019911  -0.023216   0.001636   0.002558  -0.058308
    24  C   -0.768239  -0.655118   0.116472  -0.007704  -0.003540   0.233636
    25  N    8.096878   0.520683  -0.074452   0.047217   0.029725  -0.170947
    26  C    0.520683   5.988006  -0.009608  -0.073091  -0.126763   0.030004
    27  N   -0.074452  -0.009608   6.443564   0.393809   0.448891  -0.071691
    28  H    0.047217  -0.073091   0.393809   0.740783  -0.138960   0.007133
    29  H    0.029725  -0.126763   0.448891  -0.138960   0.762468  -0.009338
    30  N   -0.170947   0.030004  -0.071691   0.007133  -0.009338   6.361681
    31  H    0.024422  -0.040027  -0.024924  -0.000403  -0.001153   0.415548
    32  H   -0.012155  -0.090663   0.015009  -0.001233   0.001498   0.419507
    33  H    0.428373  -0.198006   0.000130   0.007852  -0.001346   0.013926
              31         32         33
     1  C    0.000000   0.000002  -0.000031
     2  H    0.000000   0.000000  -0.000002
     3  H    0.000000  -0.000000  -0.000001
     4  H    0.000000   0.000000  -0.000003
     5  C    0.000005  -0.000007  -0.000320
     6  O   -0.000000   0.000006   0.000005
     7  N    0.000002  -0.000031   0.000041
     8  H   -0.000000  -0.000001   0.000005
     9  C   -0.000118   0.000722  -0.000274
    10  C    0.000004   0.000015   0.001974
    11  C    0.000115  -0.000594  -0.000339
    12  C    0.000534  -0.002109   0.000560
    13  H   -0.000063   0.000170  -0.006268
    14  H   -0.000002  -0.000007   0.000654
    15  H   -0.000000   0.000004   0.000012
    16  C   -0.000075   0.000192  -0.005987
    17  H   -0.000010  -0.000141   0.000836
    18  C   -0.001459   0.004339   0.015317
    19  C    0.000415  -0.016836  -0.067754
    20  N    0.000797   0.000470   0.040967
    21  C    0.002092   0.000656   0.012648
    22  H    0.000235  -0.000563  -0.000222
    23  S    0.005515   0.030526  -0.004404
    24  C   -0.045871   0.025945  -0.047030
    25  N    0.024422  -0.012155   0.428373
    26  C   -0.040027  -0.090663  -0.198006
    27  N   -0.024924   0.015009   0.000130
    28  H   -0.000403  -0.001233   0.007852
    29  H   -0.001153   0.001498  -0.001346
    30  N    0.415548   0.419507   0.013926
    31  H    0.741421  -0.122051   0.002903
    32  H   -0.122051   0.676228  -0.003243
    33  H    0.002903  -0.003243   0.854580
 Mulliken charges:
               1
     1  C    0.640259
     2  H   -0.190682
     3  H    0.039292
     4  H    0.054995
     5  C    0.380857
     6  O   -0.897401
     7  N   -0.591137
     8  H   -0.041022
     9  C   -0.685274
    10  C    1.120095
    11  C    0.268407
    12  C    0.654802
    13  H   -0.671181
    14  H   -0.488137
    15  H   -0.724769
    16  C    1.120702
    17  H   -0.658897
    18  C    1.633258
    19  C   -0.230712
    20  N   -0.775401
    21  C    0.554831
    22  H   -0.621432
    23  S    0.525499
    24  C    0.465909
    25  N   -0.790584
    26  C    1.180876
    27  N   -0.250660
    28  H    0.030763
    29  H    0.034945
    30  N   -0.159138
    31  H    0.042147
    32  H    0.074344
    33  H   -0.045555
 Sum of Mulliken charges =   1.00000
 Mulliken charges with hydrogens summed into heavy atoms:
               1
     1  C    0.543865
     5  C    0.380857
     6  O   -0.897401
     7  N   -0.632159
     9  C   -0.685274
    10  C    0.395327
    11  C   -0.219730
    12  C   -0.016379
    16  C    0.461805
    18  C    1.633258
    19  C   -0.230712
    20  N   -0.775401
    21  C   -0.066601
    23  S    0.525499
    24  C    0.465909
    25  N   -0.836139
    26  C    1.180876
    27  N   -0.184952
    30  N   -0.042647
 Electronic spatial extent (au):  <R**2>=           8596.9276
 Charge=              1.0000 electrons
 Dipole moment (field-independent basis, Debye):
    X=            -18.7226    Y=              2.0990    Z=              0.9109  Tot=             18.8619
 Quadrupole moment (field-independent basis, Debye-Ang):
   XX=             69.9976   YY=           -104.2110   ZZ=           -120.1768
   XY=              7.9577   XZ=             -3.1450   YZ=             -5.2244
 Traceless Quadrupole moment (field-independent basis, Debye-Ang):
   XX=            121.4610   YY=            -52.7476   ZZ=            -68.7134
   XY=              7.9577   XZ=             -3.1450   YZ=             -5.2244
 Octapole moment (field-independent basis, Debye-Ang**2):
  XXX=           -654.7292  YYY=             24.6797  ZZZ=              5.3980  XYY=            -58.2952
  XXY=             29.3552  XXZ=             30.2726  XZZ=            -24.9778  YZZ=            -14.8707
  YYZ=              1.2643  XYZ=             32.3762
 Hexadecapole moment (field-independent basis, Debye-Ang**3):
 XXXX=          -1875.8705 YYYY=          -1448.7750 ZZZZ=           -170.9169 XXXY=            -68.9386
 XXXZ=            -64.9843 YYYX=             67.1977 YYYZ=            -13.9911 ZZZX=            -16.5211
 ZZZY=            -14.8996 XXYY=          -1512.2847 XXZZ=          -1597.2753 YYZZ=           -299.2054
 XXYZ=           -182.6323 YYXZ=             -3.4710 ZZXY=            -26.7780
 N-N= 1.446236908003D+03 E-N=-5.713665371391D+03  KE= 1.205963549188D+03
 Leave Link  601 at Sun Jul 18 16:51:56 2021, MaxMem=   262144000 cpu:               0.5 elap:               0.2
 (Enter /prod/apps/gaussian/g16b1/l9999.exe)
 1\1\GINC-PIRINEUS29\SP\RMP2-FC\Aug-CC-pVDZ\C12H14N5O1S1(1+)\UBATOR02\1
 8-Jul-2021\0\\#p mp2/aug-cc-pVDZ scf=tight maxdisk=180GB geom=allcheck
 \\SET_328_BBB321_conf1.geo_030_210_300 geometry\\1,1\C,0,1.7146920067,
 -1.6872794885,-5.590226284\H,0,2.7907951818,-1.5748929202,-5.728634665
 1\H,0,1.1921186819,-1.126645523,-6.3688125932\H,0,1.4520829865,-2.7411
 030784,-5.7127140243\C,0,1.2167739812,-1.2196304772,-4.2376377038\O,0,
 0.0123711067,-1.1876886598,-3.9783307485\N,0,2.1976832563,-0.859381484
 1,-3.3545422092\H,0,3.1519385786,-0.9293243827,-3.6940289939\C,0,2.074
 927711,-0.415657203,-2.0221944509\C,0,3.2651467491,-0.1263729631,-1.33
 06889222\C,0,3.2156266936,0.3054438352,-0.0099681404\C,0,1.9936210618,
 0.4579016385,0.6425247712\H,0,1.9513110076,0.7925033197,1.6709771972\H
 ,0,4.1395343194,0.5243423201,0.5146369112\H,0,4.2219645459,-0.24381224
 09,-1.8284048375\C,0,0.845107521,-0.2605739384,-1.3707859378\H,0,-0.06
 17943072,-0.4923293046,-1.909756807\C,0,0.8013571649,0.1780942489,-0.0
 37981714\C,0,-0.4899426574,0.3485291633,0.6551846798\N,0,-0.4873269857
 ,0.6428551296,2.0108623614\C,0,-1.7362344003,0.240433304,0.099650941\H
 ,0,-2.0106913305,0.0076568758,-0.9169883378\S,0,-2.971594515,0.5211792
 504,1.2860894132\C,0,-1.6959633124,0.7542499389,2.4750289029\N,0,-1.90
 17793425,1.129291292,3.7967096983\C,0,-3.043374292,1.0960806167,4.5284
 653017\N,0,-3.0906653035,1.8163321785,5.6389563437\H,0,-2.3737575141,2
 .5075622188,5.8420108541\H,0,-3.8869071317,1.7375406755,6.2644528288\N
 ,0,-4.0976301681,0.383538967,4.1171903727\H,0,-4.9287300697,0.39689914
 86,4.7037409829\H,0,-3.942476397,-0.4786751067,3.6015198452\H,0,-1.079
 1848271,1.5259326492,4.2506949643\\Version=ES64L-G16RevB.01\State=1-A\
 HF=-1207.1470059\MP2=-1209.9644711\RMSD=8.228e-09\PG=C01 [X(C12H14N5O1
 S1)]\\@


 WE ARE REACHING THE STAGE WHERE THE PROBLEMS WE MUST SOLVE ARE 
 GOING TO BECOME INSOLUBLE WITHOUT COMPUTERS.
 I DO NOT FEAR COMPUTERS.  I FEAR THE LACK OF THEM.

                                   -- ISSAC ASIMOV
 Job cpu time:       0 days  1 hours 45 minutes 37.8 seconds.
 Elapsed time:       0 days  0 hours 28 minutes 17.3 seconds.
 File lengths (MBytes):  RWF=  85575 Int=      0 D2E=      0 Chk=     27 Scr=      1
 Normal termination of Gaussian 16 at Sun Jul 18 16:51:58 2021.
