 Entering Gaussian System, Link 0=g16
 Initial command:
 /prod/apps/gaussian/g16b1/l1.exe "/tmp/ubator02/1839710/Gau-204291.inp" -scrdir="/tmp/ubator02/1839710/"
 Entering Link 1 = /prod/apps/gaussian/g16b1/l1.exe PID=    204292.
  
 Copyright (c) 1988-2017, Gaussian, Inc.  All Rights Reserved.
  
 This is part of the Gaussian(R) 16 program.  It is based on
 the Gaussian(R) 09 system (copyright 2009, Gaussian, Inc.),
 the Gaussian(R) 03 system (copyright 2003, Gaussian, Inc.),
 the Gaussian(R) 98 system (copyright 1998, Gaussian, Inc.),
 the Gaussian(R) 94 system (copyright 1995, Gaussian, Inc.),
 the Gaussian 92(TM) system (copyright 1992, Gaussian, Inc.),
 the Gaussian 90(TM) system (copyright 1990, Gaussian, Inc.),
 the Gaussian 88(TM) system (copyright 1988, Gaussian, Inc.),
 the Gaussian 86(TM) system (copyright 1986, Carnegie Mellon
 University), and the Gaussian 82(TM) system (copyright 1983,
 Carnegie Mellon University). Gaussian is a federally registered
 trademark of Gaussian, Inc.
  
 This software contains proprietary and confidential information,
 including trade secrets, belonging to Gaussian, Inc.
  
 This software is provided under written license and may be
 used, copied, transmitted, or stored only in accord with that
 written license.
  
 The following legend is applicable only to US Government
 contracts under FAR:
  
                    RESTRICTED RIGHTS LEGEND
  
 Use, reproduction and disclosure by the US Government is
 subject to restrictions as set forth in subparagraphs (a)
 and (c) of the Commercial Computer Software - Restricted
 Rights clause in FAR 52.227-19.
  
 Gaussian, Inc.
 340 Quinnipiac St., Bldg. 40, Wallingford CT 06492
  
  
 ---------------------------------------------------------------
 Warning -- This program may not be used in any manner that
 competes with the business of Gaussian, Inc. or will provide
 assistance to any competitor of Gaussian, Inc.  The licensee
 of this program is prohibited from giving any competitor of
 Gaussian, Inc. access to this program.  By using this program,
 the user acknowledges that Gaussian, Inc. is engaged in the
 business of creating and licensing software in the field of
 computational chemistry and represents and warrants to the
 licensee that it is not a competitor of Gaussian, Inc. and that
 it will not use this program in any manner prohibited above.
 ---------------------------------------------------------------
  

 Cite this work as:
 Gaussian 16, Revision B.01,
 M. J. Frisch, G. W. Trucks, H. B. Schlegel, G. E. Scuseria, 
 M. A. Robb, J. R. Cheeseman, G. Scalmani, V. Barone, 
 G. A. Petersson, H. Nakatsuji, X. Li, M. Caricato, A. V. Marenich, 
 J. Bloino, B. G. Janesko, R. Gomperts, B. Mennucci, H. P. Hratchian, 
 J. V. Ortiz, A. F. Izmaylov, J. L. Sonnenberg, D. Williams-Young, 
 F. Ding, F. Lipparini, F. Egidi, J. Goings, B. Peng, A. Petrone, 
 T. Henderson, D. Ranasinghe, V. G. Zakrzewski, J. Gao, N. Rega, 
 G. Zheng, W. Liang, M. Hada, M. Ehara, K. Toyota, R. Fukuda, 
 J. Hasegawa, M. Ishida, T. Nakajima, Y. Honda, O. Kitao, H. Nakai, 
 T. Vreven, K. Throssell, J. A. Montgomery, Jr., J. E. Peralta, 
 F. Ogliaro, M. J. Bearpark, J. J. Heyd, E. N. Brothers, K. N. Kudin, 
 V. N. Staroverov, T. A. Keith, R. Kobayashi, J. Normand, 
 K. Raghavachari, A. P. Rendell, J. C. Burant, S. S. Iyengar, 
 J. Tomasi, M. Cossi, J. M. Millam, M. Klene, C. Adamo, R. Cammi, 
 J. W. Ochterski, R. L. Martin, K. Morokuma, O. Farkas, 
 J. B. Foresman, and D. J. Fox, Gaussian, Inc., Wallingford CT, 2016.
 
 ******************************************
 Gaussian 16:  ES64L-G16RevB.01 20-Dec-2017
                18-Jul-2021 
 ******************************************
 %mem=800MB
 %nproc=4
 Will use up to    4 processors via shared memory.
 %chk=SET_328_BBB6_conf1.geo_330_225_075.chk
 -----------------------------------------------------------
 #p b3lyp/6-31G(d) opt freq scrf=(iefpcm,read,solvent=water)
 -----------------------------------------------------------
 1/18=20,19=15,26=3,38=1,40=2/1,3;
 2/9=110,12=2,17=6,18=5,40=1/2;
 3/5=1,6=6,7=1,11=2,25=1,30=1,70=2203,71=1,72=1,74=-5/1,2,3;
 4//1;
 5/5=2,38=5,53=1/2;
 6/7=2,8=2,9=2,10=2,28=1/1;
 7//1,2,3,16;
 1/18=20,19=15,26=3/3(2);
 2/9=110/2;
 99//99;
 2/9=110/2;
 3/5=1,6=6,7=1,11=2,25=1,30=1,70=2205,71=1,72=1,74=-5/1,2,3;
 4/5=5,16=3,69=1/1;
 5/5=2,38=5,53=1/2;
 7//1,2,3,16;
 1/18=20,19=15,26=3/3(-5);
 2/9=110/2;
 6/7=2,8=2,9=2,10=2,19=2,28=1/1;
 99/9=1/99;
 Leave Link    1 at Sun Jul 18 16:30:33 2021, MaxMem=   104857600 cpu:               0.1 elap:               0.0
 (Enter /prod/apps/gaussian/g16b1/l101.exe)
 -------------------------------------------
 SET_328_BBB6_conf1.geo_330_225_075 geometry
 -------------------------------------------
 Symbolic Z-matrix:
 Charge =  1 Multiplicity = 1
 C                    -0.6      -1.184     2.498 
 H                    -0.643    -0.453     3.308 
 H                    -0.12     -2.124     2.779 
 H                    -1.625    -1.55      2.403 
 C                    -0.047    -0.597     1.189 
 N                     1.38     -0.392     1.487 
 C                     2.164     0.65      0.659 
 C                     2.004     0.383    -0.876 
 H                     0.99      0.367    -1.281 
 H                     2.436    -0.605    -1.047 
 H                     2.681     1.044    -1.421 
 C                     1.588     1.999     1.01 
 H                     0.55      2.117     0.692 
 H                     2.151     2.843     0.606 
 H                     1.63      2.028     2.101 
 C                     3.675     0.535     1.049 
 H                     4.138    -0.447     0.932 
 H                     3.814     0.914     2.064 
 H                     4.146     1.216     0.338 
 H                     1.84     -1.273     1.376 
 H                    -0.382     0.418     0.957 
 C                    -0.482    -1.409    -0.126 
 O                     0.132    -2.46     -0.443 
 C                    -1.593    -0.82     -0.939 
 C                    -2.623    -0.046    -0.376 
 H                    -2.651     0.179     0.687 
 C                    -3.675     0.433    -1.091 
 Cl                   -4.88      1.412    -0.422 
 C                    -3.696     0.133    -2.483 
 H                    -4.471     0.565    -3.111 
 C                    -2.613    -0.482    -3.13 
 H                    -2.72     -0.795    -4.166 
 C                    -1.592    -0.995    -2.319 
 H                    -0.775    -1.553    -2.77 
 H                     1.452    -0.128     2.449 
 
 ITRead=  0  0  0  0  0  0  0  0  0  0  0  0  0  0  0  0  0  0  0  0
 ITRead=  0  0  0  0  0  0  0  0  0  0  0  0  0  0  0
 MicOpt= -1 -1 -1 -1 -1 -1 -1 -1 -1 -1 -1 -1 -1 -1 -1 -1 -1 -1 -1 -1
 MicOpt= -1 -1 -1 -1 -1 -1 -1 -1 -1 -1 -1 -1 -1 -1 -1
 NAtoms=     35 NQM=       35 NQMF=       0 NMMI=      0 NMMIF=      0
                NMic=       0 NMicF=      0.
                    Isotopes and Nuclear Properties:
 (Nuclear quadrupole moments (NQMom) in fm**2, nuclear magnetic moments (NMagM)
  in nuclear magnetons)

  Atom         1           2           3           4           5           6           7           8           9          10
 IAtWgt=          12           1           1           1          12          14          12          12           1           1
 AtmWgt=  12.0000000   1.0078250   1.0078250   1.0078250  12.0000000  14.0030740  12.0000000  12.0000000   1.0078250   1.0078250
 NucSpn=           0           1           1           1           0           2           0           0           1           1
 AtZEff=  -0.0000000  -0.0000000  -0.0000000  -0.0000000  -0.0000000  -0.0000000  -0.0000000  -0.0000000  -0.0000000  -0.0000000
 NQMom=    0.0000000   0.0000000   0.0000000   0.0000000   0.0000000   2.0440000   0.0000000   0.0000000   0.0000000   0.0000000
 NMagM=    0.0000000   2.7928460   2.7928460   2.7928460   0.0000000   0.4037610   0.0000000   0.0000000   2.7928460   2.7928460
 AtZNuc=   6.0000000   1.0000000   1.0000000   1.0000000   6.0000000   7.0000000   6.0000000   6.0000000   1.0000000   1.0000000

  Atom        11          12          13          14          15          16          17          18          19          20
 IAtWgt=           1          12           1           1           1          12           1           1           1           1
 AtmWgt=   1.0078250  12.0000000   1.0078250   1.0078250   1.0078250  12.0000000   1.0078250   1.0078250   1.0078250   1.0078250
 NucSpn=           1           0           1           1           1           0           1           1           1           1
 AtZEff=  -0.0000000  -0.0000000  -0.0000000  -0.0000000  -0.0000000  -0.0000000  -0.0000000  -0.0000000  -0.0000000  -0.0000000
 NQMom=    0.0000000   0.0000000   0.0000000   0.0000000   0.0000000   0.0000000   0.0000000   0.0000000   0.0000000   0.0000000
 NMagM=    2.7928460   0.0000000   2.7928460   2.7928460   2.7928460   0.0000000   2.7928460   2.7928460   2.7928460   2.7928460
 AtZNuc=   1.0000000   6.0000000   1.0000000   1.0000000   1.0000000   6.0000000   1.0000000   1.0000000   1.0000000   1.0000000

  Atom        21          22          23          24          25          26          27          28          29          30
 IAtWgt=           1          12          16          12          12           1          12          35          12           1
 AtmWgt=   1.0078250  12.0000000  15.9949146  12.0000000  12.0000000   1.0078250  12.0000000  34.9688527  12.0000000   1.0078250
 NucSpn=           1           0           0           0           0           1           0           3           0           1
 AtZEff=  -0.0000000  -0.0000000  -0.0000000  -0.0000000  -0.0000000  -0.0000000  -0.0000000  -0.0000000  -0.0000000  -0.0000000
 NQMom=    0.0000000   0.0000000   0.0000000   0.0000000   0.0000000   0.0000000   0.0000000  -8.1650000   0.0000000   0.0000000
 NMagM=    2.7928460   0.0000000   0.0000000   0.0000000   0.0000000   2.7928460   0.0000000   0.8218740   0.0000000   2.7928460
 AtZNuc=   1.0000000   6.0000000   8.0000000   6.0000000   6.0000000   1.0000000   6.0000000  17.0000000   6.0000000   1.0000000

  Atom        31          32          33          34          35
 IAtWgt=          12           1          12           1           1
 AtmWgt=  12.0000000   1.0078250  12.0000000   1.0078250   1.0078250
 NucSpn=           0           1           0           1           1
 AtZEff=  -0.0000000  -0.0000000  -0.0000000  -0.0000000  -0.0000000
 NQMom=    0.0000000   0.0000000   0.0000000   0.0000000   0.0000000
 NMagM=    0.0000000   2.7928460   0.0000000   2.7928460   2.7928460
 AtZNuc=   6.0000000   1.0000000   6.0000000   1.0000000   1.0000000
 Leave Link  101 at Sun Jul 18 16:30:33 2021, MaxMem=   104857600 cpu:               0.5 elap:               0.1
 (Enter /prod/apps/gaussian/g16b1/l103.exe)

 GradGradGradGradGradGradGradGradGradGradGradGradGradGradGradGradGradGrad
 Berny optimization.
 Initialization pass.
                           ----------------------------
                           !    Initial Parameters    !
                           ! (Angstroms and Degrees)  !
 --------------------------                            --------------------------
 ! Name  Definition              Value          Derivative Info.                !
 --------------------------------------------------------------------------------
 ! R1    R(1,2)                  1.0919         estimate D2E/DX2                !
 ! R2    R(1,3)                  1.0922         estimate D2E/DX2                !
 ! R3    R(1,4)                  1.0925         estimate D2E/DX2                !
 ! R4    R(1,5)                  1.5375         estimate D2E/DX2                !
 ! R5    R(5,6)                  1.4721         estimate D2E/DX2                !
 ! R6    R(5,21)                 1.0937         estimate D2E/DX2                !
 ! R7    R(5,22)                 1.6056         estimate D2E/DX2                !
 ! R8    R(6,7)                  1.5447         estimate D2E/DX2                !
 ! R9    R(6,20)                 1.0            estimate D2E/DX2                !
 ! R10   R(6,35)                 1.0002         estimate D2E/DX2                !
 ! R11   R(7,8)                  1.5662         estimate D2E/DX2                !
 ! R12   R(7,12)                 1.5082         estimate D2E/DX2                !
 ! R13   R(7,16)                 1.5648         estimate D2E/DX2                !
 ! R14   R(8,9)                  1.092          estimate D2E/DX2                !
 ! R15   R(8,10)                 1.0918         estimate D2E/DX2                !
 ! R16   R(8,11)                 1.0919         estimate D2E/DX2                !
 ! R17   R(12,13)                1.092          estimate D2E/DX2                !
 ! R18   R(12,14)                1.092          estimate D2E/DX2                !
 ! R19   R(12,15)                1.0922         estimate D2E/DX2                !
 ! R20   R(16,17)                1.092          estimate D2E/DX2                !
 ! R21   R(16,18)                1.0923         estimate D2E/DX2                !
 ! R22   R(16,19)                1.0914         estimate D2E/DX2                !
 ! R23   R(22,23)                1.2578         estimate D2E/DX2                !
 ! R24   R(22,24)                1.4974         estimate D2E/DX2                !
 ! R25   R(24,25)                1.406          estimate D2E/DX2                !
 ! R26   R(24,33)                1.3911         estimate D2E/DX2                !
 ! R27   R(25,26)                1.0869         estimate D2E/DX2                !
 ! R28   R(25,27)                1.3592         estimate D2E/DX2                !
 ! R29   R(27,28)                1.6906         estimate D2E/DX2                !
 ! R30   R(27,29)                1.4241         estimate D2E/DX2                !
 ! R31   R(29,30)                1.087          estimate D2E/DX2                !
 ! R32   R(29,31)                1.4035         estimate D2E/DX2                !
 ! R33   R(31,32)                1.0875         estimate D2E/DX2                !
 ! R34   R(31,33)                1.4012         estimate D2E/DX2                !
 ! R35   R(33,34)                1.0873         estimate D2E/DX2                !
 ! A1    A(2,1,3)              113.7416         estimate D2E/DX2                !
 ! A2    A(2,1,4)              104.5858         estimate D2E/DX2                !
 ! A3    A(2,1,5)              112.963          estimate D2E/DX2                !
 ! A4    A(3,1,4)               98.4163         estimate D2E/DX2                !
 ! A5    A(3,1,5)              112.9267         estimate D2E/DX2                !
 ! A6    A(4,1,5)              113.0366         estimate D2E/DX2                !
 ! A7    A(1,5,6)              103.2661         estimate D2E/DX2                !
 ! A8    A(1,5,21)             115.1338         estimate D2E/DX2                !
 ! A9    A(1,5,22)             114.0026         estimate D2E/DX2                !
 ! A10   A(6,5,21)             102.158          estimate D2E/DX2                !
 ! A11   A(6,5,22)             119.9241         estimate D2E/DX2                !
 ! A12   A(21,5,22)            102.276          estimate D2E/DX2                !
 ! A13   A(5,6,7)              118.5172         estimate D2E/DX2                !
 ! A14   A(5,6,20)             107.5017         estimate D2E/DX2                !
 ! A15   A(5,6,35)             107.5323         estimate D2E/DX2                !
 ! A16   A(7,6,20)             107.5367         estimate D2E/DX2                !
 ! A17   A(7,6,35)             107.5169         estimate D2E/DX2                !
 ! A18   A(20,6,35)            107.8294         estimate D2E/DX2                !
 ! A19   A(6,7,8)              111.008          estimate D2E/DX2                !
 ! A20   A(6,7,12)             106.5453         estimate D2E/DX2                !
 ! A21   A(6,7,16)             107.8747         estimate D2E/DX2                !
 ! A22   A(8,7,12)             109.9707         estimate D2E/DX2                !
 ! A23   A(8,7,16)             109.2923         estimate D2E/DX2                !
 ! A24   A(12,7,16)            112.118          estimate D2E/DX2                !
 ! A25   A(7,8,9)              117.441          estimate D2E/DX2                !
 ! A26   A(7,8,10)             105.5063         estimate D2E/DX2                !
 ! A27   A(7,8,11)             108.8223         estimate D2E/DX2                !
 ! A28   A(9,8,10)             107.2216         estimate D2E/DX2                !
 ! A29   A(9,8,11)             113.5456         estimate D2E/DX2                !
 ! A30   A(10,8,11)            102.9623         estimate D2E/DX2                !
 ! A31   A(7,12,13)            113.0723         estimate D2E/DX2                !
 ! A32   A(7,12,14)            114.0973         estimate D2E/DX2                !
 ! A33   A(7,12,15)            103.9769         estimate D2E/DX2                !
 ! A34   A(13,12,14)           107.386          estimate D2E/DX2                !
 ! A35   A(13,12,15)           108.9396         estimate D2E/DX2                !
 ! A36   A(14,12,15)           109.2204         estimate D2E/DX2                !
 ! A37   A(7,16,17)            116.6686         estimate D2E/DX2                !
 ! A38   A(7,16,18)            109.2066         estimate D2E/DX2                !
 ! A39   A(7,16,19)            102.0348         estimate D2E/DX2                !
 ! A40   A(17,16,18)           110.9547         estimate D2E/DX2                !
 ! A41   A(17,16,19)           107.9601         estimate D2E/DX2                !
 ! A42   A(18,16,19)           109.5075         estimate D2E/DX2                !
 ! A43   A(5,22,23)            119.7853         estimate D2E/DX2                !
 ! A44   A(5,22,24)            116.5369         estimate D2E/DX2                !
 ! A45   A(23,22,24)           123.6434         estimate D2E/DX2                !
 ! A46   A(22,24,25)           122.8642         estimate D2E/DX2                !
 ! A47   A(22,24,33)           119.2492         estimate D2E/DX2                !
 ! A48   A(25,24,33)           117.8406         estimate D2E/DX2                !
 ! A49   A(24,25,26)           121.63           estimate D2E/DX2                !
 ! A50   A(24,25,27)           123.3914         estimate D2E/DX2                !
 ! A51   A(26,25,27)           114.9348         estimate D2E/DX2                !
 ! A52   A(25,27,28)           123.2024         estimate D2E/DX2                !
 ! A53   A(25,27,29)           116.8312         estimate D2E/DX2                !
 ! A54   A(28,27,29)           119.8863         estimate D2E/DX2                !
 ! A55   A(27,29,30)           119.4384         estimate D2E/DX2                !
 ! A56   A(27,29,31)           122.1093         estimate D2E/DX2                !
 ! A57   A(30,29,31)           117.2564         estimate D2E/DX2                !
 ! A58   A(29,31,32)           119.2982         estimate D2E/DX2                !
 ! A59   A(29,31,33)           117.1223         estimate D2E/DX2                !
 ! A60   A(32,31,33)           121.1775         estimate D2E/DX2                !
 ! A61   A(24,33,31)           121.8443         estimate D2E/DX2                !
 ! A62   A(24,33,34)           118.4629         estimate D2E/DX2                !
 ! A63   A(31,33,34)           119.6914         estimate D2E/DX2                !
 ! D1    D(2,1,5,6)             70.799          estimate D2E/DX2                !
 ! D2    D(2,1,5,21)           -39.6652         estimate D2E/DX2                !
 ! D3    D(2,1,5,22)          -157.4399         estimate D2E/DX2                !
 ! D4    D(3,1,5,6)            -60.0436         estimate D2E/DX2                !
 ! D5    D(3,1,5,21)          -170.5078         estimate D2E/DX2                !
 ! D6    D(3,1,5,22)            71.7175         estimate D2E/DX2                !
 ! D7    D(4,1,5,6)           -170.6868         estimate D2E/DX2                !
 ! D8    D(4,1,5,21)            78.849          estimate D2E/DX2                !
 ! D9    D(4,1,5,22)           -38.9256         estimate D2E/DX2                !
 ! D10   D(1,5,6,7)           -156.9461         estimate D2E/DX2                !
 ! D11   D(1,5,6,20)            80.9876         estimate D2E/DX2                !
 ! D12   D(1,5,6,35)           -34.8807         estimate D2E/DX2                !
 ! D13   D(21,5,6,7)           -37.1322         estimate D2E/DX2                !
 ! D14   D(21,5,6,20)         -159.1985         estimate D2E/DX2                !
 ! D15   D(21,5,6,35)           84.9331         estimate D2E/DX2                !
 ! D16   D(22,5,6,7)            74.8896         estimate D2E/DX2                !
 ! D17   D(22,5,6,20)          -47.1768         estimate D2E/DX2                !
 ! D18   D(22,5,6,35)         -163.0451         estimate D2E/DX2                !
 ! D19   D(1,5,22,23)          -80.4942         estimate D2E/DX2                !
 ! D20   D(1,5,22,24)          101.5637         estimate D2E/DX2                !
 ! D21   D(6,5,22,23)           42.6079         estimate D2E/DX2                !
 ! D22   D(6,5,22,24)         -135.3343         estimate D2E/DX2                !
 ! D23   D(21,5,22,23)         154.5664         estimate D2E/DX2                !
 ! D24   D(21,5,22,24)         -23.3758         estimate D2E/DX2                !
 ! D25   D(5,6,7,8)            -53.1172         estimate D2E/DX2                !
 ! D26   D(5,6,7,12)            66.6017         estimate D2E/DX2                !
 ! D27   D(5,6,7,16)          -172.8339         estimate D2E/DX2                !
 ! D28   D(20,6,7,8)            68.9314         estimate D2E/DX2                !
 ! D29   D(20,6,7,12)         -171.3496         estimate D2E/DX2                !
 ! D30   D(20,6,7,16)          -50.7852         estimate D2E/DX2                !
 ! D31   D(35,6,7,8)          -175.1903         estimate D2E/DX2                !
 ! D32   D(35,6,7,12)          -55.4714         estimate D2E/DX2                !
 ! D33   D(35,6,7,16)           65.093          estimate D2E/DX2                !
 ! D34   D(6,7,8,9)             57.3001         estimate D2E/DX2                !
 ! D35   D(6,7,8,10)           -62.0581         estimate D2E/DX2                !
 ! D36   D(6,7,8,11)          -171.9657         estimate D2E/DX2                !
 ! D37   D(12,7,8,9)           -60.3531         estimate D2E/DX2                !
 ! D38   D(12,7,8,10)         -179.7114         estimate D2E/DX2                !
 ! D39   D(12,7,8,11)           70.381          estimate D2E/DX2                !
 ! D40   D(16,7,8,9)           176.1672         estimate D2E/DX2                !
 ! D41   D(16,7,8,10)           56.8089         estimate D2E/DX2                !
 ! D42   D(16,7,8,11)          -53.0987         estimate D2E/DX2                !
 ! D43   D(6,7,12,13)          -65.5476         estimate D2E/DX2                !
 ! D44   D(6,7,12,14)          171.338          estimate D2E/DX2                !
 ! D45   D(6,7,12,15)           52.4592         estimate D2E/DX2                !
 ! D46   D(8,7,12,13)           54.8412         estimate D2E/DX2                !
 ! D47   D(8,7,12,14)          -68.2732         estimate D2E/DX2                !
 ! D48   D(8,7,12,15)          172.848          estimate D2E/DX2                !
 ! D49   D(16,7,12,13)         176.6536         estimate D2E/DX2                !
 ! D50   D(16,7,12,14)          53.5392         estimate D2E/DX2                !
 ! D51   D(16,7,12,15)         -65.3396         estimate D2E/DX2                !
 ! D52   D(6,7,16,17)           56.3094         estimate D2E/DX2                !
 ! D53   D(6,7,16,18)          -70.4721         estimate D2E/DX2                !
 ! D54   D(6,7,16,19)          173.6898         estimate D2E/DX2                !
 ! D55   D(8,7,16,17)          -64.4866         estimate D2E/DX2                !
 ! D56   D(8,7,16,18)          168.7319         estimate D2E/DX2                !
 ! D57   D(8,7,16,19)           52.8938         estimate D2E/DX2                !
 ! D58   D(12,7,16,17)         173.3138         estimate D2E/DX2                !
 ! D59   D(12,7,16,18)          46.5323         estimate D2E/DX2                !
 ! D60   D(12,7,16,19)         -69.3058         estimate D2E/DX2                !
 ! D61   D(5,22,24,25)         -30.0708         estimate D2E/DX2                !
 ! D62   D(5,22,24,33)         147.4075         estimate D2E/DX2                !
 ! D63   D(23,22,24,25)        152.0746         estimate D2E/DX2                !
 ! D64   D(23,22,24,33)        -30.4471         estimate D2E/DX2                !
 ! D65   D(22,24,25,26)          1.157          estimate D2E/DX2                !
 ! D66   D(22,24,25,27)       -176.3133         estimate D2E/DX2                !
 ! D67   D(33,24,25,26)       -176.3549         estimate D2E/DX2                !
 ! D68   D(33,24,25,27)          6.1748         estimate D2E/DX2                !
 ! D69   D(22,24,33,31)        179.1786         estimate D2E/DX2                !
 ! D70   D(22,24,33,34)         -0.388          estimate D2E/DX2                !
 ! D71   D(25,24,33,31)         -3.2167         estimate D2E/DX2                !
 ! D72   D(25,24,33,34)        177.2167         estimate D2E/DX2                !
 ! D73   D(24,25,27,28)       -177.6046         estimate D2E/DX2                !
 ! D74   D(24,25,27,29)         -0.8692         estimate D2E/DX2                !
 ! D75   D(26,25,27,28)          4.7707         estimate D2E/DX2                !
 ! D76   D(26,25,27,29)       -178.4939         estimate D2E/DX2                !
 ! D77   D(25,27,29,30)       -174.8189         estimate D2E/DX2                !
 ! D78   D(25,27,29,31)         -7.6616         estimate D2E/DX2                !
 ! D79   D(28,27,29,30)          2.0306         estimate D2E/DX2                !
 ! D80   D(28,27,29,31)        169.1879         estimate D2E/DX2                !
 ! D81   D(27,29,31,32)        172.9537         estimate D2E/DX2                !
 ! D82   D(27,29,31,33)         10.3252         estimate D2E/DX2                !
 ! D83   D(30,29,31,32)        -19.6234         estimate D2E/DX2                !
 ! D84   D(30,29,31,33)        177.7481         estimate D2E/DX2                !
 ! D85   D(29,31,33,24)         -4.6773         estimate D2E/DX2                !
 ! D86   D(29,31,33,34)        174.8841         estimate D2E/DX2                !
 ! D87   D(32,31,33,24)       -166.9594         estimate D2E/DX2                !
 ! D88   D(32,31,33,34)         12.602          estimate D2E/DX2                !
 --------------------------------------------------------------------------------
 Trust Radius=3.00D-01 FncErr=1.00D-07 GrdErr=1.00D-06 EigMax=2.50D+02 EigMin=1.00D-04
 Number of steps in this run=    196 maximum allowed number of steps=    210.
 GradGradGradGradGradGradGradGradGradGradGradGradGradGradGradGradGradGrad

 Leave Link  103 at Sun Jul 18 16:30:33 2021, MaxMem=   104857600 cpu:               0.1 elap:               0.0
 (Enter /prod/apps/gaussian/g16b1/l202.exe)
                          Input orientation:                          
 ---------------------------------------------------------------------
 Center     Atomic      Atomic             Coordinates (Angstroms)
 Number     Number       Type             X           Y           Z
 ---------------------------------------------------------------------
      1          6           0       -0.600000   -1.184000    2.498000
      2          1           0       -0.643000   -0.453000    3.308000
      3          1           0       -0.120000   -2.124000    2.779000
      4          1           0       -1.625000   -1.550000    2.403000
      5          6           0       -0.047000   -0.597000    1.189000
      6          7           0        1.380000   -0.392000    1.487000
      7          6           0        2.164000    0.650000    0.659000
      8          6           0        2.004000    0.383000   -0.876000
      9          1           0        0.990000    0.367000   -1.281000
     10          1           0        2.436000   -0.605000   -1.047000
     11          1           0        2.681000    1.044000   -1.421000
     12          6           0        1.588000    1.999000    1.010000
     13          1           0        0.550000    2.117000    0.692000
     14          1           0        2.151000    2.843000    0.606000
     15          1           0        1.630000    2.028000    2.101000
     16          6           0        3.675000    0.535000    1.049000
     17          1           0        4.138000   -0.447000    0.932000
     18          1           0        3.814000    0.914000    2.064000
     19          1           0        4.146000    1.216000    0.338000
     20          1           0        1.840000   -1.273000    1.376000
     21          1           0       -0.382000    0.418000    0.957000
     22          6           0       -0.482000   -1.409000   -0.126000
     23          8           0        0.132000   -2.460000   -0.443000
     24          6           0       -1.593000   -0.820000   -0.939000
     25          6           0       -2.623000   -0.046000   -0.376000
     26          1           0       -2.651000    0.179000    0.687000
     27          6           0       -3.675000    0.433000   -1.091000
     28         17           0       -4.880000    1.412000   -0.422000
     29          6           0       -3.696000    0.133000   -2.483000
     30          1           0       -4.471000    0.565000   -3.111000
     31          6           0       -2.613000   -0.482000   -3.130000
     32          1           0       -2.720000   -0.795000   -4.166000
     33          6           0       -1.592000   -0.995000   -2.319000
     34          1           0       -0.775000   -1.553000   -2.770000
     35          1           0        1.452000   -0.128000    2.449000
 ---------------------------------------------------------------------
                    Distance matrix (angstroms):
                    1          2          3          4          5
     1  C    0.000000
     2  H    1.091929   0.000000
     3  H    1.092228   1.829101   0.000000
     4  H    1.092523   1.728224   1.654049   0.000000
     5  C    1.537485   2.205927   2.205710   2.207281   0.000000
     6  N    2.360039   2.722552   2.630416   3.348141   1.472127
     7  C    3.792779   4.014107   4.172066   4.715724   2.593151
     8  C    4.540945   5.021092   4.914819   5.259085   3.071030
     9  H    4.383440   4.939434   4.890888   4.907644   2.847027
    10  H    4.703144   5.335670   4.845490   5.411769   3.341414
    11  H    5.575617   5.971049   5.960019   6.316126   4.116669
    12  C    4.139200   4.033667   4.800599   4.985902   3.073188
    13  H    3.934557   3.856372   4.773945   4.594022   2.822980
    14  H    5.231099   5.096161   5.877964   6.065133   4.123675
    15  H    3.930325   3.574736   4.556456   4.846474   3.245720
    16  C    4.830133   4.972358   4.946231   5.854105   3.892853
    17  H    5.044221   5.338855   4.935008   6.049183   4.195566
    18  H    4.906461   4.825047   5.021656   5.980714   4.237460
    19  H    5.740219   5.877158   5.942461   6.724539   4.646764
    20  H    2.687081   3.251202   2.556210   3.624594   2.013135
    21  H    2.233519   2.520707   3.138486   2.740253   1.093743
    22  C    2.636271   3.568223   3.013519   2.778879   1.605551
    23  O    3.288386   4.324196   3.249259   3.466247   2.483190
    24  C    3.596041   4.367402   4.206384   3.420948   2.639740
    25  C    3.694245   4.202131   4.531790   3.313738   3.064083
    26  H    3.056811   3.361715   4.010765   2.643250   2.763150
    27  C    4.995121   5.415646   5.844072   4.510302   4.407004
    28  Cl   5.795172   5.945023   6.738494   5.229636   5.476248
    29  C    6.010829   6.572662   6.750590   5.567273   5.227971
    30  H    7.035945   7.542776   7.800899   6.555695   6.277899
    31  C    6.018252   6.732725   6.620234   5.721089   5.025071
    32  H    7.003900   7.764765   7.533875   6.702299   5.988335
    33  C    4.921715   5.732146   5.425037   4.754619   3.853763
    34  H    5.283806   6.178148   5.616624   5.242370   4.137342
    35  H    2.308298   2.287473   2.562050   3.390004   2.013594
                    6          7          8          9         10
     6  N    0.000000
     7  C    1.544670   0.000000
     8  C    2.563936   1.566242   0.000000
     9  H    2.896551   2.285162   1.092006   0.000000
    10  H    2.753482   2.135286   1.091792   1.757969   0.000000
    11  H    3.494447   2.179203   1.091913   1.826858   1.708538
    12  C    2.446972   1.508237   2.518235   2.875710   3.425079
    13  H    2.759711   2.181324   2.753088   2.673729   3.740374
    14  H    3.440324   2.193679   2.875680   3.322539   3.834363
    15  H    2.509162   2.064801   3.421758   3.821838   4.182371
    16  C    2.513603   1.564751   2.553619   3.558981   2.688482
    17  H    2.813826   2.274778   2.917485   3.933175   2.614997
    18  H    2.821865   2.183168   3.493088   4.411713   3.726200
    19  H    3.399503   2.086078   2.599202   3.647232   2.856285
    20  H    1.000041   2.077738   2.800131   3.236008   2.583093
    21  H    2.010384   2.573858   3.009005   2.625572   3.606060
    22  C    2.665165   3.443403   3.154990   2.579726   3.163761
    23  O    3.091768   3.874987   3.431402   3.070885   3.018983
    24  C    3.861009   4.339303   3.793361   2.863184   4.036178
    25  C    4.428825   4.946818   4.673668   3.747448   5.133829
    26  H    4.149097   4.838063   4.914632   4.143097   5.431296
    27  C    5.734085   6.099468   5.683288   4.669334   6.198685
    28  Cl   6.788689   7.167087   6.975272   6.023853   7.614642
    29  C    6.465470   6.669262   5.927474   4.843362   6.340991
    30  H    7.502776   7.631733   6.852297   5.762866   7.303126
    31  C    6.104821   6.201425   5.210128   4.137779   5.463188
    32  H    6.994914   7.015847   5.876050   4.841236   6.028980
    33  C    4.866418   5.067746   4.112463   3.098260   4.242036
    34  H    4.910600   5.024835   3.880486   3.003123   3.765362
    35  H    1.000162   2.077577   3.409025   3.790959   3.663032
                   11         12         13         14         15
    11  H    0.000000
    12  C    2.831331   0.000000
    13  H    3.187045   1.092013   0.000000
    14  H    2.761527   1.092026   1.760021   0.000000
    15  H    3.804910   1.092193   1.777527   1.780643   0.000000
    16  C    2.710723   2.549585   3.520767   2.801016   2.741857
    17  H    3.143651   3.534332   4.416496   3.857272   3.712445
    18  H    3.666853   2.691323   3.739424   2.934685   2.451983
    19  H    2.295624   2.758267   3.724021   2.588238   3.177699
    20  H    3.728133   3.302036   3.691078   4.198938   3.386196
    21  H    3.927942   2.526513   1.955876   3.524190   2.819394
    22  C    4.206995   4.146066   3.763884   5.054505   4.607933
    23  O    4.442060   4.910583   4.734119   5.770491   5.371972
    24  C    4.687632   4.675909   3.984793   5.460964   5.266919
    25  C    5.514757   4.882166   3.985865   5.665838   5.340881
    26  H    5.798458   4.624484   3.741961   5.492054   4.872900
    27  C    6.393822   5.879262   4.885240   6.529180   6.393427
    28  Cl   7.635584   6.650580   5.587747   7.248414   7.008929
    29  C    6.528698   6.603307   5.660865   7.146568   7.278074
    30  H    7.364553   7.466624   6.487061   7.928194   8.156440
    31  C    5.768517   6.398700   5.600630   6.907171   7.187942
    32  H    6.331489   7.290835   6.540092   7.728756   8.134317
    33  C    4.818968   5.491692   4.831028   6.107038   6.249497
    34  H    4.528592   5.699901   5.216318   6.267668   6.506476
    35  H    4.226219   2.571643   2.990097   3.565402   2.191147
                   16         17         18         19         20
    16  C    0.000000
    17  H    1.091962   0.000000
    18  H    1.092331   1.799645   0.000000
    19  H    1.091386   1.765919   1.783397   0.000000
    20  H    2.596732   2.481978   3.025391   3.548267   0.000000
    21  H    4.059729   4.602092   4.367823   4.639262   2.823531
    22  C    4.737131   4.836239   5.352387   5.340815   2.768787
    23  O    4.873288   4.689438   5.588027   5.498648   2.763149
    24  C    5.791372   6.040210   6.423427   6.221909   4.165324
    25  C    6.483285   6.898028   6.950552   6.922557   4.949081
    26  H    6.346342   6.822201   6.650758   6.884503   4.769917
    27  C    7.655880   8.118491   8.140670   7.988941   6.277878
    28  Cl   8.724735   9.306639   9.056149   9.060060   7.456570
    29  C    8.183414   8.565640   8.813925   8.404040   6.893186
    30  H    9.146793   9.564773   9.774643   9.304412   7.958652
    31  C    7.618220   7.878900   8.380500   7.784235   6.384272
    32  H    8.358298   8.552361   9.188402   8.454117   7.192764
    33  C    6.436273   6.610764   7.216634   6.698717   5.050637
    34  H    6.224709   6.250249   7.107219   6.445407   4.909780
    35  H    2.709483   3.101233   2.610179   3.676995   1.616446
                   21         22         23         24         25
    21  H    0.000000
    22  C    2.126222   0.000000
    23  O    3.241463   1.257810   0.000000
    24  C    2.567875   1.497401   2.431304   0.000000
    25  C    2.648446   2.550324   3.663592   1.406039   0.000000
    26  H    2.297473   2.808429   3.998288   2.182027   1.086912
    27  C    3.877935   3.810438   4.825205   2.434715   1.359180
    28  Cl   4.808501   5.233360   6.333480   4.006680   2.687365
    29  C    4.785125   4.273524   5.053596   2.777545   2.371248
    30  H    5.769762   5.359013   6.120168   3.862472   3.356881
    31  C    4.742460   3.797961   4.320588   2.440312   2.788317
    32  H    5.760446   4.659103   4.976631   3.418228   3.864519
    33  C    3.767339   2.492538   2.939010   1.391052   2.395582
    34  H    4.234362   2.664080   2.657109   2.135175   3.378963
    35  H    2.426466   3.465825   3.942625   4.607541   4.959130
                   26         27         28         29         30
    26  H    0.000000
    27  C    2.067456   0.000000
    28  Cl   2.778239   1.690570   0.000000
    29  C    3.338119   1.424116   2.699151   0.000000
    30  H    4.229208   2.175187   2.848756   1.087029   0.000000
    31  C    3.873997   2.474387   4.007467   1.403468   2.132776
    32  H    4.950257   3.446104   4.853245   2.155516   2.455326
    33  C    3.396438   2.808212   4.494797   2.392926   3.368903
    34  H    4.297679   3.895284   5.581698   3.384849   4.273479
    35  H    4.475880   6.255593   7.120988   7.134049   8.153268
                   31         32         33         34         35
    31  C    0.000000
    32  H    1.087527   0.000000
    33  C    1.401189   2.173429   0.000000
    34  H    2.157518   2.511256   1.087315   0.000000
    35  H    6.911930   7.849121   5.722888   5.850480   0.000000
 Stoichiometry    C13H19ClNO(1+)
 Framework group  C1[X(C13H19ClNO)]
 Deg. of freedom    99
 Full point group                 C1      NOp   1
 Largest Abelian subgroup         C1      NOp   1
 Largest concise Abelian subgroup C1      NOp   1
                         Standard orientation:                         
 ---------------------------------------------------------------------
 Center     Atomic      Atomic             Coordinates (Angstroms)
 Number     Number       Type             X           Y           Z
 ---------------------------------------------------------------------
      1          6           0       -1.195029   -1.562648    2.160288
      2          1           0       -1.409816   -2.601039    1.899673
      3          1           0       -1.783635   -1.189557    3.001304
      4          1           0       -0.219608   -1.598279    2.651095
      5          6           0       -1.223079   -0.621113    0.945141
      6          7           0       -2.652892   -0.556595    0.600713
      7          6           0       -3.047264   -0.168272   -0.841397
      8          6           0       -2.366175    1.176382   -1.267002
      9          1           0       -1.276179    1.224762   -1.221768
     10          1           0       -2.752072    1.930005   -0.577695
     11          1           0       -2.777218    1.490573   -2.228564
     12          6           0       -2.574887   -1.289624   -1.732581
     13          1           0       -1.487450   -1.385821   -1.759401
     14          1           0       -2.921387   -1.214423   -2.765442
     15          1           0       -2.998925   -2.186353   -1.275465
     16          6           0       -4.601971    0.003423   -0.884438
     17          1           0       -5.035679    0.718718   -0.182561
     18          1           0       -5.074585   -0.976409   -0.785679
     19          1           0       -4.760942    0.384570   -1.894674
     20          1           0       -3.081547    0.102909    1.218282
     21          1           0       -0.784037   -1.029817    0.030550
     22          6           0       -0.386510    0.733956    1.149431
     23          8           0       -0.893515    1.690806    1.789330
     24          6           0        0.964686    0.789374    0.506462
     25          6           0        1.761315   -0.351622    0.305322
     26          1           0        1.421074   -1.342574    0.594509
     27          6           0        3.017946   -0.305117   -0.210512
     28         17           0        3.949447   -1.684843   -0.504943
     29          6           0        3.517137    0.978609   -0.572398
     30          1           0        4.482147    1.056712   -1.066654
     31          6           0        2.707601    2.124983   -0.558208
     32          1           0        3.160606    3.098553   -0.730433
     33          6           0        1.444490    2.007694    0.036877
     34          1           0        0.816590    2.888666    0.145889
     35          1           0       -3.049135   -1.455298    0.789519
 ---------------------------------------------------------------------
 Rotational constants (GHZ):           0.7399270           0.2442105           0.2302413
 Leave Link  202 at Sun Jul 18 16:30:33 2021, MaxMem=   104857600 cpu:               0.1 elap:               0.0
 (Enter /prod/apps/gaussian/g16b1/l301.exe)
 Standard basis: 6-31G(d) (6D, 7F)
 Ernie: Thresh=  0.10000D-02 Tol=  0.10000D-05 Strict=F.
 There are   282 symmetry adapted cartesian basis functions of A   symmetry.
 There are   282 symmetry adapted basis functions of A   symmetry.
   282 basis functions,   548 primitive gaussians,   282 cartesian basis functions
    64 alpha electrons       64 beta electrons
       nuclear repulsion energy      1225.1206947329 Hartrees.
 IExCor=  402 DFT=T Ex+Corr=B3LYP ExCW=0 ScaHFX=  0.200000
 ScaDFX=  0.800000  0.720000  1.000000  0.810000 ScalE2=  1.000000  1.000000
 IRadAn=      5 IRanWt=     -1 IRanGd=            0 ICorTp=0 IEmpDi=  4
 NAtoms=   35 NActive=   35 NUniq=   35 SFac= 1.00D+00 NAtFMM=   60 NAOKFM=F Big=F
 Integral buffers will be    131072 words long.
 Raffenetti 2 integral format.
 Two-electron integral symmetry is turned on.
 Using the following non-standard input for PCM:
 MSTModel=DFT cav MSTCharged
 --- end of non-standard input.
 MST model for solvation energy: B3LYP parametrization.
 MST cavity parameters:
 ISph   IAn     Re0     Alpha   Atom Type   QCorr
 ------------------------------------------------
   1      6     1.50     1.25      CH3        F
   2      1     1.20     1.25      CH3        F
   3      1     1.20     1.25      CH3        F
   4      1     1.20     1.25      CH3        F
   5      6     1.50     1.25      CH         F
   6      7     1.55     1.15      NH         T
   7      6     1.50     1.25      C          F
   8      6     1.50     1.25      CH3        F
   9      1     1.20     1.25      CH3        F
  10      1     1.20     1.25      CH3        F
  11      1     1.20     1.25      CH3        F
  12      6     1.50     1.25      CH3        F
  13      1     1.20     1.25      CH3        F
  14      1     1.20     1.25      CH3        F
  15      1     1.20     1.25      CH3        F
  16      6     1.50     1.25      CH3        F
  17      1     1.20     1.25      CH3        F
  18      1     1.20     1.25      CH3        F
  19      1     1.20     1.25      CH3        F
  20      1     0.90     1.15      NH         T
  21      1     1.20     1.25      CH         F
  22      6     1.50     1.25      C          F
  23      8     1.40     1.25      O          F
  24      6     1.50     1.25      C          F
  25      6     1.50     1.25      CH         F
  26      1     1.20     1.25      CH         F
  27      6     1.50     1.25      C          F
  28     17     1.80     1.25      Cl         F
  29      6     1.50     1.25      CH         F
  30      1     1.20     1.25      CH         F
  31      6     1.50     1.25      CH         F
  32      1     1.20     1.25      CH         F
  33      6     1.50     1.25      CH         F
  34      1     1.20     1.25      CH         F
  35      1     0.90     1.15      NH         T
 ------------------------------------------------------------------------------
 Polarizable Continuum Model (PCM)
 =================================
 Model                : PCM.
 Atomic radii         : MST.
 Polarization charges : Total charges.
 Charge compensation  : None.
 Solution method      : On-the-fly selection.
 Cavity type          : Scaled VdW (van der Waals Surface) (Alpha=1.250).
 Cavity algorithm     : GePol (No added spheres)
                        Default sphere list used, NSphG=   35.
                        Lebedev-Laikov grids with approx.  5.0 points / Ang**2.
                        Smoothing algorithm: York/Karplus (Gamma=1.0000).
                        Polarization charges: spherical gaussians, with
                                              point-specific exponents (IZeta= 3).
                        Self-potential: point-specific (ISelfS= 7).
                        Self-field    : sphere-specific E.n sum rule (ISelfD= 2).
 1st derivatives      : Analytical E(r).r(x)/FMM algorithm (CHGder, D1EAlg=3).
                        Cavity 1st derivative terms included.
 Solvent              : Water, Eps=  78.355300 Eps(inf)=   1.777849
 ------------------------------------------------------------------------------
 GePol: Number of generator spheres                  =      35
 GePol: Total number of spheres                      =      35
 GePol: Number of exposed spheres                    =      35 (100.00%)
 GePol: Number of points                             =    2510
 GePol: Average weight of points                     =       0.13
 GePol: Minimum weight of points                     =   0.22D-10
 GePol: Maximum weight of points                     =    0.22001
 GePol: Number of points with low weight             =     165
 GePol: Fraction of low-weight points (<1% of avg)   =       6.57%
 GePol: Cavity surface area                          =    326.654 Ang**2
 GePol: Cavity volume                                =    315.790 Ang**3
 PCM non-electrostatic energy =         0.0029962072 Hartrees.
 Nuclear repulsion after PCM non-electrostatic terms =     1225.1236909401 Hartrees.
 Leave Link  301 at Sun Jul 18 16:30:33 2021, MaxMem=   104857600 cpu:               0.3 elap:               0.1
 (Enter /prod/apps/gaussian/g16b1/l302.exe)
 NPDir=0 NMtPBC=     1 NCelOv=     1 NCel=       1 NClECP=     1 NCelD=      1
         NCelK=      1 NCelE2=     1 NClLst=     1 CellRange=     0.0.
 One-electron integrals computed using PRISM.
 One-electron integral symmetry used in STVInt
 NBasis=   282 RedAO= T EigKep=  5.30D-04  NBF=   282
 NBsUse=   282 1.00D-06 EigRej= -1.00D+00 NBFU=   282
 Precomputing XC quadrature grid using
 IXCGrd= 4 IRadAn=           5 IRanWt=          -1 IRanGd=           0 AccXCQ= 0.00D+00.
 Generated NRdTot=       0 NPtTot=           0 NUsed=           0 NTot=          32
 NSgBfM=   281   281   281   281   281 MxSgAt=    35 MxSgA2=    35.
 Leave Link  302 at Sun Jul 18 16:30:34 2021, MaxMem=   104857600 cpu:               1.7 elap:               0.4
 (Enter /prod/apps/gaussian/g16b1/l303.exe)
 DipDrv:  MaxL=1.
 Leave Link  303 at Sun Jul 18 16:30:34 2021, MaxMem=   104857600 cpu:               0.1 elap:               0.1
 (Enter /prod/apps/gaussian/g16b1/l401.exe)
 ExpMin= 1.43D-01 ExpMax= 2.52D+04 ExpMxC= 3.78D+03 IAcc=3 IRadAn=         5 AccDes= 0.00D+00
 Harris functional with IExCor=  402 and IRadAn=       5 diagonalized for initial guess.
 HarFok:  IExCor=  402 AccDes= 0.00D+00 IRadAn=         5 IDoV= 1 UseB2=F ITyADJ=14
 ICtDFT=  3500011 ScaDFX=  1.000000  1.000000  1.000000  1.000000
 FoFCou: FMM=F IPFlag=           0 FMFlag=      100000 FMFlg1=           0
         NFxFlg=           0 DoJE=T BraDBF=F KetDBF=T FulRan=T
         wScrn=  0.000000 ICntrl=       500 IOpCl=  0 I1Cent=   200000004 NGrid=           0
         NMat0=    1 NMatS0=      1 NMatT0=    0 NMatD0=    1 NMtDS0=    0 NMtDT0=    0
 Petite list used in FoFCou.
 Harris En= -1096.73158763092    
 JPrj=0 DoOrth=F DoCkMO=F.
 Leave Link  401 at Sun Jul 18 16:30:36 2021, MaxMem=   104857600 cpu:               8.5 elap:               2.1
 (Enter /prod/apps/gaussian/g16b1/l502.exe)
 Integral symmetry usage will be decided dynamically.
 Closed shell SCF:
 Using DIIS extrapolation, IDIIS=  1040.
 NGot=   104857600 LenX=   104693532 LenY=   104613567
 Requested convergence on RMS density matrix=1.00D-08 within 128 cycles.
 Requested convergence on MAX density matrix=1.00D-06.
 Requested convergence on             energy=1.00D-06.
 No special actions if energy rises.
 Fock matrices will be formed incrementally for  20 cycles.

 Cycle   1  Pass 1  IDiag  1:
 FoFJK:  IHMeth= 1 ICntrl=       0 DoSepK=F KAlg= 0 I1Cent=           0 FoldK=F
 IRaf= 860000000 NMat=       1 IRICut=       1 DoRegI=T DoRafI=F ISym2E= 0 IDoP0=0 IntGTp=1.
 FoFCou: FMM=F IPFlag=           0 FMFlag=      100000 FMFlg1=           0
         NFxFlg=           0 DoJE=F BraDBF=F KetDBF=F FulRan=T
         wScrn=  0.000000 ICntrl=         0 IOpCl=  0 I1Cent=           0 NGrid=           0
         NMat0=    1 NMatS0=      1 NMatT0=    0 NMatD0=    1 NMtDS0=    0 NMtDT0=    0
 Symmetry not used in FoFCou.
 Inv3:  Mode=1 IEnd=    18900300.
 Iteration    1 A*A^-1 deviation from unit magnitude is 3.33D-15 for    770.
 Iteration    1 A*A^-1 deviation from orthogonality  is 2.30D-15 for   2118    985.
 Iteration    1 A^-1*A deviation from unit magnitude is 3.33D-15 for    372.
 Iteration    1 A^-1*A deviation from orthogonality  is 2.42D-14 for   2063   2056.
 E= -1096.40307542911    
 DIIS: error= 3.42D-02 at cycle   1 NSaved=   1.
 NSaved= 1 IEnMin= 1 EnMin= -1096.40307542911     IErMin= 1 ErrMin= 3.42D-02
 ErrMax= 3.42D-02  0.00D+00 EMaxC= 1.00D-01 BMatC= 4.37D-01 BMatP= 4.37D-01
 IDIUse=3 WtCom= 6.58D-01 WtEn= 3.42D-01
 Coeff-Com:  0.100D+01
 Coeff-En:   0.100D+01
 Coeff:      0.100D+01
 Gap=     0.273 Goal=   None    Shift=    0.000
 GapD=    0.273 DampG=1.000 DampE=0.500 DampFc=0.5000 IDamp=-1.
 Damping current iteration by 5.00D-01
 RMSDP=4.94D-03 MaxDP=1.58D-01              OVMax= 2.20D-01

 Cycle   2  Pass 1  IDiag  1:
 RMSU=  2.44D-03    CP:  9.83D-01
 E= -1096.57893858287     Delta-E=       -0.175863153765 Rises=F Damp=T
 DIIS: error= 1.04D-02 at cycle   2 NSaved=   2.
 NSaved= 2 IEnMin= 2 EnMin= -1096.57893858287     IErMin= 2 ErrMin= 1.04D-02
 ErrMax= 1.04D-02  0.00D+00 EMaxC= 1.00D-01 BMatC= 3.93D-02 BMatP= 4.37D-01
 IDIUse=3 WtCom= 8.96D-01 WtEn= 1.04D-01
 Coeff-Com:  0.124D+00 0.876D+00
 Coeff-En:   0.188D+00 0.812D+00
 Coeff:      0.130D+00 0.870D+00
 Gap=     0.184 Goal=   None    Shift=    0.000
 RMSDP=1.33D-03 MaxDP=6.04D-02 DE=-1.76D-01 OVMax= 1.38D-01

 Cycle   3  Pass 1  IDiag  1:
 RMSU=  1.29D-03    CP:  9.75D-01  8.97D-01
 E= -1096.79910362831     Delta-E=       -0.220165045434 Rises=F Damp=F
 DIIS: error= 1.23D-02 at cycle   3 NSaved=   3.
 NSaved= 3 IEnMin= 3 EnMin= -1096.79910362831     IErMin= 2 ErrMin= 1.04D-02
 ErrMax= 1.23D-02  0.00D+00 EMaxC= 1.00D-01 BMatC= 4.32D-02 BMatP= 3.93D-02
 IDIUse=3 WtCom= 8.77D-01 WtEn= 1.23D-01
 Coeff-Com:  0.237D-01 0.510D+00 0.466D+00
 Coeff-En:   0.000D+00 0.000D+00 0.100D+01
 Coeff:      0.208D-01 0.447D+00 0.532D+00
 Gap=     0.173 Goal=   None    Shift=    0.000
 RMSDP=9.43D-04 MaxDP=6.48D-02 DE=-2.20D-01 OVMax= 6.90D-02

 Cycle   4  Pass 1  IDiag  1:
 RMSU=  7.20D-04    CP:  9.78D-01  9.39D-01  5.38D-01
 E= -1096.82333385240     Delta-E=       -0.024230224099 Rises=F Damp=F
 DIIS: error= 7.74D-03 at cycle   4 NSaved=   4.
 NSaved= 4 IEnMin= 4 EnMin= -1096.82333385240     IErMin= 4 ErrMin= 7.74D-03
 ErrMax= 7.74D-03  0.00D+00 EMaxC= 1.00D-01 BMatC= 1.49D-02 BMatP= 3.93D-02
 IDIUse=3 WtCom= 9.23D-01 WtEn= 7.74D-02
 Coeff-Com: -0.125D-03 0.726D-01 0.369D+00 0.558D+00
 Coeff-En:   0.000D+00 0.000D+00 0.295D+00 0.705D+00
 Coeff:     -0.115D-03 0.670D-01 0.363D+00 0.570D+00
 Gap=     0.176 Goal=   None    Shift=    0.000
 RMSDP=4.02D-04 MaxDP=2.66D-02 DE=-2.42D-02 OVMax= 2.14D-02

 Cycle   5  Pass 1  IDiag  1:
 RMSU=  1.61D-04    CP:  9.78D-01  9.26D-01  6.93D-01  5.74D-01
 E= -1096.83492997498     Delta-E=       -0.011596122572 Rises=F Damp=F
 DIIS: error= 9.14D-04 at cycle   5 NSaved=   5.
 NSaved= 5 IEnMin= 5 EnMin= -1096.83492997498     IErMin= 5 ErrMin= 9.14D-04
 ErrMax= 9.14D-04  0.00D+00 EMaxC= 1.00D-01 BMatC= 3.79D-04 BMatP= 1.49D-02
 IDIUse=3 WtCom= 9.91D-01 WtEn= 9.14D-03
 Coeff-Com: -0.856D-03 0.740D-02 0.158D+00 0.292D+00 0.544D+00
 Coeff-En:   0.000D+00 0.000D+00 0.000D+00 0.000D+00 0.100D+01
 Coeff:     -0.848D-03 0.733D-02 0.157D+00 0.289D+00 0.548D+00
 Gap=     0.175 Goal=   None    Shift=    0.000
 RMSDP=8.37D-05 MaxDP=3.48D-03 DE=-1.16D-02 OVMax= 7.10D-03

 Cycle   6  Pass 1  IDiag  1:
 RMSU=  4.57D-05    CP:  9.77D-01  9.25D-01  6.94D-01  6.10D-01  5.97D-01
 E= -1096.83525877861     Delta-E=       -0.000328803631 Rises=F Damp=F
 DIIS: error= 1.91D-04 at cycle   6 NSaved=   6.
 NSaved= 6 IEnMin= 6 EnMin= -1096.83525877861     IErMin= 6 ErrMin= 1.91D-04
 ErrMax= 1.91D-04  0.00D+00 EMaxC= 1.00D-01 BMatC= 2.21D-05 BMatP= 3.79D-04
 IDIUse=3 WtCom= 9.98D-01 WtEn= 1.91D-03
 Coeff-Com: -0.159D-03-0.184D-02 0.434D-01 0.884D-01 0.257D+00 0.614D+00
 Coeff-En:   0.000D+00 0.000D+00 0.000D+00 0.000D+00 0.000D+00 0.100D+01
 Coeff:     -0.159D-03-0.184D-02 0.433D-01 0.882D-01 0.256D+00 0.614D+00
 Gap=     0.175 Goal=   None    Shift=    0.000
 RMSDP=2.09D-05 MaxDP=1.13D-03 DE=-3.29D-04 OVMax= 2.54D-03

 Cycle   7  Pass 1  IDiag  1:
 RMSU=  1.30D-05    CP:  9.77D-01  9.25D-01  6.96D-01  6.12D-01  6.37D-01
                    CP:  6.83D-01
 E= -1096.83527856340     Delta-E=       -0.000019784796 Rises=F Damp=F
 DIIS: error= 5.72D-05 at cycle   7 NSaved=   7.
 NSaved= 7 IEnMin= 7 EnMin= -1096.83527856340     IErMin= 7 ErrMin= 5.72D-05
 ErrMax= 5.72D-05  0.00D+00 EMaxC= 1.00D-01 BMatC= 2.42D-06 BMatP= 2.21D-05
 IDIUse=1 WtCom= 1.00D+00 WtEn= 0.00D+00
 Coeff-Com: -0.938D-05-0.138D-02 0.128D-01 0.276D-01 0.967D-01 0.329D+00
 Coeff-Com:  0.536D+00
 Coeff:     -0.938D-05-0.138D-02 0.128D-01 0.276D-01 0.967D-01 0.329D+00
 Coeff:      0.536D+00
 Gap=     0.175 Goal=   None    Shift=    0.000
 RMSDP=7.17D-06 MaxDP=3.31D-04 DE=-1.98D-05 OVMax= 6.50D-04

 Cycle   8  Pass 1  IDiag  1:
 RMSU=  3.95D-06    CP:  9.77D-01  9.25D-01  6.96D-01  6.13D-01  6.44D-01
                    CP:  7.28D-01  5.77D-01
 E= -1096.83528088067     Delta-E=       -0.000002317269 Rises=F Damp=F
 DIIS: error= 1.68D-05 at cycle   8 NSaved=   8.
 NSaved= 8 IEnMin= 8 EnMin= -1096.83528088067     IErMin= 8 ErrMin= 1.68D-05
 ErrMax= 1.68D-05  0.00D+00 EMaxC= 1.00D-01 BMatC= 1.87D-07 BMatP= 2.42D-06
 IDIUse=1 WtCom= 1.00D+00 WtEn= 0.00D+00
 Coeff-Com:  0.359D-04-0.510D-03 0.134D-02 0.309D-02 0.163D-01 0.935D-01
 Coeff-Com:  0.258D+00 0.628D+00
 Coeff:      0.359D-04-0.510D-03 0.134D-02 0.309D-02 0.163D-01 0.935D-01
 Coeff:      0.258D+00 0.628D+00
 Gap=     0.175 Goal=   None    Shift=    0.000
 RMSDP=2.16D-06 MaxDP=7.40D-05 DE=-2.32D-06 OVMax= 2.55D-04

 Cycle   9  Pass 1  IDiag  1:
 RMSU=  1.23D-06    CP:  9.77D-01  9.25D-01  6.96D-01  6.13D-01  6.44D-01
                    CP:  7.28D-01  6.63D-01  6.57D-01
 E= -1096.83528106244     Delta-E=       -0.000000181764 Rises=F Damp=F
 DIIS: error= 6.34D-06 at cycle   9 NSaved=   9.
 NSaved= 9 IEnMin= 9 EnMin= -1096.83528106244     IErMin= 9 ErrMin= 6.34D-06
 ErrMax= 6.34D-06  0.00D+00 EMaxC= 1.00D-01 BMatC= 2.48D-08 BMatP= 1.87D-07
 IDIUse=1 WtCom= 1.00D+00 WtEn= 0.00D+00
 Coeff-Com:  0.294D-04-0.138D-03-0.389D-03-0.952D-03-0.918D-03 0.189D-01
 Coeff-Com:  0.771D-01 0.325D+00 0.581D+00
 Coeff:      0.294D-04-0.138D-03-0.389D-03-0.952D-03-0.918D-03 0.189D-01
 Coeff:      0.771D-01 0.325D+00 0.581D+00
 Gap=     0.175 Goal=   None    Shift=    0.000
 RMSDP=6.43D-07 MaxDP=2.85D-05 DE=-1.82D-07 OVMax= 8.50D-05

 Cycle  10  Pass 1  IDiag  1:
 RMSU=  3.27D-07    CP:  9.77D-01  9.25D-01  6.97D-01  6.13D-01  6.44D-01
                    CP:  7.33D-01  6.62D-01  7.36D-01  6.97D-01
 E= -1096.83528108800     Delta-E=       -0.000000025561 Rises=F Damp=F
 DIIS: error= 1.19D-06 at cycle  10 NSaved=  10.
 NSaved=10 IEnMin=10 EnMin= -1096.83528108800     IErMin=10 ErrMin= 1.19D-06
 ErrMax= 1.19D-06  0.00D+00 EMaxC= 1.00D-01 BMatC= 1.24D-09 BMatP= 2.48D-08
 IDIUse=1 WtCom= 1.00D+00 WtEn= 0.00D+00
 Coeff-Com:  0.138D-04-0.313D-04-0.275D-03-0.695D-03-0.184D-02 0.176D-02
 Coeff-Com:  0.114D-01 0.912D-01 0.252D+00 0.646D+00
 Coeff:      0.138D-04-0.313D-04-0.275D-03-0.695D-03-0.184D-02 0.176D-02
 Coeff:      0.114D-01 0.912D-01 0.252D+00 0.646D+00
 Gap=     0.175 Goal=   None    Shift=    0.000
 RMSDP=1.41D-07 MaxDP=7.88D-06 DE=-2.56D-08 OVMax= 8.11D-06

 Cycle  11  Pass 1  IDiag  1:
 RMSU=  9.69D-08    CP:  9.77D-01  9.25D-01  6.97D-01  6.13D-01  6.44D-01
                    CP:  7.34D-01  6.63D-01  7.49D-01  7.15D-01  7.78D-01
 E= -1096.83528108906     Delta-E=       -0.000000001058 Rises=F Damp=F
 DIIS: error= 2.77D-07 at cycle  11 NSaved=  11.
 NSaved=11 IEnMin=11 EnMin= -1096.83528108906     IErMin=11 ErrMin= 2.77D-07
 ErrMax= 2.77D-07  0.00D+00 EMaxC= 1.00D-01 BMatC= 8.38D-11 BMatP= 1.24D-09
 IDIUse=1 WtCom= 1.00D+00 WtEn= 0.00D+00
 Coeff-Com:  0.346D-05-0.153D-05-0.556D-04-0.158D-03-0.637D-03-0.636D-03
 Coeff-Com: -0.344D-02 0.435D-02 0.515D-01 0.233D+00 0.716D+00
 Coeff:      0.346D-05-0.153D-05-0.556D-04-0.158D-03-0.637D-03-0.636D-03
 Coeff:     -0.344D-02 0.435D-02 0.515D-01 0.233D+00 0.716D+00
 Gap=     0.175 Goal=   None    Shift=    0.000
 RMSDP=4.82D-08 MaxDP=1.89D-06 DE=-1.06D-09 OVMax= 4.05D-06

 Cycle  12  Pass 1  IDiag  1:
 RMSU=  2.78D-08    CP:  9.77D-01  9.25D-01  6.97D-01  6.13D-01  6.44D-01
                    CP:  7.34D-01  6.63D-01  7.49D-01  7.34D-01  8.30D-01
                    CP:  7.82D-01
 E= -1096.83528108915     Delta-E=       -0.000000000091 Rises=F Damp=F
 DIIS: error= 1.29D-07 at cycle  12 NSaved=  12.
 NSaved=12 IEnMin=12 EnMin= -1096.83528108915     IErMin=12 ErrMin= 1.29D-07
 ErrMax= 1.29D-07  0.00D+00 EMaxC= 1.00D-01 BMatC= 1.13D-11 BMatP= 8.38D-11
 IDIUse=1 WtCom= 1.00D+00 WtEn= 0.00D+00
 Coeff-Com:  0.556D-06 0.128D-05-0.395D-05-0.147D-04-0.153D-03-0.370D-03
 Coeff-Com: -0.262D-02-0.594D-02 0.365D-02 0.366D-01 0.315D+00 0.654D+00
 Coeff:      0.556D-06 0.128D-05-0.395D-05-0.147D-04-0.153D-03-0.370D-03
 Coeff:     -0.262D-02-0.594D-02 0.365D-02 0.366D-01 0.315D+00 0.654D+00
 Gap=     0.175 Goal=   None    Shift=    0.000
 RMSDP=1.30D-08 MaxDP=7.36D-07 DE=-9.09D-11 OVMax= 7.88D-07

 Cycle  13  Pass 1  IDiag  1:
 RMSU=  9.31D-09    CP:  9.77D-01  9.25D-01  6.97D-01  6.13D-01  6.44D-01
                    CP:  7.34D-01  6.63D-01  7.50D-01  7.36D-01  8.36D-01
                    CP:  8.33D-01  7.87D-01
 E= -1096.83528108916     Delta-E=       -0.000000000018 Rises=F Damp=F
 DIIS: error= 5.29D-08 at cycle  13 NSaved=  13.
 NSaved=13 IEnMin=13 EnMin= -1096.83528108916     IErMin=13 ErrMin= 5.29D-08
 ErrMax= 5.29D-08  0.00D+00 EMaxC= 1.00D-01 BMatC= 1.03D-12 BMatP= 1.13D-11
 IDIUse=1 WtCom= 1.00D+00 WtEn= 0.00D+00
 Coeff-Com: -0.449D-07 0.587D-06 0.341D-05 0.935D-05-0.119D-04-0.740D-04
 Coeff-Com: -0.840D-03-0.310D-02-0.284D-02-0.102D-01 0.749D-01 0.291D+00
 Coeff-Com:  0.651D+00
 Coeff:     -0.449D-07 0.587D-06 0.341D-05 0.935D-05-0.119D-04-0.740D-04
 Coeff:     -0.840D-03-0.310D-02-0.284D-02-0.102D-01 0.749D-01 0.291D+00
 Coeff:      0.651D+00
 Gap=     0.175 Goal=   None    Shift=    0.000
 RMSDP=4.42D-09 MaxDP=2.69D-07 DE=-1.82D-11 OVMax= 3.76D-07

 Error on total polarization charges =  0.01767
 SCF Done:  E(RB3LYP) =  -1096.83528109     A.U. after   13 cycles
            NFock= 13  Conv=0.44D-08     -V/T= 2.0071
 KE= 1.089143439725D+03 PE=-5.000252502052D+03 EE= 1.589150090297D+03
 Leave Link  502 at Sun Jul 18 16:31:40 2021, MaxMem=   104857600 cpu:             256.4 elap:              64.1
 (Enter /prod/apps/gaussian/g16b1/l601.exe)
 Copying SCF densities to generalized density rwf, IOpCl= 0 IROHF=0.

 **********************************************************************

            Population analysis using the SCF Density.

 **********************************************************************

 Orbital symmetries:
       Occupied  (A) (A) (A) (A) (A) (A) (A) (A) (A) (A) (A) (A)
                 (A) (A) (A) (A) (A) (A) (A) (A) (A) (A) (A) (A)
                 (A) (A) (A) (A) (A) (A) (A) (A) (A) (A) (A) (A)
                 (A) (A) (A) (A) (A) (A) (A) (A) (A) (A) (A) (A)
                 (A) (A) (A) (A) (A) (A) (A) (A) (A) (A) (A) (A)
                 (A) (A) (A) (A)
       Virtual   (A) (A) (A) (A) (A) (A) (A) (A) (A) (A) (A) (A)
                 (A) (A) (A) (A) (A) (A) (A) (A) (A) (A) (A) (A)
                 (A) (A) (A) (A) (A) (A) (A) (A) (A) (A) (A) (A)
                 (A) (A) (A) (A) (A) (A) (A) (A) (A) (A) (A) (A)
                 (A) (A) (A) (A) (A) (A) (A) (A) (A) (A) (A) (A)
                 (A) (A) (A) (A) (A) (A) (A) (A) (A) (A) (A) (A)
                 (A) (A) (A) (A) (A) (A) (A) (A) (A) (A) (A) (A)
                 (A) (A) (A) (A) (A) (A) (A) (A) (A) (A) (A) (A)
                 (A) (A) (A) (A) (A) (A) (A) (A) (A) (A) (A) (A)
                 (A) (A) (A) (A) (A) (A) (A) (A) (A) (A) (A) (A)
                 (A) (A) (A) (A) (A) (A) (A) (A) (A) (A) (A) (A)
                 (A) (A) (A) (A) (A) (A) (A) (A) (A) (A) (A) (A)
                 (A) (A) (A) (A) (A) (A) (A) (A) (A) (A) (A) (A)
                 (A) (A) (A) (A) (A) (A) (A) (A) (A) (A) (A) (A)
                 (A) (A) (A) (A) (A) (A) (A) (A) (A) (A) (A) (A)
                 (A) (A) (A) (A) (A) (A) (A) (A) (A) (A) (A) (A)
                 (A) (A) (A) (A) (A) (A) (A) (A) (A) (A) (A) (A)
                 (A) (A) (A) (A) (A) (A) (A) (A) (A) (A) (A) (A)
                 (A) (A)
 The electronic state is 1-A.
 Alpha  occ. eigenvalues -- -101.56676 -19.17370 -14.44658 -10.31973 -10.26989
 Alpha  occ. eigenvalues --  -10.26950 -10.26395 -10.22925 -10.21995 -10.21992
 Alpha  occ. eigenvalues --  -10.21648 -10.21343 -10.20204 -10.19381 -10.19230
 Alpha  occ. eigenvalues --  -10.19057  -9.48392  -7.24785  -7.23815  -7.23771
 Alpha  occ. eigenvalues --   -1.05119  -1.01660  -0.91750  -0.86165  -0.83115
 Alpha  occ. eigenvalues --   -0.79195  -0.76678  -0.75435  -0.71417  -0.70796
 Alpha  occ. eigenvalues --   -0.68693  -0.64883  -0.62121  -0.60153  -0.59540
 Alpha  occ. eigenvalues --   -0.57289  -0.52995  -0.51089  -0.50650  -0.48531
 Alpha  occ. eigenvalues --   -0.47878  -0.46448  -0.45449  -0.44949  -0.44597
 Alpha  occ. eigenvalues --   -0.44082  -0.43540  -0.42176  -0.40973  -0.40523
 Alpha  occ. eigenvalues --   -0.39665  -0.39551  -0.38757  -0.38203  -0.37718
 Alpha  occ. eigenvalues --   -0.37297  -0.37018  -0.35351  -0.34795  -0.34246
 Alpha  occ. eigenvalues --   -0.32920  -0.28064  -0.27629  -0.25993
 Alpha virt. eigenvalues --   -0.08481  -0.02583  -0.00528   0.03500   0.05238
 Alpha virt. eigenvalues --    0.08864   0.09135   0.10259   0.10645   0.11381
 Alpha virt. eigenvalues --    0.12129   0.13665   0.13940   0.14461   0.14754
 Alpha virt. eigenvalues --    0.15515   0.15882   0.16095   0.16972   0.17236
 Alpha virt. eigenvalues --    0.17694   0.18386   0.19559   0.20451   0.20925
 Alpha virt. eigenvalues --    0.21331   0.21892   0.22122   0.22425   0.23442
 Alpha virt. eigenvalues --    0.24232   0.25694   0.26934   0.27467   0.30902
 Alpha virt. eigenvalues --    0.32999   0.34357   0.38731   0.40120   0.41571
 Alpha virt. eigenvalues --    0.42860   0.46719   0.47156   0.47949   0.48930
 Alpha virt. eigenvalues --    0.50068   0.51063   0.51439   0.52953   0.53019
 Alpha virt. eigenvalues --    0.53949   0.55007   0.55915   0.56547   0.57837
 Alpha virt. eigenvalues --    0.58808   0.59056   0.59900   0.60198   0.61127
 Alpha virt. eigenvalues --    0.61815   0.63625   0.64722   0.66374   0.66847
 Alpha virt. eigenvalues --    0.67499   0.69435   0.70759   0.72633   0.73639
 Alpha virt. eigenvalues --    0.75269   0.75467   0.77387   0.79616   0.80730
 Alpha virt. eigenvalues --    0.81645   0.82262   0.82753   0.83389   0.85058
 Alpha virt. eigenvalues --    0.85357   0.85922   0.86162   0.87118   0.88262
 Alpha virt. eigenvalues --    0.88358   0.88603   0.89489   0.89868   0.90269
 Alpha virt. eigenvalues --    0.90959   0.92093   0.92303   0.92628   0.94124
 Alpha virt. eigenvalues --    0.94635   0.96006   0.97136   0.97619   0.98221
 Alpha virt. eigenvalues --    0.99223   0.99506   1.01107   1.02704   1.03824
 Alpha virt. eigenvalues --    1.06069   1.07277   1.07970   1.08685   1.11270
 Alpha virt. eigenvalues --    1.11979   1.13727   1.15822   1.17656   1.18863
 Alpha virt. eigenvalues --    1.23651   1.26471   1.28713   1.33409   1.34395
 Alpha virt. eigenvalues --    1.35852   1.37142   1.39975   1.43444   1.44209
 Alpha virt. eigenvalues --    1.46591   1.47550   1.48461   1.51437   1.53628
 Alpha virt. eigenvalues --    1.55006   1.55915   1.58284   1.63174   1.65871
 Alpha virt. eigenvalues --    1.68963   1.70910   1.72352   1.75007   1.75412
 Alpha virt. eigenvalues --    1.77264   1.78042   1.79104   1.80073   1.82790
 Alpha virt. eigenvalues --    1.85990   1.86238   1.87547   1.90177   1.91910
 Alpha virt. eigenvalues --    1.92320   1.94228   1.96752   1.97920   2.00340
 Alpha virt. eigenvalues --    2.01831   2.03576   2.04626   2.06713   2.08239
 Alpha virt. eigenvalues --    2.11523   2.12359   2.12881   2.13563   2.15307
 Alpha virt. eigenvalues --    2.16304   2.18689   2.21801   2.23509   2.24328
 Alpha virt. eigenvalues --    2.24817   2.26266   2.27524   2.28406   2.29187
 Alpha virt. eigenvalues --    2.30330   2.30836   2.33691   2.38201   2.39757
 Alpha virt. eigenvalues --    2.42160   2.46572   2.49332   2.54250   2.56173
 Alpha virt. eigenvalues --    2.57163   2.58661   2.60229   2.64345   2.65385
 Alpha virt. eigenvalues --    2.67930   2.68433   2.70260   2.72844   2.75556
 Alpha virt. eigenvalues --    2.78518   2.81783   2.83869   2.92257   2.95237
 Alpha virt. eigenvalues --    3.10322   3.33890   3.91396   4.04074   4.08125
 Alpha virt. eigenvalues --    4.08820   4.11085   4.18974   4.19785   4.23673
 Alpha virt. eigenvalues --    4.28692   4.29560   4.31059   4.35668   4.41974
 Alpha virt. eigenvalues --    4.59338   4.63455   4.67866
          Condensed to atoms (all electrons):
               1          2          3          4          5          6
     1  C    5.131108   0.376238   0.374601   0.368738   0.352364  -0.056070
     2  H    0.376238   0.496750  -0.021736  -0.025414  -0.026184  -0.002974
     3  H    0.374601  -0.021736   0.512550  -0.033767  -0.028608  -0.006033
     4  H    0.368738  -0.025414  -0.033767   0.519611  -0.027370   0.004284
     5  C    0.352364  -0.026184  -0.028608  -0.027370   5.179869   0.209972
     6  N   -0.056070  -0.002974  -0.006033   0.004284   0.209972   6.906133
     7  C    0.004056  -0.000062   0.000134  -0.000109  -0.023581   0.224073
     8  C    0.000210  -0.000002  -0.000016   0.000009  -0.004155  -0.050229
     9  H    0.000083  -0.000002  -0.000001   0.000003   0.001577  -0.002544
    10  H   -0.000023  -0.000001   0.000000   0.000000  -0.001351  -0.002451
    11  H   -0.000001   0.000000   0.000000  -0.000000  -0.000078   0.003425
    12  C   -0.000236   0.000099  -0.000003   0.000002  -0.008924  -0.069227
    13  H   -0.000071   0.000032  -0.000006   0.000007  -0.002072  -0.002878
    14  H    0.000005  -0.000002   0.000000  -0.000000   0.000253   0.003784
    15  H   -0.000099   0.000074  -0.000001   0.000002  -0.000280  -0.005286
    16  C   -0.000256  -0.000002  -0.000008   0.000002   0.004435  -0.053051
    17  H   -0.000005   0.000000   0.000000   0.000000  -0.000003  -0.002869
    18  H   -0.000001  -0.000001   0.000001  -0.000000  -0.000085  -0.001881
    19  H    0.000004   0.000000   0.000000  -0.000000  -0.000120   0.004132
    20  H   -0.000696  -0.000341   0.003090  -0.000108  -0.025349   0.284656
    21  H   -0.026367  -0.004620   0.003664  -0.001196   0.366208  -0.057821
    22  C   -0.021904   0.002565  -0.003968  -0.000592   0.274646  -0.019263
    23  O    0.000078  -0.000025   0.001721  -0.000107  -0.081691  -0.000999
    24  C   -0.001047  -0.000035   0.000192   0.000218  -0.091498   0.001970
    25  C   -0.000214  -0.000066  -0.000011   0.000578  -0.004133   0.000090
    26  H    0.000127   0.000237  -0.000051   0.001592   0.003944   0.000053
    27  C    0.000093  -0.000004  -0.000000   0.000027  -0.000178  -0.000002
    28  Cl  -0.000003   0.000000  -0.000000  -0.000005   0.000006  -0.000000
    29  C   -0.000001   0.000000   0.000000   0.000001  -0.000008   0.000000
    30  H    0.000000  -0.000000  -0.000000  -0.000000   0.000000  -0.000000
    31  C    0.000003  -0.000000  -0.000000  -0.000001  -0.000078   0.000001
    32  H   -0.000000   0.000000  -0.000000  -0.000000   0.000001  -0.000000
    33  C   -0.000093   0.000002  -0.000001  -0.000008   0.007229  -0.000068
    34  H   -0.000006   0.000000  -0.000001  -0.000000   0.000628  -0.000005
    35  H   -0.000867   0.004215  -0.000240   0.000078  -0.025837   0.297571
               7          8          9         10         11         12
     1  C    0.004056   0.000210   0.000083  -0.000023  -0.000001  -0.000236
     2  H   -0.000062  -0.000002  -0.000002  -0.000001   0.000000   0.000099
     3  H    0.000134  -0.000016  -0.000001   0.000000   0.000000  -0.000003
     4  H   -0.000109   0.000009   0.000003   0.000000  -0.000000   0.000002
     5  C   -0.023581  -0.004155   0.001577  -0.001351  -0.000078  -0.008924
     6  N    0.224073  -0.050229  -0.002544  -0.002451   0.003425  -0.069227
     7  C    4.784967   0.382812  -0.021341  -0.033417  -0.024098   0.387673
     8  C    0.382812   5.174707   0.362265   0.363718   0.373341  -0.071798
     9  H   -0.021341   0.362265   0.529284  -0.031663  -0.019002  -0.003785
    10  H   -0.033417   0.363718  -0.031663   0.552597  -0.029273   0.006046
    11  H   -0.024098   0.373341  -0.019002  -0.029273   0.510704  -0.003624
    12  C    0.387673  -0.071798  -0.003785   0.006046  -0.003624   5.165159
    13  H   -0.027040  -0.005726   0.002485  -0.000006  -0.000043   0.368495
    14  H   -0.024443  -0.002172  -0.000110  -0.000000   0.001384   0.376557
    15  H   -0.036509   0.006723  -0.000010  -0.000282   0.000022   0.363140
    16  C    0.388227  -0.057226   0.003964  -0.004612  -0.004393  -0.058230
    17  H   -0.020812  -0.002868  -0.000046   0.002769  -0.000076   0.003973
    18  H   -0.029559   0.004640  -0.000135  -0.000051   0.000027  -0.004570
    19  H   -0.031069  -0.005764   0.000059  -0.000105   0.004193  -0.002849
    20  H   -0.016065  -0.001773  -0.000265   0.002839  -0.000044   0.004608
    21  H   -0.002308  -0.002377   0.000373   0.000108  -0.000046   0.007800
    22  C   -0.003222   0.004799   0.000952   0.001306   0.000133  -0.000158
    23  O   -0.000948   0.000294  -0.001788   0.001610   0.000071   0.000001
    24  C    0.000121  -0.003174   0.004683   0.000012   0.000003  -0.000092
    25  C    0.000011  -0.000032  -0.000012  -0.000008   0.000000  -0.000068
    26  H   -0.000008   0.000005  -0.000013  -0.000000   0.000000  -0.000009
    27  C   -0.000000   0.000007  -0.000039   0.000000  -0.000000  -0.000002
    28  Cl   0.000000  -0.000000   0.000001  -0.000000   0.000000   0.000000
    29  C   -0.000000   0.000005  -0.000029   0.000000   0.000000   0.000000
    30  H   -0.000000   0.000000  -0.000000   0.000000  -0.000000   0.000000
    31  C    0.000000  -0.000015   0.000020   0.000001   0.000000   0.000000
    32  H    0.000000  -0.000000  -0.000000  -0.000000  -0.000000  -0.000000
    33  C    0.000017  -0.001066   0.002838   0.000020   0.000002   0.000004
    34  H   -0.000004   0.000124   0.000084   0.000074   0.000001   0.000001
    35  H   -0.016574   0.003826  -0.000140  -0.000099  -0.000074  -0.002660
              13         14         15         16         17         18
     1  C   -0.000071   0.000005  -0.000099  -0.000256  -0.000005  -0.000001
     2  H    0.000032  -0.000002   0.000074  -0.000002   0.000000  -0.000001
     3  H   -0.000006   0.000000  -0.000001  -0.000008   0.000000   0.000001
     4  H    0.000007  -0.000000   0.000002   0.000002   0.000000  -0.000000
     5  C   -0.002072   0.000253  -0.000280   0.004435  -0.000003  -0.000085
     6  N   -0.002878   0.003784  -0.005286  -0.053051  -0.002869  -0.001881
     7  C   -0.027040  -0.024443  -0.036509   0.388227  -0.020812  -0.029559
     8  C   -0.005726  -0.002172   0.006723  -0.057226  -0.002868   0.004640
     9  H    0.002485  -0.000110  -0.000010   0.003964  -0.000046  -0.000135
    10  H   -0.000006  -0.000000  -0.000282  -0.004612   0.002769  -0.000051
    11  H   -0.000043   0.001384   0.000022  -0.004393  -0.000076   0.000027
    12  C    0.368495   0.376557   0.363140  -0.058230   0.003973  -0.004570
    13  H    0.523853  -0.024106  -0.028010   0.004727  -0.000126  -0.000007
    14  H   -0.024106   0.500629  -0.021113  -0.003252   0.000052   0.000021
    15  H   -0.028010  -0.021113   0.548532  -0.006301  -0.000116   0.004570
    16  C    0.004727  -0.003252  -0.006301   5.141297   0.370097   0.368707
    17  H   -0.000126   0.000052  -0.000116   0.370097   0.513596  -0.025835
    18  H   -0.000007   0.000021   0.004570   0.368707  -0.025835   0.529172
    19  H   -0.000101   0.002400  -0.000028   0.370322  -0.025031  -0.022286
    20  H   -0.000193  -0.000071  -0.000031  -0.003435   0.003180  -0.000270
    21  H    0.006308  -0.000248  -0.000304   0.000191   0.000000  -0.000007
    22  C    0.000244  -0.000004   0.000043  -0.000028  -0.000011  -0.000000
    23  O   -0.000005   0.000000  -0.000000  -0.000018  -0.000008   0.000000
    24  C   -0.000013  -0.000001  -0.000000  -0.000003  -0.000000   0.000000
    25  C    0.000146  -0.000000   0.000001  -0.000000   0.000000   0.000000
    26  H   -0.000004   0.000000   0.000001   0.000000  -0.000000   0.000000
    27  C    0.000003   0.000000  -0.000000  -0.000000   0.000000   0.000000
    28  Cl  -0.000001  -0.000000  -0.000000   0.000000   0.000000   0.000000
    29  C   -0.000000   0.000000  -0.000000   0.000000  -0.000000  -0.000000
    30  H   -0.000000   0.000000  -0.000000   0.000000   0.000000  -0.000000
    31  C    0.000000  -0.000000   0.000000  -0.000000   0.000000   0.000000
    32  H    0.000000  -0.000000   0.000000  -0.000000   0.000000   0.000000
    33  C   -0.000006  -0.000000  -0.000000  -0.000000   0.000000  -0.000000
    34  H   -0.000000  -0.000000  -0.000000   0.000000  -0.000000  -0.000000
    35  H   -0.000200  -0.000077   0.006467  -0.001669  -0.000185   0.002369
              19         20         21         22         23         24
     1  C    0.000004  -0.000696  -0.026367  -0.021904   0.000078  -0.001047
     2  H    0.000000  -0.000341  -0.004620   0.002565  -0.000025  -0.000035
     3  H    0.000000   0.003090   0.003664  -0.003968   0.001721   0.000192
     4  H   -0.000000  -0.000108  -0.001196  -0.000592  -0.000107   0.000218
     5  C   -0.000120  -0.025349   0.366208   0.274646  -0.081691  -0.091498
     6  N    0.004132   0.284656  -0.057821  -0.019263  -0.000999   0.001970
     7  C   -0.031069  -0.016065  -0.002308  -0.003222  -0.000948   0.000121
     8  C   -0.005764  -0.001773  -0.002377   0.004799   0.000294  -0.003174
     9  H    0.000059  -0.000265   0.000373   0.000952  -0.001788   0.004683
    10  H   -0.000105   0.002839   0.000108   0.001306   0.001610   0.000012
    11  H    0.004193  -0.000044  -0.000046   0.000133   0.000071   0.000003
    12  C   -0.002849   0.004608   0.007800  -0.000158   0.000001  -0.000092
    13  H   -0.000101  -0.000193   0.006308   0.000244  -0.000005  -0.000013
    14  H    0.002400  -0.000071  -0.000248  -0.000004   0.000000  -0.000001
    15  H   -0.000028  -0.000031  -0.000304   0.000043  -0.000000  -0.000000
    16  C    0.370322  -0.003435   0.000191  -0.000028  -0.000018  -0.000003
    17  H   -0.025031   0.003180   0.000000  -0.000011  -0.000008  -0.000000
    18  H   -0.022286  -0.000270  -0.000007  -0.000000   0.000000   0.000000
    19  H    0.524388  -0.000001   0.000002   0.000000   0.000000  -0.000000
    20  H   -0.000001   0.293623   0.005483  -0.003775   0.010107   0.000532
    21  H    0.000002   0.005483   0.532697  -0.038385   0.003327   0.004283
    22  C    0.000000  -0.003775  -0.038385   4.668340   0.501296   0.322150
    23  O    0.000000   0.010107   0.003327   0.501296   8.124762  -0.069117
    24  C   -0.000000   0.000532   0.004283   0.322150  -0.069117   4.882900
    25  C    0.000000  -0.000010   0.003999  -0.044188   0.002419   0.481825
    26  H    0.000000  -0.000004   0.000417  -0.009864   0.000005  -0.033847
    27  C   -0.000000   0.000000   0.000237   0.004377  -0.000034  -0.016363
    28  Cl   0.000000  -0.000000  -0.000007  -0.000081   0.000000   0.003917
    29  C   -0.000000   0.000000  -0.000007   0.000001  -0.000015  -0.037426
    30  H   -0.000000   0.000000  -0.000000   0.000005  -0.000000   0.000770
    31  C   -0.000000  -0.000000  -0.000023   0.006362   0.000558  -0.019353
    32  H    0.000000  -0.000000   0.000000  -0.000131   0.000003   0.003009
    33  C    0.000000  -0.000018  -0.000722  -0.040170  -0.000066   0.504371
    34  H    0.000000  -0.000006  -0.000062  -0.007690   0.008439  -0.049440
    35  H   -0.000087  -0.012056  -0.001832   0.002204  -0.000110  -0.000077
              25         26         27         28         29         30
     1  C   -0.000214   0.000127   0.000093  -0.000003  -0.000001   0.000000
     2  H   -0.000066   0.000237  -0.000004   0.000000   0.000000  -0.000000
     3  H   -0.000011  -0.000051  -0.000000  -0.000000   0.000000  -0.000000
     4  H    0.000578   0.001592   0.000027  -0.000005   0.000001  -0.000000
     5  C   -0.004133   0.003944  -0.000178   0.000006  -0.000008   0.000000
     6  N    0.000090   0.000053  -0.000002  -0.000000   0.000000  -0.000000
     7  C    0.000011  -0.000008  -0.000000   0.000000  -0.000000  -0.000000
     8  C   -0.000032   0.000005   0.000007  -0.000000   0.000005   0.000000
     9  H   -0.000012  -0.000013  -0.000039   0.000001  -0.000029  -0.000000
    10  H   -0.000008  -0.000000   0.000000  -0.000000   0.000000   0.000000
    11  H    0.000000   0.000000  -0.000000   0.000000   0.000000  -0.000000
    12  C   -0.000068  -0.000009  -0.000002   0.000000   0.000000   0.000000
    13  H    0.000146  -0.000004   0.000003  -0.000001  -0.000000  -0.000000
    14  H   -0.000000   0.000000   0.000000  -0.000000   0.000000   0.000000
    15  H    0.000001   0.000001  -0.000000  -0.000000  -0.000000  -0.000000
    16  C   -0.000000   0.000000  -0.000000   0.000000   0.000000   0.000000
    17  H    0.000000  -0.000000   0.000000   0.000000  -0.000000   0.000000
    18  H    0.000000   0.000000   0.000000   0.000000  -0.000000  -0.000000
    19  H    0.000000   0.000000  -0.000000   0.000000  -0.000000  -0.000000
[...]
    19  H    0.004291   0.000788   0.000171   0.000587   0.040478   0.006313
    20  H    0.009434   0.005075   0.003880   0.004733   0.009448   0.064994
    21  H   -0.428555  -0.100524   0.066338  -0.046809   0.663683   0.100435
    22  C    1.287127   0.219455  -0.323810   0.287585  -9.910317   1.099461
    23  O   -0.083297  -0.006343   0.028593  -0.018755   0.923001  -0.126202
    24  C   -0.016329   0.003784   0.042946  -0.137102   2.001207   0.078256
    25  C   -0.112618  -0.019508   0.004601   0.140519  -1.583205   0.108657
    26  H    0.106226   0.006988   0.006237  -0.046892  -0.037396  -0.001398
    27  C   -0.021190  -0.002296   0.014325  -0.049826   0.197658   0.010474
    28  Cl  -0.005336   0.000084  -0.000532   0.003192   0.006454  -0.000066
    29  C   -0.098528  -0.010485   0.001979  -0.015402  -0.069910   0.013246
    30  H    0.000571   0.000215   0.000293  -0.000063  -0.004224  -0.000287
    31  C    0.100037   0.007770  -0.006372   0.023247   0.006109  -0.053969
    32  H    0.000819  -0.000066  -0.000128  -0.000647   0.001828  -0.000048
    33  C   -0.044865   0.010154  -0.022522   0.005961  -1.292048  -0.096711
    34  H    0.002682   0.000690  -0.001853   0.005803  -0.034267  -0.011340
    35  H    0.005768   0.022265  -0.023865   0.006041  -0.359566   0.437636
               7          8          9         10         11         12
     1  C   -0.105343  -0.028334   0.005023   0.008616  -0.002921   0.057348
     2  H    0.018252  -0.005994   0.003871   0.001633  -0.000514   0.049139
     3  H   -0.023482   0.001158  -0.001616  -0.000523   0.000722  -0.003315
     4  H   -0.012222   0.006455   0.001614  -0.000225  -0.000146  -0.016768
     5  C   -0.501659   0.153370  -0.218035   0.109546   0.061199   0.023700
     6  N   -1.501123  -0.047602   0.014607  -0.216323   0.089477  -0.228571
     7  C   12.231367  -0.110504   0.081062   0.249948  -0.225776  -0.182058
     8  C   -0.110504   4.545520   0.226014   0.106469   0.242041  -0.143672
     9  H    0.081062   0.226014   1.363295  -0.202665  -0.384679   0.006345
    10  H    0.249948   0.106469  -0.202665   1.356756  -0.348870   0.018996
    11  H   -0.225776   0.242041  -0.384679  -0.348870   1.580887  -0.016766
    12  C   -0.182058  -0.143672   0.006345   0.018996  -0.016766   4.648662
    13  H    0.066562   0.007383   0.011881   0.008412  -0.003182   0.272428
    14  H   -0.060179  -0.062857  -0.015337   0.008817  -0.028674   0.295676
    15  H    0.148374   0.012639   0.009466  -0.006878   0.009207   0.121477
    16  C   -0.567546  -0.107331  -0.012872  -0.077787   0.056522  -0.096995
    17  H    0.225009  -0.043467   0.011244  -0.018321  -0.007326  -0.007824
    18  H    0.214300  -0.002971  -0.017545   0.014001   0.014313  -0.043387
    19  H   -0.165044   0.011042   0.018255  -0.008037  -0.021964   0.035265
    20  H   -0.065279   0.030652  -0.004641   0.029265   0.006900   0.039934
    21  H    0.213036   0.030592  -0.066557  -0.011356   0.016228  -0.156913
    22  C   -0.600906  -0.086740   0.111895  -0.102413   0.029716  -0.008145
    23  O    0.036380   0.007796   0.000223   0.025772  -0.004391   0.014391
    24  C    0.230889  -0.014161  -0.064586   0.037421  -0.000151   0.008530
    25  C    0.107012  -0.043165   0.079116  -0.002318  -0.011970  -0.039757
    26  H   -0.010473   0.017850  -0.002100   0.008239  -0.003204   0.000914
    27  C    0.038450   0.015561  -0.029406   0.009344   0.002216   0.002083
    28  Cl   0.000488  -0.000884   0.001842  -0.000154  -0.000148   0.000041
    29  C    0.016544  -0.003372  -0.007401  -0.000494   0.000082  -0.002815
    30  H    0.000052   0.000122   0.000071   0.000068   0.000007   0.000023
    31  C   -0.043507  -0.003941   0.013936   0.000391  -0.001846   0.003941
    32  H   -0.000446   0.000150  -0.000663   0.000223   0.000012  -0.000052
    33  C   -0.101239  -0.019076  -0.004624  -0.013241   0.001968   0.016880
    34  H   -0.004536  -0.000938   0.005030  -0.002214  -0.000050   0.000190
    35  H   -0.076404  -0.002525   0.009002  -0.000504  -0.006771   0.014138
              13         14         15         16         17         18
     1  C    0.068251   0.015581  -0.062277   0.037096  -0.003446  -0.003168
     2  H    0.015105  -0.000077  -0.003181   0.004859  -0.000254   0.001003
     3  H    0.003808  -0.000701   0.000643   0.008330   0.001305   0.000212
     4  H    0.002909   0.000044  -0.004192   0.005632  -0.000663   0.000229
     5  C   -0.234523  -0.037647   0.194505  -0.478099  -0.082303   0.050450
     6  N   -0.124460   0.124416  -0.145301   0.366451  -0.051775  -0.069191
     7  C    0.066562  -0.060179   0.148374  -0.567546   0.225009   0.214300
     8  C    0.007383  -0.062857   0.012639  -0.107331  -0.043467  -0.002971
     9  H    0.011881  -0.015337   0.009466  -0.012872   0.011244  -0.017545
    10  H    0.008412   0.008817  -0.006878  -0.077787  -0.018321   0.014001
    11  H   -0.003182  -0.028674   0.009207   0.056522  -0.007326   0.014313
    12  C    0.272428   0.295676   0.121477  -0.096995  -0.007824  -0.043387
    13  H    1.358963  -0.337961  -0.219956   0.002771  -0.014711   0.015706
    14  H   -0.337961   1.348468  -0.303263   0.030173   0.011747  -0.017626
    15  H   -0.219956  -0.303263   1.296299  -0.051976   0.013964  -0.026955
    16  C    0.002771   0.030173  -0.051976   4.742112   0.215851   0.173334
    17  H   -0.014711   0.011747   0.013964   0.215851   1.228931  -0.290969
    18  H    0.015706  -0.017626  -0.026955   0.173334  -0.290969   1.264038
    19  H    0.017568  -0.019528  -0.005090   0.216718  -0.228288  -0.241319
    20  H    0.024294  -0.010239   0.004833  -0.013271   0.001277  -0.006952
    21  H   -0.200371   0.065452   0.011154  -0.009708   0.002949  -0.003852
    22  C    0.268365  -0.034906  -0.037650   0.316039   0.056958  -0.000743
    23  O   -0.005377   0.000596   0.001919  -0.021530  -0.003733  -0.002565
    24  C   -0.062206   0.008283   0.004658  -0.040754  -0.005160  -0.002134
    25  C    0.054641  -0.011727   0.003214   0.004787  -0.001364   0.002492
    26  H    0.000535  -0.003786   0.001675  -0.000189   0.000094   0.000458
    27  C   -0.020078   0.001504   0.002482  -0.007247  -0.000917   0.000715
    28  Cl   0.002024  -0.000065  -0.000060   0.000093   0.000011  -0.000004
    29  C   -0.003080  -0.000473   0.000673  -0.000871   0.000135  -0.000110
    30  H    0.000250  -0.000022  -0.000001  -0.000004  -0.000001   0.000004
    31  C    0.000361   0.000416  -0.000638   0.004464   0.000159   0.000089
    32  H   -0.000159   0.000013  -0.000002  -0.000008  -0.000009   0.000001
    33  C    0.032829  -0.002754  -0.002104   0.014373   0.003177  -0.001265
    34  H    0.000982  -0.000199   0.000019   0.000423   0.000288  -0.000014
    35  H   -0.007944   0.009910   0.011742   0.008953  -0.004660  -0.016806
              19         20         21         22         23         24
     1  C    0.004291   0.009434  -0.428555   1.287127  -0.083297  -0.016329
     2  H    0.000788   0.005075  -0.100524   0.219455  -0.006343   0.003784
     3  H    0.000171   0.003880   0.066338  -0.323810   0.028593   0.042946
     4  H    0.000587   0.004733  -0.046809   0.287585  -0.018755  -0.137102
     5  C    0.040478   0.009448   0.663683  -9.910317   0.923001   2.001207
     6  N    0.006313   0.064994   0.100435   1.099461  -0.126202   0.078256
     7  C   -0.165044  -0.065279   0.213036  -0.600906   0.036380   0.230889
     8  C    0.011042   0.030652   0.030592  -0.086740   0.007796  -0.014161
     9  H    0.018255  -0.004641  -0.066557   0.111895   0.000223  -0.064586
    10  H   -0.008037   0.029265  -0.011356  -0.102413   0.025772   0.037421
    11  H   -0.021964   0.006900   0.016228   0.029716  -0.004391  -0.000151
    12  C    0.035265   0.039934  -0.156913  -0.008145   0.014391   0.008530
    13  H    0.017568   0.024294  -0.200371   0.268365  -0.005377  -0.062206
    14  H   -0.019528  -0.010239   0.065452  -0.034906   0.000596   0.008283
    15  H   -0.005090   0.004833   0.011154  -0.037650   0.001919   0.004658
    16  C    0.216718  -0.013271  -0.009708   0.316039  -0.021530  -0.040754
    17  H   -0.228288   0.001277   0.002949   0.056958  -0.003733  -0.005160
    18  H   -0.241319  -0.006952  -0.003852  -0.000743  -0.002565  -0.002134
    19  H    1.271761   0.007166  -0.007497  -0.003726   0.000586  -0.001254
    20  H    0.007166   0.708534  -0.032396  -0.101501   0.067162   0.031852
    21  H   -0.007497  -0.032396   2.445242  -0.769799   0.019411   0.118701
    22  C   -0.003726  -0.101501  -0.769799  19.864636  -0.593834  -3.934433
    23  O    0.000586   0.067162   0.019411  -0.593834   9.199687   0.109187
    24  C   -0.001254   0.031852   0.118701  -3.934433   0.109187  20.423274
    25  C    0.000452   0.009850  -0.185968  -0.424179  -0.119652  -6.134602
    26  H   -0.000238   0.001261  -0.066091  -0.184774   0.016908   0.298129
    27  C   -0.000729   0.001416   0.099834   0.165522   0.013606   0.960796
    28  Cl   0.000011  -0.000050  -0.032424  -0.038730   0.000178  -0.336769
    29  C    0.000015  -0.004587   0.046114  -0.240754  -0.002241  -4.166262
    30  H    0.000002   0.000026  -0.004162   0.012030   0.000160   0.138823
    31  C    0.000254   0.012561  -0.015394   0.256741  -0.122057   1.136894
    32  H   -0.000004  -0.000237   0.003397   0.011087   0.001630  -0.062454
    33  C    0.001465  -0.002881  -0.293030  -1.426427  -0.258507  -6.920102
    34  H    0.000035   0.001114  -0.007732   0.362267  -0.087263   0.290943
    35  H    0.007433  -0.087999  -0.037118   0.246100  -0.018884  -0.041193
              25         26         27         28         29         30
     1  C   -0.112618   0.106226  -0.021190  -0.005336  -0.098528   0.000571
     2  H   -0.019508   0.006988  -0.002296   0.000084  -0.010485   0.000215
     3  H    0.004601   0.006237   0.014325  -0.000532   0.001979   0.000293
     4  H    0.140519  -0.046892  -0.049826   0.003192  -0.015402  -0.000063
     5  C   -1.583205  -0.037396   0.197658   0.006454  -0.069910  -0.004224
     6  N    0.108657  -0.001398   0.010474  -0.000066   0.013246  -0.000287
     7  C    0.107012  -0.010473   0.038450   0.000488   0.016544   0.000052
     8  C   -0.043165   0.017850   0.015561  -0.000884  -0.003372   0.000122
     9  H    0.079116  -0.002100  -0.029406   0.001842  -0.007401   0.000071
    10  H   -0.002318   0.008239   0.009344  -0.000154  -0.000494   0.000068
    11  H   -0.011970  -0.003204   0.002216  -0.000148   0.000082   0.000007
    12  C   -0.039757   0.000914   0.002083   0.000041  -0.002815   0.000023
    13  H    0.054641   0.000535  -0.020078   0.002024  -0.003080   0.000250
    14  H   -0.011727  -0.003786   0.001504  -0.000065  -0.000473  -0.000022
    15  H    0.003214   0.001675   0.002482  -0.000060   0.000673  -0.000001
    16  C    0.004787  -0.000189  -0.007247   0.000093  -0.000871  -0.000004
    17  H   -0.001364   0.000094  -0.000917   0.000011   0.000135  -0.000001
    18  H    0.002492   0.000458   0.000715  -0.000004  -0.000110   0.000004
    19  H    0.000452  -0.000238  -0.000729   0.000011   0.000015   0.000002
    20  H    0.009850   0.001261   0.001416  -0.000050  -0.004587   0.000026
    21  H   -0.185968  -0.066091   0.099834  -0.032424   0.046114  -0.004162
    22  C   -0.424179  -0.184774   0.165522  -0.038730  -0.240754   0.012030
    23  O   -0.119652   0.016908   0.013606   0.000178  -0.002241   0.000160
    24  C   -6.134602   0.298129   0.960796  -0.336769  -4.166262   0.138823
    25  C   19.838161  -1.580086  -3.720083   0.325244   0.633564   0.080272
    26  H   -1.580086   2.854435   0.542953  -0.067953   0.243932  -0.014639
    27  C   -3.720083   0.542953  12.852348  -0.155276  -2.785359   0.864182
    28  Cl   0.325244  -0.067953  -0.155276  17.566622   0.153940  -0.075254
    29  C    0.633564   0.243932  -2.785359   0.153940  12.182525  -1.049358
    30  H    0.080272  -0.014639   0.864182  -0.075254  -1.049358   1.703547
    31  C   -2.728472  -0.022032   1.509715  -0.255135  -2.710298   0.212188
    32  H    0.116390   0.006923  -0.485705   0.002344   0.296552  -0.099021
    33  C   -0.003061  -0.266963  -3.065261   0.241890   2.944388  -0.343998
    34  H   -0.184784  -0.030523   0.061830   0.003789  -0.070464  -0.014474
    35  H    0.009679  -0.002561  -0.011590   0.000249   0.002246  -0.000080
              31         32         33         34         35
     1  C    0.100037   0.000819  -0.044865   0.002682   0.005768
     2  H    0.007770  -0.000066   0.010154   0.000690   0.022265
     3  H   -0.006372  -0.000128  -0.022522  -0.001853  -0.023865
     4  H    0.023247  -0.000647   0.005961   0.005803   0.006041
     5  C    0.006109   0.001828  -1.292048  -0.034267  -0.359566
     6  N   -0.053969  -0.000048  -0.096711  -0.011340   0.437636
     7  C   -0.043507  -0.000446  -0.101239  -0.004536  -0.076404
     8  C   -0.003941   0.000150  -0.019076  -0.000938  -0.002525
     9  H    0.013936  -0.000663  -0.004624   0.005030   0.009002
    10  H    0.000391   0.000223  -0.013241  -0.002214  -0.000504
    11  H   -0.001846   0.000012   0.001968  -0.000050  -0.006771
    12  C    0.003941  -0.000052   0.016880   0.000190   0.014138
    13  H    0.000361  -0.000159   0.032829   0.000982  -0.007944
    14  H    0.000416   0.000013  -0.002754  -0.000199   0.009910
    15  H   -0.000638  -0.000002  -0.002104   0.000019   0.011742
    16  C    0.004464  -0.000008   0.014373   0.000423   0.008953
    17  H    0.000159  -0.000009   0.003177   0.000288  -0.004660
    18  H    0.000089   0.000001  -0.001265  -0.000014  -0.016806
    19  H    0.000254  -0.000004   0.001465   0.000035   0.007433
    20  H    0.012561  -0.000237  -0.002881   0.001114  -0.087999
    21  H   -0.015394   0.003397  -0.293030  -0.007732  -0.037118
    22  C    0.256741   0.011087  -1.426427   0.362267   0.246100
    23  O   -0.122057   0.001630  -0.258507  -0.087263  -0.018884
    24  C    1.136894  -0.062454  -6.920102   0.290943  -0.041193
    25  C   -2.728472   0.116390  -0.003061  -0.184784   0.009679
    26  H   -0.022032   0.006923  -0.266963  -0.030523  -0.002561
    27  C    1.509715  -0.485705  -3.065261   0.061830  -0.011590
    28  Cl  -0.255135   0.002344   0.241890   0.003789   0.000249
    29  C   -2.710298   0.296552   2.944388  -0.070464   0.002246
    30  H    0.212188  -0.099021  -0.343998  -0.014474  -0.000080
    31  C   12.897724  -1.043106  -4.483864   0.787168  -0.002874
    32  H   -1.043106   1.700070   1.076984  -0.089933   0.000016
    33  C   -4.483864   1.076984  21.676730  -1.368928   0.013009
    34  H    0.787168  -0.089933  -1.368928   2.032983   0.000254
    35  H   -0.002874   0.000016   0.013009   0.000254   0.678920
 Mulliken charges:
               1
     1  C    1.024312
     2  H   -0.068783
     3  H    0.009819
     4  H   -0.053090
     5  C   -0.212741
     6  N   -0.507799
     7  C   -3.520003
     8  C    1.312720
     9  H    0.058937
    10  H    0.018404
    11  H   -0.042147
    12  C    1.316937
    13  H   -0.002020
    14  H    0.026925
    15  H    0.020582
    16  C    1.277208
    17  H   -0.007904
    18  H   -0.003769
    19  H    0.062059
    20  H    0.254373
    21  H   -0.426312
    22  C    0.228801
    23  O   -0.992558
    24  C    2.015080
    25  C    1.387868
    26  H   -0.772459
    27  C   -1.012050
    28  Cl  -0.339657
    29  C    0.706326
    30  H   -0.407317
    31  C    0.519342
    32  H   -0.435752
    33  C   -0.006339
    34  H   -0.646976
    35  H    0.217984
 Sum of Mulliken charges =   1.00000
 Mulliken charges with hydrogens summed into heavy atoms:
               1
     1  C    0.912258
     5  C   -0.639053
     6  N   -0.035442
     7  C   -3.520003
     8  C    1.347914
    12  C    1.362423
    16  C    1.327594
    22  C    0.228801
    23  O   -0.992558
    24  C    2.015080
    25  C    0.615409
    27  C   -1.012050
    28  Cl  -0.339657
    29  C    0.299009
    31  C    0.083589
    33  C   -0.653315
 Electronic spatial extent (au):  <R**2>=           5343.8082
 Charge=              1.0000 electrons
 Dipole moment (field-independent basis, Debye):
    X=             -8.3004    Y=             -0.4343    Z=              1.7761  Tot=              8.4994
 Quadrupole moment (field-independent basis, Debye-Ang):
   XX=            -48.1389   YY=            -98.4488   ZZ=            -94.6485
   XY=             13.1179   XZ=             -4.0562   YZ=             -0.4607
 Traceless Quadrupole moment (field-independent basis, Debye-Ang):
   XX=             32.2732   YY=            -18.0368   ZZ=            -14.2364
   XY=             13.1179   XZ=             -4.0562   YZ=             -0.4607
 Octapole moment (field-independent basis, Debye-Ang**2):
  XXX=            -99.5254  YYY=             -4.0023  ZZZ=             15.0960  XYY=              3.5887
  XXY=             21.8208  XXZ=            -17.6580  XZZ=            -37.2205  YZZ=             -4.6224
  YYZ=             -3.1934  XYZ=            -10.7597
 Hexadecapole moment (field-independent basis, Debye-Ang**3):
 XXXX=          -4283.3593 YYYY=          -1160.2031 ZZZZ=           -580.4053 XXXY=            133.6943
 XXXZ=            -39.7945 YYYX=             35.2694 YYYZ=             -7.8719 ZZZX=             -0.7837
 ZZZY=              8.4790 XXYY=           -969.7306 XXZZ=           -922.1027 YYZZ=           -306.5674
 XXYZ=             -3.6964 YYXZ=             -7.9561 ZZXY=             -4.9972
 N-N= 1.218756550816D+03 E-N=-4.988147249644D+03  KE= 1.091235150901D+03
 Leave Link  601 at Sun Jul 18 18:15:29 2021, MaxMem=   262144000 cpu:               0.8 elap:               0.3
 (Enter /prod/apps/gaussian/g16b1/l9999.exe)
 1\1\GINC-PIRINEUS22\SP\RMP2-FC\Aug-CC-pVDZ\C13H19Cl1N1O1(1+)\UBATOR02\
 18-Jul-2021\0\\#p mp2/aug-cc-pVDZ scf=tight maxdisk=180GB geom=allchec
 k\\SET_328_BBB6_conf1.geo_330_225_075 geometry\\1,1\C,0,-0.8163563474,
 -0.8606486201,2.080750499\H,0,-0.5711936038,-0.2963894074,2.9831520736
 \H,0,-0.5863010872,-1.9157804457,2.2460518627\H,0,-1.8883609018,-0.767
 4085497,1.8997829102\C,0,-0.0250908616,-0.3084218163,0.8864174834\N,0,
 1.4546311328,-0.4458746505,1.1270872247\C,0,2.3517260179,0.7696618608,
 0.8414474827\C,0,2.14763066,1.1965414821,-0.6113817778\H,0,1.126192644
 4,1.535202928,-0.7988451112\H,0,2.3830762349,0.3870926906,-1.304861044
 3\H,0,2.8141289884,2.0338098606,-0.8295137342\C,0,1.9761585587,1.88439
 02544,1.8192009429\H,0,0.9495162339,2.2325992856,1.6767085438\H,0,2.63
 78652266,2.7367399515,1.6511321134\H,0,2.0953085475,1.561617652,2.8569
 463152\C,0,3.7870694688,0.292345808,1.0801158054\H,0,4.0588101447,-0.5
 190978822,0.3994772306\H,0,3.9276846007,-0.0495385894,2.1090919876\H,0
 ,4.473174551,1.1240865979,0.9047284835\H,0,1.7709982737,-1.2403618973,
 0.5396420226\H,0,-0.2359703871,0.7516442878,0.7566663936\C,0,-0.356977
 7323,-1.0847832328,-0.4022657087\O,0,0.4474849101,-1.9103554673,-0.817
 5974925\C,0,-1.6528084833,-0.8494057273,-1.0851429668\C,0,-2.479901604
 1,0.2392262653,-0.7695508901\H,0,-2.207672188,0.9587973698,-0.00847967
 64\C,0,-3.6708239037,0.4053406847,-1.467519151\Cl,0,-4.7041973816,1.77
 50911334,-1.0814783739\C,0,-4.0625352097,-0.4847939415,-2.465739577\H,
 0,-4.9970327854,-0.3334821449,-2.9921843402\C,0,-3.2345443189,-1.56628
 27886,-2.7742301538\H,0,-3.5337895293,-2.2625336194,-3.549600871\C,0,-
 2.0353798086,-1.7482142026,-2.0942725561\H,0,-1.3812013736,-2.57990722
 18,-2.3246376607\H,0,1.6216813131,-0.7379079076,2.1019017109\\Version=
 ES64L-G16RevB.01\State=1-A\HF=-1092.0488109\MP2=-1094.4093382\RMSD=6.7
 28e-09\PG=C01 [X(C13H19Cl1N1O1)]\\@


 YOU CAN WIPE THE SLATE CLEAN, BUT YOU'LL STILL
 HAVE TO EAT A LITTLE CHALK DUST.
 Job cpu time:       0 days  1 hours 47 minutes 45.0 seconds.
 Elapsed time:       0 days  0 hours 29 minutes  4.0 seconds.
 File lengths (MBytes):  RWF=  74988 Int=      0 D2E=      0 Chk=     24 Scr=      1
 Normal termination of Gaussian 16 at Sun Jul 18 18:15:31 2021.
