 Entering Gaussian System, Link 0=g16
 Initial command:
 /prod/apps/gaussian/g16b1/l1.exe "/tmp/ubator02/1839494/Gau-221205.inp" -scrdir="/tmp/ubator02/1839494/"
 Entering Link 1 = /prod/apps/gaussian/g16b1/l1.exe PID=    221206.
  
 Copyright (c) 1988-2017, Gaussian, Inc.  All Rights Reserved.
  
 This is part of the Gaussian(R) 16 program.  It is based on
 the Gaussian(R) 09 system (copyright 2009, Gaussian, Inc.),
 the Gaussian(R) 03 system (copyright 2003, Gaussian, Inc.),
 the Gaussian(R) 98 system (copyright 1998, Gaussian, Inc.),
 the Gaussian(R) 94 system (copyright 1995, Gaussian, Inc.),
 the Gaussian 92(TM) system (copyright 1992, Gaussian, Inc.),
 the Gaussian 90(TM) system (copyright 1990, Gaussian, Inc.),
 the Gaussian 88(TM) system (copyright 1988, Gaussian, Inc.),
 the Gaussian 86(TM) system (copyright 1986, Carnegie Mellon
 University), and the Gaussian 82(TM) system (copyright 1983,
 Carnegie Mellon University). Gaussian is a federally registered
 trademark of Gaussian, Inc.
  
 This software contains proprietary and confidential information,
 including trade secrets, belonging to Gaussian, Inc.
  
 This software is provided under written license and may be
 used, copied, transmitted, or stored only in accord with that
 written license.
  
 The following legend is applicable only to US Government
 contracts under FAR:
  
                    RESTRICTED RIGHTS LEGEND
  
 Use, reproduction and disclosure by the US Government is
 subject to restrictions as set forth in subparagraphs (a)
 and (c) of the Commercial Computer Software - Restricted
 Rights clause in FAR 52.227-19.
  
 Gaussian, Inc.
 340 Quinnipiac St., Bldg. 40, Wallingford CT 06492
  
  
 ---------------------------------------------------------------
 Warning -- This program may not be used in any manner that
 competes with the business of Gaussian, Inc. or will provide
 assistance to any competitor of Gaussian, Inc.  The licensee
 of this program is prohibited from giving any competitor of
 Gaussian, Inc. access to this program.  By using this program,
 the user acknowledges that Gaussian, Inc. is engaged in the
 business of creating and licensing software in the field of
 computational chemistry and represents and warrants to the
 licensee that it is not a competitor of Gaussian, Inc. and that
 it will not use this program in any manner prohibited above.
 ---------------------------------------------------------------
  

 Cite this work as:
 Gaussian 16, Revision B.01,
 M. J. Frisch, G. W. Trucks, H. B. Schlegel, G. E. Scuseria, 
 M. A. Robb, J. R. Cheeseman, G. Scalmani, V. Barone, 
 G. A. Petersson, H. Nakatsuji, X. Li, M. Caricato, A. V. Marenich, 
 J. Bloino, B. G. Janesko, R. Gomperts, B. Mennucci, H. P. Hratchian, 
 J. V. Ortiz, A. F. Izmaylov, J. L. Sonnenberg, D. Williams-Young, 
 F. Ding, F. Lipparini, F. Egidi, J. Goings, B. Peng, A. Petrone, 
 T. Henderson, D. Ranasinghe, V. G. Zakrzewski, J. Gao, N. Rega, 
 G. Zheng, W. Liang, M. Hada, M. Ehara, K. Toyota, R. Fukuda, 
 J. Hasegawa, M. Ishida, T. Nakajima, Y. Honda, O. Kitao, H. Nakai, 
 T. Vreven, K. Throssell, J. A. Montgomery, Jr., J. E. Peralta, 
 F. Ogliaro, M. J. Bearpark, J. J. Heyd, E. N. Brothers, K. N. Kudin, 
 V. N. Staroverov, T. A. Keith, R. Kobayashi, J. Normand, 
 K. Raghavachari, A. P. Rendell, J. C. Burant, S. S. Iyengar, 
 J. Tomasi, M. Cossi, J. M. Millam, M. Klene, C. Adamo, R. Cammi, 
 J. W. Ochterski, R. L. Martin, K. Morokuma, O. Farkas, 
 J. B. Foresman, and D. J. Fox, Gaussian, Inc., Wallingford CT, 2016.
 
 ******************************************
 Gaussian 16:  ES64L-G16RevB.01 20-Dec-2017
                18-Jul-2021 
 ******************************************
 %mem=800MB
 %nproc=4
 Will use up to    4 processors via shared memory.
 %chk=SET_328_BBB20_conf1.geo_120_180_300.chk
 -----------------------------------------------------------
 #p b3lyp/6-31G(d) opt freq scrf=(iefpcm,read,solvent=water)
 -----------------------------------------------------------
 1/18=20,19=15,26=3,38=1,40=2/1,3;
 2/9=110,12=2,17=6,18=5,40=1/2;
 3/5=1,6=6,7=1,11=2,25=1,30=1,70=2203,71=1,72=1,74=-5/1,2,3;
 4//1;
 5/5=2,38=5,53=1/2;
 6/7=2,8=2,9=2,10=2,28=1/1;
 7//1,2,3,16;
 1/18=20,19=15,26=3/3(2);
 2/9=110/2;
 99//99;
 2/9=110/2;
 3/5=1,6=6,7=1,11=2,25=1,30=1,70=2205,71=1,72=1,74=-5/1,2,3;
 4/5=5,16=3,69=1/1;
 5/5=2,38=5,53=1/2;
 7//1,2,3,16;
 1/18=20,19=15,26=3/3(-5);
 2/9=110/2;
 6/7=2,8=2,9=2,10=2,19=2,28=1/1;
 99/9=1/99;
 Leave Link    1 at Sun Jul 18 13:28:51 2021, MaxMem=   104857600 cpu:               0.1 elap:               0.0
 (Enter /prod/apps/gaussian/g16b1/l101.exe)
 --------------------------------------------
 SET_328_BBB20_conf1.geo_120_180_300 geometry
 --------------------------------------------
 Symbolic Z-matrix:
 Charge =  1 Multiplicity = 1
 N                     1.99      2.691     3.131 
 H                     1.134     2.555     3.63 
 H                     2.516     3.422     3.565 
 C                     1.686     3.07      1.705 
 H                     2.606     3.163     1.123 
 H                     1.157     4.027     1.698 
 C                     0.761     2.102     0.948 
 H                     0.677     2.388    -0.102 
 H                    -0.278     2.07      1.284 
 C                     1.314     0.624     0.823 
 H                     1.514     0.116     1.77 
 H                     2.292     0.639     0.336 
 N                     0.355    -0.249     0.091 
 C                     0.867    -0.816    -1.031 
 C                     2.052    -1.504    -0.918 
 H                     2.612    -1.533     0.013 
 C                     2.535    -2.416    -1.865 
 H                     3.313    -3.162    -1.731 
 C                     1.757    -2.524    -3.04 
 H                     2.143    -3.127    -3.858 
 C                     0.586    -1.805    -3.25 
 H                    -0.005    -1.902    -4.157 
 C                     0.195    -0.917    -2.252 
 C                    -1.263    -0.432    -2.43 
 H                    -1.88     -1.264    -2.776 
 H                    -1.327     0.17     -3.338 
 C                    -1.865     0.506    -1.336 
 H                    -2.775     1.003    -1.676 
 H                    -1.112     1.295    -1.398 
 C                    -1.997    -0.113    -0.025 
 C                    -3.259    -0.374     0.468 
 H                    -4.144    -0.058    -0.079 
 C                    -3.35     -0.933     1.677 
 H                    -4.31     -1.037     2.176 
 C                    -2.186    -1.318     2.406 
 H                    -2.285    -1.66      3.433 
 C                    -0.959    -1.056     1.902 
 H                    -0.117    -1.332     2.531 
 C                    -0.847    -0.459     0.661 
 H                     2.522     1.844     3.145 
 
 ITRead=  0  0  0  0  0  0  0  0  0  0  0  0  0  0  0  0  0  0  0  0
 ITRead=  0  0  0  0  0  0  0  0  0  0  0  0  0  0  0  0  0  0  0  0
 MicOpt= -1 -1 -1 -1 -1 -1 -1 -1 -1 -1 -1 -1 -1 -1 -1 -1 -1 -1 -1 -1
 MicOpt= -1 -1 -1 -1 -1 -1 -1 -1 -1 -1 -1 -1 -1 -1 -1 -1 -1 -1 -1 -1
 NAtoms=     40 NQM=       40 NQMF=       0 NMMI=      0 NMMIF=      0
                NMic=       0 NMicF=      0.
                    Isotopes and Nuclear Properties:
 (Nuclear quadrupole moments (NQMom) in fm**2, nuclear magnetic moments (NMagM)
  in nuclear magnetons)

  Atom         1           2           3           4           5           6           7           8           9          10
 IAtWgt=          14           1           1          12           1           1          12           1           1          12
 AtmWgt=  14.0030740   1.0078250   1.0078250  12.0000000   1.0078250   1.0078250  12.0000000   1.0078250   1.0078250  12.0000000
 NucSpn=           2           1           1           0           1           1           0           1           1           0
 AtZEff=  -0.0000000  -0.0000000  -0.0000000  -0.0000000  -0.0000000  -0.0000000  -0.0000000  -0.0000000  -0.0000000  -0.0000000
 NQMom=    2.0440000   0.0000000   0.0000000   0.0000000   0.0000000   0.0000000   0.0000000   0.0000000   0.0000000   0.0000000
 NMagM=    0.4037610   2.7928460   2.7928460   0.0000000   2.7928460   2.7928460   0.0000000   2.7928460   2.7928460   0.0000000
 AtZNuc=   7.0000000   1.0000000   1.0000000   6.0000000   1.0000000   1.0000000   6.0000000   1.0000000   1.0000000   6.0000000

  Atom        11          12          13          14          15          16          17          18          19          20
 IAtWgt=           1           1          14          12          12           1          12           1          12           1
 AtmWgt=   1.0078250   1.0078250  14.0030740  12.0000000  12.0000000   1.0078250  12.0000000   1.0078250  12.0000000   1.0078250
 NucSpn=           1           1           2           0           0           1           0           1           0           1
 AtZEff=  -0.0000000  -0.0000000  -0.0000000  -0.0000000  -0.0000000  -0.0000000  -0.0000000  -0.0000000  -0.0000000  -0.0000000
 NQMom=    0.0000000   0.0000000   2.0440000   0.0000000   0.0000000   0.0000000   0.0000000   0.0000000   0.0000000   0.0000000
 NMagM=    2.7928460   2.7928460   0.4037610   0.0000000   0.0000000   2.7928460   0.0000000   2.7928460   0.0000000   2.7928460
 AtZNuc=   1.0000000   1.0000000   7.0000000   6.0000000   6.0000000   1.0000000   6.0000000   1.0000000   6.0000000   1.0000000

  Atom        21          22          23          24          25          26          27          28          29          30
 IAtWgt=          12           1          12          12           1           1          12           1           1          12
 AtmWgt=  12.0000000   1.0078250  12.0000000  12.0000000   1.0078250   1.0078250  12.0000000   1.0078250   1.0078250  12.0000000
 NucSpn=           0           1           0           0           1           1           0           1           1           0
 AtZEff=  -0.0000000  -0.0000000  -0.0000000  -0.0000000  -0.0000000  -0.0000000  -0.0000000  -0.0000000  -0.0000000  -0.0000000
 NQMom=    0.0000000   0.0000000   0.0000000   0.0000000   0.0000000   0.0000000   0.0000000   0.0000000   0.0000000   0.0000000
 NMagM=    0.0000000   2.7928460   0.0000000   0.0000000   2.7928460   2.7928460   0.0000000   2.7928460   2.7928460   0.0000000
 AtZNuc=   6.0000000   1.0000000   6.0000000   6.0000000   1.0000000   1.0000000   6.0000000   1.0000000   1.0000000   6.0000000

  Atom        31          32          33          34          35          36          37          38          39          40
 IAtWgt=          12           1          12           1          12           1          12           1          12           1
 AtmWgt=  12.0000000   1.0078250  12.0000000   1.0078250  12.0000000   1.0078250  12.0000000   1.0078250  12.0000000   1.0078250
 NucSpn=           0           1           0           1           0           1           0           1           0           1
 AtZEff=  -0.0000000  -0.0000000  -0.0000000  -0.0000000  -0.0000000  -0.0000000  -0.0000000  -0.0000000  -0.0000000  -0.0000000
 NQMom=    0.0000000   0.0000000   0.0000000   0.0000000   0.0000000   0.0000000   0.0000000   0.0000000   0.0000000   0.0000000
 NMagM=    0.0000000   2.7928460   0.0000000   2.7928460   0.0000000   2.7928460   0.0000000   2.7928460   0.0000000   2.7928460
 AtZNuc=   6.0000000   1.0000000   6.0000000   1.0000000   6.0000000   1.0000000   6.0000000   1.0000000   6.0000000   1.0000000
 Leave Link  101 at Sun Jul 18 13:28:51 2021, MaxMem=   104857600 cpu:               0.5 elap:               0.1
 (Enter /prod/apps/gaussian/g16b1/l103.exe)

 GradGradGradGradGradGradGradGradGradGradGradGradGradGradGradGradGradGrad
 Berny optimization.
 Initialization pass.
                           ----------------------------
                           !    Initial Parameters    !
                           ! (Angstroms and Degrees)  !
 --------------------------                            --------------------------
 ! Name  Definition              Value          Derivative Info.                !
 --------------------------------------------------------------------------------
 ! R1    R(1,2)                  1.0001         estimate D2E/DX2                !
 ! R2    R(1,3)                  0.9997         estimate D2E/DX2                !
 ! R3    R(1,4)                  1.5065         estimate D2E/DX2                !
 ! R4    R(1,40)                 1.0003         estimate D2E/DX2                !
 ! R5    R(4,5)                  1.0926         estimate D2E/DX2                !
 ! R6    R(4,6)                  1.0935         estimate D2E/DX2                !
 ! R7    R(4,7)                  1.5381         estimate D2E/DX2                !
 ! R8    R(7,8)                  1.0915         estimate D2E/DX2                !
 ! R9    R(7,9)                  1.0924         estimate D2E/DX2                !
 ! R10   R(7,10)                 1.583          estimate D2E/DX2                !
 ! R11   R(10,11)                1.0931         estimate D2E/DX2                !
 ! R12   R(10,12)                1.0926         estimate D2E/DX2                !
 ! R13   R(10,13)                1.4892         estimate D2E/DX2                !
 ! R14   R(13,14)                1.3574         estimate D2E/DX2                !
 ! R15   R(13,39)                1.3468         estimate D2E/DX2                !
 ! R16   R(14,15)                1.3749         estimate D2E/DX2                !
 ! R17   R(14,23)                1.3974         estimate D2E/DX2                !
 ! R18   R(15,16)                1.0868         estimate D2E/DX2                !
 ! R19   R(15,17)                1.4007         estimate D2E/DX2                !
 ! R20   R(17,18)                1.0862         estimate D2E/DX2                !
 ! R21   R(17,19)                1.4134         estimate D2E/DX2                !
 ! R22   R(19,20)                1.0871         estimate D2E/DX2                !
 ! R23   R(19,21)                1.3901         estimate D2E/DX2                !
 ! R24   R(21,22)                1.0869         estimate D2E/DX2                !
 ! R25   R(21,23)                1.3919         estimate D2E/DX2                !
 ! R26   R(23,24)                1.5468         estimate D2E/DX2                !
 ! R27   R(24,25)                1.0921         estimate D2E/DX2                !
 ! R28   R(24,26)                1.0913         estimate D2E/DX2                !
 ! R29   R(24,27)                1.5618         estimate D2E/DX2                !
 ! R30   R(27,28)                1.0912         estimate D2E/DX2                !
 ! R31   R(27,29)                1.0924         estimate D2E/DX2                !
 ! R32   R(27,30)                1.4558         estimate D2E/DX2                !
 ! R33   R(30,31)                1.3798         estimate D2E/DX2                !
 ! R34   R(30,39)                1.383          estimate D2E/DX2                !
 ! R35   R(31,32)                1.0873         estimate D2E/DX2                !
 ! R36   R(31,33)                1.3351         estimate D2E/DX2                !
 ! R37   R(33,34)                1.0869         estimate D2E/DX2                !
 ! R38   R(33,35)                1.4264         estimate D2E/DX2                !
 ! R39   R(35,36)                1.087          estimate D2E/DX2                !
 ! R40   R(35,37)                1.3521         estimate D2E/DX2                !
 ! R41   R(37,38)                1.0866         estimate D2E/DX2                !
 ! R42   R(37,39)                1.3817         estimate D2E/DX2                !
 ! A1    A(2,1,3)              109.4612         estimate D2E/DX2                !
 ! A2    A(2,1,4)              109.4982         estimate D2E/DX2                !
 ! A3    A(2,1,40)             109.4552         estimate D2E/DX2                !
 ! A4    A(3,1,4)              109.4602         estimate D2E/DX2                !
 ! A5    A(3,1,40)             109.4659         estimate D2E/DX2                !
 ! A6    A(4,1,40)             109.4866         estimate D2E/DX2                !
 ! A7    A(1,4,5)              110.837          estimate D2E/DX2                !
 ! A8    A(1,4,6)              108.8961         estimate D2E/DX2                !
 ! A9    A(1,4,7)              115.3977         estimate D2E/DX2                !
 ! A10   A(5,4,6)              109.235          estimate D2E/DX2                !
 ! A11   A(5,4,7)              107.3253         estimate D2E/DX2                !
 ! A12   A(6,4,7)              104.8747         estimate D2E/DX2                !
 ! A13   A(4,7,8)              110.7835         estimate D2E/DX2                !
 ! A14   A(4,7,9)              116.0423         estimate D2E/DX2                !
 ! A15   A(4,7,10)             114.6063         estimate D2E/DX2                !
 ! A16   A(8,7,9)              103.3181         estimate D2E/DX2                !
 ! A17   A(8,7,10)             101.2779         estimate D2E/DX2                !
 ! A18   A(9,7,10)             109.2191         estimate D2E/DX2                !
 ! A19   A(7,10,11)            115.4302         estimate D2E/DX2                !
 ! A20   A(7,10,12)            109.576          estimate D2E/DX2                !
 ! A21   A(7,10,13)            111.1735         estimate D2E/DX2                !
 ! A22   A(11,10,12)           103.2233         estimate D2E/DX2                !
 ! A23   A(11,10,13)           105.7377         estimate D2E/DX2                !
 ! A24   A(12,10,13)           111.4305         estimate D2E/DX2                !
 ! A25   A(10,13,14)           114.0966         estimate D2E/DX2                !
 ! A26   A(10,13,39)           117.2662         estimate D2E/DX2                !
 ! A27   A(14,13,39)           128.4148         estimate D2E/DX2                !
 ! A28   A(13,14,15)           117.787          estimate D2E/DX2                !
 ! A29   A(13,14,23)           124.824          estimate D2E/DX2                !
 ! A30   A(15,14,23)           116.7521         estimate D2E/DX2                !
 ! A31   A(14,15,16)           121.8603         estimate D2E/DX2                !
 ! A32   A(14,15,17)           124.5736         estimate D2E/DX2                !
 ! A33   A(16,15,17)           112.5888         estimate D2E/DX2                !
 ! A34   A(15,17,18)           127.6469         estimate D2E/DX2                !
 ! A35   A(15,17,19)           114.9623         estimate D2E/DX2                !
 ! A36   A(18,17,19)           116.3829         estimate D2E/DX2                !
 ! A37   A(17,19,20)           118.197          estimate D2E/DX2                !
 ! A38   A(17,19,21)           123.352          estimate D2E/DX2                !
 ! A39   A(20,19,21)           118.1874         estimate D2E/DX2                !
 ! A40   A(19,21,22)           122.5451         estimate D2E/DX2                !
 ! A41   A(19,21,23)           117.2776         estimate D2E/DX2                !
 ! A42   A(22,21,23)           120.1667         estimate D2E/DX2                !
 ! A43   A(14,23,21)           122.5154         estimate D2E/DX2                !
 ! A44   A(14,23,24)           122.085          estimate D2E/DX2                !
 ! A45   A(21,23,24)           112.4763         estimate D2E/DX2                !
 ! A46   A(23,24,25)           109.276          estimate D2E/DX2                !
 ! A47   A(23,24,26)           108.9039         estimate D2E/DX2                !
 ! A48   A(23,24,27)           118.1016         estimate D2E/DX2                !
 ! A49   A(25,24,26)            97.0952         estimate D2E/DX2                !
 ! A50   A(25,24,27)           117.4988         estimate D2E/DX2                !
 ! A51   A(26,24,27)           103.233          estimate D2E/DX2                !
 ! A52   A(24,27,28)           112.1323         estimate D2E/DX2                !
 ! A53   A(24,27,29)            97.3733         estimate D2E/DX2                !
 ! A54   A(24,27,30)           114.2299         estimate D2E/DX2                !
 ! A55   A(28,27,29)           103.1908         estimate D2E/DX2                !
 ! A56   A(28,27,30)           113.4934         estimate D2E/DX2                !
 ! A57   A(29,27,30)           114.8796         estimate D2E/DX2                !
 ! A58   A(27,30,31)           119.021          estimate D2E/DX2                !
 ! A59   A(27,30,39)           118.5325         estimate D2E/DX2                !
 ! A60   A(31,30,39)           122.4097         estimate D2E/DX2                !
 ! A61   A(30,31,32)           120.645          estimate D2E/DX2                !
 ! A62   A(30,31,33)           117.7168         estimate D2E/DX2                !
 ! A63   A(32,31,33)           121.4506         estimate D2E/DX2                !
 ! A64   A(31,33,34)           121.0643         estimate D2E/DX2                !
 ! A65   A(31,33,35)           121.3463         estimate D2E/DX2                !
 ! A66   A(34,33,35)           117.4061         estimate D2E/DX2                !
 ! A67   A(33,35,36)           119.5701         estimate D2E/DX2                !
 ! A68   A(33,35,37)           119.8503         estimate D2E/DX2                !
 ! A69   A(36,35,37)           119.723          estimate D2E/DX2                !
 ! A70   A(35,37,38)           115.9883         estimate D2E/DX2                !
 ! A71   A(35,37,39)           119.4778         estimate D2E/DX2                !
 ! A72   A(38,37,39)           124.5308         estimate D2E/DX2                !
 ! A73   A(13,39,30)           119.5497         estimate D2E/DX2                !
 ! A74   A(13,39,37)           121.323          estimate D2E/DX2                !
 ! A75   A(30,39,37)           119.091          estimate D2E/DX2                !
 ! D1    D(2,1,4,5)           -176.4549         estimate D2E/DX2                !
 ! D2    D(2,1,4,6)             63.3558         estimate D2E/DX2                !
 ! D3    D(2,1,4,7)            -54.2172         estimate D2E/DX2                !
 ! D4    D(3,1,4,5)             63.5476         estimate D2E/DX2                !
 ! D5    D(3,1,4,6)            -56.6417         estimate D2E/DX2                !
 ! D6    D(3,1,4,7)           -174.2147         estimate D2E/DX2                !
 ! D7    D(40,1,4,5)           -56.4485         estimate D2E/DX2                !
 ! D8    D(40,1,4,6)          -176.6378         estimate D2E/DX2                !
 ! D9    D(40,1,4,7)            65.7892         estimate D2E/DX2                !
 ! D10   D(1,4,7,8)           -173.9371         estimate D2E/DX2                !
 ! D11   D(1,4,7,9)             68.6958         estimate D2E/DX2                !
 ! D12   D(1,4,7,10)           -60.1156         estimate D2E/DX2                !
 ! D13   D(5,4,7,8)            -49.8403         estimate D2E/DX2                !
 ! D14   D(5,4,7,9)           -167.2075         estimate D2E/DX2                !
 ! D15   D(5,4,7,10)            63.9811         estimate D2E/DX2                !
 ! D16   D(6,4,7,8)             66.2587         estimate D2E/DX2                !
 ! D17   D(6,4,7,9)            -51.1085         estimate D2E/DX2                !
 ! D18   D(6,4,7,10)          -179.9199         estimate D2E/DX2                !
 ! D19   D(4,7,10,11)           59.0127         estimate D2E/DX2                !
 ! D20   D(4,7,10,12)          -56.9581         estimate D2E/DX2                !
 ! D21   D(4,7,10,13)          179.4271         estimate D2E/DX2                !
 ! D22   D(8,7,10,11)          178.3067         estimate D2E/DX2                !
 ! D23   D(8,7,10,12)           62.3359         estimate D2E/DX2                !
 ! D24   D(8,7,10,13)          -61.2789         estimate D2E/DX2                !
 ! D25   D(9,7,10,11)          -73.1346         estimate D2E/DX2                !
 ! D26   D(9,7,10,12)          170.8945         estimate D2E/DX2                !
 ! D27   D(9,7,10,13)           47.2798         estimate D2E/DX2                !
 ! D28   D(7,10,13,14)         121.0909         estimate D2E/DX2                !
 ! D29   D(7,10,13,39)         -63.8667         estimate D2E/DX2                !
 ! D30   D(11,10,13,14)       -112.9233         estimate D2E/DX2                !
 ! D31   D(11,10,13,39)         62.1192         estimate D2E/DX2                !
 ! D32   D(12,10,13,14)         -1.4593         estimate D2E/DX2                !
 ! D33   D(12,10,13,39)        173.5831         estimate D2E/DX2                !
 ! D34   D(10,13,14,15)         52.4297         estimate D2E/DX2                !
 ! D35   D(10,13,14,23)       -137.0413         estimate D2E/DX2                !
 ! D36   D(39,13,14,15)       -121.9442         estimate D2E/DX2                !
 ! D37   D(39,13,14,23)         48.5848         estimate D2E/DX2                !
 ! D38   D(10,13,39,30)        121.7309         estimate D2E/DX2                !
 ! D39   D(10,13,39,37)        -60.4786         estimate D2E/DX2                !
 ! D40   D(14,13,39,30)        -64.0475         estimate D2E/DX2                !
 ! D41   D(14,13,39,37)        113.743          estimate D2E/DX2                !
 ! D42   D(13,14,15,16)         -4.9061         estimate D2E/DX2                !
 ! D43   D(13,14,15,17)        162.9334         estimate D2E/DX2                !
 ! D44   D(23,14,15,16)       -176.2055         estimate D2E/DX2                !
 ! D45   D(23,14,15,17)         -8.366          estimate D2E/DX2                !
 ! D46   D(13,14,23,21)       -161.9452         estimate D2E/DX2                !
 ! D47   D(13,14,23,24)         -2.7597         estimate D2E/DX2                !
 ! D48   D(15,14,23,21)          8.6724         estimate D2E/DX2                !
 ! D49   D(15,14,23,24)        167.8579         estimate D2E/DX2                !
 ! D50   D(14,15,17,18)       -163.3344         estimate D2E/DX2                !
 ! D51   D(14,15,17,19)          4.6645         estimate D2E/DX2                !
 ! D52   D(16,15,17,18)          5.4922         estimate D2E/DX2                !
 ! D53   D(16,15,17,19)        173.4911         estimate D2E/DX2                !
 ! D54   D(15,17,19,20)        172.9599         estimate D2E/DX2                !
 ! D55   D(15,17,19,21)         -1.0266         estimate D2E/DX2                !
 ! D56   D(18,17,19,20)        -17.6301         estimate D2E/DX2                !
 ! D57   D(18,17,19,21)        168.3834         estimate D2E/DX2                !
 ! D58   D(17,19,21,22)       -179.6858         estimate D2E/DX2                !
 ! D59   D(17,19,21,23)          1.4978         estimate D2E/DX2                !
 ! D60   D(20,19,21,22)          6.3272         estimate D2E/DX2                !
 ! D61   D(20,19,21,23)       -172.4893         estimate D2E/DX2                !
 ! D62   D(19,21,23,14)         -5.4527         estimate D2E/DX2                !
 ! D63   D(19,21,23,24)       -166.4375         estimate D2E/DX2                !
 ! D64   D(22,21,23,14)        175.7013         estimate D2E/DX2                !
 ! D65   D(22,21,23,24)         14.7165         estimate D2E/DX2                !
 ! D66   D(14,23,24,25)       -122.3764         estimate D2E/DX2                !
 ! D67   D(14,23,24,26)        132.6675         estimate D2E/DX2                !
 ! D68   D(14,23,24,27)         15.4633         estimate D2E/DX2                !
 ! D69   D(21,23,24,25)         38.7019         estimate D2E/DX2                !
 ! D70   D(21,23,24,26)        -66.2541         estimate D2E/DX2                !
 ! D71   D(21,23,24,27)        176.5417         estimate D2E/DX2                !
 ! D72   D(23,24,27,28)        164.4638         estimate D2E/DX2                !
 ! D73   D(23,24,27,29)         56.9443         estimate D2E/DX2                !
 ! D74   D(23,24,27,30)        -64.619          estimate D2E/DX2                !
 ! D75   D(25,24,27,28)        -61.1202         estimate D2E/DX2                !
 ! D76   D(25,24,27,29)       -168.6397         estimate D2E/DX2                !
 ! D77   D(25,24,27,30)         69.797          estimate D2E/DX2                !
 ! D78   D(26,24,27,28)         44.2739         estimate D2E/DX2                !
 ! D79   D(26,24,27,29)        -63.2456         estimate D2E/DX2                !
 ! D80   D(26,24,27,30)        175.1911         estimate D2E/DX2                !
 ! D81   D(24,27,30,31)       -111.3369         estimate D2E/DX2                !
 ! D82   D(24,27,30,39)         66.5086         estimate D2E/DX2                !
 ! D83   D(28,27,30,31)         18.912          estimate D2E/DX2                !
 ! D84   D(28,27,30,39)       -163.2425         estimate D2E/DX2                !
 ! D85   D(29,27,30,31)        137.3271         estimate D2E/DX2                !
 ! D86   D(29,27,30,39)        -44.8274         estimate D2E/DX2                !
 ! D87   D(27,30,31,32)         -4.4169         estimate D2E/DX2                !
 ! D88   D(27,30,31,33)       -179.512          estimate D2E/DX2                !
 ! D89   D(39,30,31,32)        177.8253         estimate D2E/DX2                !
 ! D90   D(39,30,31,33)          2.7301         estimate D2E/DX2                !
 ! D91   D(27,30,39,13)         -1.6961         estimate D2E/DX2                !
 ! D92   D(27,30,39,37)       -179.5362         estimate D2E/DX2                !
 ! D93   D(31,30,39,13)        176.0722         estimate D2E/DX2                !
 ! D94   D(31,30,39,37)         -1.7679         estimate D2E/DX2                !
 ! D95   D(30,31,33,34)        171.4962         estimate D2E/DX2                !
 ! D96   D(30,31,33,35)         -3.4543         estimate D2E/DX2                !
 ! D97   D(32,31,33,34)         -3.5572         estimate D2E/DX2                !
 ! D98   D(32,31,33,35)       -178.5077         estimate D2E/DX2                !
 ! D99   D(31,33,35,36)        172.7322         estimate D2E/DX2                !
 ! D100  D(31,33,35,37)          3.3544         estimate D2E/DX2                !
 ! D101  D(34,33,35,36)         -2.396          estimate D2E/DX2                !
 ! D102  D(34,33,35,37)       -171.7739         estimate D2E/DX2                !
 ! D103  D(33,35,37,38)        177.0977         estimate D2E/DX2                !
 ! D104  D(33,35,37,39)         -2.2824         estimate D2E/DX2                !
 ! D105  D(36,35,37,38)          7.7362         estimate D2E/DX2                !
 ! D106  D(36,35,37,39)       -171.6439         estimate D2E/DX2                !
 ! D107  D(35,37,39,13)       -176.26           estimate D2E/DX2                !
 ! D108  D(35,37,39,30)          1.5405         estimate D2E/DX2                !
 ! D109  D(38,37,39,13)          4.4165         estimate D2E/DX2                !
 ! D110  D(38,37,39,30)       -177.7831         estimate D2E/DX2                !
 --------------------------------------------------------------------------------
 Trust Radius=3.00D-01 FncErr=1.00D-07 GrdErr=1.00D-06 EigMax=2.50D+02 EigMin=1.00D-04
 Number of steps in this run=    237 maximum allowed number of steps=    240.
 GradGradGradGradGradGradGradGradGradGradGradGradGradGradGradGradGradGrad

 Leave Link  103 at Sun Jul 18 13:28:51 2021, MaxMem=   104857600 cpu:               0.1 elap:               0.0
 (Enter /prod/apps/gaussian/g16b1/l202.exe)
                          Input orientation:                          
 ---------------------------------------------------------------------
 Center     Atomic      Atomic             Coordinates (Angstroms)
 Number     Number       Type             X           Y           Z
 ---------------------------------------------------------------------
      1          7           0        1.990000    2.691000    3.131000
      2          1           0        1.134000    2.555000    3.630000
      3          1           0        2.516000    3.422000    3.565000
      4          6           0        1.686000    3.070000    1.705000
      5          1           0        2.606000    3.163000    1.123000
      6          1           0        1.157000    4.027000    1.698000
      7          6           0        0.761000    2.102000    0.948000
      8          1           0        0.677000    2.388000   -0.102000
      9          1           0       -0.278000    2.070000    1.284000
     10          6           0        1.314000    0.624000    0.823000
     11          1           0        1.514000    0.116000    1.770000
     12          1           0        2.292000    0.639000    0.336000
     13          7           0        0.355000   -0.249000    0.091000
     14          6           0        0.867000   -0.816000   -1.031000
     15          6           0        2.052000   -1.504000   -0.918000
     16          1           0        2.612000   -1.533000    0.013000
     17          6           0        2.535000   -2.416000   -1.865000
     18          1           0        3.313000   -3.162000   -1.731000
     19          6           0        1.757000   -2.524000   -3.040000
     20          1           0        2.143000   -3.127000   -3.858000
     21          6           0        0.586000   -1.805000   -3.250000
     22          1           0       -0.005000   -1.902000   -4.157000
     23          6           0        0.195000   -0.917000   -2.252000
     24          6           0       -1.263000   -0.432000   -2.430000
     25          1           0       -1.880000   -1.264000   -2.776000
     26          1           0       -1.327000    0.170000   -3.338000
     27          6           0       -1.865000    0.506000   -1.336000
     28          1           0       -2.775000    1.003000   -1.676000
     29          1           0       -1.112000    1.295000   -1.398000
     30          6           0       -1.997000   -0.113000   -0.025000
     31          6           0       -3.259000   -0.374000    0.468000
     32          1           0       -4.144000   -0.058000   -0.079000
     33          6           0       -3.350000   -0.933000    1.677000
     34          1           0       -4.310000   -1.037000    2.176000
     35          6           0       -2.186000   -1.318000    2.406000
     36          1           0       -2.285000   -1.660000    3.433000
     37          6           0       -0.959000   -1.056000    1.902000
     38          1           0       -0.117000   -1.332000    2.531000
     39          6           0       -0.847000   -0.459000    0.661000
     40          1           0        2.522000    1.844000    3.145000
 ---------------------------------------------------------------------
                    Distance matrix (angstroms):
                    1          2          3          4          5
     1  N    0.000000
     2  H    1.000116   0.000000
     3  H    0.999696   1.632739   0.000000
     4  C    1.506497   2.067741   2.066979   0.000000
     5  H    2.152743   2.970101   2.457345   1.092599   0.000000
     6  H    2.128914   2.428979   2.387173   1.093499   1.782336
     7  C    2.573490   2.745444   3.416301   1.538083   2.135503
     8  H    3.502580   3.763584   4.230599   2.179095   2.412942
     9  H    2.990129   2.780771   3.851922   2.243777   3.088369
    10  C    3.171172   3.411805   4.097825   2.626637   2.864574
    11  H    2.951190   3.090748   3.893028   2.959717   3.300800
    12  H    3.480508   3.982770   4.268689   2.855023   2.662431
    13  N    4.534140   4.581897   5.496803   3.923304   4.215895
    14  C    5.557196   5.758459   6.465529   4.822598   4.847296
    15  C    5.830632   6.164618   6.676680   5.285410   5.123816
    16  H    5.286869   5.654990   6.097372   4.990786   4.825407
    17  C    7.165088   7.541132   7.972923   6.600144   6.329173
    18  H    7.723146   8.134645   8.487160   7.300072   6.975012
    19  C    8.082806   8.406740   8.919474   7.335728   7.098827
    20  H    9.094980   9.453748   9.906031   8.340181   8.036718
    21  C    7.931103   8.163596   8.802878   7.037588   6.919867
    22  H    8.842546   9.044310   9.712348   7.870407   7.768523
    23  C    6.724312   6.894522   7.619150   5.811807   5.818071
    24  C    7.159599   7.168778   8.066857   6.169184   6.365296
    25  H    8.093922   8.043991   9.027275   7.181871   7.411122
    26  H    7.694536   7.765164   8.543744   6.551337   6.657857
    27  C    6.292006   6.152525   7.191385   5.332108   5.752927
    28  H    6.975802   6.770718   7.830346   5.966923   6.438568
    29  H    5.664191   5.649150   6.505220   4.539608   4.865017
    30  C    5.806800   5.502764   6.763985   5.166128   5.765214
    31  C    6.636098   6.154326   7.573087   6.151775   6.880234
    32  H    7.448963   6.960010   8.351331   6.852440   7.575100
    33  C    6.615368   6.007213   7.545895   6.433202   7.249694
    34  H    7.382412   6.682344   8.270809   7.282946   8.159649
    35  C    5.834097   5.246018   6.776406   5.893923   6.684962
    36  H    6.107211   5.430893   6.992407   6.413090   7.247021
    37  C    4.924129   4.517295   5.907087   4.904968   5.578174
    38  H    4.580827   4.228661   5.531940   4.828114   5.440792
    39  C    4.906319   4.671565   5.899589   4.467647   5.025489
    40  H    1.000314   1.633184   1.632948   2.067746   2.415637
                    6          7          8          9         10
     6  H    0.000000
     7  C    2.103554   0.000000
     8  H    2.481274   1.091491   0.000000
     9  H    2.461802   1.092447   1.712935   0.000000
    10  C    3.517198   1.583009   2.091193   2.199523   0.000000
    11  H    3.927920   2.277474   3.060545   2.695473   1.093102
    12  H    3.823848   2.204285   2.420552   3.090528   1.092647
    13  N    4.637869   2.535051   2.663588   2.683598   1.489172
    14  C    5.566524   3.527379   3.341371   3.872886   2.389712
    15  C    6.183562   4.260501   4.207629   4.801164   2.846772
    16  H    5.989144   4.184931   4.373979   4.790527   2.644533
    17  C    7.490401   5.610024   5.444148   6.160630   4.237663
    18  H    8.251551   6.434240   6.356464   7.025620   4.985250
    19  C    8.107049   6.188379   5.824602   6.628954   5.002891
    20  H    9.111589   7.235330   6.831685   7.701312   6.055494
    21  C    7.669483   5.737463   5.243990   6.026548   4.797849
    22  H    8.413341   6.532978   5.942411   6.742091   5.737668
    23  C    6.400866   4.435619   3.972134   4.652869   3.616969
    24  C    6.540601   4.682800   4.139515   4.585196   4.282298
    25  H    7.565364   5.672126   5.198618   5.492318   5.169041
    26  H    6.812342   5.144139   4.405364   5.106201   4.949234
    27  C    5.543923   3.828805   3.395062   3.439341   3.844639
    28  H    5.999090   4.538334   4.038812   4.016852   4.807137
    29  H    4.711412   3.108552   2.464708   2.913641   3.356867
    30  C    5.482339   3.668722   3.662131   3.071470   3.496426
    31  C    6.354743   4.745669   4.842070   3.940222   4.694077
    32  H    6.924273   5.457046   5.406060   4.618670   5.573912
    33  C    6.701872   5.161685   5.514582   4.313889   4.990637
    34  H    7.467307   6.089035   6.464525   5.167798   6.018215
    35  C    6.343969   4.744151   5.312369   4.046961   4.304330
    36  H    6.870193   5.441138   6.136446   4.749647   4.998155
    37  C    5.509624   3.720414   4.307395   3.258460   3.025421
    38  H    5.570982   3.881898   4.626178   3.626918   2.964955
    39  C    5.021512   3.037557   3.318155   2.666033   2.422613
    40  H    2.953392   2.827454   3.773986   3.369629   2.887793
                   11         12         13         14         15
    11  H    0.000000
    12  H    1.713233   0.000000
    13  N    2.072570   2.144886   0.000000
    14  C    3.022058   2.452823   1.357393   0.000000
    15  C    3.184209   2.494507   2.339426   1.374896   0.000000
    16  H    2.647991   2.219079   2.597843   2.156166   1.086831
    17  C    4.546063   3.773125   3.643381   2.457189   1.400658
    18  H    5.122371   4.445507   4.533764   3.460727   2.236080
    19  C    5.492244   4.657056   4.116356   2.783064   2.372827
    20  H    6.525877   5.638669   5.203309   3.867923   3.359466
    21  C    5.454523   4.662936   3.692801   2.445617   2.770917
    22  H    6.442749   5.649773   4.572473   3.422230   3.857561
    23  C    4.356987   3.676451   2.441613   1.397364   2.360630
    24  C    5.064784   4.629884   3.001142   2.577122   3.797967
    25  H    5.838643   5.541799   3.774273   3.285078   4.355501
    26  H    5.845157   5.178359   3.842229   3.332879   4.480660
    27  C    4.606189   4.482624   2.744951   3.050333   4.422410
    28  H    5.572899   5.463985   3.806139   4.121765   5.491770
    29  H    4.280437   3.876120   2.598682   2.916754   4.251552
    30  C    3.949884   4.369364   2.358783   3.115885   4.373412
    31  C    4.971603   5.644218   3.635760   4.412056   5.603982
    32  H    5.955001   6.486920   4.506260   5.156645   6.417574
    33  C    4.976700   6.008463   4.087821   5.012987   6.020105
    34  H    5.950901   7.055564   5.170144   6.093851   7.089850
    35  C    4.018812   5.307281   3.599815   4.624476   5.389269
    36  H    4.511335   5.985461   4.486589   5.529443   6.145332
    37  C    2.739843   3.986776   2.378564   3.463288   4.149605
    38  H    2.309975   3.808694   2.710954   3.731267   4.077959
    39  C    2.671110   3.341340   1.346775   2.434771   3.462581
    40  H    2.427483   3.065193   4.289925   5.220498   5.285638
                   16         17         18         19         20
    16  H    0.000000
    17  C    2.076656   0.000000
    18  H    2.487283   1.086166   0.000000
    19  C    3.321734   1.413355   2.131117   0.000000
    20  H    4.212533   2.152030   2.427808   1.087074   0.000000
    21  C    3.850432   2.467822   3.403724   1.390073   2.131102
    22  H    4.936978   3.459633   4.299093   2.176974   2.490769
    23  C    3.369209   2.805774   3.877292   2.375550   3.355300
    24  C    4.711271   4.322070   5.374130   3.724106   4.571985
    25  H    5.294237   4.652875   5.626871   3.858117   4.563554
    26  H    5.444734   4.875671   5.934162   4.105788   4.814718
    27  C    5.101064   5.308288   6.357825   5.020299   5.968521
    28  H    6.189005   6.318337   7.376584   5.902478   6.782680
    29  H    4.884330   5.224004   6.289385   5.050949   6.016703
    30  C    4.822937   5.406333   6.356330   5.384762   6.396537
    31  C    6.001579   6.571384   7.469922   6.487590   7.448147
    32  H    6.915752   7.304725   8.244439   7.047729   7.951476
    33  C    6.218870   7.026968   7.808871   7.131817   8.100797
    34  H    7.269021   8.067549   8.825554   8.137955   9.078462
    35  C    5.365955   6.460254   7.124192   6.830857   7.826265
    36  H    5.974373   7.202273   7.762764   7.680103   8.655516
    37  C    4.067910   5.314878   5.990318   5.827096   6.862146
    38  H    3.718624   5.247187   5.768747   5.997398   7.010631
    39  C    3.679410   4.652789   5.507583   4.974178   6.039841
    40  H    4.606697   6.576311   7.032858   7.610445   8.596307
                   21         22         23         24         25
    21  C    0.000000
    22  H    1.086894   0.000000
    23  C    1.391916   2.153892   0.000000
    24  C    2.444653   2.593452   1.546827   0.000000
    25  H    2.568757   2.414504   2.168089   1.092076   0.000000
    26  H    2.750989   2.590681   2.162741   1.091313   1.636462
    27  C    3.874470   4.149229   2.666005   1.561757   2.281825
    28  H    4.653887   4.718823   3.583166   2.216728   2.674007
    29  H    3.990377   4.365586   2.707491   2.017512   3.006192
    30  C    4.464905   4.923617   3.226579   2.534668   2.984374
    31  C    5.536724   5.857809   4.429827   3.519344   3.635557
    32  H    5.956522   6.096043   4.928157   3.737277   3.722088
    33  C    6.366146   6.794376   5.291911   4.634007   4.701029
    34  H    7.348613   7.706370   6.317959   5.555670   5.520755
    35  C    6.317554   6.940518   5.246611   5.002382   5.191308
    36  H    7.275036   7.928749   6.246733   6.076779   6.234783
    37  C    5.430574   6.191713   4.313555   4.387256   4.772336
    38  H    5.842765   6.713180   4.811097   5.170574   5.592588
    39  C    4.377342   5.099445   3.127475   3.118985   3.678054
    40  H    7.613102   8.587051   6.493509   7.112456   8.005967
                   26         27         28         29         30
    26  H    0.000000
    27  C    2.100082   0.000000
    28  H    2.356446   1.091196   0.000000
    29  H    2.252876   1.092417   1.711174   0.000000
    30  C    3.391896   1.455784   2.139285   2.156576   0.000000
    31  C    4.302813   2.443778   2.593669   3.298049   1.379788
    32  H    4.313763   2.663078   2.355906   3.572589   2.148383
    33  C    5.519000   3.654328   3.914247   4.407749   2.323750
    34  H    6.384304   4.548958   4.621226   5.332814   3.323875
    35  C    5.995462   4.175234   4.732514   4.738318   2.719836
    36  H    7.079061   5.254647   5.782175   5.783296   3.799200
    37  C    5.394080   3.707469   4.509925   4.054702   2.383280
    38  H    6.177804   4.624655   5.496912   4.829927   3.399044
    39  C    4.076523   2.440401   3.363956   2.717760   1.383044
    40  H    7.723106   6.412127   7.211625   5.843476   5.856630
                   31         32         33         34         35
    31  C    0.000000
    32  H    1.087332   0.000000
    33  C    1.335082   2.116506   0.000000
    34  H    2.112211   2.463944   1.086930   0.000000
    35  C    2.407968   3.405376   1.426381   2.154817   0.000000
    36  H    3.375455   4.284440   2.178598   2.463494   1.086966
    37  C    2.794903   3.881313   2.404711   3.362237   1.352105
    38  H    3.878904   4.965068   3.367611   4.218329   2.072820
    39  C    2.421202   3.402736   2.742616   3.823830   2.361319
    40  H    6.745800   7.645086   6.659365   7.477656   5.719233
                   36         37         38         39         40
    36  H    0.000000
    37  C    2.113540   0.000000
    38  H    2.370952   1.086637   0.000000
    39  C    3.345778   1.381678   2.189048   0.000000
    40  H    5.955519   4.698128   4.174721   4.777471   0.000000
 Stoichiometry    C17H21N2(1+)
 Framework group  C1[X(C17H21N2)]
 Deg. of freedom   114
 Full point group                 C1      NOp   1
 Largest Abelian subgroup         C1      NOp   1
 Largest concise Abelian subgroup C1      NOp   1
                         Standard orientation:                         
 ---------------------------------------------------------------------
 Center     Atomic      Atomic             Coordinates (Angstroms)
 Number     Number       Type             X           Y           Z
 ---------------------------------------------------------------------
      1          7           0       -4.096129   -2.363061   -0.098191
      2          1           0       -4.483201   -1.458924   -0.279697
      3          1           0       -4.834860   -3.010375    0.087960
      4          6           0       -3.181689   -2.287924    1.096668
      5          1           0       -2.697747   -3.250785    1.276865
      6          1           0       -3.769749   -2.010183    1.975749
      7          6           0       -2.072019   -1.226213    1.012399
      8          1           0       -1.392688   -1.307654    1.862827
      9          1           0       -2.400441   -0.185034    1.051468
     10          6           0       -1.072622   -1.412191   -0.201082
     11          1           0       -1.531180   -1.397966   -1.193249
     12          1           0       -0.616257   -2.403698   -0.150854
     13          7           0       -0.040837   -0.338515   -0.217551
     14          6           0        1.235025   -0.794697   -0.136363
     15          6           0        1.627968   -1.762094   -1.030833
     16          1           0        0.930030   -2.213463   -1.731083
     17          6           0        2.960202   -2.090891   -1.311703
     18          1           0        3.340601   -2.649187   -2.162208
     19          6           0        3.919926   -1.417269   -0.522568
     20          1           0        4.961139   -1.716048   -0.613867
     21          6           0        3.588642   -0.479528    0.448614
     22          1           0        4.338070    0.034540    1.044794
     23          6           0        2.235591   -0.229244    0.658469
     24          6           0        1.993665    1.045441    1.500682
     25          1           0        2.713164    1.813007    1.207780
     26          1           0        2.375763    0.880454    2.509515
     27          6           0        0.518590    1.495895    1.746306
     28          1           0        0.440377    2.223965    2.555322
     29          1           0        0.164671    0.571251    2.207988
     30          6           0       -0.194493    1.890058    0.539885
     31          6           0       -0.533233    3.216223    0.365658
     32          1           0       -0.336677    3.945796    1.147566
     33          6           0       -1.195507    3.547158   -0.745341
     34          1           0       -1.608625    4.543975   -0.876132
     35          6           0       -1.479560    2.580988   -1.755486
     36          1           0       -2.120847    2.850772   -2.590627
     37          6           0       -1.134992    1.287413   -1.565419
     38          1           0       -1.424357    0.596921   -2.352991
     39          6           0       -0.467331    0.924121   -0.411608
     40          1           0       -3.577413   -2.669818   -0.896604
 ---------------------------------------------------------------------
 Rotational constants (GHZ):           0.4359231           0.3297412           0.2352118
 Leave Link  202 at Sun Jul 18 13:28:51 2021, MaxMem=   104857600 cpu:               0.1 elap:               0.0
 (Enter /prod/apps/gaussian/g16b1/l301.exe)
 Standard basis: 6-31G(d) (6D, 7F)
 Ernie: Thresh=  0.10000D-02 Tol=  0.10000D-05 Strict=F.
 There are   327 symmetry adapted cartesian basis functions of A   symmetry.
 There are   327 symmetry adapted basis functions of A   symmetry.
   327 basis functions,   616 primitive gaussians,   327 cartesian basis functions
    68 alpha electrons       68 beta electrons
       nuclear repulsion energy      1437.4275883928 Hartrees.
 IExCor=  402 DFT=T Ex+Corr=B3LYP ExCW=0 ScaHFX=  0.200000
 ScaDFX=  0.800000  0.720000  1.000000  0.810000 ScalE2=  1.000000  1.000000
 IRadAn=      5 IRanWt=     -1 IRanGd=            0 ICorTp=0 IEmpDi=  4
 NAtoms=   40 NActive=   40 NUniq=   40 SFac= 1.00D+00 NAtFMM=   60 NAOKFM=F Big=F
 Integral buffers will be    131072 words long.
 Raffenetti 2 integral format.
 Two-electron integral symmetry is turned on.
 Using the following non-standard input for PCM:
 MSTModel=DFT cav MSTCharged
 --- end of non-standard input.
 MST model for solvation energy: B3LYP parametrization.
 MST cavity parameters:
 ISph   IAn     Re0     Alpha   Atom Type   QCorr
 ------------------------------------------------
   1      7     1.70     1.15      NH         T
   2      1     0.90     1.15      NH         T
   3      1     0.90     1.15      NH         T
   4      6     1.50     1.25      CH2        F
   5      1     1.20     1.25      CH2        F
   6      1     1.20     1.25      CH2        F
   7      6     1.50     1.25      CH2        F
   8      1     1.20     1.25      CH2        F
   9      1     1.20     1.25      CH2        F
  10      6     1.50     1.25      CH2        F
  11      1     1.20     1.25      CH2        F
  12      1     1.20     1.25      CH2        F
  13      7     1.40     1.25      N          F
  14      6     1.50     1.25      C          F
  15      6     1.50     1.25      CH         F
  16      1     1.20     1.25      CH         F
  17      6     1.50     1.25      CH         F
  18      1     1.20     1.25      CH         F
  19      6     1.50     1.25      CH         F
  20      1     1.20     1.25      CH         F
  21      6     1.50     1.25      CH         F
  22      1     1.20     1.25      CH         F
  23      6     1.50     1.25      C          F
  24      6     1.50     1.25      CH2        F
  25      1     1.20     1.25      CH2        F
  26      1     1.20     1.25      CH2        F
  27      6     1.50     1.25      CH2        F
  28      1     1.20     1.25      CH2        F
  29      1     1.20     1.25      CH2        F
  30      6     1.50     1.25      C          F
  31      6     1.50     1.25      CH         F
  32      1     1.20     1.25      CH         F
  33      6     1.50     1.25      CH         F
  34      1     1.20     1.25      CH         F
  35      6     1.50     1.25      CH         F
  36      1     1.20     1.25      CH         F
  37      6     1.50     1.25      CH         F
  38      1     1.20     1.25      CH         F
  39      6     1.50     1.25      C          F
  40      1     0.90     1.15      NH         T
 ------------------------------------------------------------------------------
 Polarizable Continuum Model (PCM)
 =================================
 Model                : PCM.
 Atomic radii         : MST.
 Polarization charges : Total charges.
 Charge compensation  : None.
 Solution method      : On-the-fly selection.
 Cavity type          : Scaled VdW (van der Waals Surface) (Alpha=1.250).
 Cavity algorithm     : GePol (No added spheres)
                        Default sphere list used, NSphG=   40.
                        Lebedev-Laikov grids with approx.  5.0 points / Ang**2.
                        Smoothing algorithm: York/Karplus (Gamma=1.0000).
                        Polarization charges: spherical gaussians, with
                                              point-specific exponents (IZeta= 3).
                        Self-potential: point-specific (ISelfS= 7).
                        Self-field    : sphere-specific E.n sum rule (ISelfD= 2).
 1st derivatives      : Analytical E(r).r(x)/FMM algorithm (CHGder, D1EAlg=3).
                        Cavity 1st derivative terms included.
 Solvent              : Water, Eps=  78.355300 Eps(inf)=   1.777849
 ------------------------------------------------------------------------------
 GePol: Number of generator spheres                  =      40
 GePol: Total number of spheres                      =      40
 GePol: Number of exposed spheres                    =      40 (100.00%)
 GePol: Number of points                             =    2651
 GePol: Average weight of points                     =       0.13
 GePol: Minimum weight of points                     =   0.11D-10
 GePol: Maximum weight of points                     =    0.21416
 GePol: Number of points with low weight             =     180
 GePol: Fraction of low-weight points (<1% of avg)   =       6.79%
 GePol: Cavity surface area                          =    332.084 Ang**2
 GePol: Cavity volume                                =    327.251 Ang**3
 PCM non-electrostatic energy =         0.0015096925 Hartrees.
 Nuclear repulsion after PCM non-electrostatic terms =     1437.4290980853 Hartrees.
 Leave Link  301 at Sun Jul 18 13:28:51 2021, MaxMem=   104857600 cpu:               0.3 elap:               0.1
 (Enter /prod/apps/gaussian/g16b1/l302.exe)
 NPDir=0 NMtPBC=     1 NCelOv=     1 NCel=       1 NClECP=     1 NCelD=      1
         NCelK=      1 NCelE2=     1 NClLst=     1 CellRange=     0.0.
 One-electron integrals computed using PRISM.
 One-electron integral symmetry used in STVInt
 NBasis=   327 RedAO= T EigKep=  3.47D-04  NBF=   327
 NBsUse=   327 1.00D-06 EigRej= -1.00D+00 NBFU=   327
 Precomputing XC quadrature grid using
 IXCGrd= 4 IRadAn=           5 IRanWt=          -1 IRanGd=           0 AccXCQ= 0.00D+00.
 Generated NRdTot=       0 NPtTot=           0 NUsed=           0 NTot=          32
 NSgBfM=   326   326   326   326   326 MxSgAt=    40 MxSgA2=    40.
 Leave Link  302 at Sun Jul 18 13:28:52 2021, MaxMem=   104857600 cpu:               2.1 elap:               0.5
 (Enter /prod/apps/gaussian/g16b1/l303.exe)
 DipDrv:  MaxL=1.
 Leave Link  303 at Sun Jul 18 13:28:52 2021, MaxMem=   104857600 cpu:               0.2 elap:               0.1
 (Enter /prod/apps/gaussian/g16b1/l401.exe)
 ExpMin= 1.61D-01 ExpMax= 4.17D+03 ExpMxC= 6.27D+02 IAcc=3 IRadAn=         5 AccDes= 0.00D+00
 Harris functional with IExCor=  402 and IRadAn=       5 diagonalized for initial guess.
 HarFok:  IExCor=  402 AccDes= 0.00D+00 IRadAn=         5 IDoV= 1 UseB2=F ITyADJ=14
 ICtDFT=  3500011 ScaDFX=  1.000000  1.000000  1.000000  1.000000
 FoFCou: FMM=F IPFlag=           0 FMFlag=      100000 FMFlg1=           0
         NFxFlg=           0 DoJE=T BraDBF=F KetDBF=T FulRan=T
         wScrn=  0.000000 ICntrl=       500 IOpCl=  0 I1Cent=   200000004 NGrid=           0
         NMat0=    1 NMatS0=      1 NMatT0=    0 NMatD0=    1 NMtDS0=    0 NMtDT0=    0
 Petite list used in FoFCou.
 Harris En= -769.725777106082    
 JPrj=0 DoOrth=F DoCkMO=F.
 Leave Link  401 at Sun Jul 18 13:28:55 2021, MaxMem=   104857600 cpu:              12.9 elap:               3.2
 (Enter /prod/apps/gaussian/g16b1/l502.exe)
 Integral symmetry usage will be decided dynamically.
 Closed shell SCF:
 Using DIIS extrapolation, IDIIS=  1040.
 NGot=   104857600 LenX=   104637967 LenY=   104530597
 Requested convergence on RMS density matrix=1.00D-08 within 128 cycles.
 Requested convergence on MAX density matrix=1.00D-06.
 Requested convergence on             energy=1.00D-06.
 No special actions if energy rises.
 Fock matrices will be formed incrementally for  20 cycles.

 Cycle   1  Pass 1  IDiag  1:
 FoFJK:  IHMeth= 1 ICntrl=       0 DoSepK=F KAlg= 0 I1Cent=           0 FoldK=F
 IRaf= 840000000 NMat=       1 IRICut=       1 DoRegI=T DoRafI=F ISym2E= 0 IDoP0=0 IntGTp=1.
 FoFCou: FMM=F IPFlag=           0 FMFlag=      100000 FMFlg1=           0
         NFxFlg=           0 DoJE=F BraDBF=F KetDBF=F FulRan=T
         wScrn=  0.000000 ICntrl=         0 IOpCl=  0 I1Cent=           0 NGrid=           0
         NMat0=    1 NMatS0=      1 NMatT0=    0 NMatD0=    1 NMtDS0=    0 NMtDT0=    0
 Symmetry not used in FoFCou.
 Inv3:  Mode=1 IEnd=    21083403.
 Iteration    1 A*A^-1 deviation from unit magnitude is 3.66D-15 for    732.
 Iteration    1 A*A^-1 deviation from orthogonality  is 2.23D-15 for   1490   1005.
 Iteration    1 A^-1*A deviation from unit magnitude is 3.89D-15 for    732.
 Iteration    1 A^-1*A deviation from orthogonality  is 1.02D-14 for   1960   1778.
 E= -769.354134269029    
 DIIS: error= 2.11D-02 at cycle   1 NSaved=   1.
 NSaved= 1 IEnMin= 1 EnMin= -769.354134269029     IErMin= 1 ErrMin= 2.11D-02
 ErrMax= 2.11D-02  0.00D+00 EMaxC= 1.00D-01 BMatC= 3.78D-01 BMatP= 3.78D-01
 IDIUse=3 WtCom= 7.89D-01 WtEn= 2.11D-01
 Coeff-Com:  0.100D+01
 Coeff-En:   0.100D+01
 Coeff:      0.100D+01
 Gap=     0.202 Goal=   None    Shift=    0.000
 GapD=    0.202 DampG=1.000 DampE=0.500 DampFc=0.5000 IDamp=-1.
 Damping current iteration by 5.00D-01
 RMSDP=4.16D-03 MaxDP=1.12D-01              OVMax= 1.47D-01

 Cycle   2  Pass 1  IDiag  1:
 RMSU=  2.03D-03    CP:  9.74D-01
 E= -769.558991703093     Delta-E=       -0.204857434065 Rises=F Damp=T
 DIIS: error= 5.49D-03 at cycle   2 NSaved=   2.
 NSaved= 2 IEnMin= 2 EnMin= -769.558991703093     IErMin= 2 ErrMin= 5.49D-03
 ErrMax= 5.49D-03  0.00D+00 EMaxC= 1.00D-01 BMatC= 2.14D-02 BMatP= 3.78D-01
 IDIUse=3 WtCom= 9.45D-01 WtEn= 5.49D-02
 Coeff-Com: -0.443D-01 0.104D+01
 Coeff-En:   0.000D+00 0.100D+01
 Coeff:     -0.419D-01 0.104D+01
 Gap=     0.229 Goal=   None    Shift=    0.000
 RMSDP=1.09D-03 MaxDP=3.90D-02 DE=-2.05D-01 OVMax= 9.34D-02

 Cycle   3  Pass 1  IDiag  1:
 RMSU=  1.07D-03    CP:  9.62D-01  1.03D+00
 E= -769.755602340185     Delta-E=       -0.196610637092 Rises=F Damp=F
 DIIS: error= 3.55D-03 at cycle   3 NSaved=   3.
 NSaved= 3 IEnMin= 3 EnMin= -769.755602340185     IErMin= 3 ErrMin= 3.55D-03
 ErrMax= 3.55D-03  0.00D+00 EMaxC= 1.00D-01 BMatC= 1.05D-02 BMatP= 2.14D-02
 IDIUse=3 WtCom= 9.65D-01 WtEn= 3.55D-02
 Coeff-Com: -0.589D-01 0.429D+00 0.630D+00
 Coeff-En:   0.000D+00 0.000D+00 0.100D+01
 Coeff:     -0.568D-01 0.414D+00 0.643D+00
 Gap=     0.192 Goal=   None    Shift=    0.000
 RMSDP=5.86D-04 MaxDP=2.98D-02 DE=-1.97D-01 OVMax= 6.64D-02

 Cycle   4  Pass 1  IDiag  1:
 RMSU=  5.05D-04    CP:  9.62D-01  1.07D+00  7.29D-01
 E= -769.760744451706     Delta-E=       -0.005142111521 Rises=F Damp=F
 DIIS: error= 2.69D-03 at cycle   4 NSaved=   4.
 NSaved= 4 IEnMin= 4 EnMin= -769.760744451706     IErMin= 4 ErrMin= 2.69D-03
 ErrMax= 2.69D-03  0.00D+00 EMaxC= 1.00D-01 BMatC= 5.25D-03 BMatP= 1.05D-02
 IDIUse=3 WtCom= 9.73D-01 WtEn= 2.69D-02
 Coeff-Com: -0.286D-01 0.109D+00 0.429D+00 0.490D+00
 Coeff-En:   0.000D+00 0.000D+00 0.365D+00 0.635D+00
 Coeff:     -0.279D-01 0.106D+00 0.427D+00 0.494D+00
 Gap=     0.181 Goal=   None    Shift=    0.000
 RMSDP=2.95D-04 MaxDP=1.46D-02 DE=-5.14D-03 OVMax= 3.04D-02

 Cycle   5  Pass 1  IDiag  1:
 RMSU=  1.00D-04    CP:  9.62D-01  1.07D+00  8.08D-01  4.77D-01
 E= -769.766169634164     Delta-E=       -0.005425182457 Rises=F Damp=F
 DIIS: error= 3.07D-04 at cycle   5 NSaved=   5.
 NSaved= 5 IEnMin= 5 EnMin= -769.766169634164     IErMin= 5 ErrMin= 3.07D-04
 ErrMax= 3.07D-04  0.00D+00 EMaxC= 1.00D-01 BMatC= 9.15D-05 BMatP= 5.25D-03
 IDIUse=3 WtCom= 9.97D-01 WtEn= 3.07D-03
 Coeff-Com: -0.797D-02 0.197D-01 0.139D+00 0.205D+00 0.645D+00
 Coeff-En:   0.000D+00 0.000D+00 0.000D+00 0.000D+00 0.100D+01
 Coeff:     -0.794D-02 0.196D-01 0.139D+00 0.204D+00 0.646D+00
 Gap=     0.182 Goal=   None    Shift=    0.000
 RMSDP=4.39D-05 MaxDP=1.33D-03 DE=-5.43D-03 OVMax= 3.14D-03

 Cycle   6  Pass 1  IDiag  1:
 RMSU=  2.90D-05    CP:  9.62D-01  1.07D+00  8.14D-01  5.17D-01  7.46D-01
 E= -769.766248552269     Delta-E=       -0.000078918105 Rises=F Damp=F
 DIIS: error= 1.08D-04 at cycle   6 NSaved=   6.
 NSaved= 6 IEnMin= 6 EnMin= -769.766248552269     IErMin= 6 ErrMin= 1.08D-04
 ErrMax= 1.08D-04  0.00D+00 EMaxC= 1.00D-01 BMatC= 1.39D-05 BMatP= 9.15D-05
 IDIUse=3 WtCom= 9.99D-01 WtEn= 1.08D-03
 Coeff-Com: -0.254D-02 0.393D-02 0.479D-01 0.778D-01 0.352D+00 0.521D+00
 Coeff-En:   0.000D+00 0.000D+00 0.000D+00 0.000D+00 0.620D-01 0.938D+00
 Coeff:     -0.254D-02 0.393D-02 0.478D-01 0.777D-01 0.351D+00 0.522D+00
 Gap=     0.182 Goal=   None    Shift=    0.000
 RMSDP=1.34D-05 MaxDP=5.65D-04 DE=-7.89D-05 OVMax= 9.89D-04

 Cycle   7  Pass 1  IDiag  1:
 RMSU=  6.31D-06    CP:  9.62D-01  1.07D+00  8.15D-01  5.17D-01  7.82D-01
                    CP:  6.17D-01
 E= -769.766262116722     Delta-E=       -0.000013564453 Rises=F Damp=F
 DIIS: error= 1.77D-05 at cycle   7 NSaved=   7.
 NSaved= 7 IEnMin= 7 EnMin= -769.766262116722     IErMin= 7 ErrMin= 1.77D-05
 ErrMax= 1.77D-05  0.00D+00 EMaxC= 1.00D-01 BMatC= 3.74D-07 BMatP= 1.39D-05
 IDIUse=1 WtCom= 1.00D+00 WtEn= 0.00D+00
 Coeff-Com: -0.730D-03 0.806D-03 0.142D-01 0.231D-01 0.122D+00 0.224D+00
 Coeff-Com:  0.617D+00
 Coeff:     -0.730D-03 0.806D-03 0.142D-01 0.231D-01 0.122D+00 0.224D+00
 Coeff:      0.617D+00
 Gap=     0.182 Goal=   None    Shift=    0.000
 RMSDP=3.00D-06 MaxDP=1.53D-04 DE=-1.36D-05 OVMax= 2.56D-04

 Cycle   8  Pass 1  IDiag  1:
 RMSU=  2.26D-06    CP:  9.62D-01  1.07D+00  8.15D-01  5.18D-01  7.82D-01
                    CP:  6.40D-01  7.43D-01
 E= -769.766262419811     Delta-E=       -0.000000303090 Rises=F Damp=F
 DIIS: error= 9.25D-06 at cycle   8 NSaved=   8.
 NSaved= 8 IEnMin= 8 EnMin= -769.766262419811     IErMin= 8 ErrMin= 9.25D-06
 ErrMax= 9.25D-06  0.00D+00 EMaxC= 1.00D-01 BMatC= 8.84D-08 BMatP= 3.74D-07
 IDIUse=1 WtCom= 1.00D+00 WtEn= 0.00D+00
 Coeff-Com:  0.150D-04-0.244D-03 0.139D-03-0.292D-03 0.115D-01 0.410D-01
 Coeff-Com:  0.347D+00 0.601D+00
 Coeff:      0.150D-04-0.244D-03 0.139D-03-0.292D-03 0.115D-01 0.410D-01
 Coeff:      0.347D+00 0.601D+00
 Gap=     0.182 Goal=   None    Shift=    0.000
 RMSDP=1.14D-06 MaxDP=5.22D-05 DE=-3.03D-07 OVMax= 9.30D-05

 Cycle   9  Pass 1  IDiag  1:
 RMSU=  5.83D-07    CP:  9.62D-01  1.07D+00  8.15D-01  5.17D-01  7.86D-01
                    CP:  6.43D-01  8.29D-01  6.97D-01
 E= -769.766262513334     Delta-E=       -0.000000093523 Rises=F Damp=F
 DIIS: error= 1.93D-06 at cycle   9 NSaved=   9.
 NSaved= 9 IEnMin= 9 EnMin= -769.766262513334     IErMin= 9 ErrMin= 1.93D-06
 ErrMax= 1.93D-06  0.00D+00 EMaxC= 1.00D-01 BMatC= 2.73D-09 BMatP= 8.84D-08
 IDIUse=1 WtCom= 1.00D+00 WtEn= 0.00D+00
 Coeff-Com:  0.431D-04-0.122D-03-0.655D-03-0.151D-02-0.204D-02 0.318D-02
 Coeff-Com:  0.871D-01 0.213D+00 0.701D+00
 Coeff:      0.431D-04-0.122D-03-0.655D-03-0.151D-02-0.204D-02 0.318D-02
 Coeff:      0.871D-01 0.213D+00 0.701D+00
 Gap=     0.182 Goal=   None    Shift=    0.000
 RMSDP=2.42D-07 MaxDP=1.11D-05 DE=-9.35D-08 OVMax= 1.95D-05

 Cycle  10  Pass 1  IDiag  1:
 RMSU=  1.71D-07    CP:  9.62D-01  1.07D+00  8.15D-01  5.17D-01  7.86D-01
                    CP:  6.45D-01  8.37D-01  7.46D-01  8.91D-01
 E= -769.766262515873     Delta-E=       -0.000000002539 Rises=F Damp=F
 DIIS: error= 6.03D-07 at cycle  10 NSaved=  10.
 NSaved=10 IEnMin=10 EnMin= -769.766262515873     IErMin=10 ErrMin= 6.03D-07
 ErrMax= 6.03D-07  0.00D+00 EMaxC= 1.00D-01 BMatC= 5.30D-10 BMatP= 2.73D-09
 IDIUse=1 WtCom= 1.00D+00 WtEn= 0.00D+00
 Coeff-Com:  0.231D-04-0.445D-04-0.377D-03-0.862D-03-0.225D-02-0.225D-02
 Coeff-Com:  0.126D-01 0.570D-01 0.375D+00 0.561D+00
 Coeff:      0.231D-04-0.445D-04-0.377D-03-0.862D-03-0.225D-02-0.225D-02
 Coeff:      0.126D-01 0.570D-01 0.375D+00 0.561D+00
 Gap=     0.182 Goal=   None    Shift=    0.000
 RMSDP=8.02D-08 MaxDP=3.68D-06 DE=-2.54D-09 OVMax= 5.31D-06

 Cycle  11  Pass 1  IDiag  1:
 RMSU=  5.30D-08    CP:  9.62D-01  1.07D+00  8.15D-01  5.17D-01  7.87D-01
                    CP:  6.45D-01  8.40D-01  7.52D-01  9.42D-01  7.62D-01
 E= -769.766262516394     Delta-E=       -0.000000000521 Rises=F Damp=F
 DIIS: error= 1.62D-07 at cycle  11 NSaved=  11.
 NSaved=11 IEnMin=11 EnMin= -769.766262516394     IErMin=11 ErrMin= 1.62D-07
 ErrMax= 1.62D-07  0.00D+00 EMaxC= 1.00D-01 BMatC= 2.02D-11 BMatP= 5.30D-10
 IDIUse=1 WtCom= 1.00D+00 WtEn= 0.00D+00
 Coeff-Com:  0.350D-05-0.289D-05-0.479D-04-0.148D-03-0.440D-03-0.809D-03
 Coeff-Com: -0.418D-02-0.678D-03 0.618D-01 0.163D+00 0.781D+00
 Coeff:      0.350D-05-0.289D-05-0.479D-04-0.148D-03-0.440D-03-0.809D-03
 Coeff:     -0.418D-02-0.678D-03 0.618D-01 0.163D+00 0.781D+00
 Gap=     0.182 Goal=   None    Shift=    0.000
 RMSDP=2.49D-08 MaxDP=7.52D-07 DE=-5.21D-10 OVMax= 2.29D-06

 Cycle  12  Pass 1  IDiag  1:
 RMSU=  1.49D-08    CP:  9.62D-01  1.07D+00  8.15D-01  5.17D-01  7.87D-01
                    CP:  6.46D-01  8.41D-01  7.55D-01  9.61D-01  8.11D-01
                    CP:  8.99D-01
 E= -769.766262516405     Delta-E=       -0.000000000011 Rises=F Damp=F
 DIIS: error= 4.87D-08 at cycle  12 NSaved=  12.
 NSaved=12 IEnMin=12 EnMin= -769.766262516405     IErMin=12 ErrMin= 4.87D-08
 ErrMax= 4.87D-08  0.00D+00 EMaxC= 1.00D-01 BMatC= 4.34D-12 BMatP= 2.02D-11
 IDIUse=1 WtCom= 1.00D+00 WtEn= 0.00D+00
 Coeff-Com:  0.287D-07 0.216D-05 0.598D-05-0.732D-05-0.584D-04-0.279D-03
 Coeff-Com: -0.378D-02-0.597D-02-0.152D-02 0.283D-01 0.407D+00 0.576D+00
 Coeff:      0.287D-07 0.216D-05 0.598D-05-0.732D-05-0.584D-04-0.279D-03
 Coeff:     -0.378D-02-0.597D-02-0.152D-02 0.283D-01 0.407D+00 0.576D+00
 Gap=     0.182 Goal=   None    Shift=    0.000
 RMSDP=8.50D-09 MaxDP=3.32D-07 DE=-1.14D-11 OVMax= 6.28D-07

 Error on total polarization charges =  0.01947
 SCF Done:  E(RB3LYP) =  -769.766262516     A.U. after   12 cycles
            NFock= 12  Conv=0.85D-08     -V/T= 2.0087
 KE= 7.631028703477D+02 PE=-4.641939468336D+03 EE= 1.671641237387D+03
 Leave Link  502 at Sun Jul 18 13:30:31 2021, MaxMem=   104857600 cpu:             384.4 elap:              96.2
 (Enter /prod/apps/gaussian/g16b1/l601.exe)
 Copying SCF densities to generalized density rwf, IOpCl= 0 IROHF=0.

 **********************************************************************

            Population analysis using the SCF Density.

 **********************************************************************

 Orbital symmetries:
       Occupied  (A) (A) (A) (A) (A) (A) (A) (A) (A) (A) (A) (A)
                 (A) (A) (A) (A) (A) (A) (A) (A) (A) (A) (A) (A)
                 (A) (A) (A) (A) (A) (A) (A) (A) (A) (A) (A) (A)
                 (A) (A) (A) (A) (A) (A) (A) (A) (A) (A) (A) (A)
                 (A) (A) (A) (A) (A) (A) (A) (A) (A) (A) (A) (A)
                 (A) (A) (A) (A) (A) (A) (A) (A)
       Virtual   (A) (A) (A) (A) (A) (A) (A) (A) (A) (A) (A) (A)
                 (A) (A) (A) (A) (A) (A) (A) (A) (A) (A) (A) (A)
                 (A) (A) (A) (A) (A) (A) (A) (A) (A) (A) (A) (A)
                 (A) (A) (A) (A) (A) (A) (A) (A) (A) (A) (A) (A)
                 (A) (A) (A) (A) (A) (A) (A) (A) (A) (A) (A) (A)
                 (A) (A) (A) (A) (A) (A) (A) (A) (A) (A) (A) (A)
                 (A) (A) (A) (A) (A) (A) (A) (A) (A) (A) (A) (A)
                 (A) (A) (A) (A) (A) (A) (A) (A) (A) (A) (A) (A)
                 (A) (A) (A) (A) (A) (A) (A) (A) (A) (A) (A) (A)
                 (A) (A) (A) (A) (A) (A) (A) (A) (A) (A) (A) (A)
                 (A) (A) (A) (A) (A) (A) (A) (A) (A) (A) (A) (A)
                 (A) (A) (A) (A) (A) (A) (A) (A) (A) (A) (A) (A)
                 (A) (A) (A) (A) (A) (A) (A) (A) (A) (A) (A) (A)
                 (A) (A) (A) (A) (A) (A) (A) (A) (A) (A) (A) (A)
                 (A) (A) (A) (A) (A) (A) (A) (A) (A) (A) (A) (A)
                 (A) (A) (A) (A) (A) (A) (A) (A) (A) (A) (A) (A)
                 (A) (A) (A) (A) (A) (A) (A) (A) (A) (A) (A) (A)
                 (A) (A) (A) (A) (A) (A) (A) (A) (A) (A) (A) (A)
                 (A) (A) (A) (A) (A) (A) (A) (A) (A) (A) (A) (A)
                 (A) (A) (A) (A) (A) (A) (A) (A) (A) (A) (A) (A)
                 (A) (A) (A) (A) (A) (A) (A) (A) (A) (A) (A) (A)
                 (A) (A) (A) (A) (A) (A) (A)
 The electronic state is 1-A.
 Alpha  occ. eigenvalues --  -14.45025 -14.34042 -10.25548 -10.22294 -10.22142
 Alpha  occ. eigenvalues --  -10.21427 -10.20309 -10.18981 -10.18874 -10.18415
 Alpha  occ. eigenvalues --  -10.18381 -10.18340 -10.18315 -10.18232 -10.18140
 Alpha  occ. eigenvalues --  -10.18123 -10.18090 -10.17981 -10.17901  -1.00834
 Alpha  occ. eigenvalues --   -0.97370  -0.86643  -0.84791  -0.79798  -0.79093
 Alpha  occ. eigenvalues --   -0.76517  -0.75603  -0.73250  -0.71434  -0.67980
 Alpha  occ. eigenvalues --   -0.65358  -0.63399  -0.60641  -0.59835  -0.59018
 Alpha  occ. eigenvalues --   -0.58491  -0.58219  -0.56925  -0.52431  -0.50828
 Alpha  occ. eigenvalues --   -0.50131  -0.48470  -0.47532  -0.47131  -0.45877
 Alpha  occ. eigenvalues --   -0.45026  -0.44113  -0.43757  -0.42958  -0.41682
 Alpha  occ. eigenvalues --   -0.41238  -0.40424  -0.39445  -0.38374  -0.37788
 Alpha  occ. eigenvalues --   -0.36673  -0.36485  -0.35135  -0.34584  -0.34375
 Alpha  occ. eigenvalues --   -0.33352  -0.32983  -0.32217  -0.27897  -0.25529
 Alpha  occ. eigenvalues --   -0.24204  -0.23726  -0.19250
 Alpha virt. eigenvalues --   -0.01080  -0.00066   0.00592   0.00737   0.04840
 Alpha virt. eigenvalues --    0.09171   0.10022   0.10651   0.10863   0.11195
 Alpha virt. eigenvalues --    0.11953   0.12282   0.12928   0.13815   0.14096
 Alpha virt. eigenvalues --    0.14603   0.15199   0.16048   0.16653   0.17312
 Alpha virt. eigenvalues --    0.17615   0.18322   0.18422   0.18994   0.19472
 Alpha virt. eigenvalues --    0.20311   0.20460   0.21919   0.23189   0.23731
 Alpha virt. eigenvalues --    0.24432   0.24892   0.26484   0.27519   0.28395
 Alpha virt. eigenvalues --    0.29911   0.32712   0.33482   0.34527   0.36094
 Alpha virt. eigenvalues --    0.36773   0.38102   0.38887   0.42746   0.47465
 Alpha virt. eigenvalues --    0.47790   0.49434   0.50012   0.51006   0.52065
 Alpha virt. eigenvalues --    0.52294   0.53149   0.53414   0.54101   0.54347
 Alpha virt. eigenvalues --    0.55927   0.55982   0.56896   0.57710   0.58683
 Alpha virt. eigenvalues --    0.59023   0.59442   0.60028   0.60579   0.60726
 Alpha virt. eigenvalues --    0.61064   0.61603   0.61978   0.62694   0.63569
 Alpha virt. eigenvalues --    0.63729   0.64165   0.65050   0.66117   0.67972
 Alpha virt. eigenvalues --    0.68376   0.69181   0.71334   0.71497   0.72215
 Alpha virt. eigenvalues --    0.73913   0.75002   0.76623   0.77572   0.78685
 Alpha virt. eigenvalues --    0.79330   0.80931   0.82860   0.83513   0.83842
 Alpha virt. eigenvalues --    0.84128   0.84339   0.84825   0.85443   0.85745
 Alpha virt. eigenvalues --    0.86191   0.86679   0.87228   0.87617   0.88368
 Alpha virt. eigenvalues --    0.90371   0.90906   0.91399   0.92215   0.92855
 Alpha virt. eigenvalues --    0.93516   0.94833   0.95971   0.96486   0.97204
 Alpha virt. eigenvalues --    0.98078   0.99422   1.00010   1.00835   1.02570
 Alpha virt. eigenvalues --    1.03245   1.04804   1.05819   1.07492   1.07916
 Alpha virt. eigenvalues --    1.11259   1.11842   1.13200   1.14562   1.15642
 Alpha virt. eigenvalues --    1.17859   1.19746   1.21647   1.23162   1.24487
 Alpha virt. eigenvalues --    1.26023   1.26533   1.27320   1.29017   1.29482
 Alpha virt. eigenvalues --    1.33928   1.38408   1.40106   1.41422   1.41843
 Alpha virt. eigenvalues --    1.42429   1.43678   1.45955   1.48436   1.49197
 Alpha virt. eigenvalues --    1.50610   1.52700   1.53097   1.54738   1.56153
 Alpha virt. eigenvalues --    1.59149   1.61046   1.64281   1.65627   1.67040
 Alpha virt. eigenvalues --    1.69504   1.73337   1.75370   1.76682   1.77057
 Alpha virt. eigenvalues --    1.79121   1.80274   1.82145   1.82674   1.84477
 Alpha virt. eigenvalues --    1.84897   1.86709   1.87551   1.87953   1.89618
 Alpha virt. eigenvalues --    1.91068   1.92299   1.94011   1.94540   1.95638
 Alpha virt. eigenvalues --    1.96652   1.97949   1.98672   1.99711   2.01253
 Alpha virt. eigenvalues --    2.02220   2.04434   2.07416   2.09394   2.10478
 Alpha virt. eigenvalues --    2.11987   2.12732   2.14623   2.15698   2.16598
 Alpha virt. eigenvalues --    2.18652   2.20511   2.22988   2.23553   2.24840
 Alpha virt. eigenvalues --    2.25785   2.26200   2.27937   2.29329   2.32045
 Alpha virt. eigenvalues --    2.33113   2.33709   2.35006   2.36530   2.36792
 Alpha virt. eigenvalues --    2.37964   2.39065   2.40250   2.41676   2.42430
 Alpha virt. eigenvalues --    2.46146   2.48947   2.52986   2.56950   2.57869
 Alpha virt. eigenvalues --    2.59341   2.61372   2.62286   2.63156   2.64362
 Alpha virt. eigenvalues --    2.66576   2.68060   2.68864   2.70443   2.72927
 Alpha virt. eigenvalues --    2.76325   2.76508   2.78484   2.79973   2.84638
 Alpha virt. eigenvalues --    2.86078   2.88595   2.90703   2.90950   2.99292
 Alpha virt. eigenvalues --    3.02882   3.22802   3.24421   3.42446   3.50379
 Alpha virt. eigenvalues --    3.75081   4.09581   4.10760   4.11978   4.13087
 Alpha virt. eigenvalues --    4.14871   4.16713   4.21009   4.23746   4.32009
 Alpha virt. eigenvalues --    4.33679   4.39047   4.42079   4.42846   4.46466
 Alpha virt. eigenvalues --    4.49976   4.53839   4.77469   4.79969
          Condensed to atoms (all electrons):
               1          2          3          4          5          6
     1  N    6.674154   0.303361   0.306380   0.236833  -0.032511  -0.032829
     2  H    0.303361   0.271503  -0.010250  -0.018286   0.003058  -0.002111
     3  H    0.306380  -0.010250   0.265013  -0.016401  -0.001557  -0.002413
     4  C    0.236833  -0.018286  -0.016401   4.978862   0.385645   0.382701
     5  H   -0.032511   0.003058  -0.001557   0.385645   0.490046  -0.025455
     6  H   -0.032829  -0.002111  -0.002413   0.382701  -0.025455   0.493871
     7  C   -0.041561  -0.000975   0.002689   0.348693  -0.035769  -0.034003
     8  H    0.003047  -0.000075  -0.000067  -0.023289  -0.004217  -0.001490
     9  H   -0.002002   0.002245  -0.000063  -0.029779   0.004006  -0.003257
    10  C   -0.002332  -0.000279   0.000071  -0.037492  -0.003809   0.003574
    11  H    0.001660   0.000027   0.000024  -0.001611  -0.000229  -0.000093
    12  H   -0.000281   0.000054  -0.000022  -0.000440   0.003377  -0.000031
    13  N    0.000001  -0.000014   0.000001   0.003607  -0.000009  -0.000095
    14  C   -0.000001  -0.000000   0.000000  -0.000079  -0.000010   0.000001
    15  C    0.000000  -0.000000   0.000000  -0.000014  -0.000008   0.000000
    16  H    0.000000  -0.000000   0.000000   0.000008  -0.000001  -0.000000
    17  C    0.000000   0.000000  -0.000000  -0.000000  -0.000000   0.000000
    18  H   -0.000000  -0.000000   0.000000   0.000000   0.000000  -0.000000
    19  C   -0.000000  -0.000000   0.000000   0.000000   0.000000  -0.000000
    20  H   -0.000000   0.000000   0.000000   0.000000   0.000000  -0.000000
    21  C   -0.000000   0.000000   0.000000   0.000000  -0.000000   0.000000
    22  H   -0.000000  -0.000000  -0.000000   0.000000   0.000000  -0.000000
    23  C   -0.000000  -0.000000  -0.000000  -0.000005  -0.000000   0.000000
    24  C    0.000000  -0.000000  -0.000000  -0.000001   0.000000   0.000000
    25  H   -0.000000  -0.000000   0.000000  -0.000000  -0.000000   0.000000
    26  H   -0.000000   0.000000  -0.000000   0.000000   0.000000  -0.000000
    27  C   -0.000000  -0.000000   0.000000   0.000023  -0.000000   0.000000
    28  H    0.000000   0.000000  -0.000000   0.000000   0.000000  -0.000000
    29  H    0.000000   0.000000  -0.000000   0.000032   0.000001  -0.000003
    30  C    0.000001  -0.000001  -0.000000  -0.000024  -0.000001   0.000002
    31  C    0.000000  -0.000000   0.000000   0.000002  -0.000000  -0.000000
    32  H    0.000000  -0.000000  -0.000000  -0.000000  -0.000000   0.000000
    33  C   -0.000000   0.000000   0.000000   0.000000   0.000000  -0.000000
    34  H   -0.000000  -0.000000   0.000000   0.000000   0.000000   0.000000
    35  C   -0.000000   0.000002  -0.000000  -0.000003  -0.000000  -0.000000
    36  H   -0.000000  -0.000000   0.000000   0.000000   0.000000  -0.000000
    37  C   -0.000003   0.000029  -0.000000  -0.000048  -0.000002   0.000002
    38  H   -0.000001   0.000008  -0.000000  -0.000007   0.000000  -0.000000
    39  C   -0.000004   0.000007  -0.000000  -0.000071   0.000010   0.000009
    40  H    0.302092  -0.010619  -0.010163  -0.018073  -0.002503   0.003029
               7          8          9         10         11         12
     1  N   -0.041561   0.003047  -0.002002  -0.002332   0.001660  -0.000281
     2  H   -0.000975  -0.000075   0.002245  -0.000279   0.000027   0.000054
     3  H    0.002689  -0.000067  -0.000063   0.000071   0.000024  -0.000022
     4  C    0.348693  -0.023289  -0.029779  -0.037492  -0.001611  -0.000440
     5  H   -0.035769  -0.004217   0.004006  -0.003809  -0.000229   0.003377
     6  H   -0.034003  -0.001490  -0.003257   0.003574  -0.000093  -0.000031
     7  C    5.086853   0.369023   0.375117   0.355425  -0.043563  -0.031898
     8  H    0.369023   0.540082  -0.037433  -0.038708   0.005198  -0.006346
     9  H    0.375117  -0.037433   0.541431  -0.034716  -0.003901   0.004361
    10  C    0.355425  -0.038708  -0.034716   4.979103   0.369148   0.373957
    11  H   -0.043563   0.005198  -0.003901   0.369148   0.595798  -0.041645
    12  H   -0.031898  -0.006346   0.004361   0.373957  -0.041645   0.543428
    13  N   -0.051499   0.002611  -0.007634   0.299135  -0.048577  -0.032060
    14  C    0.000036   0.001504  -0.000103  -0.036107   0.000464   0.001543
    15  C    0.000420   0.000127  -0.000033  -0.015436   0.002013   0.002189
    16  H    0.000143   0.000004  -0.000006   0.004394   0.000148  -0.000376
    17  C   -0.000002  -0.000001   0.000001   0.000119  -0.000034   0.000223
    18  H   -0.000000   0.000000  -0.000000  -0.000007   0.000001   0.000005
    19  C    0.000000  -0.000001  -0.000000   0.000015   0.000000  -0.000025
    20  H   -0.000000   0.000000   0.000000   0.000000   0.000000  -0.000000
    21  C   -0.000002   0.000007  -0.000000  -0.000174   0.000011  -0.000025
    22  H    0.000000  -0.000000   0.000000   0.000003  -0.000000   0.000000
[...]
     7  C    0.969983   1.413033  -0.326442   0.083633  -0.109512  -0.000780
     8  H   -0.175860  -0.228150   0.000504  -0.008320  -0.016781   0.000433
     9  H   -0.283831  -0.242130   0.043602   0.000434  -0.002560   0.000245
    10  C   -1.557080  -0.187063   0.227479   0.096285  -0.787049   0.048716
    11  H    0.116317  -0.686224   0.209551  -0.122385   0.023804   0.004783
    12  H   -0.451423   0.818798  -0.163931   0.054300   0.095350  -0.002005
    13  N   13.505002  -0.527456   0.439406  -0.357789   0.099406  -0.007373
    14  C   -0.527456  35.729898 -13.823607   1.807877   3.675291   0.119451
    15  C    0.439406 -13.823607  24.312880  -2.439752  -9.432880   1.071805
    16  H   -0.357789   1.807877  -2.439752   2.911696   0.772699  -0.080634
    17  C    0.099406   3.675291  -9.432880   0.772699  16.278383  -1.300789
    18  H   -0.007373   0.119451   1.071805  -0.080634  -1.300789   1.764000
    19  C    0.158185  -4.809055   6.524533  -0.194596  -5.981702   0.334088
    20  H   -0.004036  -0.108240  -0.233331  -0.023125   0.471854  -0.040766
    21  C   -0.029834   5.056300  -8.810534   0.320532   6.426651  -0.334566
    22  H    0.011997  -0.107291   0.227339   0.017190  -0.288379  -0.022378
    23  C   -0.531982 -10.537258   6.211328  -0.831910  -4.824398  -0.038019
    24  C   -0.366135  -1.243581   0.370965  -0.017338   0.164114  -0.019296
    25  H    0.025236   0.019937   0.002123  -0.003278   0.015643   0.000845
    26  H    0.059256   0.079222   0.019763  -0.002047  -0.029392   0.000219
    27  C   -0.702211  -1.674806  -0.446502   0.013236   0.374643   0.004311
    28  H   -0.020647   0.041004  -0.037354   0.001315   0.013338   0.000055
    29  H   -0.129397  -0.165388   0.014043   0.002107   0.031018   0.000016
    30  C   -1.002210  -0.594771   0.404414  -0.055338  -0.259089  -0.002001
    31  C   -0.530598   0.012431  -0.261665  -0.017783  -0.030078   0.000825
    32  H    0.010045   0.066908   0.005851   0.000901  -0.000347  -0.000029
    33  C    0.445067   0.386533   0.116631   0.010122  -0.015794  -0.000944
    34  H   -0.015521  -0.023986   0.001806  -0.000059  -0.000318  -0.000018
    35  C   -0.513527  -0.668105  -0.151484   0.014316   0.085762   0.002543
    36  H   -0.012240   0.004817  -0.008625  -0.001601   0.001336   0.000147
    37  C    2.426265   2.905387  -0.015435   0.075286   0.192740  -0.006553
    38  H   -0.296606   0.088490  -0.072376   0.001642   0.006535  -0.000456
    39  C   -3.520693 -11.238900   1.394280  -0.142938  -0.071549   0.017104
    40  H   -0.025033  -0.008222   0.003418   0.002041   0.005056   0.000015
              19         20         21         22         23         24
     1  N   -0.000243  -0.000017  -0.000465  -0.000008  -0.001506  -0.000934
     2  H   -0.000175  -0.000004   0.000095   0.000001   0.000069   0.000313
     3  H    0.000039  -0.000001  -0.000203  -0.000004   0.000103   0.000060
     4  C   -0.005061  -0.000145   0.003242   0.000166  -0.008020  -0.019795
     5  H   -0.000617   0.000023   0.000877  -0.000049   0.000980  -0.001603
     6  H   -0.000299  -0.000006   0.000766   0.000037  -0.000354  -0.001661
     7  C    0.013003   0.000797  -0.038141  -0.002710   0.052006   0.007072
     8  H    0.005263   0.000023  -0.005862  -0.000514   0.023890   0.027815
     9  H    0.004547   0.000112  -0.005932  -0.000414   0.025057  -0.011517
    10  C    0.207983  -0.002198  -0.003738   0.018628  -0.196378  -0.099353
    11  H    0.019682  -0.000580  -0.046910   0.000230  -0.042373  -0.026020
    12  H    0.004403  -0.000379  -0.000956   0.002118  -0.125193   0.006762
    13  N    0.158185  -0.004036  -0.029834   0.011997  -0.531982  -0.366135
    14  C   -4.809055  -0.108240   5.056300  -0.107291 -10.537258  -1.243581
    15  C    6.524533  -0.233331  -8.810534   0.227339   6.211328   0.370965
    16  H   -0.194596  -0.023125   0.320532   0.017190  -0.831910  -0.017338
    17  C   -5.981702   0.471854   6.426651  -0.288379  -4.824398   0.164114
    18  H    0.334088  -0.040766  -0.334566  -0.022378  -0.038019  -0.019296
    19  C   14.326341  -0.984096  -7.158173   0.649528   3.250035  -0.271058
    20  H   -0.984096   1.672802   0.679315  -0.066576   0.036464   0.072142
    21  C   -7.158173   0.679315  24.523974  -1.738077 -11.296430  -2.012403
    22  H    0.649528  -0.066576  -1.738077   2.065607   1.230951  -0.181533
    23  C    3.250035   0.036464 -11.296430   1.230951  22.711812  -0.037411
    24  C   -0.271058   0.072142  -2.012403  -0.181533  -0.037411  11.303477
    25  H   -0.003051  -0.000452  -0.030421  -0.036436   0.050890   0.247600
    26  H    0.046436  -0.001682  -0.041462  -0.009780   0.260043  -0.277791
    27  C   -0.486658  -0.000713   0.222207  -0.001079   0.296970  -0.711900
    28  H   -0.011210   0.000260   0.057082  -0.000504  -0.029406   0.295694
    29  H   -0.032295  -0.000302  -0.004043   0.001036   0.185098  -0.390700
    30  C    0.105745   0.003928  -0.376919  -0.022054  -0.174369  -0.240617
    31  C    0.047869  -0.000308   0.250287   0.007760   0.246108   0.615699
    32  H   -0.000773   0.000031  -0.010896  -0.000858  -0.035834  -0.003819
    33  C    0.019452   0.000729  -0.071277  -0.005262  -0.118591   0.279252
    34  H    0.000284   0.000013  -0.000822  -0.000009   0.008872   0.002009
    35  C   -0.033729  -0.001088   0.114824   0.004965   0.009489  -0.061896
    36  H   -0.000582  -0.000046   0.002945   0.000102  -0.000672  -0.004497
    37  C   -0.134004   0.001090  -0.127219  -0.012535  -0.205613   0.221302
    38  H   -0.003324   0.000167   0.005309   0.000800  -0.070560   0.005445
    39  C    0.361012  -0.011688  -0.199148   0.000529   0.674235  -1.948597
    40  H   -0.001248  -0.000023   0.002394   0.000054  -0.002925  -0.000376
              25         26         27         28         29         30
     1  N   -0.000005  -0.000114  -0.001975  -0.000064   0.001179  -0.006012
     2  H    0.000027   0.000013   0.000633  -0.000016  -0.000041  -0.001901
     3  H   -0.000008   0.000002  -0.000215  -0.000004  -0.000097   0.001553
     4  C   -0.000616   0.000648   0.022164   0.000192  -0.000389   0.007226
     5  H   -0.000009   0.000183   0.007042  -0.000074   0.001251   0.003780
     6  H    0.000004  -0.000100  -0.001180  -0.000098   0.001848  -0.008967
     7  C    0.004206   0.004506  -0.206393  -0.001788  -0.049965   0.084218
     8  H   -0.001049   0.000928   0.005311   0.006622  -0.023573  -0.022763
     9  H    0.000237   0.000725   0.034800   0.003888   0.008657   0.031640
    10  C   -0.002447   0.014100  -0.112189  -0.005602   0.087961  -0.061980
    11  H   -0.003715   0.001124   0.056780  -0.000538   0.000743   0.034354
    12  H    0.001655  -0.000580  -0.046970   0.001015  -0.000706   0.052977
    13  N    0.025236   0.059256  -0.702211  -0.020647  -0.129397  -1.002210
    14  C    0.019937   0.079222  -1.674806   0.041004  -0.165388  -0.594771
    15  C    0.002123   0.019763  -0.446502  -0.037354   0.014043   0.404414
    16  H   -0.003278  -0.002047   0.013236   0.001315   0.002107  -0.055338
    17  C    0.015643  -0.029392   0.374643   0.013338   0.031018  -0.259089
    18  H    0.000845   0.000219   0.004311   0.000055   0.000016  -0.002001
    19  C   -0.003051   0.046436  -0.486658  -0.011210  -0.032295   0.105745
    20  H   -0.000452  -0.001682  -0.000713   0.000260  -0.000302   0.003928
    21  C   -0.030421  -0.041462   0.222207   0.057082  -0.004043  -0.376919
    22  H   -0.036436  -0.009780  -0.001079  -0.000504   0.001036  -0.022054
    23  C    0.050890   0.260043   0.296970  -0.029406   0.185098  -0.174369
    24  C    0.247600  -0.277791  -0.711900   0.295694  -0.390700  -0.240617
    25  H    1.082699  -0.214013  -0.127509  -0.046837   0.050755   0.017856
    26  H   -0.214013   1.217567  -0.158814  -0.014429  -0.033746   0.143194
    27  C   -0.127509  -0.158814   9.452879  -0.423965   0.599035  -1.329232
    28  H   -0.046837  -0.014429  -0.423965   1.536488  -0.307178  -0.170213
    29  H    0.050755  -0.033746   0.599035  -0.307178   1.299599  -0.106287
    30  C    0.017856   0.143194  -1.329232  -0.170213  -0.106287  17.315744
    31  C   -0.077081   0.008094   0.380253   0.314214  -0.019725  -5.482786
    32  H   -0.005834   0.005180  -0.141538  -0.034114   0.003730   0.789254
    33  C    0.007781   0.012107  -1.302456   0.096031  -0.095813  -1.003036
    34  H   -0.001733   0.000045   0.088194   0.002401   0.002891   0.262310
    35  C   -0.017815  -0.002953   1.287160   0.012383   0.040198  -0.533010
    36  H   -0.000650  -0.000237  -0.011841   0.001316  -0.001593  -0.249278
    37  C    0.083556  -0.011392  -1.648508  -0.078730   0.011599  -3.351416
    38  H   -0.000331  -0.001044   0.052725  -0.000968   0.000878   0.300127
    39  C   -0.114211  -0.051168   1.867548  -0.052689   0.097538   0.763118
    40  H    0.000051  -0.000049  -0.000612   0.000054   0.000316  -0.005026
              31         32         33         34         35         36
     1  N    0.001754   0.000080   0.000917  -0.000025   0.002824   0.001715
     2  H   -0.003010  -0.000019   0.000647  -0.000014   0.007312  -0.000400
     3  H    0.000178   0.000006  -0.000649   0.000013  -0.002704   0.000196
     4  C   -0.009332  -0.000656  -0.015622   0.000437  -0.011169  -0.000237
     5  H    0.000580  -0.000030  -0.002521  -0.000035   0.001543  -0.000169
     6  H   -0.000628   0.000058   0.000736   0.000064   0.003855   0.000283
     7  C   -0.191345  -0.001845   0.144824   0.000793  -0.144476  -0.004501
     8  H   -0.019438   0.001159   0.015936  -0.000512  -0.005568  -0.000865
     9  H    0.063592  -0.001746   0.002904  -0.003067  -0.035875  -0.001062
    10  C    0.101463   0.003239  -0.014742  -0.000322   0.042781   0.017650
    11  H    0.009445  -0.001715  -0.043413   0.001506   0.065280   0.011678
    12  H    0.004918   0.000692   0.009423   0.000024  -0.022488   0.001087
    13  N   -0.530598   0.010045   0.445067  -0.015521  -0.513527  -0.012240
    14  C    0.012431   0.066908   0.386533  -0.023986  -0.668105   0.004817
    15  C   -0.261665   0.005851   0.116631   0.001806  -0.151484  -0.008625
    16  H   -0.017783   0.000901   0.010122  -0.000059   0.014316  -0.001601
    17  C   -0.030078  -0.000347  -0.015794  -0.000318   0.085762   0.001336
    18  H    0.000825  -0.000029  -0.000944  -0.000018   0.002543   0.000147
    19  C    0.047869  -0.000773   0.019452   0.000284  -0.033729  -0.000582
    20  H   -0.000308   0.000031   0.000729   0.000013  -0.001088  -0.000046
    21  C    0.250287  -0.010896  -0.071277  -0.000822   0.114824   0.002945
    22  H    0.007760  -0.000858  -0.005262  -0.000009   0.004965   0.000102
    23  C    0.246108  -0.035834  -0.118591   0.008872   0.009489  -0.000672
    24  C    0.615699  -0.003819   0.279252   0.002009  -0.061896  -0.004497
    25  H   -0.077081  -0.005834   0.007781  -0.001733  -0.017815  -0.000650
    26  H    0.008094   0.005180   0.012107   0.000045  -0.002953  -0.000237
    27  C    0.380253  -0.141538  -1.302456   0.088194   1.287160  -0.011841
    28  H    0.314214  -0.034114   0.096031   0.002401   0.012383   0.001316
    29  H   -0.019725   0.003730  -0.095813   0.002891   0.040198  -0.001593
    30  C   -5.482786   0.789254  -1.003036   0.262310  -0.533010  -0.249278
    31  C   18.011134  -1.261084  -1.761989   0.090318   1.869554   0.003059
    32  H   -1.261084   1.947786   0.032178  -0.069155  -0.215699  -0.012719
    33  C   -1.761989   0.032178  10.302047  -0.762935  -3.068022   0.465580
    34  H    0.090318  -0.069155  -0.762935   1.686484   0.545375  -0.052689
    35  C    1.869554  -0.215699  -3.068022   0.545375  11.669340  -0.923177
    36  H    0.003059  -0.012719   0.465580  -0.052689  -0.923177   1.801998
    37  C   -2.611392   0.083318   1.663232   0.020767  -2.451065   0.056846
    38  H    0.054144   0.005820  -0.264905  -0.014043   0.345685  -0.101767
    39  C   -4.436807   0.453270  -0.112475  -0.306912  -1.463098   0.558500
    40  H   -0.000086  -0.000053   0.003441  -0.000044   0.007025  -0.000678
              37         38         39         40
     1  N   -0.005185  -0.011646  -0.004054   0.336886
     2  H   -0.001215  -0.002481  -0.005848  -0.042654
     3  H    0.000459   0.001120  -0.003095  -0.059073
     4  C   -0.086606   0.025250  -0.070998  -0.010422
     5  H   -0.002191   0.000050   0.018430  -0.030017
     6  H    0.000494  -0.001294   0.008195   0.021856
     7  C    1.025302   0.037093  -2.580292  -0.071093
     8  H   -0.093015  -0.010764   0.368439  -0.008255
     9  H   -0.008269  -0.009961   0.313501   0.005821
    10  C   -0.738449   0.109343   0.425421   0.141949
    11  H   -0.239424  -0.140970   0.720334  -0.031912
    12  H    0.061076   0.038462  -0.685011   0.011964
    13  N    2.426265  -0.296606  -3.520693  -0.025033
    14  C    2.905387   0.088490 -11.238900  -0.008222
    15  C   -0.015435  -0.072376   1.394280   0.003418
    16  H    0.075286   0.001642  -0.142938   0.002041
    17  C    0.192740   0.006535  -0.071549   0.005056
    18  H   -0.006553  -0.000456   0.017104   0.000015
    19  C   -0.134004  -0.003324   0.361012  -0.001248
    20  H    0.001090   0.000167  -0.011688  -0.000023
    21  C   -0.127219   0.005309  -0.199148   0.002394
    22  H   -0.012535   0.000800   0.000529   0.000054
    23  C   -0.205613  -0.070560   0.674235  -0.002925
    24  C    0.221302   0.005445  -1.948597  -0.000376
    25  H    0.083556  -0.000331  -0.114211   0.000051
    26  H   -0.011392  -0.001044  -0.051168  -0.000049
    27  C   -1.648508   0.052725   1.867548  -0.000612
    28  H   -0.078730  -0.000968  -0.052689   0.000054
    29  H    0.011599   0.000878   0.097538   0.000316
    30  C   -3.351416   0.300127   0.763118  -0.005026
    31  C   -2.611392   0.054144  -4.436807  -0.000086
    32  H    0.083318   0.005820   0.453270  -0.000053
    33  C    1.663232  -0.264905  -0.112475   0.003441
    34  H    0.020767  -0.014043  -0.306912  -0.000044
    35  C   -2.451065   0.345685  -1.463098   0.007025
    36  H    0.056846  -0.101767   0.558500  -0.000678
    37  C   20.066556  -1.932043 -10.589498   0.009512
    38  H   -1.932043   2.696802   0.897658   0.003718
    39  C  -10.589498   0.897658  36.318880  -0.011198
    40  H    0.009512   0.003718  -0.011198   0.507307
 Mulliken charges:
               1
     1  N   -0.516797
     2  H    0.264977
     3  H    0.181313
     4  C    1.245618
     5  H   -0.109365
     6  H   -0.122272
     7  C    0.470251
     8  H   -0.144526
     9  H   -0.249685
    10  C    0.664769
    11  H   -0.437043
    12  H   -0.525782
    13  N   -0.216147
    14  C    0.614666
    15  C    0.710911
    16  H   -0.886601
    17  C    0.399436
    18  H   -0.514161
    19  C    0.033522
    20  H   -0.459948
    21  C    0.677627
    22  H   -0.742588
    23  C   -0.165198
    24  C    0.330109
    25  H    0.076402
    26  H   -0.022564
    27  C    0.771378
    28  H   -0.146922
    29  H   -0.080259
    30  C    0.737840
    31  C    0.621454
    32  H   -0.610741
    33  C    0.644872
    34  H   -0.462388
    35  C    0.194731
    36  H   -0.539130
    37  C    1.444969
    38  H   -0.741723
    39  C   -1.637126
    40  H    0.246121
 Sum of Mulliken charges =   1.00000
 Mulliken charges with hydrogens summed into heavy atoms:
               1
     1  N    0.175613
     4  C    1.013981
     7  C    0.076041
    10  C   -0.298056
    13  N   -0.216147
    14  C    0.614666
    15  C   -0.175690
    17  C   -0.114726
    19  C   -0.426426
    21  C   -0.064960
    23  C   -0.165198
    24  C    0.383946
    27  C    0.544197
    30  C    0.737840
    31  C    0.010713
    33  C    0.182485
    35  C   -0.344398
    37  C    0.703246
    39  C   -1.637126
 Electronic spatial extent (au):  <R**2>=           5224.1830
 Charge=              1.0000 electrons
 Dipole moment (field-independent basis, Debye):
    X=            -16.3112    Y=             -8.2907    Z=              0.5267  Tot=             18.3049
 Quadrupole moment (field-independent basis, Debye-Ang):
   XX=            -28.3113   YY=            -77.9117   ZZ=           -108.4979
   XY=             39.2826   XZ=              4.9206   YZ=              3.9635
 Traceless Quadrupole moment (field-independent basis, Debye-Ang):
   XX=             43.2624   YY=             -6.3381   ZZ=            -36.9243
   XY=             39.2826   XZ=              4.9206   YZ=              3.9635
 Octapole moment (field-independent basis, Debye-Ang**2):
  XXX=           -318.0691  YYY=            -44.7175  ZZZ=             14.1419  XYY=           -106.2844
  XXY=           -181.5868  XXZ=            -10.1631  XZZ=            -36.5418  YZZ=            -12.2004
  YYZ=             -9.6367  XYZ=             20.3050
 Hexadecapole moment (field-independent basis, Debye-Ang**3):
 XXXX=          -1921.6954 YYYY=          -2252.1358 ZZZZ=           -729.5956 XXXY=            784.2885
 XXXZ=             41.9418 YYYX=            283.3557 YYYZ=             29.6974 ZZZX=             20.9105
 ZZZY=             -3.4983 XXYY=           -609.4477 XXZZ=           -686.3419 YYZZ=           -523.5436
 XXYZ=             40.3001 YYXZ=             13.8218 ZZXY=             49.3207
 N-N= 1.422218457987D+03 E-N=-4.609465039199D+03  KE= 7.639012824407D+02
 Leave Link  601 at Sun Jul 18 15:24:06 2021, MaxMem=   262144000 cpu:               1.8 elap:               0.7
 (Enter /prod/apps/gaussian/g16b1/l9999.exe)
 1\1\GINC-PIRINEUS11\SP\RMP2-FC\Aug-CC-pVDZ\C17H21N2(1+)\UBATOR02\18-Ju
 l-2021\0\\#p mp2/aug-cc-pVDZ scf=tight maxdisk=180GB geom=allcheck\\SE
 T_328_BBB20_conf1.geo_120_180_300 geometry\\1,1\N,0,2.0176653116,2.374
 5230989,3.3340310766\H,0,1.1227536386,2.3164341564,3.8487003575\H,0,2.
 6525803012,2.9735250878,3.8885623591\C,0,1.8181610973,2.9429421246,1.9
 528661719\H,0,2.8044880682,2.9750728439,1.4898755093\H,0,1.4682714251,
 3.9643058802,2.0991811189\C,0,0.8147837011,2.1374936249,1.1336248389\H
 ,0,0.5697382936,2.7325436697,0.248178104\H,0,-0.1128744336,2.024709125
 ,1.7027139224\C,0,1.3385818867,0.7702684027,0.673000442\H,0,1.68777339
 53,0.1727497742,1.5285851507\H,0,2.2058319157,0.931517076,0.03039315\N
 ,0,0.3350788595,0.0584731748,-0.1222038335\C,0,0.7983427185,-0.8406188
 267,-1.1289685782\C,0,2.1022541862,-1.3669791652,-1.0274018853\H,0,2.7
 071325774,-1.1253947707,-0.1617978497\C,0,2.6332372187,-2.2111726547,-
 1.9981013248\H,0,3.6422130398,-2.5913438286,-1.8811952971\C,0,1.859010
 0768,-2.5727734422,-3.0990798172\H,0,2.2533177392,-3.2298344957,-3.867
 091879\C,0,0.5646759946,-2.0702745727,-3.1975007975\H,0,-0.0485724159,
 -2.3359451584,-4.0541624075\C,0,0.0054847613,-1.2071656687,-2.24449172
 28\C,0,-1.4149908232,-0.7484108048,-2.5340870152\H,0,-2.0811831749,-1.
 6196483323,-2.4751103877\H,0,-1.4516861512,-0.4217293,-3.5789060944\C,
 0,-2.0012553707,0.356502057,-1.6497177989\H,0,-2.9959604444,0.61104497
 67,-2.0266621663\H,0,-1.3789069399,1.2548358596,-1.7267502627\C,0,-2.0
 964007565,-0.0721618439,-0.2137159797\C,0,-3.3192329079,-0.3449130248,
 0.4056465567\H,0,-4.2348645682,-0.2254364992,-0.1676483208\C,0,-3.3794
 263759,-0.7426301205,1.7426308177\H,0,-4.3393026323,-0.9382651246,2.20
 99689859\C,0,-2.1975919982,-0.8787784538,2.4735025917\H,0,-2.228247358
 9,-1.1875221554,3.5128821409\C,0,-0.9671622421,-0.6278014421,1.8639050
 413\H,0,-0.0499904031,-0.7451795447,2.4312650267\C,0,-0.9097860833,-0.
 2292520025,0.5221214351\H,0,2.431058874,1.4302902997,3.316958621\\Vers
 ion=ES64L-G16RevB.01\State=1-A\HF=-764.745726\MP2=-767.4598702\RMSD=5.
 507e-09\PG=C01 [X(C17H21N2)]\\@


0EVERYBODY IS IGNORANT, ONLY ON DIFFERENT SUBJECTS.
0          WILL ROGERS
 Job cpu time:       0 days  4 hours  8 minutes 24.9 seconds.
 Elapsed time:       0 days  1 hours  7 minutes 15.1 seconds.
 File lengths (MBytes):  RWF= 129252 Int=      0 D2E=      0 Chk=     33 Scr=      1
 Normal termination of Gaussian 16 at Sun Jul 18 15:24:10 2021.
