 Entering Gaussian System, Link 0=g16
 Initial command:
 /prod/apps/gaussian/g16b1/l1.exe "/tmp/ubator02/1839659/Gau-166653.inp" -scrdir="/tmp/ubator02/1839659/"
 Entering Link 1 = /prod/apps/gaussian/g16b1/l1.exe PID=    166654.
  
 Copyright (c) 1988-2017, Gaussian, Inc.  All Rights Reserved.
  
 This is part of the Gaussian(R) 16 program.  It is based on
 the Gaussian(R) 09 system (copyright 2009, Gaussian, Inc.),
 the Gaussian(R) 03 system (copyright 2003, Gaussian, Inc.),
 the Gaussian(R) 98 system (copyright 1998, Gaussian, Inc.),
 the Gaussian(R) 94 system (copyright 1995, Gaussian, Inc.),
 the Gaussian 92(TM) system (copyright 1992, Gaussian, Inc.),
 the Gaussian 90(TM) system (copyright 1990, Gaussian, Inc.),
 the Gaussian 88(TM) system (copyright 1988, Gaussian, Inc.),
 the Gaussian 86(TM) system (copyright 1986, Carnegie Mellon
 University), and the Gaussian 82(TM) system (copyright 1983,
 Carnegie Mellon University). Gaussian is a federally registered
 trademark of Gaussian, Inc.
  
 This software contains proprietary and confidential information,
 including trade secrets, belonging to Gaussian, Inc.
  
 This software is provided under written license and may be
 used, copied, transmitted, or stored only in accord with that
 written license.
  
 The following legend is applicable only to US Government
 contracts under FAR:
  
                    RESTRICTED RIGHTS LEGEND
  
 Use, reproduction and disclosure by the US Government is
 subject to restrictions as set forth in subparagraphs (a)
 and (c) of the Commercial Computer Software - Restricted
 Rights clause in FAR 52.227-19.
  
 Gaussian, Inc.
 340 Quinnipiac St., Bldg. 40, Wallingford CT 06492
  
  
 ---------------------------------------------------------------
 Warning -- This program may not be used in any manner that
 competes with the business of Gaussian, Inc. or will provide
 assistance to any competitor of Gaussian, Inc.  The licensee
 of this program is prohibited from giving any competitor of
 Gaussian, Inc. access to this program.  By using this program,
 the user acknowledges that Gaussian, Inc. is engaged in the
 business of creating and licensing software in the field of
 computational chemistry and represents and warrants to the
 licensee that it is not a competitor of Gaussian, Inc. and that
 it will not use this program in any manner prohibited above.
 ---------------------------------------------------------------
  

 Cite this work as:
 Gaussian 16, Revision B.01,
 M. J. Frisch, G. W. Trucks, H. B. Schlegel, G. E. Scuseria, 
 M. A. Robb, J. R. Cheeseman, G. Scalmani, V. Barone, 
 G. A. Petersson, H. Nakatsuji, X. Li, M. Caricato, A. V. Marenich, 
 J. Bloino, B. G. Janesko, R. Gomperts, B. Mennucci, H. P. Hratchian, 
 J. V. Ortiz, A. F. Izmaylov, J. L. Sonnenberg, D. Williams-Young, 
 F. Ding, F. Lipparini, F. Egidi, J. Goings, B. Peng, A. Petrone, 
 T. Henderson, D. Ranasinghe, V. G. Zakrzewski, J. Gao, N. Rega, 
 G. Zheng, W. Liang, M. Hada, M. Ehara, K. Toyota, R. Fukuda, 
 J. Hasegawa, M. Ishida, T. Nakajima, Y. Honda, O. Kitao, H. Nakai, 
 T. Vreven, K. Throssell, J. A. Montgomery, Jr., J. E. Peralta, 
 F. Ogliaro, M. J. Bearpark, J. J. Heyd, E. N. Brothers, K. N. Kudin, 
 V. N. Staroverov, T. A. Keith, R. Kobayashi, J. Normand, 
 K. Raghavachari, A. P. Rendell, J. C. Burant, S. S. Iyengar, 
 J. Tomasi, M. Cossi, J. M. Millam, M. Klene, C. Adamo, R. Cammi, 
 J. W. Ochterski, R. L. Martin, K. Morokuma, O. Farkas, 
 J. B. Foresman, and D. J. Fox, Gaussian, Inc., Wallingford CT, 2016.
 
 ******************************************
 Gaussian 16:  ES64L-G16RevB.01 20-Dec-2017
                18-Jul-2021 
 ******************************************
 %mem=800MB
 %nproc=4
 Will use up to    4 processors via shared memory.
 %chk=SET_328_BBB321_conf1.geo_165_150_225.chk
 -----------------------------------------------------------
 #p b3lyp/6-31G(d) opt freq scrf=(iefpcm,read,solvent=water)
 -----------------------------------------------------------
 1/18=20,19=15,26=3,38=1,40=2/1,3;
 2/9=110,12=2,17=6,18=5,40=1/2;
 3/5=1,6=6,7=1,11=2,25=1,30=1,70=2203,71=1,72=1,74=-5/1,2,3;
 4//1;
 5/5=2,38=5,53=1/2;
 6/7=2,8=2,9=2,10=2,28=1/1;
 7//1,2,3,16;
 1/18=20,19=15,26=3/3(2);
 2/9=110/2;
 99//99;
 2/9=110/2;
 3/5=1,6=6,7=1,11=2,25=1,30=1,70=2205,71=1,72=1,74=-5/1,2,3;
 4/5=5,16=3,69=1/1;
 5/5=2,38=5,53=1/2;
 7//1,2,3,16;
 1/18=20,19=15,26=3/3(-5);
 2/9=110/2;
 6/7=2,8=2,9=2,10=2,19=2,28=1/1;
 99/9=1/99;
 Leave Link    1 at Sun Jul 18 15:15:53 2021, MaxMem=   104857600 cpu:               0.1 elap:               0.0
 (Enter /prod/apps/gaussian/g16b1/l101.exe)
 ---------------------------------------------
 SET_328_BBB321_conf1.geo_165_150_225 geometry
 ---------------------------------------------
 Symbolic Z-matrix:
 Charge =  1 Multiplicity = 1
 C                    -4.065     2.048     3.841 
 H                    -5.101     2.36      3.698 
 H                    -3.583     2.629     4.63 
 H                    -3.942     1.027     4.21 
 C                    -3.38      2.333     2.568 
 O                    -3.796     2.986     1.64 
 N                    -2.146     1.845     2.618 
 H                    -1.776     1.575     3.517 
 C                    -1.274     1.8       1.451 
 C                    -1.103     2.868     0.591 
 C                    -0.34      2.718    -0.583 
 C                     0.303     1.495    -0.837 
 H                     0.953     1.39     -1.702 
 H                    -0.284     3.628    -1.175 
 H                    -1.655     3.792     0.746 
 C                    -0.589     0.616     1.24 
 H                    -0.712    -0.152     2. 
 C                     0.236     0.475     0.115 
 C                     0.904    -0.778    -0.152 
 N                     1.304    -1.335    -1.375 
 C                     1.254    -1.52      0.924 
 H                     1.127    -1.266     1.969 
 S                     2.14     -2.931     0.493 
 C                     2.082    -2.432    -1.138 
 N                     2.704    -3.26     -2.089 
 C                     2.487    -3.147    -3.296 
 N                     2.965    -4.15     -3.905 
 H                     3.9      -3.825    -4.125 
 H                     2.88     -4.823    -3.151 
 N                     3.038    -2.226    -4.033 
 H                     2.774    -2.405    -4.996 
 H                     2.695    -1.334    -3.695 
 H                     3.343    -3.963    -1.775 
 
 ITRead=  0  0  0  0  0  0  0  0  0  0  0  0  0  0  0  0  0  0  0  0
 ITRead=  0  0  0  0  0  0  0  0  0  0  0  0  0
 MicOpt= -1 -1 -1 -1 -1 -1 -1 -1 -1 -1 -1 -1 -1 -1 -1 -1 -1 -1 -1 -1
 MicOpt= -1 -1 -1 -1 -1 -1 -1 -1 -1 -1 -1 -1 -1
 NAtoms=     33 NQM=       33 NQMF=       0 NMMI=      0 NMMIF=      0
                NMic=       0 NMicF=      0.
                    Isotopes and Nuclear Properties:
 (Nuclear quadrupole moments (NQMom) in fm**2, nuclear magnetic moments (NMagM)
  in nuclear magnetons)

  Atom         1           2           3           4           5           6           7           8           9          10
 IAtWgt=          12           1           1           1          12          16          14           1          12          12
 AtmWgt=  12.0000000   1.0078250   1.0078250   1.0078250  12.0000000  15.9949146  14.0030740   1.0078250  12.0000000  12.0000000
 NucSpn=           0           1           1           1           0           0           2           1           0           0
 AtZEff=  -0.0000000  -0.0000000  -0.0000000  -0.0000000  -0.0000000  -0.0000000  -0.0000000  -0.0000000  -0.0000000  -0.0000000
 NQMom=    0.0000000   0.0000000   0.0000000   0.0000000   0.0000000   0.0000000   2.0440000   0.0000000   0.0000000   0.0000000
 NMagM=    0.0000000   2.7928460   2.7928460   2.7928460   0.0000000   0.0000000   0.4037610   2.7928460   0.0000000   0.0000000
 AtZNuc=   6.0000000   1.0000000   1.0000000   1.0000000   6.0000000   8.0000000   7.0000000   1.0000000   6.0000000   6.0000000

  Atom        11          12          13          14          15          16          17          18          19          20
 IAtWgt=          12          12           1           1           1          12           1          12          12          14
 AtmWgt=  12.0000000  12.0000000   1.0078250   1.0078250   1.0078250  12.0000000   1.0078250  12.0000000  12.0000000  14.0030740
 NucSpn=           0           0           1           1           1           0           1           0           0           2
 AtZEff=  -0.0000000  -0.0000000  -0.0000000  -0.0000000  -0.0000000  -0.0000000  -0.0000000  -0.0000000  -0.0000000  -0.0000000
 NQMom=    0.0000000   0.0000000   0.0000000   0.0000000   0.0000000   0.0000000   0.0000000   0.0000000   0.0000000   2.0440000
 NMagM=    0.0000000   0.0000000   2.7928460   2.7928460   2.7928460   0.0000000   2.7928460   0.0000000   0.0000000   0.4037610
 AtZNuc=   6.0000000   6.0000000   1.0000000   1.0000000   1.0000000   6.0000000   1.0000000   6.0000000   6.0000000   7.0000000

  Atom        21          22          23          24          25          26          27          28          29          30
 IAtWgt=          12           1          32          12          14          12          14           1           1          14
 AtmWgt=  12.0000000   1.0078250  31.9720718  12.0000000  14.0030740  12.0000000  14.0030740   1.0078250   1.0078250  14.0030740
 NucSpn=           0           1           0           0           2           0           2           1           1           2
 AtZEff=  -0.0000000  -0.0000000  -0.0000000  -0.0000000  -0.0000000  -0.0000000  -0.0000000  -0.0000000  -0.0000000  -0.0000000
 NQMom=    0.0000000   0.0000000   0.0000000   0.0000000   2.0440000   0.0000000   2.0440000   0.0000000   0.0000000   2.0440000
 NMagM=    0.0000000   2.7928460   0.0000000   0.0000000   0.4037610   0.0000000   0.4037610   2.7928460   2.7928460   0.4037610
 AtZNuc=   6.0000000   1.0000000  16.0000000   6.0000000   7.0000000   6.0000000   7.0000000   1.0000000   1.0000000   7.0000000

  Atom        31          32          33
 IAtWgt=           1           1           1
 AtmWgt=   1.0078250   1.0078250   1.0078250
 NucSpn=           1           1           1
 AtZEff=  -0.0000000  -0.0000000  -0.0000000
 NQMom=    0.0000000   0.0000000   0.0000000
 NMagM=    2.7928460   2.7928460   2.7928460
 AtZNuc=   1.0000000   1.0000000   1.0000000
 Leave Link  101 at Sun Jul 18 15:15:53 2021, MaxMem=   104857600 cpu:               0.5 elap:               0.1
 (Enter /prod/apps/gaussian/g16b1/l103.exe)

 GradGradGradGradGradGradGradGradGradGradGradGradGradGradGradGradGradGrad
 Berny optimization.
 Initialization pass.
                           ----------------------------
                           !    Initial Parameters    !
                           ! (Angstroms and Degrees)  !
 --------------------------                            --------------------------
 ! Name  Definition              Value          Derivative Info.                !
 --------------------------------------------------------------------------------
 ! R1    R(1,2)                  1.0914         estimate D2E/DX2                !
 ! R2    R(1,3)                  1.092          estimate D2E/DX2                !
 ! R3    R(1,4)                  1.0926         estimate D2E/DX2                !
 ! R4    R(1,5)                  1.4734         estimate D2E/DX2                !
 ! R5    R(5,6)                  1.2086         estimate D2E/DX2                !
 ! R6    R(5,7)                  1.3279         estimate D2E/DX2                !
 ! R7    R(7,8)                  1.009          estimate D2E/DX2                !
 ! R8    R(7,9)                  1.4575         estimate D2E/DX2                !
 ! R9    R(9,10)                 1.3818         estimate D2E/DX2                !
 ! R10   R(9,16)                 1.3841         estimate D2E/DX2                !
 ! R11   R(10,11)                1.4082         estimate D2E/DX2                !
 ! R12   R(10,15)                1.0874         estimate D2E/DX2                !
 ! R13   R(11,12)                1.4049         estimate D2E/DX2                !
 ! R14   R(11,14)                1.0871         estimate D2E/DX2                !
 ! R15   R(12,13)                1.0871         estimate D2E/DX2                !
 ! R16   R(12,18)                1.3969         estimate D2E/DX2                !
 ! R17   R(16,17)                1.0875         estimate D2E/DX2                !
 ! R18   R(16,18)                1.4022         estimate D2E/DX2                !
 ! R19   R(18,19)                1.4448         estimate D2E/DX2                !
 ! R20   R(19,20)                1.4021         estimate D2E/DX2                !
 ! R21   R(19,21)                1.3531         estimate D2E/DX2                !
 ! R22   R(20,24)                1.3656         estimate D2E/DX2                !
 ! R23   R(21,22)                1.0829         estimate D2E/DX2                !
 ! R24   R(21,23)                1.721          estimate D2E/DX2                !
 ! R25   R(23,24)                1.7066         estimate D2E/DX2                !
 ! R26   R(24,25)                1.406          estimate D2E/DX2                !
 ! R27   R(25,26)                1.2315         estimate D2E/DX2                !
 ! R28   R(25,33)                1.0006         estimate D2E/DX2                !
 ! R29   R(26,27)                1.267          estimate D2E/DX2                !
 ! R30   R(26,30)                1.3019         estimate D2E/DX2                !
 ! R31   R(27,28)                1.014          estimate D2E/DX2                !
 ! R32   R(27,29)                1.0142         estimate D2E/DX2                !
 ! R33   R(30,31)                1.0144         estimate D2E/DX2                !
 ! R34   R(30,32)                1.0137         estimate D2E/DX2                !
 ! A1    A(2,1,3)              111.197          estimate D2E/DX2                !
 ! A2    A(2,1,4)              114.7253         estimate D2E/DX2                !
 ! A3    A(2,1,5)              105.8319         estimate D2E/DX2                !
 ! A4    A(3,1,4)              101.7409         estimate D2E/DX2                !
 ! A5    A(3,1,5)              108.4293         estimate D2E/DX2                !
 ! A6    A(4,1,5)              114.8478         estimate D2E/DX2                !
 ! A7    A(1,5,6)              127.4369         estimate D2E/DX2                !
 ! A8    A(1,5,7)              109.172          estimate D2E/DX2                !
 ! A9    A(6,5,7)              123.1839         estimate D2E/DX2                !
 ! A10   A(5,7,8)              118.2074         estimate D2E/DX2                !
 ! A11   A(5,7,9)              122.4908         estimate D2E/DX2                !
 ! A12   A(8,7,9)              119.0625         estimate D2E/DX2                !
 ! A13   A(7,9,10)             123.2636         estimate D2E/DX2                !
 ! A14   A(7,9,16)             116.3967         estimate D2E/DX2                !
 ! A15   A(10,9,16)            120.3344         estimate D2E/DX2                !
 ! A16   A(9,10,11)            120.2377         estimate D2E/DX2                !
 ! A17   A(9,10,15)            120.3447         estimate D2E/DX2                !
 ! A18   A(11,10,15)           118.9727         estimate D2E/DX2                !
 ! A19   A(10,11,12)           119.4363         estimate D2E/DX2                !
 ! A20   A(10,11,14)           113.1268         estimate D2E/DX2                !
 ! A21   A(12,11,14)           127.3516         estimate D2E/DX2                !
 ! A22   A(11,12,13)           120.1068         estimate D2E/DX2                !
 ! A23   A(11,12,18)           119.3737         estimate D2E/DX2                !
 ! A24   A(13,12,18)           120.0298         estimate D2E/DX2                !
 ! A25   A(9,16,17)            116.2081         estimate D2E/DX2                !
 ! A26   A(9,16,18)            119.9691         estimate D2E/DX2                !
 ! A27   A(17,16,18)           123.7973         estimate D2E/DX2                !
 ! A28   A(12,18,16)           120.1058         estimate D2E/DX2                !
 ! A29   A(12,18,19)           119.0219         estimate D2E/DX2                !
 ! A30   A(16,18,19)           120.4973         estimate D2E/DX2                !
 ! A31   A(18,19,20)           129.6126         estimate D2E/DX2                !
 ! A32   A(18,19,21)           116.6288         estimate D2E/DX2                !
 ! A33   A(20,19,21)           113.7025         estimate D2E/DX2                !
 ! A34   A(19,20,24)           109.2849         estimate D2E/DX2                !
 ! A35   A(19,21,22)           127.4759         estimate D2E/DX2                !
 ! A36   A(19,21,23)           112.5584         estimate D2E/DX2                !
 ! A37   A(22,21,23)           119.628          estimate D2E/DX2                !
 ! A38   A(21,23,24)            88.9754         estimate D2E/DX2                !
 ! A39   A(20,24,23)           114.8412         estimate D2E/DX2                !
 ! A40   A(20,24,25)           127.4246         estimate D2E/DX2                !
 ! A41   A(23,24,25)           117.3348         estimate D2E/DX2                !
 ! A42   A(24,25,26)           122.0674         estimate D2E/DX2                !
 ! A43   A(24,25,33)           118.9486         estimate D2E/DX2                !
 ! A44   A(26,25,33)           118.984          estimate D2E/DX2                !
 ! A45   A(25,26,27)           109.3879         estimate D2E/DX2                !
 ! A46   A(25,26,30)           123.0341         estimate D2E/DX2                !
 ! A47   A(27,26,30)            97.3682         estimate D2E/DX2                !
 ! A48   A(26,27,28)           101.4448         estimate D2E/DX2                !
 ! A49   A(26,27,29)            97.836          estimate D2E/DX2                !
 ! A50   A(28,27,29)           116.8231         estimate D2E/DX2                !
 ! A51   A(26,30,31)           107.6026         estimate D2E/DX2                !
 ! A52   A(26,30,32)           106.8901         estimate D2E/DX2                !
 ! A53   A(31,30,32)           112.5654         estimate D2E/DX2                !
 ! D1    D(2,1,5,6)             11.8378         estimate D2E/DX2                !
 ! D2    D(2,1,5,7)           -173.3082         estimate D2E/DX2                !
 ! D3    D(3,1,5,6)           -107.545          estimate D2E/DX2                !
 ! D4    D(3,1,5,7)             67.309          estimate D2E/DX2                !
 ! D5    D(4,1,5,6)            139.4583         estimate D2E/DX2                !
 ! D6    D(4,1,5,7)            -45.6876         estimate D2E/DX2                !
 ! D7    D(1,5,7,8)            -14.3724         estimate D2E/DX2                !
 ! D8    D(1,5,7,9)            171.3047         estimate D2E/DX2                !
 ! D9    D(6,5,7,8)            160.746          estimate D2E/DX2                !
 ! D10   D(6,5,7,9)            -13.5769         estimate D2E/DX2                !
 ! D11   D(5,7,9,10)            46.319          estimate D2E/DX2                !
 ! D12   D(5,7,9,16)          -134.5182         estimate D2E/DX2                !
 ! D13   D(8,7,9,10)          -127.9573         estimate D2E/DX2                !
 ! D14   D(8,7,9,16)            51.2055         estimate D2E/DX2                !
 ! D15   D(7,9,10,11)         -174.2733         estimate D2E/DX2                !
 ! D16   D(7,9,10,15)           -2.0042         estimate D2E/DX2                !
 ! D17   D(16,9,10,11)           6.5956         estimate D2E/DX2                !
 ! D18   D(16,9,10,15)         178.8647         estimate D2E/DX2                !
 ! D19   D(7,9,16,17)           -3.8971         estimate D2E/DX2                !
 ! D20   D(7,9,16,18)          177.8719         estimate D2E/DX2                !
 ! D21   D(10,9,16,17)         175.2918         estimate D2E/DX2                !
 ! D22   D(10,9,16,18)          -2.9392         estimate D2E/DX2                !
 ! D23   D(9,10,11,12)          -3.3078         estimate D2E/DX2                !
 ! D24   D(9,10,11,14)         179.805          estimate D2E/DX2                !
 ! D25   D(15,10,11,12)       -175.6821         estimate D2E/DX2                !
 ! D26   D(15,10,11,14)          7.4306         estimate D2E/DX2                !
 ! D27   D(10,11,12,13)       -175.5453         estimate D2E/DX2                !
 ! D28   D(10,11,12,18)         -3.5699         estimate D2E/DX2                !
 ! D29   D(14,11,12,13)          0.853          estimate D2E/DX2                !
 ! D30   D(14,11,12,18)        172.8284         estimate D2E/DX2                !
 ! D31   D(11,12,18,16)          7.2098         estimate D2E/DX2                !
 ! D32   D(11,12,18,19)       -179.7842         estimate D2E/DX2                !
 ! D33   D(13,12,18,16)        179.1914         estimate D2E/DX2                !
 ! D34   D(13,12,18,19)         -7.8025         estimate D2E/DX2                !
 ! D35   D(9,16,18,12)          -4.0146         estimate D2E/DX2                !
 ! D36   D(9,16,18,19)        -176.9163         estimate D2E/DX2                !
 ! D37   D(17,16,18,12)        177.8954         estimate D2E/DX2                !
 ! D38   D(17,16,18,19)          4.9936         estimate D2E/DX2                !
 ! D39   D(12,18,19,20)        -21.3547         estimate D2E/DX2                !
 ! D40   D(12,18,19,21)        155.7214         estimate D2E/DX2                !
 ! D41   D(16,18,19,20)        151.6232         estimate D2E/DX2                !
 ! D42   D(16,18,19,21)        -31.3007         estimate D2E/DX2                !
 ! D43   D(18,19,20,24)        170.6139         estimate D2E/DX2                !
 ! D44   D(21,19,20,24)         -6.5316         estimate D2E/DX2                !
 ! D45   D(18,19,21,22)         -2.6559         estimate D2E/DX2                !
 ! D46   D(18,19,21,23)       -175.8829         estimate D2E/DX2                !
 ! D47   D(20,19,21,22)        174.8844         estimate D2E/DX2                !
 ! D48   D(20,19,21,23)          1.6574         estimate D2E/DX2                !
 ! D49   D(19,20,24,23)          8.7902         estimate D2E/DX2                !
 ! D50   D(19,20,24,25)       -178.7198         estimate D2E/DX2                !
 ! D51   D(19,21,23,24)          2.7744         estimate D2E/DX2                !
 ! D52   D(22,21,23,24)       -171.0444         estimate D2E/DX2                !
 ! D53   D(21,23,24,20)         -6.7938         estimate D2E/DX2                !
 ! D54   D(21,23,24,25)        179.9161         estimate D2E/DX2                !
 ! D55   D(20,24,25,26)         -7.7556         estimate D2E/DX2                !
 ! D56   D(20,24,25,33)        172.2409         estimate D2E/DX2                !
 ! D57   D(23,24,25,26)        164.5716         estimate D2E/DX2                !
 ! D58   D(23,24,25,33)        -15.4319         estimate D2E/DX2                !
 ! D59   D(24,25,26,27)       -168.0112         estimate D2E/DX2                !
 ! D60   D(24,25,26,30)         78.9716         estimate D2E/DX2                !
 ! D61   D(33,25,26,27)         11.9923         estimate D2E/DX2                !
 ! D62   D(33,25,26,30)       -101.0249         estimate D2E/DX2                !
 ! D63   D(25,26,27,28)        -90.8492         estimate D2E/DX2                !
 ! D64   D(25,26,27,29)         28.662          estimate D2E/DX2                !
 ! D65   D(30,26,27,28)         38.0705         estimate D2E/DX2                !
 ! D66   D(30,26,27,29)        157.5816         estimate D2E/DX2                !
 ! D67   D(25,26,30,31)        174.3216         estimate D2E/DX2                !
 ! D68   D(25,26,30,32)        -64.5425         estimate D2E/DX2                !
 ! D69   D(27,26,30,31)         55.4167         estimate D2E/DX2                !
 ! D70   D(27,26,30,32)        176.5527         estimate D2E/DX2                !
 --------------------------------------------------------------------------------
 Trust Radius=3.00D-01 FncErr=1.00D-07 GrdErr=1.00D-06 EigMax=2.50D+02 EigMin=1.00D-04
 Number of steps in this run=    167 maximum allowed number of steps=    198.
 GradGradGradGradGradGradGradGradGradGradGradGradGradGradGradGradGradGrad

 Leave Link  103 at Sun Jul 18 15:15:53 2021, MaxMem=   104857600 cpu:               0.1 elap:               0.0
 (Enter /prod/apps/gaussian/g16b1/l202.exe)
                          Input orientation:                          
 ---------------------------------------------------------------------
 Center     Atomic      Atomic             Coordinates (Angstroms)
 Number     Number       Type             X           Y           Z
 ---------------------------------------------------------------------
      1          6           0       -4.065000    2.048000    3.841000
      2          1           0       -5.101000    2.360000    3.698000
      3          1           0       -3.583000    2.629000    4.630000
      4          1           0       -3.942000    1.027000    4.210000
      5          6           0       -3.380000    2.333000    2.568000
      6          8           0       -3.796000    2.986000    1.640000
      7          7           0       -2.146000    1.845000    2.618000
      8          1           0       -1.776000    1.575000    3.517000
      9          6           0       -1.274000    1.800000    1.451000
     10          6           0       -1.103000    2.868000    0.591000
     11          6           0       -0.340000    2.718000   -0.583000
     12          6           0        0.303000    1.495000   -0.837000
     13          1           0        0.953000    1.390000   -1.702000
     14          1           0       -0.284000    3.628000   -1.175000
     15          1           0       -1.655000    3.792000    0.746000
     16          6           0       -0.589000    0.616000    1.240000
     17          1           0       -0.712000   -0.152000    2.000000
     18          6           0        0.236000    0.475000    0.115000
     19          6           0        0.904000   -0.778000   -0.152000
     20          7           0        1.304000   -1.335000   -1.375000
     21          6           0        1.254000   -1.520000    0.924000
     22          1           0        1.127000   -1.266000    1.969000
     23         16           0        2.140000   -2.931000    0.493000
     24          6           0        2.082000   -2.432000   -1.138000
     25          7           0        2.704000   -3.260000   -2.089000
     26          6           0        2.487000   -3.147000   -3.296000
     27          7           0        2.965000   -4.150000   -3.905000
     28          1           0        3.900000   -3.825000   -4.125000
     29          1           0        2.880000   -4.823000   -3.151000
     30          7           0        3.038000   -2.226000   -4.033000
     31          1           0        2.774000   -2.405000   -4.996000
     32          1           0        2.695000   -1.334000   -3.695000
     33          1           0        3.343000   -3.963000   -1.775000
 ---------------------------------------------------------------------
                    Distance matrix (angstroms):
                    1          2          3          4          5
     1  C    0.000000
     2  H    1.091370   0.000000
     3  H    1.091973   1.801474   0.000000
     4  H    1.092580   1.839107   1.694605   0.000000
     5  C    1.473424   2.058997   2.093005   2.172014   0.000000
     6  O    2.407614   2.516002   3.018761   3.234795   1.208573
     7  N    2.284622   3.188048   2.593794   2.535588   1.327931
     8  H    2.359709   3.421200   2.369585   2.339254   2.011959
     9  C    3.682837   4.473090   4.015565   3.915078   2.442747
    10  C    4.473069   5.088764   4.745634   4.954429   3.062594
    11  C    5.822053   6.412663   6.140060   6.229505   4.395296
    12  C    6.424089   7.107578   6.802576   6.611449   5.085347
    13  H    7.505874   8.170178   7.886992   7.684044   6.156057
    14  H    6.477084   6.968317   6.751254   7.010306   5.027155
    15  H    4.292862   4.758135   4.489455   4.987473   2.902411
    16  C    4.571477   5.425997   4.950586   4.498047   3.535725
    17  H    4.412696   5.334479   4.784715   4.087425   3.689996
    18  C    5.903898   6.698857   6.293624   5.876173   4.748140
    19  C    6.972897   7.792918   7.389746   6.765263   5.952258
    20  N    8.214469   8.967295   8.698051   8.018216   7.137319
    21  C    7.037846   7.945785   7.371920   6.654579   6.246783
    22  H    6.437689   7.411161   6.666037   5.997891   5.798677
    23  S    8.631429   9.523591   8.987831   8.153072   7.904791
    24  C    9.091009   9.896749   9.538122   8.766662   8.140830
    25  N   10.447924  11.224607  10.924818  10.110642   9.486008
    26  C   10.993339  11.697044  11.533800  10.728204   9.941760
    27  N   12.158808  12.854807  12.715242  11.847413  11.143969
    28  H   12.703956  13.433970  13.202251  12.430249  11.649704
    29  H   12.013814  12.735802  12.563703  11.616648  11.095174
    30  N   11.433266  12.126132  11.935503  11.280490  10.273675
    31  H   12.028869  12.661220  12.586202  11.900996  10.841331
    32  H   10.673651  11.361325  11.154563  10.588348   9.464549
    33  H   11.070232  11.884241  11.508604  10.667312  10.183319
                    6          7          8          9         10
     6  O    0.000000
     7  N    2.231785   0.000000
     8  H    3.097491   1.008960   0.000000
     9  C    2.793349   1.457497   2.137986   0.000000
    10  C    2.892503   2.498621   3.268984   1.381834   0.000000
    11  C    4.117947   3.777587   4.492054   2.419140   1.408171
    12  C    5.016015   4.249368   4.825553   2.795514   2.429228
    13  H    6.022390   5.336031   5.892336   3.881886   3.416060
    14  H    4.546486   4.586173   5.334392   3.349263   2.089765
    15  H    2.456166   2.745227   3.550799   2.147149   1.087430
    16  C    4.007711   2.415279   2.741054   1.384053   2.399354
    17  H    4.414488   2.535013   2.532965   2.104174   3.355378
    18  C    4.988764   3.716966   4.102651   2.412596   2.783154
    19  C    6.282433   4.884212   5.116695   3.736225   4.227696
    20  N    7.332889   6.161083   6.471952   4.945764   5.227238
    21  C    6.805820   5.074728   5.048126   4.206057   4.992082
    22  H    6.513346   4.562023   4.346837   3.928547   4.895073
    23  S    8.459468   6.759852   6.692060   5.912319   6.644927
    24  C    8.463031   7.090575   7.253223   5.989614   6.420566
    25  N    9.755407   8.469910   8.653026   7.345726   7.695975
    26  C   10.072431   9.019986   9.321342   7.819971   8.011061
    27  N   11.286303  10.227995  10.504227   9.058607   9.274425
    28  H   11.783606  10.685086  10.944274   9.460585   9.595151
    29  H   11.335922  10.149101  10.347703   9.071838   9.434953
    30  N   10.298127   9.363904   9.727523   8.054581   8.029825
    31  H   10.782591  10.012087  10.440980   8.696674   8.605244
    32  H    9.447630   8.567105   8.970232   7.215001   7.102915
    33  H   10.531674   9.119234   9.212973   8.058284   8.486898
                   11         12         13         14         15
    11  C    0.000000
    12  C    1.404882   0.000000
    13  H    2.165085   1.087083   0.000000
    14  H    1.087060   2.237968   2.610851   0.000000
    15  H    2.156141   3.408205   4.308593   2.365751   0.000000
    16  C    2.793516   2.425332   3.410602   3.872647   3.386350
    17  H    3.879069   3.433861   4.342211   4.955019   4.244632
    18  C    2.418683   1.396851   2.157036   3.446144   3.869952
    19  C    3.735681   2.448868   2.665544   4.676613   5.314112
    20  N    4.444863   3.049647   2.766904   5.214702   6.288120
    21  C    4.772057   3.618805   3.931231   5.768288   6.058986
    22  H    4.953489   4.021907   4.534408   5.985557   5.900730
    23  S    6.262538   4.973223   4.989793   7.188775   7.724297
    24  C    5.718095   4.321663   4.024975   6.505607   7.500187
    25  N    6.875351   5.471959   4.983801   7.563603   8.761781
    26  C    7.053405   5.688998   5.047609   7.620873   9.035688
    27  N    8.314333   6.954487   6.292293   8.860372  10.298134
    28  H    8.563540   7.214690   6.461576   9.041878  10.611473
    29  H    8.592421   7.205043   6.664405   9.237688  10.486709
    30  N    6.910609   5.616091   4.780820   7.312535   9.004411
    31  H    7.444239   6.213946   5.344951   7.768429   9.538837
    32  H    5.942598   4.679003   3.798261   6.312391   8.057348
    33  H    7.721471   6.317532   5.862767   8.434359   9.564281
                   16         17         18         19         20
    16  C    0.000000
    17  H    1.087453   0.000000
    18  C    1.402188   2.201149   0.000000
    19  C    2.471831   2.763048   1.444826   0.000000
    20  N    3.772012   4.105407   2.576203   1.402133   0.000000
    21  C    2.838838   2.625711   2.381350   1.353085   2.306973
    22  H    2.649155   2.150320   2.694861   2.187810   3.349392
    23  S    4.537252   4.257675   3.920323   2.564981   2.595291
    24  C    4.698875   4.780364   3.664475   2.257343   1.365600
    25  N    6.078607   6.168358   4.989876   3.626609   2.485039
    26  C    6.648101   6.873954   5.460843   4.242969   2.893626
    27  N    7.862360   8.023301   6.708090   5.450056   4.133285
    28  H    8.285942   8.501594   7.063462   5.834805   4.527893
    29  H    7.803689   7.826462   6.762122   5.409307   4.219490
    30  N    7.002615   7.400072   5.687927   4.659702   3.296301
    31  H    7.702201   8.134631   6.392039   5.441357   4.051844
    32  H    6.240303   6.740756   4.882137   4.008699   2.705048
    33  H    6.746710   6.724386   5.737717   4.327479   3.350210
                   21         22         23         24         25
    21  C    0.000000
    22  H    1.082899   0.000000
    23  S    1.720953   2.444784   0.000000
    24  C    2.401910   3.453264   1.706612   0.000000
    25  N    3.769386   4.788562   2.663280   1.406012   0.000000
    26  C    4.687837   5.753954   3.810982   2.309159   1.231547
    27  N    5.758790   6.797027   4.637779   3.374537   2.039136
    28  H    6.148719   7.167625   5.022227   3.764006   2.427949
    29  H    5.491749   6.476084   4.172050   3.225811   1.897838
    30  N    5.315350   6.371619   4.667773   3.055715   2.227072
    31  H    6.175761   7.247148   5.550473   3.919663   3.030936
    32  H    4.842132   5.877427   4.516390   2.849495   2.507747
    33  H    4.197234   5.118789   2.766958   2.083231   1.000563
                   26         27         28         29         30
    26  C    0.000000
    27  N    1.267034   0.000000
    28  H    1.772990   1.014027   0.000000
    29  H    1.727556   1.014234   1.727738   0.000000
    30  N    1.301926   1.929634   1.818876   2.747234   0.000000
    31  H    1.876948   2.066830   2.010701   3.043351   1.014449
    32  H    1.868003   2.836698   2.800358   3.535998   1.013685
    33  H    1.926664   2.171348   2.419048   1.687408   2.865093
                   31         32         33
    31  H    0.000000
    32  H    1.686975   0.000000
    33  H    3.622978   3.319329   0.000000
 Stoichiometry    C12H14N5OS(1+)
 Framework group  C1[X(C12H14N5OS)]
 Deg. of freedom    93
 Full point group                 C1      NOp   1
 Largest Abelian subgroup         C1      NOp   1
 Largest concise Abelian subgroup C1      NOp   1
                         Standard orientation:                         
 ---------------------------------------------------------------------
 Center     Atomic      Atomic             Coordinates (Angstroms)
 Number     Number       Type             X           Y           Z
 ---------------------------------------------------------------------
      1          6           0        6.100497   -1.381048    0.859702
      2          1           0        6.837682   -1.050547    1.593471
      3          1           0        6.573531   -1.620556   -0.094908
      4          1           0        5.603131   -2.322729    1.103826
      5          6           0        5.194618   -0.236888    0.656577
      6          8           0        5.353988    0.901601    1.029526
      7          7           0        4.183393   -0.613332   -0.117448
      8          1           0        4.267719   -1.482320   -0.623165
      9          6           0        3.021187    0.233727   -0.354232
     10          6           0        3.113238    1.575646   -0.670851
     11          6           0        1.949612    2.362649   -0.768544
     12          6           0        0.691586    1.757598   -0.610502
     13          1           0       -0.215306    2.339287   -0.755189
     14          1           0        2.155641    3.400070   -1.019563
     15          1           0        4.084259    2.062315   -0.723553
     16          6           0        1.783899   -0.379966   -0.264229
     17          1           0        1.791743   -1.453289   -0.089672
     18          6           0        0.614002    0.374110   -0.434050
     19          6           0       -0.683977   -0.240784   -0.276956
     20          7           0       -1.900362    0.329001    0.125202
     21          6           0       -0.779958   -1.548503   -0.610867
     22          1           0       -0.003853   -2.182356   -1.021431
     23         16           0       -2.390272   -2.143814   -0.491817
     24          6           0       -2.906898   -0.573409   -0.068200
     25          7           0       -4.278279   -0.390497    0.182252
     26          6           0       -4.710495    0.610200    0.755403
     27          7           0       -5.922013    0.421612    1.074829
     28          1           0       -6.403710    0.780720    0.257969
     29          1           0       -5.882842   -0.586746    1.176563
     30          7           0       -4.871608    1.755952    0.158491
     31          1           0       -5.324206    2.382975    0.815076
     32          1           0       -3.950036    2.077878   -0.114685
     33          1           0       -4.923078   -1.095627   -0.114653
 ---------------------------------------------------------------------
 Rotational constants (GHZ):           0.8945245           0.1296619           0.1185298
 Leave Link  202 at Sun Jul 18 15:15:53 2021, MaxMem=   104857600 cpu:               0.1 elap:               0.0
 (Enter /prod/apps/gaussian/g16b1/l301.exe)
 Standard basis: 6-31G(d) (6D, 7F)
 Ernie: Thresh=  0.10000D-02 Tol=  0.10000D-05 Strict=F.
 There are   317 symmetry adapted cartesian basis functions of A   symmetry.
 There are   317 symmetry adapted basis functions of A   symmetry.
   317 basis functions,   612 primitive gaussians,   317 cartesian basis functions
    72 alpha electrons       72 beta electrons
       nuclear repulsion energy      1458.1185635951 Hartrees.
 IExCor=  402 DFT=T Ex+Corr=B3LYP ExCW=0 ScaHFX=  0.200000
 ScaDFX=  0.800000  0.720000  1.000000  0.810000 ScalE2=  1.000000  1.000000
 IRadAn=      5 IRanWt=     -1 IRanGd=            0 ICorTp=0 IEmpDi=  4
 NAtoms=   33 NActive=   33 NUniq=   33 SFac= 1.00D+00 NAtFMM=   60 NAOKFM=F Big=F
 Integral buffers will be    131072 words long.
 Raffenetti 2 integral format.
 Two-electron integral symmetry is turned on.
 Using the following non-standard input for PCM:
 MSTModel=DFT cav MSTCharged
 --- end of non-standard input.
 MST model for solvation energy: B3LYP parametrization.
 MST cavity parameters:
 ISph   IAn     Re0     Alpha   Atom Type   QCorr
 ------------------------------------------------
   1      6     1.50     1.25      CH3        F
   2      1     1.20     1.25      CH3        F
   3      1     1.20     1.25      CH3        F
   4      1     1.20     1.25      CH3        F
   5      6     1.50     1.25      C          F
   6      8     1.40     1.25      O          F
   7      7     1.50     1.25      NH         F
   8      1     0.90     1.25      NH         F
   9      6     1.50     1.25      C          F
  10      6     1.50     1.25      CH         F
  11      6     1.50     1.25      CH         F
  12      6     1.50     1.25      CH         F
  13      1     1.20     1.25      CH         F
  14      1     1.20     1.25      CH         F
  15      1     1.20     1.25      CH         F
  16      6     1.50     1.25      CH         F
  17      1     1.20     1.25      CH         F
  18      6     1.50     1.25      C          F
  19      6     1.50     1.25      C          F
  20      7     1.40     1.25      N          F
  21      6     1.50     1.25      CH         F
  22      1     1.20     1.25      CH         F
  23     16     1.75     1.25      S          F
  24      6     1.50     1.25      C          F
  25      7     1.50     1.15      NH         T
  26      6     1.50     1.15      C          T
  27      7     1.55     1.15      NH         T
  28      1     0.90     1.15      NH         T
  29      1     0.90     1.15      NH         T
  30      7     1.55     1.15      NH         T
  31      1     0.90     1.15      NH         T
  32      1     0.90     1.15      NH         T
  33      1     0.90     1.15      NH         T
 ------------------------------------------------------------------------------
 Polarizable Continuum Model (PCM)
 =================================
 Model                : PCM.
 Atomic radii         : MST.
 Polarization charges : Total charges.
 Charge compensation  : None.
 Solution method      : On-the-fly selection.
 Cavity type          : Scaled VdW (van der Waals Surface) (Alpha=1.250).
 Cavity algorithm     : GePol (No added spheres)
                        Default sphere list used, NSphG=   33.
                        Lebedev-Laikov grids with approx.  5.0 points / Ang**2.
                        Smoothing algorithm: York/Karplus (Gamma=1.0000).
                        Polarization charges: spherical gaussians, with
                                              point-specific exponents (IZeta= 3).
                        Self-potential: point-specific (ISelfS= 7).
                        Self-field    : sphere-specific E.n sum rule (ISelfD= 2).
 1st derivatives      : Analytical E(r).r(x)/FMM algorithm (CHGder, D1EAlg=3).
                        Cavity 1st derivative terms included.
 Solvent              : Water, Eps=  78.355300 Eps(inf)=   1.777849
 ------------------------------------------------------------------------------
 GePol: Number of generator spheres                  =      33
 GePol: Total number of spheres                      =      33
 GePol: Number of exposed spheres                    =      33 (100.00%)
 GePol: Number of points                             =    2486
 GePol: Average weight of points                     =       0.13
 GePol: Minimum weight of points                     =   0.36D-08
 GePol: Maximum weight of points                     =    0.22001
 GePol: Number of points with low weight             =     141
 GePol: Fraction of low-weight points (<1% of avg)   =       5.67%
 GePol: Cavity surface area                          =    313.949 Ang**2
 GePol: Cavity volume                                =    294.622 Ang**3
 PCM non-electrostatic energy =         0.0015199078 Hartrees.
 Nuclear repulsion after PCM non-electrostatic terms =     1458.1200835029 Hartrees.
 Leave Link  301 at Sun Jul 18 15:15:53 2021, MaxMem=   104857600 cpu:               0.3 elap:               0.1
 (Enter /prod/apps/gaussian/g16b1/l302.exe)
 NPDir=0 NMtPBC=     1 NCelOv=     1 NCel=       1 NClECP=     1 NCelD=      1
         NCelK=      1 NCelE2=     1 NClLst=     1 CellRange=     0.0.
 One-electron integrals computed using PRISM.
 One-electron integral symmetry used in STVInt
 NBasis=   317 RedAO= T EigKep=  4.61D-04  NBF=   317
 NBsUse=   317 1.00D-06 EigRej= -1.00D+00 NBFU=   317
 Precomputing XC quadrature grid using
 IXCGrd= 4 IRadAn=           5 IRanWt=          -1 IRanGd=           0 AccXCQ= 0.00D+00.
 Generated NRdTot=       0 NPtTot=           0 NUsed=           0 NTot=          32
 NSgBfM=   311   311   311   311   311 MxSgAt=    33 MxSgA2=    33.
 Leave Link  302 at Sun Jul 18 15:15:53 2021, MaxMem=   104857600 cpu:               1.6 elap:               0.4
 (Enter /prod/apps/gaussian/g16b1/l303.exe)
 DipDrv:  MaxL=1.
 Leave Link  303 at Sun Jul 18 15:15:53 2021, MaxMem=   104857600 cpu:               0.1 elap:               0.1
 (Enter /prod/apps/gaussian/g16b1/l401.exe)
 ExpMin= 1.17D-01 ExpMax= 2.19D+04 ExpMxC= 3.30D+03 IAcc=3 IRadAn=         5 AccDes= 0.00D+00
 Harris functional with IExCor=  402 and IRadAn=       5 diagonalized for initial guess.
 HarFok:  IExCor=  402 AccDes= 0.00D+00 IRadAn=         5 IDoV= 1 UseB2=F ITyADJ=14
 ICtDFT=  3500011 ScaDFX=  1.000000  1.000000  1.000000  1.000000
 FoFCou: FMM=F IPFlag=           0 FMFlag=      100000 FMFlg1=           0
         NFxFlg=           0 DoJE=T BraDBF=F KetDBF=T FulRan=T
         wScrn=  0.000000 ICntrl=       500 IOpCl=  0 I1Cent=   200000004 NGrid=           0
         NMat0=    1 NMatS0=      1 NMatT0=    0 NMatD0=    1 NMtDS0=    0 NMtDT0=    0
 Petite list used in FoFCou.
 Harris En= -1212.44311258074    
 JPrj=0 DoOrth=F DoCkMO=F.
 Leave Link  401 at Sun Jul 18 15:15:55 2021, MaxMem=   104857600 cpu:               7.7 elap:               1.9
 (Enter /prod/apps/gaussian/g16b1/l502.exe)
 Integral symmetry usage will be decided dynamically.
 Closed shell SCF:
 Using DIIS extrapolation, IDIIS=  1040.
 NGot=   104857600 LenX=   104651207 LenY=   104550277
 Requested convergence on RMS density matrix=1.00D-08 within 128 cycles.
 Requested convergence on MAX density matrix=1.00D-06.
 Requested convergence on             energy=1.00D-06.
 No special actions if energy rises.
 Fock matrices will be formed incrementally for  20 cycles.

 Cycle   1  Pass 1  IDiag  1:
 FoFJK:  IHMeth= 1 ICntrl=       0 DoSepK=F KAlg= 0 I1Cent=           0 FoldK=F
 IRaf= 710000000 NMat=       1 IRICut=       1 DoRegI=T DoRafI=F ISym2E= 0 IDoP0=0 IntGTp=1.
 FoFCou: FMM=F IPFlag=           0 FMFlag=      100000 FMFlg1=           0
         NFxFlg=           0 DoJE=F BraDBF=F KetDBF=F FulRan=T
         wScrn=  0.000000 ICntrl=         0 IOpCl=  0 I1Cent=           0 NGrid=           0
         NMat0=    1 NMatS0=      1 NMatT0=    0 NMatD0=    1 NMtDS0=    0 NMtDT0=    0
 Symmetry not used in FoFCou.
 Inv3:  Mode=1 IEnd=    18540588.
 Iteration    1 A*A^-1 deviation from unit magnitude is 3.55D-15 for    964.
 Iteration    1 A*A^-1 deviation from orthogonality  is 2.18D-15 for   1873    380.
 Iteration    1 A^-1*A deviation from unit magnitude is 3.77D-15 for    964.
 Iteration    1 A^-1*A deviation from orthogonality  is 1.99D-11 for   2263   2243.
 E= -1212.11932469346    
 DIIS: error= 2.40D-02 at cycle   1 NSaved=   1.
 NSaved= 1 IEnMin= 1 EnMin= -1212.11932469346     IErMin= 1 ErrMin= 2.40D-02
 ErrMax= 2.40D-02  0.00D+00 EMaxC= 1.00D-01 BMatC= 5.03D-01 BMatP= 5.03D-01
 IDIUse=3 WtCom= 7.60D-01 WtEn= 2.40D-01
 Coeff-Com:  0.100D+01
 Coeff-En:   0.100D+01
 Coeff:      0.100D+01
 Gap=     0.166 Goal=   None    Shift=    0.000
 GapD=    0.166 DampG=1.000 DampE=0.500 DampFc=0.5000 IDamp=-1.
 Damping current iteration by 5.00D-01
 RMSDP=5.41D-03 MaxDP=2.20D-01              OVMax= 2.83D-01

 Cycle   2  Pass 1  IDiag  1:
 RMSU=  2.68D-03    CP:  9.84D-01
 E= -1212.28474210842     Delta-E=       -0.165417414963 Rises=F Damp=T
 DIIS: error= 7.29D-03 at cycle   2 NSaved=   2.
 NSaved= 2 IEnMin= 2 EnMin= -1212.28474210842     IErMin= 2 ErrMin= 7.29D-03
 ErrMax= 7.29D-03  0.00D+00 EMaxC= 1.00D-01 BMatC= 5.08D-02 BMatP= 5.03D-01
 IDIUse=3 WtCom= 9.27D-01 WtEn= 7.29D-02
 Coeff-Com:  0.149D+00 0.851D+00
 Coeff-En:   0.263D+00 0.737D+00
 Coeff:      0.158D+00 0.842D+00
 Gap=     0.148 Goal=   None    Shift=    0.000
 RMSDP=1.60D-03 MaxDP=6.90D-02 DE=-1.65D-01 OVMax= 2.21D-01

 Cycle   3  Pass 1  IDiag  1:
 RMSU=  1.43D-03    CP:  9.75D-01  7.38D-01
 E= -1212.54160313597     Delta-E=       -0.256861027546 Rises=F Damp=F
 DIIS: error= 7.94D-03 at cycle   3 NSaved=   3.
 NSaved= 3 IEnMin= 3 EnMin= -1212.54160313597     IErMin= 2 ErrMin= 7.29D-03
 ErrMax= 7.94D-03  0.00D+00 EMaxC= 1.00D-01 BMatC= 4.92D-02 BMatP= 5.08D-02
 IDIUse=3 WtCom= 9.21D-01 WtEn= 7.94D-02
 Coeff-Com:  0.313D-01 0.493D+00 0.475D+00
 Coeff-En:   0.000D+00 0.000D+00 0.100D+01
 Coeff:      0.288D-01 0.454D+00 0.517D+00
 Gap=     0.122 Goal=   None    Shift=    0.000
 RMSDP=8.94D-04 MaxDP=4.60D-02 DE=-2.57D-01 OVMax= 7.57D-02

 Cycle   4  Pass 1  IDiag  1:
 RMSU=  6.20D-04    CP:  9.78D-01  8.36D-01  5.89D-01
 E= -1212.58101843934     Delta-E=       -0.039415303368 Rises=F Damp=F
 DIIS: error= 2.78D-03 at cycle   4 NSaved=   4.
 NSaved= 4 IEnMin= 4 EnMin= -1212.58101843934     IErMin= 4 ErrMin= 2.78D-03
 ErrMax= 2.78D-03  0.00D+00 EMaxC= 1.00D-01 BMatC= 7.22D-03 BMatP= 4.92D-02
 IDIUse=3 WtCom= 9.72D-01 WtEn= 2.78D-02
 Coeff-Com: -0.761D-02 0.791D-01 0.292D+00 0.636D+00
 Coeff-En:   0.000D+00 0.000D+00 0.136D+00 0.864D+00
 Coeff:     -0.740D-02 0.769D-01 0.288D+00 0.643D+00
 Gap=     0.123 Goal=   None    Shift=    0.000
 RMSDP=2.92D-04 MaxDP=1.50D-02 DE=-3.94D-02 OVMax= 2.24D-02

 Cycle   5  Pass 1  IDiag  1:
 RMSU=  1.54D-04    CP:  9.77D-01  8.17D-01  6.90D-01  6.84D-01
 E= -1212.58716367918     Delta-E=       -0.006145239846 Rises=F Damp=F
 DIIS: error= 5.06D-04 at cycle   5 NSaved=   5.
 NSaved= 5 IEnMin= 5 EnMin= -1212.58716367918     IErMin= 5 ErrMin= 5.06D-04
 ErrMax= 5.06D-04  0.00D+00 EMaxC= 1.00D-01 BMatC= 3.83D-04 BMatP= 7.22D-03
 IDIUse=3 WtCom= 9.95D-01 WtEn= 5.06D-03
 Coeff-Com: -0.496D-02 0.114D-01 0.117D+00 0.330D+00 0.547D+00
 Coeff-En:   0.000D+00 0.000D+00 0.000D+00 0.000D+00 0.100D+01
 Coeff:     -0.493D-02 0.114D-01 0.116D+00 0.329D+00 0.549D+00
 Gap=     0.122 Goal=   None    Shift=    0.000
 RMSDP=6.94D-05 MaxDP=3.78D-03 DE=-6.15D-03 OVMax= 4.29D-03

 Cycle   6  Pass 1  IDiag  1:
 RMSU=  4.29D-05    CP:  9.77D-01  8.20D-01  6.95D-01  7.15D-01  6.77D-01
 E= -1212.58749367836     Delta-E=       -0.000329999176 Rises=F Damp=F
 DIIS: error= 1.63D-04 at cycle   6 NSaved=   6.
 NSaved= 6 IEnMin= 6 EnMin= -1212.58749367836     IErMin= 6 ErrMin= 1.63D-04
 ErrMax= 1.63D-04  0.00D+00 EMaxC= 1.00D-01 BMatC= 2.32D-05 BMatP= 3.83D-04
 IDIUse=3 WtCom= 9.98D-01 WtEn= 1.63D-03
 Coeff-Com: -0.204D-02 0.151D-02 0.411D-01 0.126D+00 0.277D+00 0.556D+00
 Coeff-En:   0.000D+00 0.000D+00 0.000D+00 0.000D+00 0.000D+00 0.100D+01
 Coeff:     -0.203D-02 0.151D-02 0.410D-01 0.126D+00 0.277D+00 0.557D+00
 Gap=     0.122 Goal=   None    Shift=    0.000
 RMSDP=2.10D-05 MaxDP=1.26D-03 DE=-3.30D-04 OVMax= 1.32D-03

 Cycle   7  Pass 1  IDiag  1:
 RMSU=  1.63D-05    CP:  9.77D-01  8.19D-01  6.96D-01  7.20D-01  6.78D-01
                    CP:  7.11D-01
 E= -1212.58751167209     Delta-E=       -0.000017993732 Rises=F Damp=F
 DIIS: error= 1.08D-04 at cycle   7 NSaved=   7.
 NSaved= 7 IEnMin= 7 EnMin= -1212.58751167209     IErMin= 7 ErrMin= 1.08D-04
 ErrMax= 1.08D-04  0.00D+00 EMaxC= 1.00D-01 BMatC= 4.16D-06 BMatP= 2.32D-05
 IDIUse=3 WtCom= 9.99D-01 WtEn= 1.08D-03
 Coeff-Com: -0.693D-03-0.508D-03 0.115D-01 0.389D-01 0.106D+00 0.334D+00
 Coeff-Com:  0.511D+00
 Coeff-En:   0.000D+00 0.000D+00 0.000D+00 0.000D+00 0.000D+00 0.116D+00
 Coeff-En:   0.884D+00
 Coeff:     -0.692D-03-0.507D-03 0.115D-01 0.389D-01 0.106D+00 0.334D+00
 Coeff:      0.511D+00
 Gap=     0.122 Goal=   None    Shift=    0.000
 RMSDP=7.94D-06 MaxDP=4.57D-04 DE=-1.80D-05 OVMax= 5.77D-04

 Cycle   8  Pass 1  IDiag  1:
 RMSU=  4.70D-06    CP:  9.77D-01  8.19D-01  6.96D-01  7.21D-01  6.87D-01
                    CP:  7.57D-01  6.38D-01
 E= -1212.58751530582     Delta-E=       -0.000003633728 Rises=F Damp=F
 DIIS: error= 1.95D-05 at cycle   8 NSaved=   8.
 NSaved= 8 IEnMin= 8 EnMin= -1212.58751530582     IErMin= 8 ErrMin= 1.95D-05
 ErrMax= 1.95D-05  0.00D+00 EMaxC= 1.00D-01 BMatC= 2.49D-07 BMatP= 4.16D-06
 IDIUse=1 WtCom= 1.00D+00 WtEn= 0.00D+00
 Coeff-Com: -0.903D-04-0.333D-03 0.545D-03 0.315D-02 0.158D-01 0.831D-01
 Coeff-Com:  0.240D+00 0.658D+00
 Coeff:     -0.903D-04-0.333D-03 0.545D-03 0.315D-02 0.158D-01 0.831D-01
 Coeff:      0.240D+00 0.658D+00
 Gap=     0.122 Goal=   None    Shift=    0.000
 RMSDP=2.20D-06 MaxDP=9.00D-05 DE=-3.63D-06 OVMax= 1.85D-04

 Cycle   9  Pass 1  IDiag  1:
 RMSU=  1.69D-06    CP:  9.77D-01  8.19D-01  6.96D-01  7.21D-01  6.91D-01
                    CP:  7.65D-01  6.83D-01  8.04D-01
 E= -1212.58751551272     Delta-E=       -0.000000206901 Rises=F Damp=F
 DIIS: error= 5.31D-06 at cycle   9 NSaved=   9.
 NSaved= 9 IEnMin= 9 EnMin= -1212.58751551272     IErMin= 9 ErrMin= 5.31D-06
 ErrMax= 5.31D-06  0.00D+00 EMaxC= 1.00D-01 BMatC= 3.29D-08 BMatP= 2.49D-07
 IDIUse=1 WtCom= 1.00D+00 WtEn= 0.00D+00
 Coeff-Com:  0.259D-04-0.139D-03-0.101D-02-0.262D-02-0.323D-02 0.599D-02
 Coeff-Com:  0.706D-01 0.340D+00 0.590D+00
 Coeff:      0.259D-04-0.139D-03-0.101D-02-0.262D-02-0.323D-02 0.599D-02
 Coeff:      0.706D-01 0.340D+00 0.590D+00
 Gap=     0.122 Goal=   None    Shift=    0.000
 RMSDP=7.52D-07 MaxDP=3.55D-05 DE=-2.07D-07 OVMax= 3.52D-05

 Cycle  10  Pass 1  IDiag  1:
 RMSU=  5.00D-07    CP:  9.77D-01  8.19D-01  6.96D-01  7.21D-01  6.91D-01
                    CP:  7.69D-01  7.01D-01  8.61D-01  7.96D-01
 E= -1212.58751554155     Delta-E=       -0.000000028829 Rises=F Damp=F
 DIIS: error= 1.83D-06 at cycle  10 NSaved=  10.
 NSaved=10 IEnMin=10 EnMin= -1212.58751554155     IErMin=10 ErrMin= 1.83D-06
 ErrMax= 1.83D-06  0.00D+00 EMaxC= 1.00D-01 BMatC= 3.30D-09 BMatP= 3.29D-08
 IDIUse=1 WtCom= 1.00D+00 WtEn= 0.00D+00
 Coeff-Com:  0.167D-04-0.400D-04-0.539D-03-0.150D-02-0.278D-02-0.353D-02
 Coeff-Com:  0.190D-01 0.129D+00 0.303D+00 0.558D+00
 Coeff:      0.167D-04-0.400D-04-0.539D-03-0.150D-02-0.278D-02-0.353D-02
 Coeff:      0.190D-01 0.129D+00 0.303D+00 0.558D+00
 Gap=     0.122 Goal=   None    Shift=    0.000
 RMSDP=2.65D-07 MaxDP=1.16D-05 DE=-2.88D-08 OVMax= 3.15D-05

 Cycle  11  Pass 1  IDiag  1:
 RMSU=  1.79D-07    CP:  9.77D-01  8.19D-01  6.96D-01  7.21D-01  6.91D-01
                    CP:  7.70D-01  7.03D-01  8.77D-01  8.30D-01  6.88D-01
 E= -1212.58751554443     Delta-E=       -0.000000002884 Rises=F Damp=F
 DIIS: error= 7.68D-07 at cycle  11 NSaved=  11.
 NSaved=11 IEnMin=11 EnMin= -1212.58751554443     IErMin=11 ErrMin= 7.68D-07
 ErrMax= 7.68D-07  0.00D+00 EMaxC= 1.00D-01 BMatC= 5.71D-10 BMatP= 3.30D-09
 IDIUse=1 WtCom= 1.00D+00 WtEn= 0.00D+00
 Coeff-Com:  0.512D-05 0.327D-05-0.157D-03-0.464D-03-0.118D-02-0.355D-02
 Coeff-Com: -0.190D-02 0.140D-01 0.589D-01 0.313D+00 0.621D+00
 Coeff:      0.512D-05 0.327D-05-0.157D-03-0.464D-03-0.118D-02-0.355D-02
 Coeff:     -0.190D-02 0.140D-01 0.589D-01 0.313D+00 0.621D+00
 Gap=     0.122 Goal=   None    Shift=    0.000
 RMSDP=1.04D-07 MaxDP=4.40D-06 DE=-2.88D-09 OVMax= 8.80D-06

 Cycle  12  Pass 1  IDiag  1:
 RMSU=  5.63D-08    CP:  9.77D-01  8.19D-01  6.96D-01  7.21D-01  6.91D-01
                    CP:  7.70D-01  7.05D-01  8.82D-01  8.46D-01  7.94D-01
                    CP:  7.16D-01
 E= -1212.58751554500     Delta-E=       -0.000000000573 Rises=F Damp=F
 DIIS: error= 2.57D-07 at cycle  12 NSaved=  12.
 NSaved=12 IEnMin=12 EnMin= -1212.58751554500     IErMin=12 ErrMin= 2.57D-07
 ErrMax= 2.57D-07  0.00D+00 EMaxC= 1.00D-01 BMatC= 4.51D-11 BMatP= 5.71D-10
 IDIUse=1 WtCom= 1.00D+00 WtEn= 0.00D+00
 Coeff-Com:  0.255D-06 0.571D-05-0.246D-04-0.717D-04-0.288D-03-0.131D-02
 Coeff-Com: -0.235D-02-0.381D-02-0.484D-03 0.105D+00 0.301D+00 0.603D+00
 Coeff:      0.255D-06 0.571D-05-0.246D-04-0.717D-04-0.288D-03-0.131D-02
 Coeff:     -0.235D-02-0.381D-02-0.484D-03 0.105D+00 0.301D+00 0.603D+00
 Gap=     0.122 Goal=   None    Shift=    0.000
 RMSDP=3.01D-08 MaxDP=1.40D-06 DE=-5.73D-10 OVMax= 3.70D-06

 Cycle  13  Pass 1  IDiag  1:
 RMSU=  2.00D-08    CP:  9.77D-01  8.19D-01  6.96D-01  7.21D-01  6.91D-01
                    CP:  7.70D-01  7.05D-01  8.83D-01  8.51D-01  8.05D-01
                    CP:  7.91D-01  7.83D-01
 E= -1212.58751554504     Delta-E=       -0.000000000032 Rises=F Damp=F
 DIIS: error= 7.35D-08 at cycle  13 NSaved=  13.
 NSaved=13 IEnMin=13 EnMin= -1212.58751554504     IErMin=13 ErrMin= 7.35D-08
 ErrMax= 7.35D-08  0.00D+00 EMaxC= 1.00D-01 BMatC= 5.59D-12 BMatP= 4.51D-11
 IDIUse=1 WtCom= 1.00D+00 WtEn= 0.00D+00
 Coeff-Com: -0.643D-06 0.255D-05 0.833D-05 0.278D-04 0.121D-04-0.191D-03
 Coeff-Com: -0.990D-03-0.406D-02-0.970D-02 0.787D-02 0.599D-01 0.298D+00
 Coeff-Com:  0.649D+00
 Coeff:     -0.643D-06 0.255D-05 0.833D-05 0.278D-04 0.121D-04-0.191D-03
 Coeff:     -0.990D-03-0.406D-02-0.970D-02 0.787D-02 0.599D-01 0.298D+00
 Coeff:      0.649D+00
 Gap=     0.122 Goal=   None    Shift=    0.000
 RMSDP=9.51D-09 MaxDP=3.86D-07 DE=-3.18D-11 OVMax= 6.71D-07

 Error on total polarization charges =  0.02590
 SCF Done:  E(RB3LYP) =  -1212.58751555     A.U. after   13 cycles
            NFock= 13  Conv=0.95D-08     -V/T= 2.0061
 KE= 1.205262223807D+03 PE=-5.737914678466D+03 EE= 1.861944855611D+03
 Leave Link  502 at Sun Jul 18 15:16:58 2021, MaxMem=   104857600 cpu:             248.8 elap:              62.2
 (Enter /prod/apps/gaussian/g16b1/l601.exe)
 Copying SCF densities to generalized density rwf, IOpCl= 0 IROHF=0.

 **********************************************************************

            Population analysis using the SCF Density.

 **********************************************************************

 Orbital symmetries:
       Occupied  (A) (A) (A) (A) (A) (A) (A) (A) (A) (A) (A) (A)
                 (A) (A) (A) (A) (A) (A) (A) (A) (A) (A) (A) (A)
                 (A) (A) (A) (A) (A) (A) (A) (A) (A) (A) (A) (A)
                 (A) (A) (A) (A) (A) (A) (A) (A) (A) (A) (A) (A)
                 (A) (A) (A) (A) (A) (A) (A) (A) (A) (A) (A) (A)
                 (A) (A) (A) (A) (A) (A) (A) (A) (A) (A) (A) (A)
       Virtual   (A) (A) (A) (A) (A) (A) (A) (A) (A) (A) (A) (A)
                 (A) (A) (A) (A) (A) (A) (A) (A) (A) (A) (A) (A)
                 (A) (A) (A) (A) (A) (A) (A) (A) (A) (A) (A) (A)
                 (A) (A) (A) (A) (A) (A) (A) (A) (A) (A) (A) (A)
                 (A) (A) (A) (A) (A) (A) (A) (A) (A) (A) (A) (A)
                 (A) (A) (A) (A) (A) (A) (A) (A) (A) (A) (A) (A)
                 (A) (A) (A) (A) (A) (A) (A) (A) (A) (A) (A) (A)
                 (A) (A) (A) (A) (A) (A) (A) (A) (A) (A) (A) (A)
                 (A) (A) (A) (A) (A) (A) (A) (A) (A) (A) (A) (A)
                 (A) (A) (A) (A) (A) (A) (A) (A) (A) (A) (A) (A)
                 (A) (A) (A) (A) (A) (A) (A) (A) (A) (A) (A) (A)
                 (A) (A) (A) (A) (A) (A) (A) (A) (A) (A) (A) (A)
                 (A) (A) (A) (A) (A) (A) (A) (A) (A) (A) (A) (A)
                 (A) (A) (A) (A) (A) (A) (A) (A) (A) (A) (A) (A)
                 (A) (A) (A) (A) (A) (A) (A) (A) (A) (A) (A) (A)
                 (A) (A) (A) (A) (A) (A) (A) (A) (A) (A) (A) (A)
                 (A) (A) (A) (A) (A) (A) (A) (A) (A) (A) (A) (A)
                 (A) (A) (A) (A) (A) (A) (A) (A) (A) (A) (A) (A)
                 (A) (A) (A) (A) (A) (A) (A) (A) (A) (A) (A) (A)
                 (A) (A) (A) (A) (A) (A) (A) (A) (A) (A) (A) (A)
                 (A) (A) (A) (A) (A)
 The electronic state is 1-A.
 Alpha  occ. eigenvalues --  -88.93539 -19.11764 -14.42372 -14.36761 -14.36288
 Alpha  occ. eigenvalues --  -14.35830 -14.35157 -10.32796 -10.31335 -10.28462
 Alpha  occ. eigenvalues --  -10.24149 -10.23486 -10.22325 -10.21304 -10.19957
 Alpha  occ. eigenvalues --  -10.19911 -10.19838 -10.19331 -10.18054  -7.99768
 Alpha  occ. eigenvalues --   -5.96149  -5.95780  -5.95487  -1.12635  -1.04971
 Alpha  occ. eigenvalues --   -1.00173  -0.95687  -0.93468  -0.90817  -0.86467
 Alpha  occ. eigenvalues --   -0.82096  -0.79695  -0.76785  -0.74069  -0.72525
 Alpha  occ. eigenvalues --   -0.68467  -0.64645  -0.63026  -0.61624  -0.60764
 Alpha  occ. eigenvalues --   -0.58882  -0.57745  -0.55755  -0.53754  -0.53435
 Alpha  occ. eigenvalues --   -0.52557  -0.49549  -0.48567  -0.46797  -0.46140
 Alpha  occ. eigenvalues --   -0.44991  -0.44303  -0.43972  -0.42973  -0.42246
 Alpha  occ. eigenvalues --   -0.41584  -0.40713  -0.39663  -0.39108  -0.38416
 Alpha  occ. eigenvalues --   -0.36614  -0.35828  -0.35436  -0.34703  -0.30977
 Alpha  occ. eigenvalues --   -0.30232  -0.29715  -0.28872  -0.27428  -0.25897
 Alpha  occ. eigenvalues --   -0.24106  -0.22516
 Alpha virt. eigenvalues --   -0.10298  -0.03953  -0.02334  -0.01325   0.01046
 Alpha virt. eigenvalues --    0.03027   0.06134   0.08325   0.09579   0.09840
 Alpha virt. eigenvalues --    0.11057   0.12289   0.12443   0.14190   0.14786
 Alpha virt. eigenvalues --    0.15180   0.15640   0.16173   0.16923   0.17824
 Alpha virt. eigenvalues --    0.18707   0.18839   0.19693   0.20519   0.21383
 Alpha virt. eigenvalues --    0.23779   0.25670   0.26137   0.27836   0.28981
 Alpha virt. eigenvalues --    0.30225   0.31378   0.32150   0.32792   0.33886
 Alpha virt. eigenvalues --    0.34719   0.35859   0.37075   0.37502   0.40120
 Alpha virt. eigenvalues --    0.40866   0.42592   0.44127   0.45150   0.49910
 Alpha virt. eigenvalues --    0.50569   0.50894   0.51991   0.52719   0.53964
 Alpha virt. eigenvalues --    0.54455   0.54658   0.55994   0.56183   0.57171
 Alpha virt. eigenvalues --    0.57486   0.57722   0.59324   0.59569   0.59865
 Alpha virt. eigenvalues --    0.60616   0.61112   0.61811   0.63679   0.65145
 Alpha virt. eigenvalues --    0.65329   0.67051   0.68494   0.69099   0.69357
 Alpha virt. eigenvalues --    0.71009   0.71689   0.73674   0.74396   0.75361
 Alpha virt. eigenvalues --    0.75600   0.76621   0.76795   0.78220   0.78718
 Alpha virt. eigenvalues --    0.79652   0.80695   0.82190   0.82522   0.82857
 Alpha virt. eigenvalues --    0.83694   0.84784   0.85572   0.86006   0.86472
 Alpha virt. eigenvalues --    0.87621   0.87779   0.88386   0.88638   0.89520
 Alpha virt. eigenvalues --    0.90700   0.91139   0.92095   0.92452   0.93558
 Alpha virt. eigenvalues --    0.93765   0.95225   0.95548   0.97169   0.98061
 Alpha virt. eigenvalues --    0.98619   1.00377   1.00957   1.01334   1.02599
 Alpha virt. eigenvalues --    1.03433   1.04832   1.05731   1.06846   1.09603
 Alpha virt. eigenvalues --    1.10533   1.13092   1.16011   1.16699   1.17788
 Alpha virt. eigenvalues --    1.19412   1.22103   1.25085   1.25875   1.28062
 Alpha virt. eigenvalues --    1.31108   1.31800   1.33447   1.34947   1.36581
 Alpha virt. eigenvalues --    1.37749   1.39173   1.41116   1.42081   1.43778
 Alpha virt. eigenvalues --    1.45381   1.46487   1.47721   1.48865   1.50560
 Alpha virt. eigenvalues --    1.53684   1.54665   1.59829   1.62286   1.64517
 Alpha virt. eigenvalues --    1.65947   1.67915   1.69581   1.73938   1.75455
 Alpha virt. eigenvalues --    1.76209   1.77069   1.78613   1.81855   1.82175
 Alpha virt. eigenvalues --    1.82466   1.84762   1.86125   1.86826   1.88304
 Alpha virt. eigenvalues --    1.89688   1.90359   1.93023   1.93216   1.94680
 Alpha virt. eigenvalues --    1.95246   1.96966   1.98919   2.01798   2.03057
 Alpha virt. eigenvalues --    2.04500   2.07942   2.08428   2.10874   2.11501
 Alpha virt. eigenvalues --    2.13531   2.14902   2.16606   2.18180   2.19148
 Alpha virt. eigenvalues --    2.20439   2.22445   2.23588   2.23883   2.24822
 Alpha virt. eigenvalues --    2.26525   2.28258   2.30069   2.31637   2.35930
 Alpha virt. eigenvalues --    2.36798   2.38587   2.41691   2.41794   2.43720
 Alpha virt. eigenvalues --    2.45960   2.47580   2.49125   2.51425   2.52567
 Alpha virt. eigenvalues --    2.54149   2.56654   2.59953   2.60809   2.61997
 Alpha virt. eigenvalues --    2.64995   2.65636   2.67696   2.69748   2.70511
 Alpha virt. eigenvalues --    2.73008   2.74377   2.78042   2.78833   2.79245
 Alpha virt. eigenvalues --    2.84813   2.88993   2.95915   2.97453   3.00194
 Alpha virt. eigenvalues --    3.03887   3.06216   3.15432   3.22535   3.27873
 Alpha virt. eigenvalues --    3.42325   3.78823   3.88062   3.92954   4.00104
 Alpha virt. eigenvalues --    4.05745   4.07004   4.09324   4.11953   4.13180
 Alpha virt. eigenvalues --    4.15253   4.19841   4.22110   4.25278   4.29219
 Alpha virt. eigenvalues --    4.35516   4.43500   4.46072   4.54183   4.75982
          Condensed to atoms (all electrons):
               1          2          3          4          5          6
     1  C    5.358450   0.346726   0.358573   0.356189   0.357717  -0.077670
     2  H    0.346726   0.526500  -0.016095  -0.016029  -0.026040   0.005653
     3  H    0.358573  -0.016095   0.516473  -0.033351  -0.023643   0.000159
     4  H    0.356189  -0.016029  -0.033351   0.516372  -0.017586   0.001730
     5  C    0.357717  -0.026040  -0.023643  -0.017586   4.251411   0.626307
     6  O   -0.077670   0.005653   0.000159   0.001730   0.626307   8.108460
     7  N   -0.151485   0.007772  -0.000079   0.001371   0.278600  -0.116209
     8  H    0.000135   0.000004   0.000892   0.000226  -0.021008   0.003182
     9  C    0.008382  -0.000178  -0.000035  -0.000394  -0.020308   0.001624
    10  C    0.000640  -0.000002  -0.000012  -0.000020  -0.002819  -0.002312
    11  C    0.000000  -0.000000  -0.000000   0.000000   0.000032  -0.000064
    12  C    0.000001  -0.000000  -0.000000  -0.000000   0.000035   0.000015
    13  H    0.000000  -0.000000  -0.000000  -0.000000   0.000000   0.000000
    14  H   -0.000000   0.000000   0.000000   0.000000  -0.000009  -0.000023
    15  H    0.000101   0.000005  -0.000026  -0.000002   0.002756   0.013162
    16  C   -0.000575   0.000006  -0.000009   0.000090   0.002859   0.000174
    17  H   -0.000021   0.000001  -0.000002   0.000024   0.000214   0.000005
    18  C   -0.000003  -0.000000   0.000000  -0.000000  -0.000019  -0.000018
    19  C   -0.000000   0.000000   0.000000  -0.000000   0.000001   0.000000
    20  N    0.000000  -0.000000  -0.000000   0.000000  -0.000000   0.000000
    21  C    0.000000   0.000000  -0.000000   0.000000  -0.000000  -0.000000
    22  H   -0.000000   0.000000   0.000000  -0.000000   0.000000  -0.000000
    23  S   -0.000000   0.000000  -0.000000   0.000000  -0.000000  -0.000000
    24  C   -0.000000   0.000000   0.000000  -0.000000   0.000000   0.000000
    25  N   -0.000000  -0.000000   0.000000  -0.000000   0.000000   0.000000
    26  C    0.000000   0.000000  -0.000000   0.000000  -0.000000  -0.000000
    27  N   -0.000000   0.000000   0.000000   0.000000  -0.000000   0.000000
    28  H    0.000000   0.000000   0.000000   0.000000  -0.000000  -0.000000
    29  H    0.000000   0.000000   0.000000  -0.000000   0.000000  -0.000000
    30  N   -0.000000  -0.000000   0.000000  -0.000000  -0.000000   0.000000
    31  H   -0.000000  -0.000000  -0.000000  -0.000000  -0.000000   0.000000
    32  H    0.000000  -0.000000  -0.000000  -0.000000   0.000000   0.000000
    33  H   -0.000000   0.000000   0.000000   0.000000  -0.000000  -0.000000
               7          8          9         10         11         12
     1  C   -0.151485   0.000135   0.008382   0.000640   0.000000   0.000001
     2  H    0.007772   0.000004  -0.000178  -0.000002  -0.000000  -0.000000
     3  H   -0.000079   0.000892  -0.000035  -0.000012  -0.000000  -0.000000
     4  H    0.001371   0.000226  -0.000394  -0.000020   0.000000  -0.000000
     5  C    0.278600  -0.021008  -0.020308  -0.002819   0.000032   0.000035
     6  O   -0.116209   0.003182   0.001624  -0.002312  -0.000064   0.000015
     7  N    7.265833   0.302525   0.203347  -0.061454   0.005221   0.000615
     8  H    0.302525   0.332293  -0.014300   0.003211  -0.000077   0.000004
     9  C    0.203347  -0.014300   4.590738   0.550096  -0.005229  -0.038472
    10  C   -0.061454   0.003211   0.550096   4.989037   0.501124  -0.043408
    11  C    0.005221  -0.000077  -0.005229   0.501124   4.954483   0.482418
    12  C    0.000615   0.000004  -0.038472  -0.043408   0.482418   5.066447
    13  H    0.000005  -0.000000   0.000413   0.004236  -0.042439   0.365577
    14  H   -0.000117   0.000002   0.003813  -0.038073   0.359270  -0.033081
    15  H   -0.010878  -0.000064  -0.034478   0.351085  -0.043243   0.004996
    16  C   -0.049067  -0.004062   0.498044  -0.066301  -0.050010  -0.071864
    17  H   -0.004196   0.002765  -0.040235   0.006713  -0.000128   0.005197
    18  C    0.005084  -0.000149  -0.009070  -0.038053  -0.002998   0.499557
    19  C   -0.000252   0.000007   0.006256   0.001084   0.007172  -0.058278
    20  N    0.000000   0.000000  -0.000065   0.000002   0.000360  -0.004711
    21  C    0.000010  -0.000002   0.000510   0.000008  -0.000403   0.010845
    22  H   -0.000001  -0.000004   0.000266  -0.000000  -0.000004  -0.000202
    23  S   -0.000000   0.000000  -0.000011   0.000000   0.000014  -0.000018
    24  C   -0.000000  -0.000000   0.000000   0.000000  -0.000001  -0.000280
    25  N    0.000000   0.000000  -0.000000   0.000000  -0.000000  -0.000007
    26  C   -0.000000   0.000000   0.000000   0.000000   0.000000   0.000001
    27  N   -0.000000   0.000000  -0.000000   0.000000   0.000000  -0.000000
    28  H   -0.000000   0.000000   0.000000   0.000000   0.000000   0.000000
    29  H   -0.000000  -0.000000   0.000000  -0.000000   0.000000   0.000000
    30  N    0.000000  -0.000000  -0.000000   0.000000  -0.000000  -0.000003
    31  H    0.000000   0.000000  -0.000000  -0.000000  -0.000000   0.000000
    32  H    0.000000  -0.000000   0.000000   0.000000   0.000000   0.000001
    33  H   -0.000000   0.000000   0.000000   0.000000  -0.000000   0.000000
              13         14         15         16         17         18
     1  C    0.000000  -0.000000   0.000101  -0.000575  -0.000021  -0.000003
     2  H   -0.000000   0.000000   0.000005   0.000006   0.000001  -0.000000
     3  H   -0.000000   0.000000  -0.000026  -0.000009  -0.000002   0.000000
     4  H   -0.000000   0.000000  -0.000002   0.000090   0.000024  -0.000000
     5  C    0.000000  -0.000009   0.002756   0.002859   0.000214  -0.000019
     6  O    0.000000  -0.000023   0.013162   0.000174   0.000005  -0.000018
     7  N    0.000005  -0.000117  -0.010878  -0.049067  -0.004196   0.005084
     8  H   -0.000000   0.000002  -0.000064  -0.004062   0.002765  -0.000149
     9  C    0.000413   0.003813  -0.034478   0.498044  -0.040235  -0.009070
    10  C    0.004236  -0.038073   0.351085  -0.066301   0.006713  -0.038053
    11  C   -0.042439   0.359270  -0.043243  -0.050010  -0.000128  -0.002998
    12  C    0.365577  -0.033081   0.004996  -0.071864   0.005197   0.499557
    13  H    0.562689  -0.003446  -0.000136   0.004983  -0.000116  -0.045319
    14  H   -0.003446   0.554050  -0.006009   0.000997   0.000016   0.002295
    15  H   -0.000136  -0.006009   0.555950   0.006797  -0.000164   0.000110
    16  C    0.004983   0.000997   0.006797   5.154347   0.345822   0.491872
    17  H   -0.000116   0.000016  -0.000164   0.345822   0.558247  -0.036315
    18  C   -0.045319   0.002295   0.000110   0.491872  -0.036315   4.802093
    19  C   -0.010774  -0.000162   0.000002  -0.032938  -0.011176   0.343273
    20  N    0.007816  -0.000002   0.000000   0.003659  -0.000060  -0.060069
    21  C    0.000682   0.000002  -0.000000  -0.021641   0.006462  -0.048046
    22  H   -0.000020   0.000000  -0.000000   0.004792   0.002348  -0.009120
    23  S    0.000042  -0.000000   0.000000   0.000449  -0.000037   0.005598
    24  C   -0.000181  -0.000000  -0.000000   0.000121  -0.000011   0.006301
    25  N   -0.000008   0.000000  -0.000000   0.000001   0.000000  -0.000115
    26  C    0.000009   0.000000   0.000000  -0.000000   0.000000  -0.000030
    27  N    0.000000   0.000000   0.000000  -0.000000   0.000000  -0.000000
    28  H    0.000000  -0.000000   0.000000   0.000000   0.000000  -0.000000
    29  H   -0.000000   0.000000  -0.000000   0.000000   0.000000  -0.000000
    30  N   -0.000007  -0.000000   0.000000   0.000000   0.000000   0.000008
    31  H    0.000000   0.000000  -0.000000  -0.000000  -0.000000   0.000000
    32  H    0.000176  -0.000000  -0.000000  -0.000000   0.000000  -0.000037
    33  H   -0.000000   0.000000  -0.000000  -0.000000   0.000000   0.000001
              19         20         21         22         23         24
     1  C   -0.000000   0.000000   0.000000  -0.000000  -0.000000  -0.000000
     2  H    0.000000  -0.000000   0.000000   0.000000   0.000000   0.000000
     3  H    0.000000  -0.000000  -0.000000   0.000000  -0.000000   0.000000
     4  H   -0.000000   0.000000   0.000000  -0.000000   0.000000  -0.000000
     5  C    0.000001  -0.000000  -0.000000   0.000000  -0.000000   0.000000
     6  O    0.000000   0.000000  -0.000000  -0.000000  -0.000000   0.000000
     7  N   -0.000252   0.000000   0.000010  -0.000001  -0.000000  -0.000000
     8  H    0.000007   0.000000  -0.000002  -0.000004   0.000000  -0.000000
     9  C    0.006256  -0.000065   0.000510   0.000266  -0.000011   0.000000
    10  C    0.001084   0.000002   0.000008  -0.000000   0.000000   0.000000
    11  C    0.007172   0.000360  -0.000403  -0.000004   0.000014  -0.000001
    12  C   -0.058278  -0.004711   0.010845  -0.000202  -0.000018  -0.000280
    13  H   -0.010774   0.007816   0.000682  -0.000020   0.000042  -0.000181
    14  H   -0.000162  -0.000002   0.000002   0.000000  -0.000000  -0.000000
    15  H    0.000002   0.000000  -0.000000  -0.000000   0.000000  -0.000000
    16  C   -0.032938   0.003659  -0.021641   0.004792   0.000449   0.000121
    17  H   -0.011176  -0.000060   0.006462   0.002348  -0.000037  -0.000011
    18  C    0.343273  -0.060069  -0.048046  -0.009120   0.005598   0.006301
    19  C    4.694695   0.384613   0.503376  -0.011965  -0.063185  -0.046009
    20  N    0.384613   7.009341  -0.099044   0.004895  -0.082054   0.425004
    21  C    0.503376  -0.099044   5.450078   0.346957   0.304791  -0.061837
    22  H   -0.011965   0.004895   0.346957   0.471481  -0.029560   0.002204
    23  S   -0.063185  -0.082054   0.304791  -0.029560  15.290631   0.311244
    24  C   -0.046009   0.425004  -0.061837   0.002204   0.311244   4.876021
    25  N    0.001536  -0.052114   0.002425  -0.000024  -0.060538   0.234863
    26  C    0.000191   0.008283   0.000059  -0.000001   0.005400  -0.051404
    27  N   -0.000005   0.000325   0.000005  -0.000000  -0.000911   0.012063
    28  H   -0.000000   0.000022  -0.000000  -0.000000   0.000042  -0.000401
    29  H   -0.000000   0.000013   0.000003  -0.000000  -0.000080   0.001205
    30  N    0.000073  -0.003655  -0.000012   0.000000  -0.000054  -0.003024
    31  H    0.000003   0.000058   0.000000   0.000000   0.000014  -0.000044
    32  H    0.000055   0.011655   0.000040  -0.000000   0.000260   0.001067
    33  H   -0.000027   0.001790  -0.000001  -0.000001  -0.000218  -0.012256
              25         26         27         28         29         30
     1  C   -0.000000   0.000000  -0.000000   0.000000   0.000000  -0.000000
     2  H   -0.000000   0.000000   0.000000   0.000000   0.000000  -0.000000
     3  H    0.000000  -0.000000   0.000000   0.000000   0.000000   0.000000
     4  H   -0.000000   0.000000   0.000000   0.000000  -0.000000  -0.000000
     5  C    0.000000  -0.000000  -0.000000  -0.000000   0.000000  -0.000000
     6  O    0.000000  -0.000000   0.000000  -0.000000  -0.000000   0.000000
     7  N    0.000000  -0.000000  -0.000000  -0.000000  -0.000000   0.000000
     8  H    0.000000   0.000000   0.000000   0.000000  -0.000000  -0.000000
     9  C   -0.000000   0.000000  -0.000000   0.000000   0.000000  -0.000000
    10  C    0.000000   0.000000   0.000000   0.000000  -0.000000   0.000000
    11  C   -0.000000   0.000000   0.000000   0.000000   0.000000  -0.000000
    12  C   -0.000007   0.000001  -0.000000   0.000000   0.000000  -0.000003
    13  H   -0.000008   0.000009   0.000000   0.000000  -0.000000  -0.000007
    14  H    0.000000   0.000000   0.000000  -0.000000   0.000000  -0.000000
    15  H   -0.000000   0.000000   0.000000   0.000000  -0.000000   0.000000
    16  C    0.000001  -0.000000  -0.000000   0.000000   0.000000   0.000000
    17  H    0.000000   0.000000   0.000000   0.000000   0.000000   0.000000
    18  C   -0.000115  -0.000030  -0.000000  -0.000000  -0.000000   0.000008
    19  C    0.001536   0.000191  -0.000005  -0.000000  -0.000000   0.000073
    20  N   -0.052114   0.008283   0.000325   0.000022   0.000013  -0.003655
    21  C    0.002425   0.000059   0.000005  -0.000000   0.000003  -0.000012
    22  H   -0.000024  -0.000001  -0.000000  -0.000000  -0.000000   0.000000
    23  S   -0.060538   0.005400  -0.000911   0.000042  -0.000080  -0.000054
    24  C    0.234863  -0.051404   0.012063  -0.000401   0.001205  -0.003024
    25  N    6.940811   0.391613  -0.083514  -0.003345   0.012835  -0.108307
    26  C    0.391613   4.438542   0.357270  -0.039686  -0.074700   0.394703
    27  N   -0.083514   0.357270   6.988755   0.326381   0.313909  -0.212508
    28  H   -0.003345  -0.039686   0.326381   0.301624  -0.011770  -0.012269
    29  H    0.012835  -0.074700   0.313909  -0.011770   0.368255   0.018901
    30  N   -0.108307   0.394703  -0.212508  -0.012269   0.018901   7.027863
    31  H    0.008050  -0.027449  -0.001919  -0.003381   0.000298   0.303949
    32  H   -0.006010  -0.019887   0.011427   0.001645  -0.001049   0.283771
    33  H    0.318483  -0.043215  -0.005231   0.001257   0.005821   0.002176
              31         32         33
     1  C   -0.000000   0.000000  -0.000000
     2  H   -0.000000  -0.000000   0.000000
     3  H   -0.000000  -0.000000   0.000000
     4  H   -0.000000  -0.000000   0.000000
     5  C   -0.000000   0.000000  -0.000000
     6  O    0.000000   0.000000  -0.000000
     7  N    0.000000   0.000000  -0.000000
     8  H    0.000000  -0.000000   0.000000
     9  C   -0.000000   0.000000   0.000000
    10  C   -0.000000   0.000000   0.000000
    11  C   -0.000000   0.000000  -0.000000
    12  C    0.000000   0.000001   0.000000
    13  H    0.000000   0.000176  -0.000000
    14  H    0.000000  -0.000000   0.000000
    15  H   -0.000000  -0.000000  -0.000000
    16  C   -0.000000  -0.000000  -0.000000
    17  H   -0.000000   0.000000   0.000000
    18  C    0.000000  -0.000037   0.000001
    19  C    0.000003   0.000055  -0.000027
    20  N    0.000058   0.011655   0.001790
    21  C    0.000000   0.000040  -0.000001
    22  H    0.000000  -0.000000  -0.000001
    23  S    0.000014   0.000260  -0.000218
    24  C   -0.000044   0.001067  -0.012256
    25  N    0.008050  -0.006010   0.318483
    26  C   -0.027449  -0.019887  -0.043215
    27  N   -0.001919   0.011427  -0.005231
    28  H   -0.003381   0.001645   0.001257
    29  H    0.000298  -0.001049   0.005821
    30  N    0.303949   0.283771   0.002176
    31  H    0.314963  -0.013067  -0.000084
    32  H   -0.013067   0.337993  -0.000203
    33  H   -0.000084  -0.000203   0.254713
 Mulliken charges:
               1
     1  C   -0.557161
     2  H    0.171678
     3  H    0.197156
     4  H    0.191378
     5  C    0.591502
     6  O   -0.564174
     7  N   -0.676642
     8  H    0.394419
     9  C    0.299287
    10  C   -0.154785
    11  C   -0.165497
    12  C   -0.185386
    13  H    0.155816
    14  H    0.160475
    15  H    0.160035
    16  C   -0.218546
    17  H    0.164647
    18  C    0.093171
    19  C    0.292435
    20  N   -0.556060
    21  C   -0.395264
    22  H    0.217962
    23  S    0.318181
    24  C    0.305354
    25  N   -0.596636
    26  C    0.660301
    27  N   -0.706047
    28  H    0.439881
    29  H    0.366358
    30  N   -0.691605
    31  H    0.418608
    32  H    0.392165
    33  H    0.476995
 Sum of Mulliken charges =   1.00000
 Mulliken charges with hydrogens summed into heavy atoms:
               1
     1  C    0.003052
     5  C    0.591502
     6  O   -0.564174
     7  N   -0.282223
     9  C    0.299287
    10  C    0.005250
    11  C   -0.005022
    12  C   -0.029570
    16  C   -0.053899
    18  C    0.093171
    19  C    0.292435
    20  N   -0.556060
    21  C   -0.177303
    23  S    0.318181
    24  C    0.305354
[...]
 Alpha virt. eigenvalues --    4.08257   4.15612   4.20857   4.92920
          Condensed to atoms (all electrons):
               1          2          3          4          5          6
     1  C    4.666230   0.341806   0.361546   0.324895   0.058240  -0.076627
     2  H    0.341806   0.869267  -0.086346  -0.119699  -0.035190   0.026545
     3  H    0.361546  -0.086346   0.740630  -0.078674  -0.018216   0.000725
     4  H    0.324895  -0.119699  -0.078674   0.924657   0.038455   0.004623
     5  C    0.058240  -0.035190  -0.018216   0.038455   5.342799   0.183328
     6  O   -0.076627   0.026545   0.000725   0.004623   0.183328   8.758707
     7  N   -0.034087   0.090004   0.010818  -0.117996   0.267843  -0.171462
     8  H   -0.076339  -0.020304   0.008972   0.032071  -0.079631  -0.000103
     9  C    0.187686  -0.017883  -0.020884   0.042190  -0.135780   0.171372
    10  C   -0.032433  -0.003142  -0.004066  -0.000061   0.047758   0.090892
    11  C    0.035435   0.002913   0.004010   0.002930   0.032485  -0.096453
    12  C   -0.023048  -0.001081  -0.001646  -0.003259   0.059761   0.007758
    13  H   -0.000537  -0.000005  -0.000061  -0.000072  -0.007145   0.000691
    14  H    0.002395   0.000103   0.000206   0.000212   0.016820  -0.001194
    15  H   -0.010868  -0.000359  -0.001134   0.000247   0.133430  -0.102656
    16  C   -0.176091   0.015038   0.007310  -0.051531  -0.338680  -0.002846
    17  H    0.030599   0.002973   0.000498  -0.003742  -0.073297   0.008241
    18  C    0.025263  -0.002146  -0.004124   0.012461  -0.156382   0.035529
    19  C    0.004712   0.000482   0.000682  -0.001125   0.034810  -0.007895
    20  N   -0.000172   0.000006  -0.000000   0.000018   0.003704  -0.000114
    21  C    0.000704  -0.000169   0.000056   0.000946  -0.015468   0.001315
    22  H    0.000352  -0.000009  -0.000046   0.000509   0.003843  -0.000258
    23  S   -0.000011  -0.000006  -0.000008   0.000000  -0.000339   0.000030
    24  C    0.000116   0.000011   0.000015   0.000035   0.004914  -0.000160
    25  N   -0.000010  -0.000001  -0.000003  -0.000003  -0.000122   0.000002
    26  C    0.000003  -0.000001  -0.000000   0.000002  -0.000140   0.000005
    27  N   -0.000000   0.000000   0.000000  -0.000000   0.000000  -0.000000
    28  H   -0.000000  -0.000000  -0.000000  -0.000000   0.000000   0.000000
    29  H    0.000000   0.000000   0.000000   0.000000  -0.000001  -0.000000
    30  N   -0.000000   0.000000   0.000000   0.000000  -0.000023   0.000001
    31  H   -0.000001  -0.000000  -0.000000  -0.000000  -0.000021   0.000001
    32  H   -0.000005  -0.000001   0.000001  -0.000001   0.000604  -0.000036
    33  H    0.000000   0.000000  -0.000000   0.000000   0.000027  -0.000000
               7          8          9         10         11         12
     1  C   -0.034087  -0.076339   0.187686  -0.032433   0.035435  -0.023048
     2  H    0.090004  -0.020304  -0.017883  -0.003142   0.002913  -0.001081
     3  H    0.010818   0.008972  -0.020884  -0.004066   0.004010  -0.001646
     4  H   -0.117996   0.032071   0.042190  -0.000061   0.002930  -0.003259
     5  C    0.267843  -0.079631  -0.135780   0.047758   0.032485   0.059761
     6  O   -0.171462  -0.000103   0.171372   0.090892  -0.096453   0.007758
     7  N    8.064251   0.282710  -1.215111   0.907644  -0.397217   0.283640
     8  H    0.282710   0.986352  -0.209408  -0.107270  -0.031776   0.030218
     9  C   -1.215111  -0.209408  18.124566  -6.342425   4.217121  -3.931245
    10  C    0.907644  -0.107270  -6.342425  16.262460  -6.792807   3.393633
    11  C   -0.397217  -0.031776   4.217121  -6.792807  18.683141  -6.445814
    12  C    0.283640   0.030218  -3.931245   3.393633  -6.445814  21.582829
    13  H    0.004150  -0.003337  -0.053353  -0.178430   0.668372  -1.408564
    14  H   -0.007483  -0.000060  -0.309503   1.116399  -1.643207   0.884091
    15  H   -0.168180   0.006969   0.813415  -1.694170   0.805732  -0.185535
    16  C    0.781949   0.291761  -6.829747   2.724378  -4.633216  -1.694365
    17  H   -0.249836  -0.042871   0.738171  -0.257666   0.082327  -0.119252
    18  C   -0.640864  -0.059933   1.604272  -4.400461   2.061101  -6.204250
    19  C    0.066525   0.053744  -1.879006   0.625322  -0.778456   0.976633
    20  N   -0.004436   0.000392   0.164896  -0.051468  -0.007336  -0.126725
    21  C   -0.062075  -0.026490   1.068947  -0.368948   0.217150  -1.617035
    22  H   -0.002707  -0.001340  -0.053216  -0.024819   0.020967   0.120383
    23  S    0.001243   0.000780  -0.024130   0.020045  -0.029026   0.068258
    24  C   -0.003700   0.006974   0.230699  -0.106626   0.173700  -0.354137
    25  N    0.000427   0.000138  -0.016795   0.009004  -0.026354   0.029635
    26  C   -0.000258   0.000024  -0.004882  -0.000911   0.034461  -0.020119
    27  N    0.000001  -0.000000  -0.000123   0.000271  -0.001257   0.000090
    28  H    0.000000   0.000004  -0.000025   0.000034   0.000216  -0.000085
    29  H   -0.000002  -0.000006  -0.000030   0.000014   0.000008   0.000569
    30  N   -0.000074  -0.000088   0.002167  -0.001613  -0.016574  -0.010707
    31  H   -0.000019  -0.000018  -0.000212   0.000046   0.003817   0.004019
    32  H    0.000462   0.000438   0.000792   0.005201  -0.008941  -0.008028
    33  H    0.000030   0.000066   0.000566   0.000100  -0.000258  -0.003713
              13         14         15         16         17         18
     1  C   -0.000537   0.002395  -0.010868  -0.176091   0.030599   0.025263
     2  H   -0.000005   0.000103  -0.000359   0.015038   0.002973  -0.002146
     3  H   -0.000061   0.000206  -0.001134   0.007310   0.000498  -0.004124
     4  H   -0.000072   0.000212   0.000247  -0.051531  -0.003742   0.012461
     5  C   -0.007145   0.016820   0.133430  -0.338680  -0.073297  -0.156382
     6  O    0.000691  -0.001194  -0.102656  -0.002846   0.008241   0.035529
     7  N    0.004150  -0.007483  -0.168180   0.781949  -0.249836  -0.640864
     8  H   -0.003337  -0.000060   0.006969   0.291761  -0.042871  -0.059933
     9  C   -0.053353  -0.309503   0.813415  -6.829747   0.738171   1.604272
    10  C   -0.178430   1.116399  -1.694170   2.724378  -0.257666  -4.400461
    11  C    0.668372  -1.643207   0.805732  -4.633216   0.082327   2.061101
    12  C   -1.408564   0.884091  -0.185535  -1.694365  -0.119252  -6.204250
    13  H    2.177819  -0.118862  -0.008800  -0.176669  -0.004283   0.711168
    14  H   -0.118862   1.854128  -0.100851   0.096537   0.010614  -0.277019
    15  H   -0.008800  -0.100851   2.350471  -0.101187  -0.036625  -0.083912
    16  C   -0.176669   0.096537  -0.101187  27.849120  -2.241733  -8.576065
    17  H   -0.004283   0.010614  -0.036625  -2.241733   2.579556   1.402227
    18  C    0.711168  -0.277019  -0.083912  -8.576065   1.402227  23.940770
    19  C    0.144194  -0.018788   0.018107  -0.292906  -0.304523  -8.426803
    20  N   -0.093753   0.005780   0.001128  -0.041428   0.014450   0.546445
    21  C    0.025565   0.005093  -0.002229  -1.563288   0.340213   2.860817
    22  H    0.005014  -0.000542   0.001785   0.028532  -0.066608  -0.240217
    23  S    0.001587  -0.001148   0.000450   0.005174  -0.007234  -0.296156
    24  C   -0.051701   0.005640  -0.002247  -0.166680  -0.038857   0.652221
    25  N    0.007838  -0.001386   0.000282   0.059423   0.001563  -0.249945
    26  C    0.004153   0.001359  -0.000211  -0.037791   0.000357  -0.008945
    27  N    0.001986  -0.000126   0.000007   0.001337   0.000070  -0.002576
    28  H   -0.000150   0.000005  -0.000002  -0.000309  -0.000030  -0.000413
    29  H   -0.000054   0.000003   0.000000   0.000129   0.000078  -0.000004
    30  N    0.000195  -0.000051   0.000056   0.013009   0.000443   0.033397
    31  H   -0.000670  -0.000028   0.000020   0.000514   0.000149  -0.006753
    32  H   -0.013457   0.001108   0.000067   0.006196  -0.002308   0.028660
    33  H   -0.001158   0.000012   0.000005  -0.002342  -0.001067   0.009096
              19         20         21         22         23         24
     1  C    0.004712  -0.000172   0.000704   0.000352  -0.000011   0.000116
     2  H    0.000482   0.000006  -0.000169  -0.000009  -0.000006   0.000011
     3  H    0.000682  -0.000000   0.000056  -0.000046  -0.000008   0.000015
     4  H   -0.001125   0.000018   0.000946   0.000509   0.000000   0.000035
     5  C    0.034810   0.003704  -0.015468   0.003843  -0.000339   0.004914
     6  O   -0.007895  -0.000114   0.001315  -0.000258   0.000030  -0.000160
     7  N    0.066525  -0.004436  -0.062075  -0.002707   0.001243  -0.003700
     8  H    0.053744   0.000392  -0.026490  -0.001340   0.000780   0.006974
     9  C   -1.879006   0.164896   1.068947  -0.053216  -0.024130   0.230699
    10  C    0.625322  -0.051468  -0.368948  -0.024819   0.020045  -0.106626
    11  C   -0.778456  -0.007336   0.217150   0.020967  -0.029026   0.173700
    12  C    0.976633  -0.126725  -1.617035   0.120383   0.068258  -0.354137
    13  H    0.144194  -0.093753   0.025565   0.005014   0.001587  -0.051701
    14  H   -0.018788   0.005780   0.005093  -0.000542  -0.001148   0.005640
    15  H    0.018107   0.001128  -0.002229   0.001785   0.000450  -0.002247
    16  C   -0.292906  -0.041428  -1.563288   0.028532   0.005174  -0.166680
    17  H   -0.304523   0.014450   0.340213  -0.066608  -0.007234  -0.038857
    18  C   -8.426803   0.546445   2.860817  -0.240217  -0.296156   0.652221
    19  C   26.804165  -1.501228  -8.662002   0.933343   0.168374  -1.970378
    20  N   -1.501228   8.068768   0.681634   0.002422  -0.204812   0.409387
    21  C   -8.662002   0.681634  14.042006  -0.498673   0.139651  -0.786389
    22  H    0.933343   0.002422  -0.498673   1.607899  -0.229327  -0.006609
    23  S    0.168374  -0.204812   0.139651  -0.229327  15.853566   0.224941
    24  C   -1.970378   0.409387  -0.786389  -0.006609   0.224941   8.142177
    25  N    0.696951  -0.179415  -0.072752  -0.016010  -0.130759  -0.328085
    26  C    0.116502   0.038625  -0.168616  -0.009400  -0.060779  -0.422741
    27  N    0.024347   0.004897  -0.001572  -0.000090   0.004653   0.028956
    28  H    0.003287   0.002411  -0.003738  -0.000165  -0.000199  -0.015360
    29  H   -0.000523   0.000162   0.001232   0.000043  -0.002128  -0.025149
    30  N   -0.104606  -0.019648   0.075775   0.002667  -0.010716   0.012924
    31  H    0.010578  -0.001833   0.002073   0.000035  -0.001081  -0.001002
    32  H   -0.036363  -0.016683  -0.058822  -0.002522   0.002486   0.029009
    33  H   -0.086259  -0.013901   0.002283   0.001495   0.022445  -0.099039
              25         26         27         28         29         30
     1  C   -0.000010   0.000003  -0.000000  -0.000000   0.000000  -0.000000
     2  H   -0.000001  -0.000001   0.000000  -0.000000   0.000000   0.000000
     3  H   -0.000003  -0.000000   0.000000  -0.000000   0.000000   0.000000
     4  H   -0.000003   0.000002  -0.000000  -0.000000   0.000000   0.000000
     5  C   -0.000122  -0.000140   0.000000   0.000000  -0.000001  -0.000023
     6  O    0.000002   0.000005  -0.000000   0.000000  -0.000000   0.000001
     7  N    0.000427  -0.000258   0.000001   0.000000  -0.000002  -0.000074
     8  H    0.000138   0.000024  -0.000000   0.000004  -0.000006  -0.000088
     9  C   -0.016795  -0.004882  -0.000123  -0.000025  -0.000030   0.002167
    10  C    0.009004  -0.000911   0.000271   0.000034   0.000014  -0.001613
    11  C   -0.026354   0.034461  -0.001257   0.000216   0.000008  -0.016574
    12  C    0.029635  -0.020119   0.000090  -0.000085   0.000569  -0.010707
    13  H    0.007838   0.004153   0.001986  -0.000150  -0.000054   0.000195
    14  H   -0.001386   0.001359  -0.000126   0.000005   0.000003  -0.000051
    15  H    0.000282  -0.000211   0.000007  -0.000002   0.000000   0.000056
    16  C    0.059423  -0.037791   0.001337  -0.000309   0.000129   0.013009
    17  H    0.001563   0.000357   0.000070  -0.000030   0.000078   0.000443
    18  C   -0.249945  -0.008945  -0.002576  -0.000413  -0.000004   0.033397
    19  C    0.696951   0.116502   0.024347   0.003287  -0.000523  -0.104606
    20  N   -0.179415   0.038625   0.004897   0.002411   0.000162  -0.019648
    21  C   -0.072752  -0.168616  -0.001572  -0.003738   0.001232   0.075775
    22  H   -0.016010  -0.009400  -0.000090  -0.000165   0.000043   0.002667
    23  S   -0.130759  -0.060779   0.004653  -0.000199  -0.002128  -0.010716
    24  C   -0.328085  -0.422741   0.028956  -0.015360  -0.025149   0.012924
    25  N    7.440549   0.199399  -0.100370  -0.021485   0.019722  -0.034642
    26  C    0.199399   5.184113   0.111839  -0.072688  -0.080451   0.157533
    27  N   -0.100370   0.111839   6.390980   0.461263   0.449431  -0.106610
    28  H   -0.021485  -0.072688   0.461263   0.778126  -0.142722  -0.016610
    29  H    0.019722  -0.080451   0.449431  -0.142722   0.773705   0.005364
    30  N   -0.034642   0.157533  -0.106610  -0.016610   0.005364   6.316394
    31  H    0.019062  -0.125745  -0.003372  -0.009035   0.002665   0.447673
    32  H   -0.035468  -0.099822   0.010837   0.003637  -0.001432   0.417056
    33  H    0.435353  -0.102584  -0.006250   0.002138  -0.003846   0.012542
              31         32         33
     1  C   -0.000001  -0.000005   0.000000
     2  H   -0.000000  -0.000001   0.000000
     3  H   -0.000000   0.000001  -0.000000
     4  H   -0.000000  -0.000001   0.000000
     5  C   -0.000021   0.000604   0.000027
     6  O    0.000001  -0.000036  -0.000000
     7  N   -0.000019   0.000462   0.000030
     8  H   -0.000018   0.000438   0.000066
     9  C   -0.000212   0.000792   0.000566
    10  C    0.000046   0.005201   0.000100
    11  C    0.003817  -0.008941  -0.000258
    12  C    0.004019  -0.008028  -0.003713
    13  H   -0.000670  -0.013457  -0.001158
    14  H   -0.000028   0.001108   0.000012
    15  H    0.000020   0.000067   0.000005
    16  C    0.000514   0.006196  -0.002342
    17  H    0.000149  -0.002308  -0.001067
    18  C   -0.006753   0.028660   0.009096
    19  C    0.010578  -0.036363  -0.086259
    20  N   -0.001833  -0.016683  -0.013901
    21  C    0.002073  -0.058822   0.002283
    22  H    0.000035  -0.002522   0.001495
    23  S   -0.001081   0.002486   0.022445
    24  C   -0.001002   0.029009  -0.099039
    25  N    0.019062  -0.035468   0.435353
    26  C   -0.125745  -0.099822  -0.102584
    27  N   -0.003372   0.010837  -0.006250
    28  H   -0.009035   0.003637   0.002138
    29  H    0.002665  -0.001432  -0.003846
    30  N    0.447673   0.417056   0.012542
    31  H    0.850142  -0.201041  -0.000832
    32  H   -0.201041   0.854453   0.003727
    33  H   -0.000832   0.003727   0.834067
 Mulliken charges:
               1
     1  C    0.390244
     2  H   -0.062805
     3  H    0.079739
     4  H   -0.008089
     5  C    0.631615
     6  O   -0.829961
     7  N   -0.686189
     8  H   -0.042638
     9  C   -0.323102
    10  C    1.164113
    11  C   -0.137195
    12  C    0.717093
    13  H   -0.631670
    14  H   -0.520258
    15  H   -0.633207
    16  C    1.046464
    17  H   -0.762599
    18  C    1.713541
    19  C   -0.611899
    20  N   -0.682172
    21  C    0.442807
    22  H   -0.576732
    23  S    0.484176
    24  C    0.457140
    25  N   -0.705742
    26  C    1.367706
    27  N   -0.268622
    28  H    0.031893
    29  H    0.003220
    30  N   -0.175232
    31  H    0.010869
    32  H    0.120196
    33  H   -0.002703
 Sum of Mulliken charges =   1.00000
 Mulliken charges with hydrogens summed into heavy atoms:
               1
     1  C    0.399089
     5  C    0.631615
     6  O   -0.829961
     7  N   -0.728827
     9  C   -0.323102
    10  C    0.530907
    11  C   -0.657454
    12  C    0.085422
    16  C    0.283865
    18  C    1.713541
    19  C   -0.611899
    20  N   -0.682172
    21  C   -0.133925
    23  S    0.484176
    24  C    0.457140
    25  N   -0.708445
    26  C    1.367706
    27  N   -0.233509
    30  N   -0.044168
 Electronic spatial extent (au):  <R**2>=           8732.6911
 Charge=              1.0000 electrons
 Dipole moment (field-independent basis, Debye):
    X=            -20.2044    Y=             -0.9830    Z=              1.2630  Tot=             20.2677
 Quadrupole moment (field-independent basis, Debye-Ang):
   XX=             14.8731   YY=            -88.0768   ZZ=           -123.7351
   XY=            -40.2908   XZ=             -2.7063   YZ=              1.4305
 Traceless Quadrupole moment (field-independent basis, Debye-Ang):
   XX=             80.5193   YY=            -22.4305   ZZ=            -58.0889
   XY=            -40.2908   XZ=             -2.7063   YZ=              1.4305
 Octapole moment (field-independent basis, Debye-Ang**2):
  XXX=           -753.9536  YYY=             34.9730  ZZZ=              4.8553  XYY=            -80.1679
  XXY=             -9.7108  XXZ=             50.9064  XZZ=             -0.4262  YZZ=             -0.4423
  YYZ=              3.6223  XYZ=            -19.1987
 Hexadecapole moment (field-independent basis, Debye-Ang**3):
 XXXX=          -4871.5706 YYYY=          -1272.5370 ZZZZ=           -175.0770 XXXY=          -1389.7006
 XXXZ=           -101.9289 YYYX=           -237.8892 YYYZ=             15.6417 ZZZX=              2.3469
 ZZZY=              3.6864 XXYY=          -1437.9738 XXZZ=          -1701.9628 YYZZ=           -300.8284
 XXYZ=             60.6949 YYXZ=            -39.1686 ZZXY=            -25.7640
 N-N= 1.442480093921D+03 E-N=-5.705472363183D+03  KE= 1.205992228402D+03
 Leave Link  601 at Sun Jul 18 16:30:29 2021, MaxMem=   262144000 cpu:               1.0 elap:               0.4
 (Enter /prod/apps/gaussian/g16b1/l9999.exe)
 1\1\GINC-PIRINEUS10\SP\RMP2-FC\Aug-CC-pVDZ\C12H14N5O1S1(1+)\UBATOR02\1
 8-Jul-2021\0\\#p mp2/aug-cc-pVDZ scf=tight maxdisk=180GB geom=allcheck
 \\SET_328_BBB321_conf1.geo_165_150_225 geometry\\1,1\C,0,-3.7949646076
 ,2.696020364,4.0607666954\H,0,-4.5949767427,3.433077634,4.1204019903\H
 ,0,-3.0698787047,2.8973805413,4.8557608518\H,0,-4.2052475909,1.6979367
 478,4.228533595\C,0,-3.1252332771,2.8106840785,2.7052822698\O,0,-3.310
 800007,3.7747887406,1.9620807961\N,0,-2.2925690877,1.7648285747,2.4043
 252167\H,0,-2.2290133388,1.0322419959,3.1054798401\C,0,-1.4961884936,1
 .5684755395,1.2600650328\C,0,-1.4577608017,2.4645939706,0.1774685703\C
 ,0,-0.6447761921,2.1726869178,-0.9175569493\C,0,0.1296876243,1.0158587
 262,-0.9607052981\H,0,0.7604352344,0.8021588317,-1.8144449571\H,0,-0.6
 177150983,2.8660469234,-1.7519920555\H,0,-2.0586714365,3.3600946616,0.
 2106362142\C,0,-0.7164898449,0.4064354425,1.2172186683\H,0,-0.75730592
 13,-0.2869035356,2.0493564301\C,0,0.1005885965,0.1203114964,0.11836364
 12\C,0,0.9228151392,-1.1018310002,0.098453489\N,0,1.5497321802,-1.4821
 905121,-1.0820815967\C,0,1.1576341141,-1.9322835441,1.1591426205\H,0,0
 .810085227,-1.8438294006,2.1766481518\S,0,2.1857232792,-3.2535174907,0
 .6992716788\C,0,2.2354851546,-2.5757775993,-0.921650362\N,0,2.95907399
 39,-3.217921579,-1.9106151676\C,0,3.0148337228,-2.8800924441,-3.233355
 7334\N,0,3.7711744257,-3.6350180481,-4.0241927568\H,0,3.83245663,-3.43
 05830853,-5.0165580028\H,0,4.2543100633,-4.4511928967,-3.6625297542\N,
 0,2.3418247776,-1.8407291838,-3.7016042743\H,0,2.3960148833,-1.6077803
 2,-4.68815255\H,0,1.7866205253,-1.2732902803,-3.0627175019\H,0,3.50609
 55735,-4.0326802665,-1.6370987926\\Version=ES64L-G16RevB.01\State=1-A\
 HF=-1207.1548653\MP2=-1209.9711477\RMSD=5.377e-09\PG=C01 [X(C12H14N5O1
 S1)]\\@


 IT IS UNWORTHY OF EXCELLENT MEN TO LOSE HOURS LIKE SLAVES IN THE LABOR
 OF CALCULATION WHICH COULD BE SAFELY RELEGATED TO ANYONE ELSE
 IF A MACHINE WERE USED.
    -- G.W. VON LEIBNIZ
 Job cpu time:       0 days  2 hours  1 minutes 51.8 seconds.
 Elapsed time:       0 days  0 hours 32 minutes 47.9 seconds.
 File lengths (MBytes):  RWF=  86226 Int=      0 D2E=      0 Chk=     27 Scr=      1
 Normal termination of Gaussian 16 at Sun Jul 18 16:30:31 2021.
