 Entering Gaussian System, Link 0=g16
 Initial command:
 /prod/apps/gaussian/g16b1/l1.exe "/tmp/ubator02/1839550/Gau-81378.inp" -scrdir="/tmp/ubator02/1839550/"
 Entering Link 1 = /prod/apps/gaussian/g16b1/l1.exe PID=     81386.
  
 Copyright (c) 1988-2017, Gaussian, Inc.  All Rights Reserved.
  
 This is part of the Gaussian(R) 16 program.  It is based on
 the Gaussian(R) 09 system (copyright 2009, Gaussian, Inc.),
 the Gaussian(R) 03 system (copyright 2003, Gaussian, Inc.),
 the Gaussian(R) 98 system (copyright 1998, Gaussian, Inc.),
 the Gaussian(R) 94 system (copyright 1995, Gaussian, Inc.),
 the Gaussian 92(TM) system (copyright 1992, Gaussian, Inc.),
 the Gaussian 90(TM) system (copyright 1990, Gaussian, Inc.),
 the Gaussian 88(TM) system (copyright 1988, Gaussian, Inc.),
 the Gaussian 86(TM) system (copyright 1986, Carnegie Mellon
 University), and the Gaussian 82(TM) system (copyright 1983,
 Carnegie Mellon University). Gaussian is a federally registered
 trademark of Gaussian, Inc.
  
 This software contains proprietary and confidential information,
 including trade secrets, belonging to Gaussian, Inc.
  
 This software is provided under written license and may be
 used, copied, transmitted, or stored only in accord with that
 written license.
  
 The following legend is applicable only to US Government
 contracts under FAR:
  
                    RESTRICTED RIGHTS LEGEND
  
 Use, reproduction and disclosure by the US Government is
 subject to restrictions as set forth in subparagraphs (a)
 and (c) of the Commercial Computer Software - Restricted
 Rights clause in FAR 52.227-19.
  
 Gaussian, Inc.
 340 Quinnipiac St., Bldg. 40, Wallingford CT 06492
  
  
 ---------------------------------------------------------------
 Warning -- This program may not be used in any manner that
 competes with the business of Gaussian, Inc. or will provide
 assistance to any competitor of Gaussian, Inc.  The licensee
 of this program is prohibited from giving any competitor of
 Gaussian, Inc. access to this program.  By using this program,
 the user acknowledges that Gaussian, Inc. is engaged in the
 business of creating and licensing software in the field of
 computational chemistry and represents and warrants to the
 licensee that it is not a competitor of Gaussian, Inc. and that
 it will not use this program in any manner prohibited above.
 ---------------------------------------------------------------
  

 Cite this work as:
 Gaussian 16, Revision B.01,
 M. J. Frisch, G. W. Trucks, H. B. Schlegel, G. E. Scuseria, 
 M. A. Robb, J. R. Cheeseman, G. Scalmani, V. Barone, 
 G. A. Petersson, H. Nakatsuji, X. Li, M. Caricato, A. V. Marenich, 
 J. Bloino, B. G. Janesko, R. Gomperts, B. Mennucci, H. P. Hratchian, 
 J. V. Ortiz, A. F. Izmaylov, J. L. Sonnenberg, D. Williams-Young, 
 F. Ding, F. Lipparini, F. Egidi, J. Goings, B. Peng, A. Petrone, 
 T. Henderson, D. Ranasinghe, V. G. Zakrzewski, J. Gao, N. Rega, 
 G. Zheng, W. Liang, M. Hada, M. Ehara, K. Toyota, R. Fukuda, 
 J. Hasegawa, M. Ishida, T. Nakajima, Y. Honda, O. Kitao, H. Nakai, 
 T. Vreven, K. Throssell, J. A. Montgomery, Jr., J. E. Peralta, 
 F. Ogliaro, M. J. Bearpark, J. J. Heyd, E. N. Brothers, K. N. Kudin, 
 V. N. Staroverov, T. A. Keith, R. Kobayashi, J. Normand, 
 K. Raghavachari, A. P. Rendell, J. C. Burant, S. S. Iyengar, 
 J. Tomasi, M. Cossi, J. M. Millam, M. Klene, C. Adamo, R. Cammi, 
 J. W. Ochterski, R. L. Martin, K. Morokuma, O. Farkas, 
 J. B. Foresman, and D. J. Fox, Gaussian, Inc., Wallingford CT, 2016.
 
 ******************************************
 Gaussian 16:  ES64L-G16RevB.01 20-Dec-2017
                18-Jul-2021 
 ******************************************
 %mem=800MB
 %nproc=4
 Will use up to    4 processors via shared memory.
 %chk=SET_328_BBB268_conf1.geo_225_240_255.chk
 -----------------------------------------------------------
 #p b3lyp/6-31G(d) opt freq scrf=(iefpcm,read,solvent=water)
 -----------------------------------------------------------
 1/18=20,19=15,26=3,38=1,40=2/1,3;
 2/9=110,12=2,17=6,18=5,40=1/2;
 3/5=1,6=6,7=1,11=2,25=1,30=1,70=2203,71=1,72=1,74=-5/1,2,3;
 4//1;
 5/5=2,38=5,53=1/2;
 6/7=2,8=2,9=2,10=2,28=1/1;
 7//1,2,3,16;
 1/18=20,19=15,26=3/3(2);
 2/9=110/2;
 99//99;
 2/9=110/2;
 3/5=1,6=6,7=1,11=2,25=1,30=1,70=2205,71=1,72=1,74=-5/1,2,3;
 4/5=5,16=3,69=1/1;
 5/5=2,38=5,53=1/2;
 7//1,2,3,16;
 1/18=20,19=15,26=3/3(-5);
 2/9=110/2;
 6/7=2,8=2,9=2,10=2,19=2,28=1/1;
 99/9=1/99;
 Leave Link    1 at Sun Jul 18 13:39:55 2021, MaxMem=   104857600 cpu:               0.1 elap:               0.0
 (Enter /prod/apps/gaussian/g16b1/l101.exe)
 ---------------------------------------------
 SET_328_BBB268_conf1.geo_225_240_255 geometry
 ---------------------------------------------
 Symbolic Z-matrix:
 Charge =  1 Multiplicity = 1
 C                    -0.519     1.781     3.614 
 H                    -1.597     1.768     3.435 
 H                    -0.332     2.791     3.24 
 H                    -0.321     1.737     4.687 
 N                     0.193     0.796     2.752 
 C                     1.679     0.977     2.776 
 H                     2.116     0.154     3.347 
 H                     1.896     1.921     3.284 
 H                     2.172     0.963     1.801 
 C                    -0.45     -0.105     1.935 
 O                    -1.702    -0.189     2.028 
 C                     0.305    -1.02      0.913 
 H                     0.399    -2.031     1.315 
 H                     1.392    -0.925     0.868 
 C                    -0.341    -1.08     -0.462 
 C                    -0.57     -0.009    -1.352 
 C                     0.032     1.292    -1.045 
 C                     1.4       1.533    -1.244 
 C                     1.92      2.746    -0.822 
 C                     1.105     3.732    -0.239 
 C                     1.514     5.127     0.076 
 H                     2.363     5.202     0.758 
 H                     0.797     5.745     0.621 
 H                     1.74      5.598    -0.883 
 C                    -0.221     3.441    -0.053 
 C                    -0.824     2.251    -0.443 
 H                    -1.866     2.1      -0.176 
 H                    -0.793     4.145     0.546 
 H                     2.989     2.858    -0.986 
 H                     2.007     0.801    -1.771 
 N                    -1.381    -0.379    -2.432 
 C                    -1.336    -1.726    -2.295 
 C                    -2.07     -2.651    -3.067 
 H                    -2.677    -2.239    -3.866 
 C                    -2.028    -3.996    -2.759 
 H                    -2.483    -4.711    -3.436 
 C                    -1.127    -4.438    -1.672 
 C                    -0.73     -5.885    -1.661 
 H                    -1.594    -6.552    -1.619 
 H                    -0.159    -6.155    -0.77 
 H                    -0.111    -6.001    -2.553 
 C                    -0.355    -3.51     -0.988 
 H                     0.422    -3.689    -0.254 
 N                    -0.854    -2.166    -1.15 
 H                    -1.855     0.186    -3.107 
 
 ITRead=  0  0  0  0  0  0  0  0  0  0  0  0  0  0  0  0  0  0  0  0
 ITRead=  0  0  0  0  0  0  0  0  0  0  0  0  0  0  0  0  0  0  0  0
 ITRead=  0  0  0  0  0
 MicOpt= -1 -1 -1 -1 -1 -1 -1 -1 -1 -1 -1 -1 -1 -1 -1 -1 -1 -1 -1 -1
 MicOpt= -1 -1 -1 -1 -1 -1 -1 -1 -1 -1 -1 -1 -1 -1 -1 -1 -1 -1 -1 -1
 MicOpt= -1 -1 -1 -1 -1
 NAtoms=     45 NQM=       45 NQMF=       0 NMMI=      0 NMMIF=      0
                NMic=       0 NMicF=      0.
                    Isotopes and Nuclear Properties:
 (Nuclear quadrupole moments (NQMom) in fm**2, nuclear magnetic moments (NMagM)
  in nuclear magnetons)

  Atom         1           2           3           4           5           6           7           8           9          10
 IAtWgt=          12           1           1           1          14          12           1           1           1          12
 AtmWgt=  12.0000000   1.0078250   1.0078250   1.0078250  14.0030740  12.0000000   1.0078250   1.0078250   1.0078250  12.0000000
 NucSpn=           0           1           1           1           2           0           1           1           1           0
 AtZEff=  -0.0000000  -0.0000000  -0.0000000  -0.0000000  -0.0000000  -0.0000000  -0.0000000  -0.0000000  -0.0000000  -0.0000000
 NQMom=    0.0000000   0.0000000   0.0000000   0.0000000   2.0440000   0.0000000   0.0000000   0.0000000   0.0000000   0.0000000
 NMagM=    0.0000000   2.7928460   2.7928460   2.7928460   0.4037610   0.0000000   2.7928460   2.7928460   2.7928460   0.0000000
 AtZNuc=   6.0000000   1.0000000   1.0000000   1.0000000   7.0000000   6.0000000   1.0000000   1.0000000   1.0000000   6.0000000

  Atom        11          12          13          14          15          16          17          18          19          20
 IAtWgt=          16          12           1           1          12          12          12          12          12          12
 AtmWgt=  15.9949146  12.0000000   1.0078250   1.0078250  12.0000000  12.0000000  12.0000000  12.0000000  12.0000000  12.0000000
 NucSpn=           0           0           1           1           0           0           0           0           0           0
 AtZEff=  -0.0000000  -0.0000000  -0.0000000  -0.0000000  -0.0000000  -0.0000000  -0.0000000  -0.0000000  -0.0000000  -0.0000000
 NQMom=    0.0000000   0.0000000   0.0000000   0.0000000   0.0000000   0.0000000   0.0000000   0.0000000   0.0000000   0.0000000
 NMagM=    0.0000000   0.0000000   2.7928460   2.7928460   0.0000000   0.0000000   0.0000000   0.0000000   0.0000000   0.0000000
 AtZNuc=   8.0000000   6.0000000   1.0000000   1.0000000   6.0000000   6.0000000   6.0000000   6.0000000   6.0000000   6.0000000

  Atom        21          22          23          24          25          26          27          28          29          30
 IAtWgt=          12           1           1           1          12          12           1           1           1           1
 AtmWgt=  12.0000000   1.0078250   1.0078250   1.0078250  12.0000000  12.0000000   1.0078250   1.0078250   1.0078250   1.0078250
 NucSpn=           0           1           1           1           0           0           1           1           1           1
 AtZEff=  -0.0000000  -0.0000000  -0.0000000  -0.0000000  -0.0000000  -0.0000000  -0.0000000  -0.0000000  -0.0000000  -0.0000000
 NQMom=    0.0000000   0.0000000   0.0000000   0.0000000   0.0000000   0.0000000   0.0000000   0.0000000   0.0000000   0.0000000
 NMagM=    0.0000000   2.7928460   2.7928460   2.7928460   0.0000000   0.0000000   2.7928460   2.7928460   2.7928460   2.7928460
 AtZNuc=   6.0000000   1.0000000   1.0000000   1.0000000   6.0000000   6.0000000   1.0000000   1.0000000   1.0000000   1.0000000

  Atom        31          32          33          34          35          36          37          38          39          40
 IAtWgt=          14          12          12           1          12           1          12          12           1           1
 AtmWgt=  14.0030740  12.0000000  12.0000000   1.0078250  12.0000000   1.0078250  12.0000000  12.0000000   1.0078250   1.0078250
 NucSpn=           2           0           0           1           0           1           0           0           1           1
 AtZEff=  -0.0000000  -0.0000000  -0.0000000  -0.0000000  -0.0000000  -0.0000000  -0.0000000  -0.0000000  -0.0000000  -0.0000000
 NQMom=    2.0440000   0.0000000   0.0000000   0.0000000   0.0000000   0.0000000   0.0000000   0.0000000   0.0000000   0.0000000
 NMagM=    0.4037610   0.0000000   0.0000000   2.7928460   0.0000000   2.7928460   0.0000000   0.0000000   2.7928460   2.7928460
 AtZNuc=   7.0000000   6.0000000   6.0000000   1.0000000   6.0000000   1.0000000   6.0000000   6.0000000   1.0000000   1.0000000

  Atom        41          42          43          44          45
 IAtWgt=           1          12           1          14           1
 AtmWgt=   1.0078250  12.0000000   1.0078250  14.0030740   1.0078250
 NucSpn=           1           0           1           2           1
 AtZEff=  -0.0000000  -0.0000000  -0.0000000  -0.0000000  -0.0000000
 NQMom=    0.0000000   0.0000000   0.0000000   2.0440000   0.0000000
 NMagM=    2.7928460   0.0000000   2.7928460   0.4037610   2.7928460
 AtZNuc=   1.0000000   6.0000000   1.0000000   7.0000000   1.0000000
 Leave Link  101 at Sun Jul 18 13:39:55 2021, MaxMem=   104857600 cpu:               0.5 elap:               0.2
 (Enter /prod/apps/gaussian/g16b1/l103.exe)

 GradGradGradGradGradGradGradGradGradGradGradGradGradGradGradGradGradGrad
 Berny optimization.
 Initialization pass.
                           ----------------------------
                           !    Initial Parameters    !
                           ! (Angstroms and Degrees)  !
 --------------------------                            --------------------------
 ! Name  Definition              Value          Derivative Info.                !
 --------------------------------------------------------------------------------
 ! R1    R(1,2)                  1.0928         estimate D2E/DX2                !
 ! R2    R(1,3)                  1.0931         estimate D2E/DX2                !
 ! R3    R(1,4)                  1.092          estimate D2E/DX2                !
 ! R4    R(1,5)                  1.49           estimate D2E/DX2                !
 ! R5    R(5,6)                  1.4972         estimate D2E/DX2                !
 ! R6    R(5,10)                 1.3758         estimate D2E/DX2                !
 ! R7    R(6,7)                  1.0929         estimate D2E/DX2                !
 ! R8    R(6,8)                  1.0937         estimate D2E/DX2                !
 ! R9    R(6,9)                  1.0926         estimate D2E/DX2                !
 ! R10   R(10,11)                1.2583         estimate D2E/DX2                !
 ! R11   R(10,12)                1.5658         estimate D2E/DX2                !
 ! R12   R(12,13)                1.092          estimate D2E/DX2                !
 ! R13   R(12,14)                1.0921         estimate D2E/DX2                !
 ! R14   R(12,15)                1.5204         estimate D2E/DX2                !
 ! R15   R(15,16)                1.4112         estimate D2E/DX2                !
 ! R16   R(15,44)                1.3842         estimate D2E/DX2                !
 ! R17   R(16,17)                1.466          estimate D2E/DX2                !
 ! R18   R(16,31)                1.4004         estimate D2E/DX2                !
 ! R19   R(17,18)                1.4032         estimate D2E/DX2                !
 ! R20   R(17,26)                1.4194         estimate D2E/DX2                !
 ! R21   R(18,19)                1.3856         estimate D2E/DX2                !
 ! R22   R(18,30)                1.0872         estimate D2E/DX2                !
 ! R23   R(19,20)                1.4058         estimate D2E/DX2                !
 ! R24   R(19,29)                1.0873         estimate D2E/DX2                !
 ! R25   R(20,21)                1.4875         estimate D2E/DX2                !
 ! R26   R(20,25)                1.3702         estimate D2E/DX2                !
 ! R27   R(21,22)                1.0916         estimate D2E/DX2                !
 ! R28   R(21,23)                1.0923         estimate D2E/DX2                !
 ! R29   R(21,24)                1.0921         estimate D2E/DX2                !
 ! R30   R(25,26)                1.3899         estimate D2E/DX2                !
 ! R31   R(25,28)                1.087          estimate D2E/DX2                !
 ! R32   R(26,27)                1.0862         estimate D2E/DX2                !
 ! R33   R(31,32)                1.3547         estimate D2E/DX2                !
 ! R34   R(31,45)                0.9998         estimate D2E/DX2                !
 ! R35   R(32,33)                1.4108         estimate D2E/DX2                !
 ! R36   R(32,44)                1.3179         estimate D2E/DX2                !
 ! R37   R(33,34)                1.0847         estimate D2E/DX2                !
 ! R38   R(33,35)                1.3805         estimate D2E/DX2                !
 ! R39   R(35,36)                1.0847         estimate D2E/DX2                !
 ! R40   R(35,37)                1.4794         estimate D2E/DX2                !
 ! R41   R(37,38)                1.5005         estimate D2E/DX2                !
 ! R42   R(37,42)                1.3875         estimate D2E/DX2                !
 ! R43   R(38,39)                1.0923         estimate D2E/DX2                !
 ! R44   R(38,40)                1.0922         estimate D2E/DX2                !
 ! R45   R(38,41)                1.0919         estimate D2E/DX2                !
 ! R46   R(42,43)                1.0838         estimate D2E/DX2                !
 ! R47   R(42,44)                1.4428         estimate D2E/DX2                !
 ! A1    A(2,1,3)               97.1055         estimate D2E/DX2                !
 ! A2    A(2,1,4)              109.8355         estimate D2E/DX2                !
 ! A3    A(2,1,5)              111.6375         estimate D2E/DX2                !
 ! A4    A(3,1,4)              110.0227         estimate D2E/DX2                !
 ! A5    A(3,1,5)              109.3362         estimate D2E/DX2                !
 ! A6    A(4,1,5)              117.0755         estimate D2E/DX2                !
 ! A7    A(1,5,6)              112.6488         estimate D2E/DX2                !
 ! A8    A(1,5,10)             123.5832         estimate D2E/DX2                !
 ! A9    A(6,5,10)             123.5442         estimate D2E/DX2                !
 ! A10   A(5,6,7)              108.3136         estimate D2E/DX2                !
 ! A11   A(5,6,8)              107.9813         estimate D2E/DX2                !
 ! A12   A(5,6,9)              115.5932         estimate D2E/DX2                !
 ! A13   A(7,6,8)              109.145          estimate D2E/DX2                !
 ! A14   A(7,6,9)              106.0311         estimate D2E/DX2                !
 ! A15   A(8,6,9)              109.6328         estimate D2E/DX2                !
 ! A16   A(5,10,11)            117.7024         estimate D2E/DX2                !
 ! A17   A(5,10,12)            123.0214         estimate D2E/DX2                !
 ! A18   A(11,10,12)           119.2758         estimate D2E/DX2                !
 ! A19   A(10,12,13)           110.0129         estimate D2E/DX2                !
 ! A20   A(10,12,14)           117.1295         estimate D2E/DX2                !
 ! A21   A(10,12,15)           114.1091         estimate D2E/DX2                !
 ! A22   A(13,12,14)            90.5745         estimate D2E/DX2                !
 ! A23   A(13,12,15)           109.4483         estimate D2E/DX2                !
 ! A24   A(14,12,15)           112.8978         estimate D2E/DX2                !
 ! A25   A(12,15,16)           127.5425         estimate D2E/DX2                !
 ! A26   A(12,15,44)           129.64           estimate D2E/DX2                !
 ! A27   A(16,15,44)           102.8163         estimate D2E/DX2                !
 ! A28   A(15,16,17)           118.3451         estimate D2E/DX2                !
 ! A29   A(15,16,31)           112.3236         estimate D2E/DX2                !
 ! A30   A(17,16,31)           129.33           estimate D2E/DX2                !
 ! A31   A(16,17,18)           121.5358         estimate D2E/DX2                !
 ! A32   A(16,17,26)           116.1512         estimate D2E/DX2                !
 ! A33   A(18,17,26)           122.1418         estimate D2E/DX2                !
 ! A34   A(17,18,19)           118.2309         estimate D2E/DX2                !
 ! A35   A(17,18,30)           119.8281         estimate D2E/DX2                !
 ! A36   A(19,18,30)           121.8384         estimate D2E/DX2                !
 ! A37   A(18,19,20)           121.5166         estimate D2E/DX2                !
 ! A38   A(18,19,29)           114.4071         estimate D2E/DX2                !
 ! A39   A(20,19,29)           124.0757         estimate D2E/DX2                !
 ! A40   A(19,20,21)           125.8873         estimate D2E/DX2                !
 ! A41   A(19,20,25)           117.9279         estimate D2E/DX2                !
 ! A42   A(21,20,25)           115.8816         estimate D2E/DX2                !
 ! A43   A(20,21,22)           114.243          estimate D2E/DX2                !
 ! A44   A(20,21,23)           117.1163         estimate D2E/DX2                !
 ! A45   A(20,21,24)           105.9872         estimate D2E/DX2                !
 ! A46   A(22,21,23)            99.2033         estimate D2E/DX2                !
 ! A47   A(22,21,24)           110.9814         estimate D2E/DX2                !
 ! A48   A(23,21,24)           109.2682         estimate D2E/DX2                !
 ! A49   A(20,25,26)           124.3036         estimate D2E/DX2                !
 ! A50   A(20,25,28)           116.5182         estimate D2E/DX2                !
 ! A51   A(26,25,28)           118.7396         estimate D2E/DX2                !
 ! A52   A(17,26,25)           115.8376         estimate D2E/DX2                !
 ! A53   A(17,26,27)           126.0745         estimate D2E/DX2                !
 ! A54   A(25,26,27)           117.7903         estimate D2E/DX2                !
 ! A55   A(16,31,32)            99.5254         estimate D2E/DX2                !
 ! A56   A(16,31,45)           130.2376         estimate D2E/DX2                !
 ! A57   A(32,31,45)           130.237          estimate D2E/DX2                !
 ! A58   A(31,32,33)           125.4019         estimate D2E/DX2                !
 ! A59   A(31,32,44)           115.5925         estimate D2E/DX2                !
 ! A60   A(33,32,44)           116.5376         estimate D2E/DX2                !
 ! A61   A(32,33,34)           116.4349         estimate D2E/DX2                !
 ! A62   A(32,33,35)           120.0594         estimate D2E/DX2                !
 ! A63   A(34,33,35)           123.4661         estimate D2E/DX2                !
 ! A64   A(33,35,36)           119.3552         estimate D2E/DX2                !
 ! A65   A(33,35,37)           118.265          estimate D2E/DX2                !
 ! A66   A(36,35,37)           121.1383         estimate D2E/DX2                !
 ! A67   A(35,37,38)           117.0408         estimate D2E/DX2                !
 ! A68   A(35,37,42)           120.0832         estimate D2E/DX2                !
 ! A69   A(38,37,42)           119.615          estimate D2E/DX2                !
 ! A70   A(37,38,39)           112.325          estimate D2E/DX2                !
 ! A71   A(37,38,40)           112.5013         estimate D2E/DX2                !
 ! A72   A(37,38,41)           104.2672         estimate D2E/DX2                !
 ! A73   A(39,38,40)           103.3684         estimate D2E/DX2                !
 ! A74   A(39,38,41)           114.5157         estimate D2E/DX2                !
 ! A75   A(40,38,41)           110.1088         estimate D2E/DX2                !
 ! A76   A(37,42,43)           128.4873         estimate D2E/DX2                !
 ! A77   A(37,42,44)           112.0407         estimate D2E/DX2                !
 ! A78   A(43,42,44)           118.5466         estimate D2E/DX2                !
 ! A79   A(15,44,32)           107.7844         estimate D2E/DX2                !
 ! A80   A(15,44,42)           123.1535         estimate D2E/DX2                !
 ! A81   A(32,44,42)           122.3468         estimate D2E/DX2                !
 ! D1    D(2,1,5,6)            168.6692         estimate D2E/DX2                !
 ! D2    D(2,1,5,10)            -6.0605         estimate D2E/DX2                !
 ! D3    D(3,1,5,6)             62.3954         estimate D2E/DX2                !
 ! D4    D(3,1,5,10)          -112.3343         estimate D2E/DX2                !
 ! D5    D(4,1,5,6)            -63.5419         estimate D2E/DX2                !
 ! D6    D(4,1,5,10)           121.7284         estimate D2E/DX2                !
 ! D7    D(1,5,6,7)            107.6492         estimate D2E/DX2                !
 ! D8    D(1,5,6,8)            -10.4253         estimate D2E/DX2                !
 ! D9    D(1,5,6,9)           -133.5955         estimate D2E/DX2                !
 ! D10   D(10,5,6,7)           -77.6187         estimate D2E/DX2                !
 ! D11   D(10,5,6,8)           164.3068         estimate D2E/DX2                !
 ! D12   D(10,5,6,9)            41.1366         estimate D2E/DX2                !
 ! D13   D(1,5,10,11)           -7.5248         estimate D2E/DX2                !
 ! D14   D(1,5,10,12)          172.7048         estimate D2E/DX2                !
 ! D15   D(6,5,10,11)          178.3128         estimate D2E/DX2                !
 ! D16   D(6,5,10,12)           -1.4576         estimate D2E/DX2                !
 ! D17   D(5,10,12,13)         101.7894         estimate D2E/DX2                !
 ! D18   D(5,10,12,14)           0.3338         estimate D2E/DX2                !
 ! D19   D(5,10,12,15)        -134.7602         estimate D2E/DX2                !
 ! D20   D(11,10,12,13)        -77.9775         estimate D2E/DX2                !
 ! D21   D(11,10,12,14)       -179.4332         estimate D2E/DX2                !
 ! D22   D(11,10,12,15)         45.4729         estimate D2E/DX2                !
 ! D23   D(10,12,15,16)         60.2618         estimate D2E/DX2                !
 ! D24   D(10,12,15,44)       -119.2654         estimate D2E/DX2                !
 ! D25   D(13,12,15,16)       -175.9831         estimate D2E/DX2                !
 ! D26   D(13,12,15,44)          4.4897         estimate D2E/DX2                !
 ! D27   D(14,12,15,16)        -76.7365         estimate D2E/DX2                !
 ! D28   D(14,12,15,44)        103.7363         estimate D2E/DX2                !
 ! D29   D(12,15,16,17)          9.5374         estimate D2E/DX2                !
 ! D30   D(12,15,16,31)       -170.0888         estimate D2E/DX2                !
 ! D31   D(44,15,16,17)       -170.836          estimate D2E/DX2                !
 ! D32   D(44,15,16,31)          9.5379         estimate D2E/DX2                !
 ! D33   D(12,15,44,32)        178.6865         estimate D2E/DX2                !
 ! D34   D(12,15,44,42)        -29.5889         estimate D2E/DX2                !
 ! D35   D(16,15,44,32)         -0.929          estimate D2E/DX2                !
 ! D36   D(16,15,44,42)        150.7955         estimate D2E/DX2                !
 ! D37   D(15,16,17,18)         75.5845         estimate D2E/DX2                !
 ! D38   D(15,16,17,26)        -99.7558         estimate D2E/DX2                !
 ! D39   D(31,16,17,18)       -104.8626         estimate D2E/DX2                !
 ! D40   D(31,16,17,26)         79.797          estimate D2E/DX2                !
 ! D41   D(15,16,31,32)        -13.6256         estimate D2E/DX2                !
 ! D42   D(15,16,31,45)        166.3632         estimate D2E/DX2                !
 ! D43   D(17,16,31,32)        166.7998         estimate D2E/DX2                !
 ! D44   D(17,16,31,45)        -13.2114         estimate D2E/DX2                !
 ! D45   D(16,17,18,19)       -174.4183         estimate D2E/DX2                !
 ! D46   D(16,17,18,30)          9.1965         estimate D2E/DX2                !
 ! D47   D(26,17,18,19)          0.6412         estimate D2E/DX2                !
 ! D48   D(26,17,18,30)       -175.7439         estimate D2E/DX2                !
 ! D49   D(16,17,26,25)        174.838          estimate D2E/DX2                !
 ! D50   D(16,17,26,27)          1.278          estimate D2E/DX2                !
 ! D51   D(18,17,26,25)         -0.4716         estimate D2E/DX2                !
 ! D52   D(18,17,26,27)       -174.0316         estimate D2E/DX2                !
 ! D53   D(17,18,19,20)         -1.5771         estimate D2E/DX2                !
 ! D54   D(17,18,19,29)        178.6849         estimate D2E/DX2                !
 ! D55   D(30,18,19,20)        174.7314         estimate D2E/DX2                !
 ! D56   D(30,18,19,29)         -5.0066         estimate D2E/DX2                !
 ! D57   D(18,19,20,21)       -171.0673         estimate D2E/DX2                !
 ! D58   D(18,19,20,25)          2.3253         estimate D2E/DX2                !
 ! D59   D(29,19,20,21)          8.6447         estimate D2E/DX2                !
 ! D60   D(29,19,20,25)       -177.9627         estimate D2E/DX2                !
 ! D61   D(19,20,21,22)        -58.6524         estimate D2E/DX2                !
 ! D62   D(19,20,21,23)       -173.9722         estimate D2E/DX2                !
 ! D63   D(19,20,21,24)         63.8621         estimate D2E/DX2                !
 ! D64   D(25,20,21,22)        127.8358         estimate D2E/DX2                !
 ! D65   D(25,20,21,23)         12.516          estimate D2E/DX2                !
 ! D66   D(25,20,21,24)       -109.6497         estimate D2E/DX2                !
 ! D67   D(19,20,25,26)         -2.2212         estimate D2E/DX2                !
 ! D68   D(19,20,25,28)        170.0598         estimate D2E/DX2                !
 ! D69   D(21,20,25,26)        171.8314         estimate D2E/DX2                !
 ! D70   D(21,20,25,28)        -15.8876         estimate D2E/DX2                !
 ! D71   D(20,25,26,17)          1.3065         estimate D2E/DX2                !
 ! D72   D(20,25,26,27)        175.4248         estimate D2E/DX2                !
 ! D73   D(28,25,26,17)       -170.8152         estimate D2E/DX2                !
 ! D74   D(28,25,26,27)          3.303          estimate D2E/DX2                !
 ! D75   D(16,31,32,33)        174.9073         estimate D2E/DX2                !
 ! D76   D(16,31,32,44)         13.4367         estimate D2E/DX2                !
 ! D77   D(45,31,32,33)         -5.0815         estimate D2E/DX2                !
 ! D78   D(45,31,32,44)       -166.5521         estimate D2E/DX2                !
 ! D79   D(31,32,33,34)          3.3333         estimate D2E/DX2                !
 ! D80   D(31,32,33,35)       -174.4561         estimate D2E/DX2                !
 ! D81   D(44,32,33,34)        164.6482         estimate D2E/DX2                !
 ! D82   D(44,32,33,35)        -13.1412         estimate D2E/DX2                !
 ! D83   D(31,32,44,15)         -8.439          estimate D2E/DX2                !
 ! D84   D(31,32,44,42)       -160.441          estimate D2E/DX2                !
 ! D85   D(33,32,44,15)       -171.6086         estimate D2E/DX2                !
 ! D86   D(33,32,44,42)         36.3894         estimate D2E/DX2                !
 ! D87   D(32,33,35,36)       -171.664          estimate D2E/DX2                !
 ! D88   D(32,33,35,37)         -4.2424         estimate D2E/DX2                !
 ! D89   D(34,33,35,36)         10.7089         estimate D2E/DX2                !
 ! D90   D(34,33,35,37)        178.1305         estimate D2E/DX2                !
 ! D91   D(33,35,37,38)       -159.3262         estimate D2E/DX2                !
 ! D92   D(33,35,37,42)          0.2066         estimate D2E/DX2                !
 ! D93   D(36,35,37,38)          7.8612         estimate D2E/DX2                !
 ! D94   D(36,35,37,42)        167.3939         estimate D2E/DX2                !
 ! D95   D(35,37,38,39)        -57.4144         estimate D2E/DX2                !
 ! D96   D(35,37,38,40)       -173.5596         estimate D2E/DX2                !
 ! D97   D(35,37,38,41)         67.145          estimate D2E/DX2                !
 ! D98   D(42,37,38,39)        142.9528         estimate D2E/DX2                !
 ! D99   D(42,37,38,40)         26.8076         estimate D2E/DX2                !
 ! D100  D(42,37,38,41)        -92.4877         estimate D2E/DX2                !
 ! D101  D(35,37,42,43)       -172.5863         estimate D2E/DX2                !
 ! D102  D(35,37,42,44)         18.7379         estimate D2E/DX2                !
 ! D103  D(38,37,42,43)        -13.5788         estimate D2E/DX2                !
 ! D104  D(38,37,42,44)        177.7454         estimate D2E/DX2                !
 ! D105  D(37,42,44,15)        173.3535         estimate D2E/DX2                !
 ! D106  D(37,42,44,32)        -38.9175         estimate D2E/DX2                !
 ! D107  D(43,42,44,15)          3.4306         estimate D2E/DX2                !
 ! D108  D(43,42,44,32)        151.1596         estimate D2E/DX2                !
 --------------------------------------------------------------------------------
 Trust Radius=3.00D-01 FncErr=1.00D-07 GrdErr=1.00D-06 EigMax=2.50D+02 EigMin=1.00D-04
 Number of steps in this run=    246 maximum allowed number of steps=    270.
 GradGradGradGradGradGradGradGradGradGradGradGradGradGradGradGradGradGrad

 Leave Link  103 at Sun Jul 18 13:39:55 2021, MaxMem=   104857600 cpu:               0.1 elap:               0.1
 (Enter /prod/apps/gaussian/g16b1/l202.exe)
                          Input orientation:                          
 ---------------------------------------------------------------------
 Center     Atomic      Atomic             Coordinates (Angstroms)
 Number     Number       Type             X           Y           Z
 ---------------------------------------------------------------------
      1          6           0       -0.519000    1.781000    3.614000
      2          1           0       -1.597000    1.768000    3.435000
      3          1           0       -0.332000    2.791000    3.240000
      4          1           0       -0.321000    1.737000    4.687000
      5          7           0        0.193000    0.796000    2.752000
      6          6           0        1.679000    0.977000    2.776000
      7          1           0        2.116000    0.154000    3.347000
      8          1           0        1.896000    1.921000    3.284000
      9          1           0        2.172000    0.963000    1.801000
     10          6           0       -0.450000   -0.105000    1.935000
     11          8           0       -1.702000   -0.189000    2.028000
     12          6           0        0.305000   -1.020000    0.913000
     13          1           0        0.399000   -2.031000    1.315000
     14          1           0        1.392000   -0.925000    0.868000
     15          6           0       -0.341000   -1.080000   -0.462000
     16          6           0       -0.570000   -0.009000   -1.352000
     17          6           0        0.032000    1.292000   -1.045000
     18          6           0        1.400000    1.533000   -1.244000
     19          6           0        1.920000    2.746000   -0.822000
     20          6           0        1.105000    3.732000   -0.239000
     21          6           0        1.514000    5.127000    0.076000
     22          1           0        2.363000    5.202000    0.758000
     23          1           0        0.797000    5.745000    0.621000
     24          1           0        1.740000    5.598000   -0.883000
     25          6           0       -0.221000    3.441000   -0.053000
     26          6           0       -0.824000    2.251000   -0.443000
     27          1           0       -1.866000    2.100000   -0.176000
     28          1           0       -0.793000    4.145000    0.546000
     29          1           0        2.989000    2.858000   -0.986000
     30          1           0        2.007000    0.801000   -1.771000
     31          7           0       -1.381000   -0.379000   -2.432000
     32          6           0       -1.336000   -1.726000   -2.295000
     33          6           0       -2.070000   -2.651000   -3.067000
     34          1           0       -2.677000   -2.239000   -3.866000
     35          6           0       -2.028000   -3.996000   -2.759000
     36          1           0       -2.483000   -4.711000   -3.436000
     37          6           0       -1.127000   -4.438000   -1.672000
     38          6           0       -0.730000   -5.885000   -1.661000
     39          1           0       -1.594000   -6.552000   -1.619000
     40          1           0       -0.159000   -6.155000   -0.770000
     41          1           0       -0.111000   -6.001000   -2.553000
     42          6           0       -0.355000   -3.510000   -0.988000
     43          1           0        0.422000   -3.689000   -0.254000
     44          7           0       -0.854000   -2.166000   -1.150000
     45          1           0       -1.855000    0.186000   -3.107000
 ---------------------------------------------------------------------
                    Distance matrix (angstroms):
                    1          2          3          4          5
     1  C    0.000000
     2  H    1.092838   0.000000
     3  H    1.093135   1.638530   0.000000
     4  H    1.092002   1.787915   1.790208   0.000000
     5  N    1.490038   2.148342   2.119857   2.212217   0.000000
     6  C    2.485933   3.433968   2.747729   2.868714   1.497175
     7  H    3.108318   4.049581   3.599711   3.200072   2.112846
     8  H    2.441460   3.499608   2.392242   2.630086   2.109232
     9  H    3.346278   4.186089   3.417941   3.891416   2.201983
    10  C    2.526024   2.659650   3.178642   3.314077   1.375769
    11  O    2.792093   2.412576   3.496605   3.561870   2.255089
    12  C    3.977434   4.213197   4.510479   4.715506   2.586952
    13  H    4.545269   4.786525   5.243250   5.107505   3.177945
    14  H    4.302891   4.772406   4.733626   4.960380   2.819379
    15  C    4.983049   4.987509   5.356260   5.869250   3.759565
    16  C    5.279002   5.208438   5.383596   6.291267   4.251236
    17  C    4.716885   4.790680   4.554198   5.760074   3.832642
    18  C    5.229171   5.561499   4.968767   6.179014   4.238872
    19  C    5.153450   5.607836   4.644715   6.032350   4.422500
    20  C    4.614042   4.965519   3.879934   5.502634   4.289280
    21  C    5.276955   5.678387   4.344595   6.010045   5.259618
    22  H    5.307156   5.885600   4.385917   5.886181   5.300733
    23  H    5.138405   5.428293   4.106083   5.817761   5.422046
    24  H    6.316295   6.667053   5.401070   7.083780   6.218170
    25  C    4.036247   4.105904   3.358373   5.037977   3.877557
    26  C    4.095507   3.983679   3.754751   5.180165   3.655043
    27  H    4.034882   3.636194   3.807846   5.115424   3.809604
    28  H    3.882808   3.826600   3.050160   4.813432   4.129701
    29  H    5.884386   6.462564   5.375184   6.663008   5.103146
    30  H    6.028209   6.405181   5.877171   6.928307   4.873207
    31  N    6.477867   6.251236   6.581860   7.502081   5.543641
    32  C    6.919741   6.716328   7.214397   7.859448   5.845557
    33  C    8.166026   7.875741   8.509657   9.079541   7.131882
    34  H    8.761722   8.398038   9.016383   9.721786   7.825985
    35  C    8.733037   8.472018   9.215627   9.551128   7.633297
    36  H    9.782937   9.485414  10.270140  10.594059   8.705135
    37  C    8.184584   8.050887   8.776002   8.900401   6.979178
    38  C    9.307938   9.235221   9.972521   9.927702   8.059917
    39  H    9.898424   9.734748  10.606327  10.492554   8.734536
    40  H    9.073541   9.084261   9.805149   9.596289   7.800307
    41  H    9.937700   9.920771  10.531237  10.598978   8.627552
    42  C    7.014270   6.997341   7.588090   7.729023   5.729707
    43  H    6.765191   6.889407   7.400470   7.376110   5.404045
    44  N    6.195703   6.086923   6.642020   7.041880   5.009517
    45  H    7.035678   6.735507   7.027799   8.093528   6.236528
                    6          7          8          9         10
     6  C    0.000000
     7  H    1.092858   0.000000
     8  H    1.093750   1.781757   0.000000
     9  H    1.092644   1.745776   1.786961   0.000000
    10  C    2.531925   2.940269   3.380561   2.834337   0.000000
    11  O    3.653795   4.053953   4.356058   4.048025   1.258256
    12  C    3.057230   3.253053   4.099073   2.864703   1.565801
    13  H    3.580640   3.442577   4.662218   3.513369   2.194237
    14  H    2.709324   2.798903   3.767066   2.245759   2.281196
    15  C    4.335469   4.697668   5.295535   3.950973   2.590003
    16  C    4.803184   5.414958   5.594511   4.290077   3.290590
    17  C    4.172754   4.992771   4.755037   3.575969   3.326309
    18  C    4.067847   4.846811   4.571580   3.192634   4.026361
    19  C    4.016596   4.912987   4.188130   3.181623   4.620189
    20  C    4.124285   5.165617   4.039422   3.601035   4.676203
    21  C    4.953759   5.982690   4.551442   4.554941   5.889567
    22  H    4.731892   5.678577   4.166980   4.369605   6.120666
    23  H    5.306201   6.358468   4.787729   5.113761   6.124060
    24  H    5.894543   6.904449   5.559546   5.373426   6.727662
    25  C    4.205299   5.275030   4.234107   3.912065   4.071695
    26  C    4.272007   5.234989   4.625779   3.958598   3.368308
    27  H    4.747890   5.661693   5.114322   4.637536   3.365026
    28  H    4.595640   5.677672   4.435487   4.526740   4.484358
    29  H    4.405327   5.181567   4.506164   3.467835   5.397993
    30  H    4.562211   5.159885   5.178778   3.579477   4.537854
    31  N    6.190767   6.775687   6.978638   5.687096   4.473536
    32  C    6.489335   6.876254   7.407542   6.026110   4.615792
    33  C    7.833137   8.156593   8.773115   7.399526   5.841791
    34  H    8.569338   8.984802   9.452007   8.116680   6.570014
    35  C    8.313170   8.466314   9.323439   7.938846   6.297904
    36  H    9.394921   9.530379  10.407568   9.016067   7.361791
    37  C    7.548547   7.536171   8.610305   7.219136   5.678351
    38  C    8.519231   8.345616   9.606380   8.203789   6.813077
    39  H    9.312056   9.132124  10.392846   9.074931   7.450064
    40  H    8.174215   7.869485   9.267131   7.918935   6.633567
    41  H    8.960738   8.812125  10.042744   8.524477   7.417539
    42  C    6.199840   6.190554   7.267238   5.845680   4.488539
    43  H    5.703727   5.532223   6.794278   5.378348   4.289191
    44  N    5.630987   5.867394   6.627701   5.258870   3.732045
    45  H    6.908294   7.577861   7.610855   6.396008   5.242182
                   11         12         13         14         15
    11  O    0.000000
    12  C    2.441687   0.000000
    13  H    2.883667   1.092044   0.000000
    14  H    3.385282   1.092071   1.552126   0.000000
    15  C    2.974273   1.520375   2.147028   2.190026   0.000000
    16  C    3.569065   2.630204   3.484298   3.101113   1.411234
    17  C    3.826676   3.041979   4.092263   3.228662   2.470911
    18  C    4.826352   3.517028   4.500286   3.240736   3.235796
    19  C    5.464029   4.449855   5.449765   4.075675   4.458699
    20  C    5.328487   4.954655   6.010451   4.795359   5.029512
    21  C    6.512512   6.320432   7.349511   6.104822   6.500563
    22  H    6.870226   6.555355   7.515573   6.204440   6.947197
    23  H    6.590676   6.789150   7.817047   6.701040   7.003468
    24  H    7.335575   7.005909   8.051778   6.762887   7.007388
    25  C    4.438561   4.594600   5.674382   4.744678   4.541049
    26  C    3.581944   3.716560   4.787673   4.088564   3.365889
    27  H    3.181829   3.953930   4.941505   4.566741   3.538336
    28  H    4.669707   5.293158   6.336813   5.530173   5.340505
    29  H    6.354045   5.084185   5.992080   4.505421   5.183755
    30  H    5.400850   3.662882   4.486567   3.212728   3.280967
    31  N    4.475572   3.800329   4.465144   4.344841   2.335359
    32  C    4.602679   3.671863   4.016883   4.253017   2.183399
    33  C    5.670617   4.913368   5.067769   5.518038   3.499072
    34  H    6.316040   5.763430   6.028914   6.379194   4.288052
    35  C    6.124940   5.270963   5.133131   5.855132   4.077405
    36  H    7.135387   6.349033   6.169305   6.919092   5.159167
    37  C    5.663446   4.518360   4.128498   5.013794   3.654868
    38  C    6.855503   5.600440   4.998453   5.958215   4.967590
    39  H    7.334851   6.373402   5.746290   6.838457   5.731618
    40  H    6.767777   5.423653   4.654671   5.695748   5.087594
    41  H    7.569424   6.082481   5.566186   6.303017   5.351768
    42  C    4.683984   3.201484   2.838973   3.630285   2.486317
    43  H    4.687099   2.915328   2.282817   3.136795   2.726227
    44  N    3.837619   2.629176   2.768476   3.264494   1.384164
    45  H    5.150947   4.720216   5.435963   5.251472   3.300148
                   16         17         18         19         20
    16  C    0.000000
    17  C    1.466033   0.000000
    18  C    2.504062   1.403248   0.000000
    19  C    3.751136   2.393405   1.385588   0.000000
    20  C    4.247290   2.784702   2.435703   1.405813   0.000000
    21  C    5.723700   4.261477   3.830435   2.576898   1.487458
    22  H    6.341065   4.896169   4.289165   2.953741   2.176574
    23  H    6.234576   4.815599   4.645727   3.512461   2.210573
    24  H    6.082311   4.635207   4.095137   2.858326   2.073624
    25  C    3.702932   2.380394   2.772469   2.378711   1.370238
    26  C    2.449163   1.419444   2.470486   2.813930   2.440495
    27  H    2.740524   2.238399   3.482653   3.894667   3.390315
    28  H    4.572510   3.369201   3.851739   3.344995   2.095041
    29  H    4.584771   3.346593   2.084972   1.087291   2.207111
    30  H    2.733604   2.160736   1.087199   2.165917   3.428030
    31  N    1.400365   2.590865   3.577855   4.822274   5.281076
    32  C    2.103353   3.541504   4.383079   5.724513   6.322609
    33  C    3.488752   4.904502   5.733244   7.077269   7.669478
    34  H    3.966427   5.269220   6.142052   7.432938   7.944274
    35  C    4.472313   5.928266   6.679540   8.049425   8.711376
    36  H    5.487388   6.933838   7.672685   9.045787   9.714875
    37  C    4.475342   5.879567   6.497827   7.849622   8.589774
    38  C    5.886294   7.243578   7.729005   9.067557   9.893230
    39  H    6.628025   8.031294   8.629709   9.971771  10.721458
    40  H    6.187161   7.454523   7.858785   9.140719   9.981604
    41  H    6.128389   7.448648   7.794726   9.145017  10.077923
    42  C    3.526432   4.817906   5.345784   6.658883   7.425575
    43  H    3.966367   5.058472   5.404245   6.631429   7.452379
    44  N    2.184973   3.571244   4.332661   5.650699   6.281242
    45  H    2.183867   3.005969   3.984997   5.101514   5.437016
                   21         22         23         24         25
    21  C    0.000000
    22  H    1.091581   0.000000
    23  H    1.092263   1.663122   0.000000
    24  H    1.092061   1.799396   1.781256   0.000000
    25  C    2.422697   3.230464   2.607492   3.031018   0.000000
    26  C    3.742590   4.506414   3.995970   4.239116   1.389895
    27  H    4.544297   5.327213   4.583972   5.073371   2.125896
    28  H    2.550975   3.335046   2.256928   3.251052   1.087015
    29  H    2.907203   2.987934   3.965108   3.013007   3.393299
    30  H    4.729560   5.088357   5.623958   4.885800   3.858122
    31  N    6.707244   7.439166   7.181077   6.918423   4.647326
    32  C    7.791518   8.426185   8.298710   8.068240   5.741749
    33  C    9.122543   9.795495   9.608010   9.345157   7.043824
    34  H    9.346754  10.107000   9.795208   9.477697   7.268652
    35  C   10.188823  10.782086  10.690749  10.476738   8.117675
    36  H   11.184650  11.804276  11.685272  11.429218   9.111336
    37  C   10.075694  10.536347  10.613817  10.467259   8.094482
    38  C   11.371757  11.761793  11.949734  11.771384   9.477290
    39  H   12.203759  12.627925  12.725985  12.620608  10.207719
    40  H   11.436703  11.733572  12.019102  11.905964   9.622949
    41  H   11.549227  11.941131  12.201117  11.863891   9.767982
    42  C    8.900732   9.291662   9.464196   9.346428   7.014883
    43  H    8.889501   9.156501   9.481909   9.401124   7.161756
    44  N    7.765201   8.262988   8.273220   8.190227   5.748265
    45  H    6.774595   7.608548   7.199553   6.867310   4.753093
                   26         27         28         29         30
    26  C    0.000000
    27  H    1.086211   0.000000
    28  H    2.136894   2.419636   0.000000
    29  H    3.899008   4.980129   4.278658   0.000000
    30  H    3.446831   4.385380   4.938707   2.410767   0.000000
    31  N    3.344140   3.386769   5.448009   5.627254   3.647995
    32  C    4.416851   4.405603   6.544828   6.436782   4.223263
    33  C    5.698026   5.565204   7.801930   7.763577   5.497076
    34  H    5.942275   5.753324   7.985653   8.147231   5.964099
    35  C    6.770412   6.622639   8.872662   8.677046   6.345753
    36  H    7.757562   7.576147   9.856022   9.655830   7.301676
    37  C    6.807714   6.747561   8.871244   8.404979   6.105643
    38  C    8.227202   8.200972  10.270137   9.525053   7.225363
    39  H    8.914521   8.775724  10.943246  10.485832   8.188829
    40  H    8.438601   8.450545  10.403067   9.549384   7.353876
    41  H    8.547279   8.623013  10.630627   9.515638   7.166914
    42  C    5.805696   5.866393   7.819464   7.192619   4.977635
    43  H    6.072218   6.225235   7.967922   7.070256   4.997361
    44  N    4.473325   4.491278   6.535201   6.327410   4.168219
    45  H    3.524781   3.500611   5.490531   5.924741   4.132574
                   31         32         33         34         35
    31  N    0.000000
    32  C    1.354697   0.000000
    33  C    2.457627   1.410803   0.000000
    34  H    2.682456   2.128260   1.084709   0.000000
    35  C    3.688933   2.418069   1.380454   2.175707   0.000000
    36  H    4.581336   3.395249   2.133150   2.516609   1.084702
    37  C    4.137342   2.790476   2.455330   3.471561   1.479437
    38  C    5.597703   4.250467   3.772425   4.684672   2.541403
    39  H    6.229949   4.879940   4.188207   4.982356   2.832153
    40  H    6.133327   4.829803   4.605013   5.591118   3.480023
    41  H    5.764931   4.454527   3.914636   4.739300   2.781609
    42  C    3.597356   2.419352   2.828665   3.910244   2.484264
    43  H    4.353228   3.333109   3.898779   4.975223   3.517353
    44  N    2.261553   1.317934   2.321372   3.271898   2.704821
    45  H    0.999763   2.141133   2.845416   2.670653   4.200019
                   36         37         38         39         40
    36  H    0.000000
    37  C    2.241642   0.000000
    38  C    2.757156   1.500513   0.000000
    39  H    2.735158   2.165616   1.092314   0.000000
    40  H    3.820166   2.167652   1.092164   1.713953   0.000000
    41  H    2.840805   2.061889   1.091916   1.837184   1.790282
    42  C    3.458828   1.387452   2.496834   3.344704   2.661196
    43  H    4.428164   2.229602   2.851170   3.758224   2.585531
    44  N    3.788992   2.347125   3.755990   4.472645   4.066884
    45  H    4.948054   4.895976   6.341418   6.905281   6.967515
                   41         42         43         44         45
    41  H    0.000000
    42  C    2.951922   0.000000
    43  H    3.303761   1.083756   0.000000
    44  N    4.150624   1.442769   2.179569   0.000000
    45  H    6.451932   4.516700   5.323529   3.219278   0.000000
 Stoichiometry    C19H22N3O(1+)
 Framework group  C1[X(C19H22N3O)]
 Deg. of freedom   129
 Full point group                 C1      NOp   1
 Largest Abelian subgroup         C1      NOp   1
 Largest concise Abelian subgroup C1      NOp   1
                         Standard orientation:                         
 ---------------------------------------------------------------------
 Center     Atomic      Atomic             Coordinates (Angstroms)
 Number     Number       Type             X           Y           Z
 ---------------------------------------------------------------------
      1          6           0        3.073891    2.797441   -1.085769
      2          1           0        2.714524    2.649806   -2.107216
      3          1           0        3.876654    2.056105   -1.116382
      4          1           0        3.494437    3.799878   -0.982177
      5          7           0        2.056362    2.381556   -0.079843
      6          6           0        2.611756    2.316293    1.308973
      7          1           0        2.211853    3.158822    1.878676
      8          1           0        3.699276    2.412101    1.242563
      9          1           0        2.356316    1.419034    1.877785
     10          6           0        0.778910    1.989314   -0.406954
     11          8           0        0.414851    2.121698   -1.604095
     12          6           0       -0.226198    1.398328    0.638143
     13          1           0       -0.946280    2.162694    0.937790
     14          1           0        0.123071    1.307651    1.668874
     15          6           0       -0.970206    0.163646    0.154869
     16          6           0       -0.417556   -1.071770   -0.245017
     17          6           0        1.010287   -1.304866   -0.007986
     18          6           0        1.503480   -1.597502    1.272729
     19          6           0        2.875684   -1.689434    1.441425
     20          6           0        3.761228   -1.529543    0.361352
     21          6           0        5.225473   -1.789898    0.388429
     22          1           0        5.771819   -1.201079    1.127582
     23          1           0        5.795334   -1.522119   -0.504090
     24          1           0        5.337348   -2.859177    0.580068
     25          6           0        3.229605   -1.229780   -0.865462
     26          6           0        1.868454   -1.116473   -1.122831
     27          1           0        1.565614   -0.800095   -2.116836
     28          1           0        3.933975   -0.947562   -1.643805
     29          1           0        3.190099   -1.896070    2.461545
     30          1           0        0.810731   -1.802899    2.085079
     31          7           0       -1.367318   -1.911878   -0.839317
     32          6           0       -2.499184   -1.259401   -0.481051
     33          6           0       -3.804433   -1.599830   -0.894329
     34          1           0       -3.900210   -2.489513   -1.507423
     35          6           0       -4.870245   -0.790739   -0.555113
     36          1           0       -5.880547   -1.128997   -0.758706
     37          6           0       -4.615239    0.372437    0.322797
     38          6           0       -5.792468    0.944160    1.056830
     39          1           0       -6.592749    1.253341    0.380734
     40          1           0       -5.544984    1.863361    1.592221
     41          1           0       -6.074175    0.161778    1.764503
     42          6           0       -3.330946    0.630288    0.780105
     43          1           0       -3.008963    1.367120    1.506694
     44          7           0       -2.329061   -0.038966   -0.013561
     45          1           0       -1.245596   -2.748779   -1.372520
 ---------------------------------------------------------------------
 Rotational constants (GHZ):           0.4799274           0.1619390           0.1379187
 Leave Link  202 at Sun Jul 18 13:39:55 2021, MaxMem=   104857600 cpu:               0.1 elap:               0.1
 (Enter /prod/apps/gaussian/g16b1/l301.exe)
 Standard basis: 6-31G(d) (6D, 7F)
 Ernie: Thresh=  0.10000D-02 Tol=  0.10000D-05 Strict=F.
 There are   389 symmetry adapted cartesian basis functions of A   symmetry.
 There are   389 symmetry adapted basis functions of A   symmetry.
   389 basis functions,   732 primitive gaussians,   389 cartesian basis functions
    82 alpha electrons       82 beta electrons
       nuclear repulsion energy      1909.1919876789 Hartrees.
 IExCor=  402 DFT=T Ex+Corr=B3LYP ExCW=0 ScaHFX=  0.200000
 ScaDFX=  0.800000  0.720000  1.000000  0.810000 ScalE2=  1.000000  1.000000
 IRadAn=      5 IRanWt=     -1 IRanGd=            0 ICorTp=0 IEmpDi=  4
 NAtoms=   45 NActive=   45 NUniq=   45 SFac= 1.00D+00 NAtFMM=   60 NAOKFM=F Big=F
 Integral buffers will be    131072 words long.
 Raffenetti 2 integral format.
 Two-electron integral symmetry is turned on.
 Using the following non-standard input for PCM:
 MSTModel=DFT cav MSTCharged
 --- end of non-standard input.
 MST model for solvation energy: B3LYP parametrization.
 MST cavity parameters:
 ISph   IAn     Re0     Alpha   Atom Type   QCorr
 ------------------------------------------------
   1      6     1.50     1.25      CH3        F
   2      1     1.20     1.25      CH3        F
   3      1     1.20     1.25      CH3        F
   4      1     1.20     1.25      CH3        F
   5      7     1.40     1.25      N          F
   6      6     1.50     1.25      CH3        F
   7      1     1.20     1.25      CH3        F
   8      1     1.20     1.25      CH3        F
   9      1     1.20     1.25      CH3        F
  10      6     1.50     1.25      C          F
  11      8     1.40     1.25      O          F
  12      6     1.50     1.25      CH2        F
  13      1     1.20     1.25      CH2        F
  14      1     1.20     1.25      CH2        F
  15      6     1.50     1.25      C          F
  16      6     1.50     1.25      C          F
  17      6     1.50     1.25      C          F
  18      6     1.50     1.25      CH         F
  19      6     1.50     1.25      CH         F
  20      6     1.50     1.25      C          F
  21      6     1.50     1.25      CH3        F
  22      1     1.20     1.25      CH3        F
  23      1     1.20     1.25      CH3        F
  24      1     1.20     1.25      CH3        F
  25      6     1.50     1.25      CH         F
  26      6     1.50     1.25      CH         F
  27      1     1.20     1.25      CH         F
  28      1     1.20     1.25      CH         F
  29      1     1.20     1.25      CH         F
  30      1     1.20     1.25      CH         F
  31      7     1.50     1.15      NH         T
  32      6     1.50     1.25      C          F
  33      6     1.50     1.25      CH         F
  34      1     1.20     1.25      CH         F
  35      6     1.50     1.25      CH         F
  36      1     1.20     1.25      CH         F
  37      6     1.50     1.25      C          F
  38      6     1.50     1.25      CH3        F
  39      1     1.20     1.25      CH3        F
  40      1     1.20     1.25      CH3        F
  41      1     1.20     1.25      CH3        F
  42      6     1.50     1.25      CH         F
  43      1     1.20     1.25      CH         F
  44      7     1.40     1.25      N          F
  45      1     0.90     1.15      NH         T
 ------------------------------------------------------------------------------
 Polarizable Continuum Model (PCM)
 =================================
 Model                : PCM.
 Atomic radii         : MST.
 Polarization charges : Total charges.
 Charge compensation  : None.
 Solution method      : On-the-fly selection.
 Cavity type          : Scaled VdW (van der Waals Surface) (Alpha=1.250).
 Cavity algorithm     : GePol (No added spheres)
                        Default sphere list used, NSphG=   45.
                        Lebedev-Laikov grids with approx.  5.0 points / Ang**2.
                        Smoothing algorithm: York/Karplus (Gamma=1.0000).
                        Polarization charges: spherical gaussians, with
                                              point-specific exponents (IZeta= 3).
                        Self-potential: point-specific (ISelfS= 7).
                        Self-field    : sphere-specific E.n sum rule (ISelfD= 2).
 1st derivatives      : Analytical E(r).r(x)/FMM algorithm (CHGder, D1EAlg=3).
                        Cavity 1st derivative terms included.
 Solvent              : Water, Eps=  78.355300 Eps(inf)=   1.777849
 ------------------------------------------------------------------------------
 GePol: Number of generator spheres                  =      45
 GePol: Total number of spheres                      =      45
 GePol: Number of exposed spheres                    =      45 (100.00%)
 GePol: Number of points                             =    3269
 GePol: Average weight of points                     =       0.13
 GePol: Minimum weight of points                     =   0.84D-11
 GePol: Maximum weight of points                     =    0.22001
 GePol: Number of points with low weight             =     247
 GePol: Fraction of low-weight points (<1% of avg)   =       7.56%
 GePol: Cavity surface area                          =    410.504 Ang**2
 GePol: Cavity volume                                =    391.729 Ang**3
 PCM non-electrostatic energy =         0.0041551181 Hartrees.
 Nuclear repulsion after PCM non-electrostatic terms =     1909.1961427970 Hartrees.
 Leave Link  301 at Sun Jul 18 13:39:55 2021, MaxMem=   104857600 cpu:               0.5 elap:               0.2
 (Enter /prod/apps/gaussian/g16b1/l302.exe)
 NPDir=0 NMtPBC=     1 NCelOv=     1 NCel=       1 NClECP=     1 NCelD=      1
         NCelK=      1 NCelE2=     1 NClLst=     1 CellRange=     0.0.
 One-electron integrals computed using PRISM.
 One-electron integral symmetry used in STVInt
 NBasis=   389 RedAO= T EigKep=  4.76D-04  NBF=   389
 NBsUse=   389 1.00D-06 EigRej= -1.00D+00 NBFU=   389
 Precomputing XC quadrature grid using
 IXCGrd= 4 IRadAn=           5 IRanWt=          -1 IRanGd=           0 AccXCQ= 0.00D+00.
 Generated NRdTot=       0 NPtTot=           0 NUsed=           0 NTot=          32
 NSgBfM=   386   385   385   385   386 MxSgAt=    45 MxSgA2=    45.
 Leave Link  302 at Sun Jul 18 13:39:56 2021, MaxMem=   104857600 cpu:               3.0 elap:               0.8
 (Enter /prod/apps/gaussian/g16b1/l303.exe)
 DipDrv:  MaxL=1.
 Leave Link  303 at Sun Jul 18 13:39:57 2021, MaxMem=   104857600 cpu:               0.2 elap:               0.1
 (Enter /prod/apps/gaussian/g16b1/l401.exe)
 ExpMin= 1.61D-01 ExpMax= 5.48D+03 ExpMxC= 8.25D+02 IAcc=3 IRadAn=         5 AccDes= 0.00D+00
 Harris functional with IExCor=  402 and IRadAn=       5 diagonalized for initial guess.
 HarFok:  IExCor=  402 AccDes= 0.00D+00 IRadAn=         5 IDoV= 1 UseB2=F ITyADJ=14
 ICtDFT=  3500011 ScaDFX=  1.000000  1.000000  1.000000  1.000000
 FoFCou: FMM=F IPFlag=           0 FMFlag=      100000 FMFlg1=           0
         NFxFlg=           0 DoJE=T BraDBF=F KetDBF=T FulRan=T
         wScrn=  0.000000 ICntrl=       500 IOpCl=  0 I1Cent=   200000004 NGrid=           0
         NMat0=    1 NMatS0=      1 NMatT0=    0 NMatD0=    1 NMtDS0=    0 NMtDT0=    0
 Petite list used in FoFCou.
 Harris En= -976.481085530565    
 JPrj=0 DoOrth=F DoCkMO=F.
 Leave Link  401 at Sun Jul 18 13:40:00 2021, MaxMem=   104857600 cpu:              13.4 elap:               3.4
 (Enter /prod/apps/gaussian/g16b1/l502.exe)
 Integral symmetry usage will be decided dynamically.
 Closed shell SCF:
 Using DIIS extrapolation, IDIIS=  1040.
 NGot=   104857600 LenX=   104548204 LenY=   104396442
 Requested convergence on RMS density matrix=1.00D-08 within 128 cycles.
 Requested convergence on MAX density matrix=1.00D-06.
 Requested convergence on             energy=1.00D-06.
 No special actions if energy rises.
 Fock matrices will be formed incrementally for  20 cycles.

 Cycle   1  Pass 1  IDiag  1:
 FoFJK:  IHMeth= 1 ICntrl=       0 DoSepK=F KAlg= 0 I1Cent=           0 FoldK=F
 IRaf= 760000000 NMat=       1 IRICut=       1 DoRegI=T DoRafI=F ISym2E= 0 IDoP0=0 IntGTp=1.
 FoFCou: FMM=F IPFlag=           0 FMFlag=      100000 FMFlg1=           0
         NFxFlg=           0 DoJE=F BraDBF=F KetDBF=F FulRan=T
         wScrn=  0.000000 ICntrl=         0 IOpCl=  0 I1Cent=           0 NGrid=           0
         NMat0=    1 NMatS0=      1 NMatT0=    0 NMatD0=    1 NMtDS0=    0 NMtDT0=    0
 Symmetry not used in FoFCou.
 Inv3:  Mode=1 IEnd=    32059083.
 Iteration    1 A*A^-1 deviation from unit magnitude is 2.78D-15 for   1300.
 Iteration    1 A*A^-1 deviation from orthogonality  is 3.11D-15 for   2421   1270.
 Iteration    1 A^-1*A deviation from unit magnitude is 2.89D-15 for   1091.
 Iteration    1 A^-1*A deviation from orthogonality  is 6.74D-13 for   2924   2905.
 E= -976.058195013817    
 DIIS: error= 2.13D-02 at cycle   1 NSaved=   1.
 NSaved= 1 IEnMin= 1 EnMin= -976.058195013817     IErMin= 1 ErrMin= 2.13D-02
 ErrMax= 2.13D-02  0.00D+00 EMaxC= 1.00D-01 BMatC= 5.06D-01 BMatP= 5.06D-01
 IDIUse=3 WtCom= 7.87D-01 WtEn= 2.13D-01
 Coeff-Com:  0.100D+01
 Coeff-En:   0.100D+01
 Coeff:      0.100D+01
 Gap=     0.202 Goal=   None    Shift=    0.000
 GapD=    0.202 DampG=1.000 DampE=0.500 DampFc=0.5000 IDamp=-1.
 Damping current iteration by 5.00D-01
 RMSDP=4.21D-03 MaxDP=2.24D-01              OVMax= 2.96D-01

 Cycle   2  Pass 1  IDiag  1:
 RMSU=  2.07D-03    CP:  9.80D-01
 E= -976.251217747953     Delta-E=       -0.193022734136 Rises=F Damp=T
 DIIS: error= 8.12D-03 at cycle   2 NSaved=   2.
 NSaved= 2 IEnMin= 2 EnMin= -976.251217747953     IErMin= 2 ErrMin= 8.12D-03
 ErrMax= 8.12D-03  0.00D+00 EMaxC= 1.00D-01 BMatC= 5.92D-02 BMatP= 5.06D-01
 IDIUse=3 WtCom= 9.19D-01 WtEn= 8.12D-02
 Coeff-Com:  0.133D+00 0.867D+00
 Coeff-En:   0.202D+00 0.798D+00
 Coeff:      0.139D+00 0.861D+00
 Gap=     0.240 Goal=   None    Shift=    0.000
 RMSDP=1.36D-03 MaxDP=7.94D-02 DE=-1.93D-01 OVMax= 1.66D-01

 Cycle   3  Pass 1  IDiag  1:
 RMSU=  1.28D-03    CP:  9.66D-01  8.10D-01
 E= -976.500400240707     Delta-E=       -0.249182492754 Rises=F Damp=F
 DIIS: error= 1.49D-02 at cycle   3 NSaved=   3.
 NSaved= 3 IEnMin= 3 EnMin= -976.500400240707     IErMin= 2 ErrMin= 8.12D-03
 ErrMax= 1.49D-02  0.00D+00 EMaxC= 1.00D-01 BMatC= 6.93D-02 BMatP= 5.92D-02
 IDIUse=2 WtCom= 0.00D+00 WtEn= 1.00D+00
 Coeff-En:   0.000D+00 0.000D+00 0.100D+01
 Coeff:      0.000D+00 0.000D+00 0.100D+01
 Gap=     0.176 Goal=   None    Shift=    0.000
 RMSDP=2.03D-03 MaxDP=1.69D-01 DE=-2.49D-01 OVMax= 3.12D-01

 Cycle   4  Pass 1  IDiag  1:
 RMSU=  1.10D-03    CP:  9.73D-01  1.24D+00 -1.31D-01
 E= -976.269117744850     Delta-E=        0.231282495857 Rises=F Damp=F
 DIIS: error= 2.91D-02 at cycle   4 NSaved=   4.
 NSaved= 4 IEnMin= 3 EnMin= -976.500400240707     IErMin= 2 ErrMin= 8.12D-03
 ErrMax= 2.91D-02  0.00D+00 EMaxC= 1.00D-01 BMatC= 3.54D-01 BMatP= 5.92D-02
 IDIUse=2 WtCom= 0.00D+00 WtEn= 1.00D+00
 Coeff-En:   0.000D+00 0.000D+00 0.782D+00 0.218D+00
 Coeff:      0.000D+00 0.000D+00 0.782D+00 0.218D+00
 Gap=     0.165 Goal=   None    Shift=    0.000
 RMSDP=1.13D-03 MaxDP=9.31D-02 DE= 2.31D-01 OVMax= 1.16D-01

 Cycle   5  Pass 1  IDiag  1:
 RMSU=  2.13D-04    CP:  9.71D-01  9.60D-01  4.60D-01  4.83D-01
 E= -976.540419095454     Delta-E=       -0.271301350604 Rises=F Damp=F
 DIIS: error= 7.68D-03 at cycle   5 NSaved=   5.
 NSaved= 5 IEnMin= 5 EnMin= -976.540419095454     IErMin= 5 ErrMin= 7.68D-03
 ErrMax= 7.68D-03  0.00D+00 EMaxC= 1.00D-01 BMatC= 2.21D-02 BMatP= 5.92D-02
 IDIUse=3 WtCom= 9.23D-01 WtEn= 7.68D-02
 Coeff-Com:  0.122D-02 0.109D-01 0.332D+00-0.266D-01 0.682D+00
 Coeff-En:   0.000D+00 0.000D+00 0.285D+00 0.000D+00 0.715D+00
 Coeff:      0.112D-02 0.100D-01 0.329D+00-0.246D-01 0.685D+00
 Gap=     0.177 Goal=   None    Shift=    0.000
 RMSDP=3.70D-04 MaxDP=2.76D-02 DE=-2.71D-01 OVMax= 3.95D-02

 Cycle   6  Pass 1  IDiag  1:
 RMSU=  7.70D-05    CP:  9.69D-01  8.91D-01  6.65D-01  3.11D-01  6.46D-01
 E= -976.558739158707     Delta-E=       -0.018320063254 Rises=F Damp=F
 DIIS: error= 4.69D-04 at cycle   6 NSaved=   6.
 NSaved= 6 IEnMin= 6 EnMin= -976.558739158707     IErMin= 6 ErrMin= 4.69D-04
 ErrMax= 4.69D-04  0.00D+00 EMaxC= 1.00D-01 BMatC= 3.38D-04 BMatP= 2.21D-02
 IDIUse=3 WtCom= 9.95D-01 WtEn= 4.69D-03
 Coeff-Com: -0.357D-02 0.864D-02 0.139D+00-0.474D-01 0.433D+00 0.470D+00
 Coeff-En:   0.000D+00 0.000D+00 0.000D+00 0.000D+00 0.000D+00 0.100D+01
 Coeff:     -0.356D-02 0.860D-02 0.139D+00-0.471D-01 0.431D+00 0.473D+00
 Gap=     0.168 Goal=   None    Shift=    0.000
 RMSDP=4.75D-05 MaxDP=2.81D-03 DE=-1.83D-02 OVMax= 6.67D-03

 Cycle   7  Pass 1  IDiag  1:
 RMSU=  1.86D-05    CP:  9.69D-01  8.99D-01  6.55D-01  3.15D-01  7.36D-01
                    CP:  5.67D-01
 E= -976.559072611527     Delta-E=       -0.000333452819 Rises=F Damp=F
 DIIS: error= 1.22D-04 at cycle   7 NSaved=   7.
 NSaved= 7 IEnMin= 7 EnMin= -976.559072611527     IErMin= 7 ErrMin= 1.22D-04
 ErrMax= 1.22D-04  0.00D+00 EMaxC= 1.00D-01 BMatC= 1.08D-05 BMatP= 3.38D-04
 IDIUse=3 WtCom= 9.99D-01 WtEn= 1.22D-03
 Coeff-Com: -0.185D-02 0.462D-02 0.493D-01-0.237D-01 0.173D+00 0.224D+00
 Coeff-Com:  0.574D+00
 Coeff-En:   0.000D+00 0.000D+00 0.000D+00 0.000D+00 0.000D+00 0.000D+00
 Coeff-En:   0.100D+01
 Coeff:     -0.185D-02 0.461D-02 0.492D-01-0.237D-01 0.173D+00 0.224D+00
 Coeff:      0.574D+00
 Gap=     0.168 Goal=   None    Shift=    0.000
 RMSDP=8.96D-06 MaxDP=6.24D-04 DE=-3.33D-04 OVMax= 8.65D-04

 Cycle   8  Pass 1  IDiag  1:
 RMSU=  6.29D-06    CP:  9.69D-01  8.98D-01  6.56D-01  3.14D-01  7.45D-01
                    CP:  5.74D-01  7.01D-01
 E= -976.559081269171     Delta-E=       -0.000008657645 Rises=F Damp=F
 DIIS: error= 3.71D-05 at cycle   8 NSaved=   8.
 NSaved= 8 IEnMin= 8 EnMin= -976.559081269171     IErMin= 8 ErrMin= 3.71D-05
 ErrMax= 3.71D-05  0.00D+00 EMaxC= 1.00D-01 BMatC= 1.24D-06 BMatP= 1.08D-05
 IDIUse=1 WtCom= 1.00D+00 WtEn= 0.00D+00
 Coeff-Com: -0.238D-03 0.460D-03 0.920D-02-0.494D-02 0.310D-01 0.517D-01
 Coeff-Com:  0.277D+00 0.635D+00
 Coeff:     -0.238D-03 0.460D-03 0.920D-02-0.494D-02 0.310D-01 0.517D-01
 Coeff:      0.277D+00 0.635D+00
 Gap=     0.168 Goal=   None    Shift=    0.000
 RMSDP=3.33D-06 MaxDP=2.04D-04 DE=-8.66D-06 OVMax= 3.55D-04

 Cycle   9  Pass 1  IDiag  1:
 RMSU=  2.21D-06    CP:  9.69D-01  8.98D-01  6.57D-01  3.14D-01  7.43D-01
                    CP:  5.77D-01  7.43D-01  7.20D-01
 E= -976.559082269081     Delta-E=       -0.000000999910 Rises=F Damp=F
 DIIS: error= 1.21D-05 at cycle   9 NSaved=   9.
 NSaved= 9 IEnMin= 9 EnMin= -976.559082269081     IErMin= 9 ErrMin= 1.21D-05
 ErrMax= 1.21D-05  0.00D+00 EMaxC= 1.00D-01 BMatC= 1.62D-07 BMatP= 1.24D-06
 IDIUse=1 WtCom= 1.00D+00 WtEn= 0.00D+00
 Coeff-Com:  0.621D-04-0.307D-03 0.112D-02-0.587D-03 0.221D-02 0.104D-01
 Coeff-Com:  0.104D+00 0.363D+00 0.520D+00
 Coeff:      0.621D-04-0.307D-03 0.112D-02-0.587D-03 0.221D-02 0.104D-01
 Coeff:      0.104D+00 0.363D+00 0.520D+00
 Gap=     0.168 Goal=   None    Shift=    0.000
 RMSDP=1.25D-06 MaxDP=7.15D-05 DE=-1.00D-06 OVMax= 1.46D-04

 Cycle  10  Pass 1  IDiag  1:
 RMSU=  6.65D-07    CP:  9.69D-01  8.98D-01  6.57D-01  3.14D-01  7.42D-01
                    CP:  5.78D-01  7.53D-01  7.82D-01  5.84D-01
 E= -976.559082418849     Delta-E=       -0.000000149768 Rises=F Damp=F
 DIIS: error= 3.33D-06 at cycle  10 NSaved=  10.
 NSaved=10 IEnMin=10 EnMin= -976.559082418849     IErMin=10 ErrMin= 3.33D-06
 ErrMax= 3.33D-06  0.00D+00 EMaxC= 1.00D-01 BMatC= 1.31D-08 BMatP= 1.62D-07
 IDIUse=1 WtCom= 1.00D+00 WtEn= 0.00D+00
 Coeff-Com:  0.482D-04-0.198D-03-0.137D-03 0.425D-04-0.119D-02 0.222D-02
 Coeff-Com:  0.358D-01 0.152D+00 0.290D+00 0.521D+00
 Coeff:      0.482D-04-0.198D-03-0.137D-03 0.425D-04-0.119D-02 0.222D-02
 Coeff:      0.358D-01 0.152D+00 0.290D+00 0.521D+00
 Gap=     0.168 Goal=   None    Shift=    0.000
 RMSDP=3.53D-07 MaxDP=1.90D-05 DE=-1.50D-07 OVMax= 3.80D-05

 Cycle  11  Pass 1  IDiag  1:
 RMSU=  2.23D-07    CP:  9.69D-01  8.98D-01  6.57D-01  3.14D-01  7.42D-01
                    CP:  5.79D-01  7.57D-01  7.82D-01  6.42D-01  6.68D-01
 E= -976.559082430882     Delta-E=       -0.000000012032 Rises=F Damp=F
 DIIS: error= 9.52D-07 at cycle  11 NSaved=  11.
 NSaved=11 IEnMin=11 EnMin= -976.559082430882     IErMin=11 ErrMin= 9.52D-07
 ErrMax= 9.52D-07  0.00D+00 EMaxC= 1.00D-01 BMatC= 1.29D-09 BMatP= 1.31D-08
 IDIUse=1 WtCom= 1.00D+00 WtEn= 0.00D+00
 Coeff-Com:  0.102D-04-0.345D-04-0.311D-03 0.119D-03-0.105D-02-0.289D-03
 Coeff-Com:  0.133D-02 0.188D-01 0.589D-01 0.252D+00 0.670D+00
 Coeff:      0.102D-04-0.345D-04-0.311D-03 0.119D-03-0.105D-02-0.289D-03
 Coeff:      0.133D-02 0.188D-01 0.589D-01 0.252D+00 0.670D+00
 Gap=     0.168 Goal=   None    Shift=    0.000
 RMSDP=1.03D-07 MaxDP=5.58D-06 DE=-1.20D-08 OVMax= 1.18D-05

 Cycle  12  Pass 1  IDiag  1:
 RMSU=  6.16D-08    CP:  9.69D-01  8.98D-01  6.57D-01  3.14D-01  7.42D-01
                    CP:  5.79D-01  7.56D-01  7.86D-01  6.46D-01  7.59D-01
                    CP:  8.22D-01
 E= -976.559082432022     Delta-E=       -0.000000001140 Rises=F Damp=F
 DIIS: error= 4.68D-07 at cycle  12 NSaved=  12.
 NSaved=12 IEnMin=12 EnMin= -976.559082432022     IErMin=12 ErrMin= 4.68D-07
 ErrMax= 4.68D-07  0.00D+00 EMaxC= 1.00D-01 BMatC= 1.55D-10 BMatP= 1.29D-09
 IDIUse=1 WtCom= 1.00D+00 WtEn= 0.00D+00
 Coeff-Com: -0.111D-07 0.137D-05-0.173D-03 0.602D-04-0.478D-03-0.258D-03
 Coeff-Com: -0.216D-02-0.238D-02 0.589D-02 0.858D-01 0.339D+00 0.575D+00
 Coeff:     -0.111D-07 0.137D-05-0.173D-03 0.602D-04-0.478D-03-0.258D-03
 Coeff:     -0.216D-02-0.238D-02 0.589D-02 0.858D-01 0.339D+00 0.575D+00
 Gap=     0.168 Goal=   None    Shift=    0.000
 RMSDP=3.18D-08 MaxDP=1.75D-06 DE=-1.14D-09 OVMax= 3.93D-06

 Cycle  13  Pass 1  IDiag  1:
 RMSU=  2.24D-08    CP:  9.69D-01  8.98D-01  6.57D-01  3.14D-01  7.42D-01
                    CP:  5.79D-01  7.56D-01  7.86D-01  6.50D-01  7.63D-01
                    CP:  8.70D-01  7.74D-01
 E= -976.559082432148     Delta-E=       -0.000000000127 Rises=F Damp=F
 DIIS: error= 1.96D-07 at cycle  13 NSaved=  13.
 NSaved=13 IEnMin=13 EnMin= -976.559082432148     IErMin=13 ErrMin= 1.96D-07
 ErrMax= 1.96D-07  0.00D+00 EMaxC= 1.00D-01 BMatC= 1.81D-11 BMatP= 1.55D-10
 IDIUse=1 WtCom= 1.00D+00 WtEn= 0.00D+00
 Coeff-Com: -0.214D-05 0.570D-05-0.265D-04 0.896D-05-0.382D-04 0.111D-04
 Coeff-Com: -0.105D-02-0.362D-02-0.672D-02 0.864D-03 0.548D-01 0.263D+00
 Coeff-Com:  0.693D+00
 Coeff:     -0.214D-05 0.570D-05-0.265D-04 0.896D-05-0.382D-04 0.111D-04
 Coeff:     -0.105D-02-0.362D-02-0.672D-02 0.864D-03 0.548D-01 0.263D+00
 Coeff:      0.693D+00
 Gap=     0.168 Goal=   None    Shift=    0.000
 RMSDP=1.30D-08 MaxDP=6.57D-07 DE=-1.27D-10 OVMax= 1.54D-06

 Cycle  14  Pass 1  IDiag  1:
 RMSU=  6.79D-09    CP:  9.69D-01  8.98D-01  6.57D-01  3.14D-01  7.42D-01
                    CP:  5.79D-01  7.57D-01  7.87D-01  6.50D-01  7.69D-01
                    CP:  8.84D-01  8.53D-01  8.25D-01
 E= -976.559082432172     Delta-E=       -0.000000000024 Rises=F Damp=F
 DIIS: error= 2.67D-08 at cycle  14 NSaved=  14.
 NSaved=14 IEnMin=14 EnMin= -976.559082432172     IErMin=14 ErrMin= 2.67D-08
 ErrMax= 2.67D-08  0.00D+00 EMaxC= 1.00D-01 BMatC= 9.19D-13 BMatP= 1.81D-11
 IDIUse=1 WtCom= 1.00D+00 WtEn= 0.00D+00
 Coeff-Com: -0.102D-05 0.256D-05-0.375D-05 0.149D-05 0.521D-05 0.164D-04
 Coeff-Com: -0.394D-03-0.159D-02-0.367D-02-0.516D-02 0.455D-02 0.883D-01
 Coeff-Com:  0.330D+00 0.588D+00
 Coeff:     -0.102D-05 0.256D-05-0.375D-05 0.149D-05 0.521D-05 0.164D-04
 Coeff:     -0.394D-03-0.159D-02-0.367D-02-0.516D-02 0.455D-02 0.883D-01
 Coeff:      0.330D+00 0.588D+00
 Gap=     0.168 Goal=   None    Shift=    0.000
 RMSDP=3.14D-09 MaxDP=1.42D-07 DE=-2.36D-11 OVMax= 3.53D-07

 Error on total polarization charges =  0.02136
 SCF Done:  E(RB3LYP) =  -976.559082432     A.U. after   14 cycles
            NFock= 14  Conv=0.31D-08     -V/T= 2.0100
 KE= 9.668679720487D+02 PE=-6.062232770597D+03 EE= 2.209609573319D+03
 Leave Link  502 at Sun Jul 18 13:42:07 2021, MaxMem=   104857600 cpu:             506.1 elap:             126.7
 (Enter /prod/apps/gaussian/g16b1/l601.exe)
 Copying SCF densities to generalized density rwf, IOpCl= 0 IROHF=0.

 **********************************************************************

            Population analysis using the SCF Density.

 **********************************************************************

 Orbital symmetries:
       Occupied  (A) (A) (A) (A) (A) (A) (A) (A) (A) (A) (A) (A)
                 (A) (A) (A) (A) (A) (A) (A) (A) (A) (A) (A) (A)
                 (A) (A) (A) (A) (A) (A) (A) (A) (A) (A) (A) (A)
                 (A) (A) (A) (A) (A) (A) (A) (A) (A) (A) (A) (A)
                 (A) (A) (A) (A) (A) (A) (A) (A) (A) (A) (A) (A)
                 (A) (A) (A) (A) (A) (A) (A) (A) (A) (A) (A) (A)
                 (A) (A) (A) (A) (A) (A) (A) (A) (A) (A)
       Virtual   (A) (A) (A) (A) (A) (A) (A) (A) (A) (A) (A) (A)
                 (A) (A) (A) (A) (A) (A) (A) (A) (A) (A) (A) (A)
                 (A) (A) (A) (A) (A) (A) (A) (A) (A) (A) (A) (A)
                 (A) (A) (A) (A) (A) (A) (A) (A) (A) (A) (A) (A)
                 (A) (A) (A) (A) (A) (A) (A) (A) (A) (A) (A) (A)
                 (A) (A) (A) (A) (A) (A) (A) (A) (A) (A) (A) (A)
                 (A) (A) (A) (A) (A) (A) (A) (A) (A) (A) (A) (A)
                 (A) (A) (A) (A) (A) (A) (A) (A) (A) (A) (A) (A)
                 (A) (A) (A) (A) (A) (A) (A) (A) (A) (A) (A) (A)
                 (A) (A) (A) (A) (A) (A) (A) (A) (A) (A) (A) (A)
                 (A) (A) (A) (A) (A) (A) (A) (A) (A) (A) (A) (A)
                 (A) (A) (A) (A) (A) (A) (A) (A) (A) (A) (A) (A)
                 (A) (A) (A) (A) (A) (A) (A) (A) (A) (A) (A) (A)
                 (A) (A) (A) (A) (A) (A) (A) (A) (A) (A) (A) (A)
                 (A) (A) (A) (A) (A) (A) (A) (A) (A) (A) (A) (A)
                 (A) (A) (A) (A) (A) (A) (A) (A) (A) (A) (A) (A)
                 (A) (A) (A) (A) (A) (A) (A) (A) (A) (A) (A) (A)
                 (A) (A) (A) (A) (A) (A) (A) (A) (A) (A) (A) (A)
                 (A) (A) (A) (A) (A) (A) (A) (A) (A) (A) (A) (A)
                 (A) (A) (A) (A) (A) (A) (A) (A) (A) (A) (A) (A)
                 (A) (A) (A) (A) (A) (A) (A) (A) (A) (A) (A) (A)
                 (A) (A) (A) (A) (A) (A) (A) (A) (A) (A) (A) (A)
                 (A) (A) (A) (A) (A) (A) (A) (A) (A) (A) (A) (A)
                 (A) (A) (A) (A) (A) (A) (A) (A) (A) (A) (A) (A)
                 (A) (A) (A) (A) (A) (A) (A) (A) (A) (A) (A) (A)
                 (A) (A) (A) (A) (A) (A) (A)
 The electronic state is 1-A.
 Alpha  occ. eigenvalues --  -19.11544 -14.44858 -14.42397 -14.37759 -10.30549
 Alpha  occ. eigenvalues --  -10.29964 -10.26105 -10.26105 -10.25829 -10.23410
 Alpha  occ. eigenvalues --  -10.22915 -10.22596 -10.22310 -10.21750 -10.21594
 Alpha  occ. eigenvalues --  -10.21242 -10.20328 -10.20213 -10.20018 -10.19616
 Alpha  occ. eigenvalues --  -10.18969 -10.18634 -10.17979  -1.08833  -1.02386
 Alpha  occ. eigenvalues --   -0.97022  -0.91884  -0.87477  -0.86081  -0.81820
 Alpha  occ. eigenvalues --   -0.79169  -0.78026  -0.75609  -0.74880  -0.72460
 Alpha  occ. eigenvalues --   -0.71392  -0.69971  -0.68866  -0.65804  -0.64361
 Alpha  occ. eigenvalues --   -0.62626  -0.61416  -0.58879  -0.57885  -0.55148
 Alpha  occ. eigenvalues --   -0.53832  -0.51796  -0.51313  -0.50930  -0.49300
 Alpha  occ. eigenvalues --   -0.48119  -0.47723  -0.47068  -0.46702  -0.46638
 Alpha  occ. eigenvalues --   -0.45844  -0.44482  -0.43795  -0.43374  -0.42730
 Alpha  occ. eigenvalues --   -0.41987  -0.41386  -0.40627  -0.40431  -0.40093
 Alpha  occ. eigenvalues --   -0.39794  -0.38431  -0.37854  -0.37490  -0.36922
 Alpha  occ. eigenvalues --   -0.36654  -0.36265  -0.35618  -0.34825  -0.34049
 Alpha  occ. eigenvalues --   -0.32633  -0.26614  -0.26149  -0.25890  -0.24961
 Alpha  occ. eigenvalues --   -0.24448  -0.23554
 Alpha virt. eigenvalues --   -0.06788  -0.03086  -0.01897  -0.01063  -0.00243
 Alpha virt. eigenvalues --    0.01347   0.07541   0.08539   0.09332   0.09870
 Alpha virt. eigenvalues --    0.10773   0.11193   0.11850   0.12274   0.12447
 Alpha virt. eigenvalues --    0.12573   0.13216   0.13968   0.14431   0.14819
 Alpha virt. eigenvalues --    0.15515   0.15719   0.16368   0.16465   0.16960
 Alpha virt. eigenvalues --    0.17785   0.18027   0.18314   0.18822   0.19340
 Alpha virt. eigenvalues --    0.20185   0.20536   0.20784   0.21355   0.21793
 Alpha virt. eigenvalues --    0.22714   0.23574   0.24871   0.26487   0.28217
 Alpha virt. eigenvalues --    0.28580   0.29616   0.31529   0.32024   0.32611
 Alpha virt. eigenvalues --    0.32882   0.35345   0.35876   0.37144   0.39795
 Alpha virt. eigenvalues --    0.40980   0.42298   0.42909   0.44238   0.45065
 Alpha virt. eigenvalues --    0.47511   0.49066   0.49167   0.50094   0.50494
 Alpha virt. eigenvalues --    0.50742   0.50978   0.51755   0.52306   0.52511
[...]
    30  H    0.857114  -0.438374   0.034402  -0.000391  -0.001751  -0.000201
    31  N   -0.112428   0.078249   0.009344   0.000342  -0.000939   0.000725
    32  C   -0.113513   0.132356   0.020683   0.000902  -0.000500   0.000867
    33  C    0.031424  -0.014301   0.002144   0.000079   0.000031  -0.000053
    34  H    0.003473  -0.002279  -0.000108  -0.000004  -0.000008  -0.000005
    35  C   -0.003217   0.007043   0.000615   0.000020   0.000053   0.000020
    36  H   -0.000228   0.000139   0.000007  -0.000000   0.000001   0.000000
    37  C    0.007819  -0.001184  -0.000535  -0.000018  -0.000055  -0.000002
    38  C   -0.000528   0.000083  -0.000004  -0.000001   0.000000  -0.000000
    39  H    0.000015  -0.000005  -0.000000  -0.000000   0.000000  -0.000000
    40  H    0.000072  -0.000018  -0.000002  -0.000000  -0.000000   0.000000
    41  H   -0.000055   0.000012   0.000000   0.000000   0.000000   0.000000
    42  C   -0.059892   0.018731  -0.001003  -0.000241   0.000357  -0.000094
    43  H   -0.011754   0.004307   0.000305   0.000026   0.000022  -0.000002
    44  N   -0.041418   0.032174   0.005150   0.000001   0.000608  -0.000025
    45  H   -0.019006   0.009179  -0.001349  -0.000117   0.000094  -0.000051
              25         26         27         28         29         30
     1  C    0.000318  -0.000146  -0.000674   0.000094   0.000321  -0.001056
     2  H    0.000385   0.002595  -0.000171   0.000015   0.000029  -0.000364
     3  H   -0.000394  -0.000476  -0.000098   0.000003   0.000018  -0.000052
     4  H    0.000158  -0.000080   0.000008   0.000005  -0.000007   0.000182
     5  N   -0.004029  -0.033949   0.001241  -0.000323   0.000373   0.005808
     6  C   -0.000954   0.000981   0.001062  -0.000117  -0.000677   0.002320
     7  H    0.000016  -0.000983   0.000026  -0.000001   0.000010   0.000969
     8  H    0.000105  -0.000705  -0.000028   0.000034  -0.000331   0.000375
     9  H   -0.008331   0.017406   0.000165  -0.000123  -0.002215   0.002125
    10  C   -0.077599   0.232456  -0.008066  -0.000443  -0.005040   0.003302
    11  O   -0.001228  -0.022000   0.000162   0.000028   0.000242  -0.001462
    12  C    0.298736  -0.133115   0.012359   0.006988   0.021919   0.030334
    13  H    0.029001  -0.044123  -0.000746   0.000616   0.000876  -0.005029
    14  H    0.047750  -0.080973   0.001246  -0.000385   0.010072   0.004173
    15  C   -0.438901  -0.561773   0.098507  -0.015885   0.016285  -0.185816
    16  C    0.434760  -2.123027   0.060491   0.064202  -0.006174   0.034216
    17  C    2.809119  -8.386526   1.505999  -0.537485  -0.492783   1.031165
    18  C   -5.594513   0.461582   0.084493   0.051523   0.861131  -1.978582
    19  C    2.453802  -5.455942   0.117268   0.108054  -1.479578   0.857114
    20  C   -5.408250   3.767707  -0.663128   1.094314   0.809991  -0.438374
    21  C   -0.810046   0.054129   0.010424   0.063882  -0.087444   0.034402
    22  H    0.005065  -0.021794   0.000073   0.004848  -0.012437  -0.000391
    23  H    0.085573   0.106182  -0.001995  -0.054412   0.012440  -0.001751
    24  H   -0.000196  -0.024678   0.000123   0.004845  -0.013122  -0.000201
    25  C   21.586427  -8.889038   0.984957  -1.843543   0.151326  -0.022908
    26  C   -8.889038  27.764688  -2.588856   0.684660   0.032641   0.120043
    27  H    0.984957  -2.588856   2.335087  -0.146506   0.009833  -0.019301
    28  H   -1.843543   0.684660  -0.146506   2.142423  -0.026480   0.008292
    29  H    0.151326   0.032641   0.009833  -0.026480   2.028296  -0.166415
    30  H   -0.022908   0.120043  -0.019301   0.008292  -0.166415   2.188292
    31  N    0.019930   0.451588  -0.027114   0.004518  -0.002706   0.026320
    32  C    0.204420   0.539919  -0.016392   0.008350   0.000020   0.049206
    33  C    0.118263  -0.017780   0.014505   0.001069   0.002310  -0.017728
    34  H    0.001080  -0.028655   0.002689   0.000118   0.000099  -0.000202
    35  C    0.002011  -0.053569   0.005890  -0.000242  -0.000410   0.003478
    36  H   -0.000118   0.001589  -0.000278  -0.000007  -0.000010  -0.000038
    37  C   -0.008949   0.052125  -0.004431   0.000259  -0.000123   0.004431
    38  C   -0.000173   0.001252  -0.000209   0.000012  -0.000006  -0.000133
    39  H   -0.000012  -0.000030   0.000001  -0.000001   0.000002  -0.000015
    40  H    0.000037   0.000356  -0.000080   0.000007   0.000006  -0.000255
    41  H   -0.000015  -0.000008   0.000013  -0.000000  -0.000004   0.000102
    42  C   -0.050547  -0.177095   0.010750  -0.002476  -0.002004   0.001679
    43  H   -0.006315  -0.004789   0.001970  -0.000307  -0.000633   0.007567
    44  N   -0.021471  -0.066390   0.002975  -0.002375   0.000652   0.023990
    45  H   -0.008007   0.070424  -0.029114  -0.000967  -0.000057   0.005949
              31         32         33         34         35         36
     1  C    0.002551   0.012705  -0.003426  -0.000129   0.002075   0.000029
     2  H    0.000167   0.001229   0.000326   0.000008  -0.000303   0.000032
     3  H   -0.000018   0.000877  -0.000503  -0.000018   0.000261   0.000004
     4  H    0.000190   0.000495   0.000021  -0.000001  -0.000280  -0.000005
     5  N   -0.005994   0.050092  -0.000326   0.000015   0.007888   0.000246
     6  C   -0.004358  -0.011714  -0.004034  -0.000055   0.002186   0.000043
     7  H   -0.000237   0.000966  -0.000579  -0.000005   0.000582   0.000017
     8  H   -0.000082  -0.002278   0.000376   0.000015  -0.000405  -0.000014
     9  H   -0.001864  -0.000473  -0.001331  -0.000074   0.001584  -0.000003
    10  C   -0.013345  -0.047472  -0.196559  -0.001647   0.013223  -0.000404
    11  O   -0.000761  -0.059577  -0.003316   0.000094   0.004873  -0.000152
    12  C   -0.070157  -1.518601   0.199424   0.007904  -0.157368   0.002227
    13  H    0.008366  -0.107030   0.035298   0.000475  -0.021375   0.001229
    14  H    0.058993   0.136321  -0.023686   0.000555   0.007653   0.000353
    15  C   -0.391948  -6.744695   2.008293  -0.036561  -2.431453   0.074580
    16  C    0.093981  -2.579146  -1.604559   0.238588   0.504254  -0.036288
    17  C   -0.666381  -0.303154  -0.172363   0.009113   0.285006   0.000118
    18  C    0.040790  -0.122100  -0.262820   0.007261  -0.002109  -0.000902
    19  C   -0.112428  -0.113513   0.031424   0.003473  -0.003217  -0.000228
    20  C    0.078249   0.132356  -0.014301  -0.002279   0.007043   0.000139
    21  C    0.009344   0.020683   0.002144  -0.000108   0.000615   0.000007
    22  H    0.000342   0.000902   0.000079  -0.000004   0.000020  -0.000000
    23  H   -0.000939  -0.000500   0.000031  -0.000008   0.000053   0.000001
    24  H    0.000725   0.000867  -0.000053  -0.000005   0.000020   0.000000
    25  C    0.019930   0.204420   0.118263   0.001080   0.002011  -0.000118
    26  C    0.451588   0.539919  -0.017780  -0.028655  -0.053569   0.001589
    27  H   -0.027114  -0.016392   0.014505   0.002689   0.005890  -0.000278
    28  H    0.004518   0.008350   0.001069   0.000118  -0.000242  -0.000007
    29  H   -0.002706   0.000020   0.002310   0.000099  -0.000410  -0.000010
    30  H    0.026320   0.049206  -0.017728  -0.000202   0.003478  -0.000038
    31  N    8.982586  -0.519035  -0.427380   0.013574   0.189573  -0.026789
    32  C   -0.519035  23.720735  -8.724336   1.108677   4.103662  -0.480581
    33  C   -0.427380  -8.724336  20.888913  -1.935148  -7.800450   0.915069
    34  H    0.013574   1.108677  -1.935148   1.753962   0.896882  -0.078346
    35  C    0.189573   4.103662  -7.800450   0.896882  17.129403  -1.256270
    36  H   -0.026789  -0.480581   0.915069  -0.078346  -1.256270   1.850626
    37  C   -0.076813  -1.681970   3.215205  -0.535733  -4.620269   0.468569
    38  C   -0.039057  -0.558326   0.937685  -0.004483  -1.257869   0.027964
    39  H   -0.000011  -0.013206   0.004867  -0.001972  -0.117914  -0.009963
    40  H    0.000191   0.052562  -0.063768  -0.001063   0.064780   0.006854
    41  H   -0.001003   0.001638   0.024286  -0.001813  -0.068956  -0.009731
    42  C   -0.181008   0.630132  -2.900526   0.069952   1.274260   0.139478
    43  H    0.026567  -0.289368   0.034884   0.000820   0.005772  -0.022624
    44  N    0.021583  -0.848390   0.336550   0.020777  -0.886243   0.043333
    45  H    0.348989   0.341023  -0.122965  -0.002469  -0.005686   0.002262
              37         38         39         40         41         42
     1  C    0.007596  -0.003086  -0.000244  -0.000853  -0.000021  -0.043400
     2  H   -0.001020  -0.001071  -0.000182   0.000223  -0.000047  -0.012095
     3  H    0.001451  -0.000074  -0.000004   0.000129   0.000001   0.000027
     4  H   -0.001323   0.000243   0.000069  -0.000536   0.000006   0.000602
     5  N   -0.051430   0.002610  -0.000244   0.002701   0.000138   0.212905
     6  C   -0.000568   0.000637   0.000140  -0.001538   0.000204   0.092106
     7  H   -0.001753  -0.000465  -0.000031  -0.000273   0.000000   0.011337
     8  H    0.000603   0.000026   0.000004   0.000029   0.000007  -0.007883
     9  H    0.008054   0.000795   0.000099  -0.000621   0.000133   0.026517
    10  C    0.273469  -0.057118  -0.001714   0.002618  -0.001353  -0.611568
    11  O   -0.027221   0.010193   0.000861  -0.002293   0.000416   0.131582
    12  C    0.056940  -0.055882  -0.002256   0.010904  -0.004589  -0.613861
    13  H   -0.037046   0.007906   0.000069   0.002058   0.000016   0.191460
    14  H   -0.004927   0.000656  -0.000148   0.002375  -0.000700  -0.121652
    15  C    0.618506   0.118311   0.001167   0.033932  -0.011033  -4.353129
    16  C   -0.085150  -0.104215  -0.004822   0.008148  -0.002314  -2.441437
    17  C   -0.299410   0.005302   0.000062  -0.001993   0.000762   1.292206
    18  C    0.059683  -0.003684  -0.000126   0.000612  -0.000256  -0.237712
    19  C    0.007819  -0.000528   0.000015   0.000072  -0.000055  -0.059892
    20  C   -0.001184   0.000083  -0.000005  -0.000018   0.000012   0.018731
    21  C   -0.000535  -0.000004  -0.000000  -0.000002   0.000000  -0.001003
    22  H   -0.000018  -0.000001  -0.000000  -0.000000   0.000000  -0.000241
    23  H   -0.000055   0.000000   0.000000  -0.000000   0.000000   0.000357
    24  H   -0.000002  -0.000000  -0.000000   0.000000   0.000000  -0.000094
    25  C   -0.008949  -0.000173  -0.000012   0.000037  -0.000015  -0.050547
    26  C    0.052125   0.001252  -0.000030   0.000356  -0.000008  -0.177095
    27  H   -0.004431  -0.000209   0.000001  -0.000080   0.000013   0.010750
    28  H    0.000259   0.000012  -0.000001   0.000007  -0.000000  -0.002476
    29  H   -0.000123  -0.000006   0.000002   0.000006  -0.000004  -0.002004
    30  H    0.004431  -0.000133  -0.000015  -0.000255   0.000102   0.001679
    31  N   -0.076813  -0.039057  -0.000011   0.000191  -0.001003  -0.181008
    32  C   -1.681970  -0.558326  -0.013206   0.052562   0.001638   0.630132
    33  C    3.215205   0.937685   0.004867  -0.063768   0.024286  -2.900526
    34  H   -0.535733  -0.004483  -0.001972  -0.001063  -0.001813   0.069952
    35  C   -4.620269  -1.257869  -0.117914   0.064780  -0.068956   1.274260
    36  H    0.468569   0.027964  -0.009963   0.006854  -0.009731   0.139478
    37  C   11.703016  -0.338172   0.037398   0.452202   0.057227  -4.111702
    38  C   -0.338172   6.132001   0.373634  -0.126824   0.368025   0.097488
    39  H    0.037398   0.373634   0.759292  -0.084214  -0.110656   0.068863
    40  H    0.452202  -0.126824  -0.084214   1.104061  -0.092034  -0.262171
    41  H    0.057227   0.368025  -0.110656  -0.092034   0.776510  -0.011898
    42  C   -4.111702   0.097488   0.068863  -0.262171  -0.011898  18.873210
    43  H    0.525211  -0.002667  -0.010575  -0.028136  -0.005949  -1.956554
    44  N    0.393827  -0.036759  -0.012810   0.073022  -0.010778  -0.540114
    45  H   -0.005699  -0.004565  -0.000193   0.000061  -0.000195   0.018617
              43         44         45
     1  C    0.000903   0.016126   0.000417
     2  H   -0.005838  -0.000312   0.000061
     3  H   -0.002100   0.002397   0.000087
     4  H    0.007898   0.000081  -0.000018
     5  N   -0.047686  -0.016488  -0.000876
     6  C    0.018122  -0.004051  -0.000354
     7  H    0.004796   0.001130  -0.000032
     8  H   -0.002744  -0.002054  -0.000042
     9  H    0.011597   0.002254   0.000286
    10  C    0.153533   0.238741   0.009086
    11  O    0.032110  -0.071910  -0.001160
    12  C   -0.269891  -0.505420  -0.025635
    13  H   -0.123528  -0.087767  -0.000779
    14  H    0.009263   0.070395  -0.004817
    15  C    0.649132  -0.696502  -0.131529
    16  C    0.013357  -0.802226  -0.254601
    17  C   -0.029528   1.193926   0.029555
    18  C    0.022617  -0.375488  -0.025152
    19  C   -0.011754  -0.041418  -0.019006
    20  C    0.004307   0.032174   0.009179
    21  C    0.000305   0.005150  -0.001349
    22  H    0.000026   0.000001  -0.000117
    23  H    0.000022   0.000608   0.000094
    24  H   -0.000002  -0.000025  -0.000051
    25  C   -0.006315  -0.021471  -0.008007
    26  C   -0.004789  -0.066390   0.070424
    27  H    0.001970   0.002975  -0.029114
    28  H   -0.000307  -0.002375  -0.000967
    29  H   -0.000633   0.000652  -0.000057
    30  H    0.007567   0.023990   0.005949
    31  N    0.026567   0.021583   0.348989
    32  C   -0.289368  -0.848390   0.341023
    33  C    0.034884   0.336550  -0.122965
    34  H    0.000820   0.020777  -0.002469
    35  C    0.005772  -0.886243  -0.005686
    36  H   -0.022624   0.043333   0.002262
    37  C    0.525211   0.393827  -0.005699
    38  C   -0.002667  -0.036759  -0.004565
    39  H   -0.010575  -0.012810  -0.000193
    40  H   -0.028136   0.073022   0.000061
    41  H   -0.005949  -0.010778  -0.000195
    42  C   -1.956554  -0.540114   0.018617
    43  H    2.702870   0.281964  -0.000055
    44  N    0.281964  10.363746  -0.024237
    45  H   -0.000055  -0.024237   0.952277
 Mulliken charges:
               1
     1  C    0.787280
     2  H   -0.238813
     3  H   -0.061169
     4  H   -0.079006
     5  N   -0.472622
     6  C    0.853193
     7  H   -0.083297
     8  H   -0.070795
     9  H   -0.317574
    10  C    0.520619
    11  O   -0.890785
    12  C   -0.107055
    13  H    0.134540
    14  H   -0.123782
    15  C    0.931565
    16  C   -0.568377
    17  C    2.114065
    18  C    0.498980
    19  C   -0.023698
    20  C    0.067811
    21  C    0.801703
    22  H    0.121199
    23  H   -0.180539
    24  H    0.120741
    25  C   -0.037702
    26  C    0.354178
    27  H   -0.755132
    28  H   -0.617079
    29  H   -0.660236
    30  H   -0.605758
    31  N   -0.809689
    32  C   -0.375980
    33  C    1.526918
    34  H   -0.505356
    35  C    0.171339
    36  H   -0.612019
    37  C   -0.048087
    38  C    0.510545
    39  H    0.124807
    40  H   -0.151265
    41  H    0.103915
    42  C    1.537801
    43  H   -0.694571
    44  N   -1.072175
    45  H   -0.118641
 Sum of Mulliken charges =   1.00000
 Mulliken charges with hydrogens summed into heavy atoms:
               1
     1  C    0.408292
     5  N   -0.472622
     6  C    0.381527
    10  C    0.520619
    11  O   -0.890785
    12  C   -0.096297
    15  C    0.931565
    16  C   -0.568377
    17  C    2.114065
    18  C   -0.106778
    19  C   -0.683934
    20  C    0.067811
    21  C    0.863105
    25  C   -0.654781
    26  C   -0.400954
    31  N   -0.928331
    32  C   -0.375980
    33  C    1.021562
    35  C   -0.440680
    37  C   -0.048087
    38  C    0.588002
    42  C    0.843230
    44  N   -1.072175
 Electronic spatial extent (au):  <R**2>=           8837.0793
 Charge=              1.0000 electrons
 Dipole moment (field-independent basis, Debye):
    X=             -2.5240    Y=             -2.8641    Z=              2.9104  Tot=              4.8004
 Quadrupole moment (field-independent basis, Debye-Ang):
   XX=            -71.7920   YY=            -85.5345   ZZ=           -135.0524
   XY=              8.6104   XZ=             -5.7515   YZ=             12.7251
 Traceless Quadrupole moment (field-independent basis, Debye-Ang):
   XX=             25.6676   YY=             11.9251   ZZ=            -37.5928
   XY=              8.6104   XZ=             -5.7515   YZ=             12.7251
 Octapole moment (field-independent basis, Debye-Ang**2):
  XXX=            -10.1788  YYY=             32.3710  ZZZ=              2.4497  XYY=            -69.2331
  XXY=            -57.2808  XXZ=              6.3173  XZZ=             12.0059  YZZ=             11.6203
  YYZ=            -21.9556  XYZ=              8.6047
 Hexadecapole moment (field-independent basis, Debye-Ang**3):
 XXXX=          -5819.9159 YYYY=          -2958.1808 ZZZZ=           -611.2094 XXXY=            217.0008
 XXXZ=            -60.1330 YYYX=             44.2079 YYYZ=             53.0073 ZZZX=             -4.1111
 ZZZY=             18.4882 XXYY=          -1700.0009 XXZZ=          -1343.6506 YYZZ=           -698.6020
 XXYZ=             78.4557 YYXZ=              6.6272 ZZXY=            -25.5929
 N-N= 1.865251927460D+03 E-N=-5.973409736530D+03  KE= 9.693389868275D+02
 Leave Link  601 at Sun Jul 18 17:18:47 2021, MaxMem=   262144000 cpu:               1.1 elap:               0.4
 (Enter /prod/apps/gaussian/g16b1/l9999.exe)
 1\1\GINC-PIRINEUS36\SP\RMP2-FC\Aug-CC-pVDZ\C19H22N3O1(1+)\UBATOR02\18-
 Jul-2021\0\\#p mp2/aug-cc-pVDZ scf=tight maxdisk=180GB geom=allcheck\\
 SET_328_BBB268_conf1.geo_225_240_255 geometry\\1,1\C,0,-0.4310752334,-
 0.9170836847,4.4048047028\H,0,-1.4519084948,-1.106547393,4.0826450168\
 H,0,-0.4031550853,-0.0171600037,5.0286316898\H,0,-0.0667277128,-1.7624
 150614,4.9978303273\N,0,0.4065629388,-0.7397446232,3.2247674655\C,0,1.
 8198346761,-0.5098970946,3.4972745107\H,0,2.2184946903,-1.3364826143,4
 .0927844361\H,0,1.9491755456,0.4168125804,4.0657359667\H,0,2.395142682
 1,-0.4379499675,2.5780783546\C,0,-0.1631935507,-0.7609101105,1.9943386
 32\O,0,-1.3737800639,-0.9405509932,1.8169766276\C,0,0.7713518485,-0.56
 01174767,0.785269929\H,0,1.5467382517,-1.3344365296,0.7806477183\H,0,1
 .294585749,0.3923952756,0.8795345076\C,0,0.030809031,-0.5589135123,-0.
 5059429379\C,0,-0.2520063884,0.4594560746,-1.3871548437\C,0,0.11332970
 76,1.8801477198,-1.3657020407\C,0,1.4028605884,2.2915652833,-0.9889831
 238\C,0,1.7354559675,3.6422374698,-0.968032329\C,0,0.802086508,4.62500
 67813,-1.3292923198\C,0,1.1649750162,6.0862494727,-1.3065602977\H,0,1.
 4706938095,6.4029749599,-0.3047490408\H,0,0.3188459111,6.703937735,-1.
 6140169773\H,0,2.0033161857,6.2981501808,-1.978843858\C,0,-0.476171769
 5,4.2068950002,-1.7161045468\C,0,-0.821747839,2.8581693673,-1.73564036
 37\H,0,-1.8262260939,2.5683466825,-2.0205527438\H,0,-1.2138447335,4.95
 09942964,-1.9996142604\H,0,2.7392725737,3.9372307275,-0.6778969874\H,0
 ,2.1557424635,1.5521802604,-0.7400592178\N,0,-1.0286806957,-0.07243983
 08,-2.4006742144\C,0,-1.2229385487,-1.3907394798,-2.1940672335\C,0,-1.
 909205216,-2.3710115402,-2.923114299\H,0,-2.4145784249,-2.1011812157,-
 3.840511465\C,0,-1.907464768,-3.6541534066,-2.4264434811\H,0,-2.428786
 1047,-4.4356508325,-2.9674076308\C,0,-1.2376824377,-3.9839248449,-1.21
 3207975\C,0,-1.2465510035,-5.3938908814,-0.6853010257\H,0,-2.269972636
 4,-5.7367756264,-0.5101976007\H,0,-0.6950223218,-5.467102587,0.2538303
 657\H,0,-0.7916588999,-6.0806183252,-1.4051111202\C,0,-0.583725044,-2.
 9895822711,-0.5322186825\H,0,-0.0576777009,-3.1468720422,0.3967792506\
 N,0,-0.5729797786,-1.7082260631,-1.0262540569\H,0,-1.3475135983,0.4296
 281445,-3.2252748278\\Version=ES64L-G16RevB.01\State=1-A\HF=-970.47144
 48\MP2=-973.8039664\RMSD=6.754e-09\PG=C01 [X(C19H22N3O1)]\\@


 IF THERE IS ONE WAY BETTER THAN ANOTHER IT IS THE WAY OF NATURE.

                          -- ARISTOTLE
 Job cpu time:       0 days  6 hours  0 minutes 20.6 seconds.
 Elapsed time:       0 days  1 hours 39 minutes 42.0 seconds.
 File lengths (MBytes):  RWF= 116209 Int=      0 D2E=      0 Chk=     43 Scr=      1
 Normal termination of Gaussian 16 at Sun Jul 18 17:18:50 2021.
