 Entering Gaussian System, Link 0=g16
 Initial command:
 /prod/apps/gaussian/g16b1/l1.exe "/tmp/ubator02/1839576/Gau-224230.inp" -scrdir="/tmp/ubator02/1839576/"
 Entering Link 1 = /prod/apps/gaussian/g16b1/l1.exe PID=    224231.
  
 Copyright (c) 1988-2017, Gaussian, Inc.  All Rights Reserved.
  
 This is part of the Gaussian(R) 16 program.  It is based on
 the Gaussian(R) 09 system (copyright 2009, Gaussian, Inc.),
 the Gaussian(R) 03 system (copyright 2003, Gaussian, Inc.),
 the Gaussian(R) 98 system (copyright 1998, Gaussian, Inc.),
 the Gaussian(R) 94 system (copyright 1995, Gaussian, Inc.),
 the Gaussian 92(TM) system (copyright 1992, Gaussian, Inc.),
 the Gaussian 90(TM) system (copyright 1990, Gaussian, Inc.),
 the Gaussian 88(TM) system (copyright 1988, Gaussian, Inc.),
 the Gaussian 86(TM) system (copyright 1986, Carnegie Mellon
 University), and the Gaussian 82(TM) system (copyright 1983,
 Carnegie Mellon University). Gaussian is a federally registered
 trademark of Gaussian, Inc.
  
 This software contains proprietary and confidential information,
 including trade secrets, belonging to Gaussian, Inc.
  
 This software is provided under written license and may be
 used, copied, transmitted, or stored only in accord with that
 written license.
  
 The following legend is applicable only to US Government
 contracts under FAR:
  
                    RESTRICTED RIGHTS LEGEND
  
 Use, reproduction and disclosure by the US Government is
 subject to restrictions as set forth in subparagraphs (a)
 and (c) of the Commercial Computer Software - Restricted
 Rights clause in FAR 52.227-19.
  
 Gaussian, Inc.
 340 Quinnipiac St., Bldg. 40, Wallingford CT 06492
  
  
 ---------------------------------------------------------------
 Warning -- This program may not be used in any manner that
 competes with the business of Gaussian, Inc. or will provide
 assistance to any competitor of Gaussian, Inc.  The licensee
 of this program is prohibited from giving any competitor of
 Gaussian, Inc. access to this program.  By using this program,
 the user acknowledges that Gaussian, Inc. is engaged in the
 business of creating and licensing software in the field of
 computational chemistry and represents and warrants to the
 licensee that it is not a competitor of Gaussian, Inc. and that
 it will not use this program in any manner prohibited above.
 ---------------------------------------------------------------
  

 Cite this work as:
 Gaussian 16, Revision B.01,
 M. J. Frisch, G. W. Trucks, H. B. Schlegel, G. E. Scuseria, 
 M. A. Robb, J. R. Cheeseman, G. Scalmani, V. Barone, 
 G. A. Petersson, H. Nakatsuji, X. Li, M. Caricato, A. V. Marenich, 
 J. Bloino, B. G. Janesko, R. Gomperts, B. Mennucci, H. P. Hratchian, 
 J. V. Ortiz, A. F. Izmaylov, J. L. Sonnenberg, D. Williams-Young, 
 F. Ding, F. Lipparini, F. Egidi, J. Goings, B. Peng, A. Petrone, 
 T. Henderson, D. Ranasinghe, V. G. Zakrzewski, J. Gao, N. Rega, 
 G. Zheng, W. Liang, M. Hada, M. Ehara, K. Toyota, R. Fukuda, 
 J. Hasegawa, M. Ishida, T. Nakajima, Y. Honda, O. Kitao, H. Nakai, 
 T. Vreven, K. Throssell, J. A. Montgomery, Jr., J. E. Peralta, 
 F. Ogliaro, M. J. Bearpark, J. J. Heyd, E. N. Brothers, K. N. Kudin, 
 V. N. Staroverov, T. A. Keith, R. Kobayashi, J. Normand, 
 K. Raghavachari, A. P. Rendell, J. C. Burant, S. S. Iyengar, 
 J. Tomasi, M. Cossi, J. M. Millam, M. Klene, C. Adamo, R. Cammi, 
 J. W. Ochterski, R. L. Martin, K. Morokuma, O. Farkas, 
 J. B. Foresman, and D. J. Fox, Gaussian, Inc., Wallingford CT, 2016.
 
 ******************************************
 Gaussian 16:  ES64L-G16RevB.01 20-Dec-2017
                18-Jul-2021 
 ******************************************
 %mem=800MB
 %nproc=4
 Will use up to    4 processors via shared memory.
 %chk=SET_328_BBB292_conf1.geo_075_060_105.chk
 -----------------------------------------------------------
 #p b3lyp/6-31G(d) opt freq scrf=(iefpcm,read,solvent=water)
 -----------------------------------------------------------
 1/18=20,19=15,26=3,38=1,40=2/1,3;
 2/9=110,12=2,17=6,18=5,40=1/2;
 3/5=1,6=6,7=1,11=2,25=1,30=1,70=2203,71=1,72=1,74=-5/1,2,3;
 4//1;
 5/5=2,38=5,53=1/2;
 6/7=2,8=2,9=2,10=2,28=1/1;
 7//1,2,3,16;
 1/18=20,19=15,26=3/3(2);
 2/9=110/2;
 99//99;
 2/9=110/2;
 3/5=1,6=6,7=1,11=2,25=1,30=1,70=2205,71=1,72=1,74=-5/1,2,3;
 4/5=5,16=3,69=1/1;
 5/5=2,38=5,53=1/2;
 7//1,2,3,16;
 1/18=20,19=15,26=3/3(-5);
 2/9=110/2;
 6/7=2,8=2,9=2,10=2,19=2,28=1/1;
 99/9=1/99;
 Leave Link    1 at Sun Jul 18 13:46:42 2021, MaxMem=   104857600 cpu:               0.1 elap:               0.0
 (Enter /prod/apps/gaussian/g16b1/l101.exe)
 ---------------------------------------------
 SET_328_BBB292_conf1.geo_075_060_105 geometry
 ---------------------------------------------
 Symbolic Z-matrix:
 Charge =  1 Multiplicity = 1
 N                     3.329    -0.862    -0.248 
 H                     3.969    -0.567    -0.957 
 H                     3.04     -1.802    -0.43 
 C                     2.162     0.015    -0.25 
 C                     2.364     1.234     0.751 
 O                     3.407     0.951     1.454 
 H                     3.593     0.177     0.892 
 O                     1.455     1.941     1.123 
 H                     1.92      0.35     -1.262 
 C                     1.007    -0.932     0.126 
 H                     1.204    -1.36      1.111 
 H                     0.946    -1.816    -0.512 
 C                    -0.365    -0.273     0.181 
 C                    -1.015     0.052    -0.974 
 H                    -0.552    -0.131    -1.94 
 C                    -2.318     0.389    -0.97 
 O                    -2.866     0.506    -2.196 
 H                    -2.28      0.594    -2.968 
 C                    -3.044     0.465     0.275 
 O                    -4.325     0.927     0.232 
 H                    -4.564     1.062    -0.703 
 C                    -2.421     0.052     1.393 
 H                    -2.945     0.059     2.346 
 C                    -1.082    -0.367     1.36 
 H                    -0.569    -0.652     2.275 
 H                     3.777    -0.818     0.645 
 
 ITRead=  0  0  0  0  0  0  0  0  0  0  0  0  0  0  0  0  0  0  0  0
 ITRead=  0  0  0  0  0  0
 MicOpt= -1 -1 -1 -1 -1 -1 -1 -1 -1 -1 -1 -1 -1 -1 -1 -1 -1 -1 -1 -1
 MicOpt= -1 -1 -1 -1 -1 -1
 NAtoms=     26 NQM=       26 NQMF=       0 NMMI=      0 NMMIF=      0
                NMic=       0 NMicF=      0.
                    Isotopes and Nuclear Properties:
 (Nuclear quadrupole moments (NQMom) in fm**2, nuclear magnetic moments (NMagM)
  in nuclear magnetons)

  Atom         1           2           3           4           5           6           7           8           9          10
 IAtWgt=          14           1           1          12          12          16           1          16           1          12
 AtmWgt=  14.0030740   1.0078250   1.0078250  12.0000000  12.0000000  15.9949146   1.0078250  15.9949146   1.0078250  12.0000000
 NucSpn=           2           1           1           0           0           0           1           0           1           0
 AtZEff=  -0.0000000  -0.0000000  -0.0000000  -0.0000000  -0.0000000  -0.0000000  -0.0000000  -0.0000000  -0.0000000  -0.0000000
 NQMom=    2.0440000   0.0000000   0.0000000   0.0000000   0.0000000   0.0000000   0.0000000   0.0000000   0.0000000   0.0000000
 NMagM=    0.4037610   2.7928460   2.7928460   0.0000000   0.0000000   0.0000000   2.7928460   0.0000000   2.7928460   0.0000000
 AtZNuc=   7.0000000   1.0000000   1.0000000   6.0000000   6.0000000   8.0000000   1.0000000   8.0000000   1.0000000   6.0000000

  Atom        11          12          13          14          15          16          17          18          19          20
 IAtWgt=           1           1          12          12           1          12          16           1          12          16
 AtmWgt=   1.0078250   1.0078250  12.0000000  12.0000000   1.0078250  12.0000000  15.9949146   1.0078250  12.0000000  15.9949146
 NucSpn=           1           1           0           0           1           0           0           1           0           0
 AtZEff=  -0.0000000  -0.0000000  -0.0000000  -0.0000000  -0.0000000  -0.0000000  -0.0000000  -0.0000000  -0.0000000  -0.0000000
 NQMom=    0.0000000   0.0000000   0.0000000   0.0000000   0.0000000   0.0000000   0.0000000   0.0000000   0.0000000   0.0000000
 NMagM=    2.7928460   2.7928460   0.0000000   0.0000000   2.7928460   0.0000000   0.0000000   2.7928460   0.0000000   0.0000000
 AtZNuc=   1.0000000   1.0000000   6.0000000   6.0000000   1.0000000   6.0000000   8.0000000   1.0000000   6.0000000   8.0000000

  Atom        21          22          23          24          25          26
 IAtWgt=           1          12           1          12           1           1
 AtmWgt=   1.0078250  12.0000000   1.0078250  12.0000000   1.0078250   1.0078250
 NucSpn=           1           0           1           0           1           1
 AtZEff=  -0.0000000  -0.0000000  -0.0000000  -0.0000000  -0.0000000  -0.0000000
 NQMom=    0.0000000   0.0000000   0.0000000   0.0000000   0.0000000   0.0000000
 NMagM=    2.7928460   0.0000000   2.7928460   0.0000000   2.7928460   2.7928460
 AtZNuc=   1.0000000   6.0000000   1.0000000   6.0000000   1.0000000   1.0000000
 Leave Link  101 at Sun Jul 18 13:46:42 2021, MaxMem=   104857600 cpu:               0.5 elap:               0.1
 (Enter /prod/apps/gaussian/g16b1/l103.exe)

 GradGradGradGradGradGradGradGradGradGradGradGradGradGradGradGradGradGrad
 Berny optimization.
 Initialization pass.
                           ----------------------------
                           !    Initial Parameters    !
                           ! (Angstroms and Degrees)  !
 --------------------------                            --------------------------
 ! Name  Definition              Value          Derivative Info.                !
 --------------------------------------------------------------------------------
 ! R1    R(1,2)                  0.9997         estimate D2E/DX2                !
 ! R2    R(1,3)                  1.0001         estimate D2E/DX2                !
 ! R3    R(1,4)                  1.4598         estimate D2E/DX2                !
 ! R4    R(1,26)                 1.0            estimate D2E/DX2                !
 ! R5    R(4,5)                  1.5902         estimate D2E/DX2                !
 ! R6    R(4,9)                  1.0931         estimate D2E/DX2                !
 ! R7    R(4,10)                 1.5402         estimate D2E/DX2                !
 ! R8    R(5,6)                  1.2892         estimate D2E/DX2                !
 ! R9    R(5,8)                  1.2102         estimate D2E/DX2                !
 ! R10   R(6,7)                  0.9744         estimate D2E/DX2                !
 ! R11   R(10,11)                1.0919         estimate D2E/DX2                !
 ! R12   R(10,12)                1.0919         estimate D2E/DX2                !
 ! R13   R(10,13)                1.5231         estimate D2E/DX2                !
 ! R14   R(13,14)                1.3646         estimate D2E/DX2                !
 ! R15   R(13,24)                1.3831         estimate D2E/DX2                !
 ! R16   R(14,15)                1.0867         estimate D2E/DX2                !
 ! R17   R(14,16)                1.3459         estimate D2E/DX2                !
 ! R18   R(16,17)                1.348          estimate D2E/DX2                !
 ! R19   R(16,19)                1.4432         estimate D2E/DX2                !
 ! R20   R(17,18)                0.9732         estimate D2E/DX2                !
 ! R21   R(19,20)                1.3624         estimate D2E/DX2                !
 ! R22   R(19,22)                1.3449         estimate D2E/DX2                !
 ! R23   R(20,21)                0.9745         estimate D2E/DX2                !
 ! R24   R(22,23)                1.0876         estimate D2E/DX2                !
 ! R25   R(22,24)                1.4034         estimate D2E/DX2                !
 ! R26   R(24,25)                1.087          estimate D2E/DX2                !
 ! A1    A(2,1,3)              109.469          estimate D2E/DX2                !
 ! A2    A(2,1,4)              109.4843         estimate D2E/DX2                !
 ! A3    A(2,1,26)             109.4837         estimate D2E/DX2                !
 ! A4    A(3,1,4)              109.4751         estimate D2E/DX2                !
 ! A5    A(3,1,26)             109.4693         estimate D2E/DX2                !
 ! A6    A(4,1,26)             109.4459         estimate D2E/DX2                !
 ! A7    A(1,4,5)              110.9845         estimate D2E/DX2                !
 ! A8    A(1,4,9)              111.245          estimate D2E/DX2                !
 ! A9    A(1,4,10)             103.2836         estimate D2E/DX2                !
 ! A10   A(5,4,9)              112.0836         estimate D2E/DX2                !
 ! A11   A(5,4,10)             114.3881         estimate D2E/DX2                !
 ! A12   A(9,4,10)             104.384          estimate D2E/DX2                !
 ! A13   A(4,5,6)              106.1253         estimate D2E/DX2                !
 ! A14   A(4,5,8)              123.0877         estimate D2E/DX2                !
 ! A15   A(6,5,8)              124.6312         estimate D2E/DX2                !
 ! A16   A(5,6,7)               90.8189         estimate D2E/DX2                !
 ! A17   A(4,10,11)            109.0225         estimate D2E/DX2                !
 ! A18   A(4,10,12)            113.3934         estimate D2E/DX2                !
 ! A19   A(4,10,13)            114.7278         estimate D2E/DX2                !
 ! A20   A(11,10,12)           102.6995         estimate D2E/DX2                !
 ! A21   A(11,10,13)           107.4309         estimate D2E/DX2                !
 ! A22   A(12,10,13)           108.7281         estimate D2E/DX2                !
 ! A23   A(10,13,14)           120.104          estimate D2E/DX2                !
 ! A24   A(10,13,24)           117.9281         estimate D2E/DX2                !
 ! A25   A(14,13,24)           119.3902         estimate D2E/DX2                !
 ! A26   A(13,14,15)           120.6183         estimate D2E/DX2                !
 ! A27   A(13,14,16)           121.2164         estimate D2E/DX2                !
 ! A28   A(15,14,16)           117.2114         estimate D2E/DX2                !
 ! A29   A(14,16,17)           114.3689         estimate D2E/DX2                !
 ! A30   A(14,16,19)           120.1831         estimate D2E/DX2                !
 ! A31   A(17,16,19)           125.1357         estimate D2E/DX2                !
 ! A32   A(16,17,18)           118.9818         estimate D2E/DX2                !
 ! A33   A(16,19,20)           117.6198         estimate D2E/DX2                !
 ! A34   A(16,19,22)           117.9005         estimate D2E/DX2                !
 ! A35   A(20,19,22)           124.4669         estimate D2E/DX2                !
 ! A36   A(19,20,21)           107.9305         estimate D2E/DX2                !
 ! A37   A(19,22,23)           120.2171         estimate D2E/DX2                !
 ! A38   A(19,22,24)           120.939          estimate D2E/DX2                !
 ! A39   A(23,22,24)           118.8302         estimate D2E/DX2                !
 ! A40   A(13,24,22)           119.6276         estimate D2E/DX2                !
 ! A41   A(13,24,25)           119.3868         estimate D2E/DX2                !
 ! A42   A(22,24,25)           120.5809         estimate D2E/DX2                !
 ! D1    D(2,1,4,5)            -91.2671         estimate D2E/DX2                !
 ! D2    D(2,1,4,9)             34.2639         estimate D2E/DX2                !
 ! D3    D(2,1,4,10)           145.7113         estimate D2E/DX2                !
 ! D4    D(3,1,4,5)            148.7253         estimate D2E/DX2                !
 ! D5    D(3,1,4,9)            -85.7438         estimate D2E/DX2                !
 ! D6    D(3,1,4,10)            25.7036         estimate D2E/DX2                !
 ! D7    D(26,1,4,5)            28.7407         estimate D2E/DX2                !
 ! D8    D(26,1,4,9)           154.2717         estimate D2E/DX2                !
 ! D9    D(26,1,4,10)          -94.281          estimate D2E/DX2                !
 ! D10   D(1,4,5,6)            -11.5377         estimate D2E/DX2                !
 ! D11   D(1,4,5,8)           -164.9754         estimate D2E/DX2                !
 ! D12   D(9,4,5,6)           -136.5982         estimate D2E/DX2                !
 ! D13   D(9,4,5,8)             69.9642         estimate D2E/DX2                !
 ! D14   D(10,4,5,6)           104.8277         estimate D2E/DX2                !
 ! D15   D(10,4,5,8)           -48.6099         estimate D2E/DX2                !
 ! D16   D(1,4,10,11)           60.3014         estimate D2E/DX2                !
 ! D17   D(1,4,10,12)          -53.4338         estimate D2E/DX2                !
 ! D18   D(1,4,10,13)         -179.1929         estimate D2E/DX2                !
 ! D19   D(5,4,10,11)          -60.4321         estimate D2E/DX2                !
 ! D20   D(5,4,10,12)         -174.1673         estimate D2E/DX2                !
 ! D21   D(5,4,10,13)           60.0736         estimate D2E/DX2                !
 ! D22   D(9,4,10,11)          176.7192         estimate D2E/DX2                !
 ! D23   D(9,4,10,12)           62.9841         estimate D2E/DX2                !
 ! D24   D(9,4,10,13)          -62.7751         estimate D2E/DX2                !
 ! D25   D(4,5,6,7)              7.8042         estimate D2E/DX2                !
 ! D26   D(8,5,6,7)            160.7181         estimate D2E/DX2                !
 ! D27   D(4,10,13,14)          74.8266         estimate D2E/DX2                !
 ! D28   D(4,10,13,24)        -123.4809         estimate D2E/DX2                !
 ! D29   D(11,10,13,14)       -163.7934         estimate D2E/DX2                !
 ! D30   D(11,10,13,24)         -2.1009         estimate D2E/DX2                !
 ! D31   D(12,10,13,14)        -53.3216         estimate D2E/DX2                !
 ! D32   D(12,10,13,24)        108.3709         estimate D2E/DX2                !
 ! D33   D(10,13,14,15)         -1.6084         estimate D2E/DX2                !
 ! D34   D(10,13,14,16)        166.9044         estimate D2E/DX2                !
 ! D35   D(24,13,14,15)       -163.0344         estimate D2E/DX2                !
 ! D36   D(24,13,14,16)          5.4784         estimate D2E/DX2                !
 ! D37   D(10,13,24,22)       -170.7191         estimate D2E/DX2                !
 ! D38   D(10,13,24,25)         16.5384         estimate D2E/DX2                !
 ! D39   D(14,13,24,22)         -8.8921         estimate D2E/DX2                !
 ! D40   D(14,13,24,25)        178.3653         estimate D2E/DX2                !
 ! D41   D(13,14,16,17)       -171.4044         estimate D2E/DX2                !
 ! D42   D(13,14,16,19)          2.5024         estimate D2E/DX2                !
 ! D43   D(15,14,16,17)         -2.5155         estimate D2E/DX2                !
 ! D44   D(15,14,16,19)        171.3913         estimate D2E/DX2                !
 ! D45   D(14,16,17,18)        -16.8593         estimate D2E/DX2                !
 ! D46   D(19,16,17,18)        169.5827         estimate D2E/DX2                !
 ! D47   D(14,16,19,20)        174.2011         estimate D2E/DX2                !
 ! D48   D(14,16,19,22)         -7.0452         estimate D2E/DX2                !
 ! D49   D(17,16,19,20)        -12.589          estimate D2E/DX2                !
 ! D50   D(17,16,19,22)        166.1647         estimate D2E/DX2                !
 ! D51   D(16,19,20,21)          5.019          estimate D2E/DX2                !
 ! D52   D(22,19,20,21)       -173.645          estimate D2E/DX2                !
 ! D53   D(16,19,22,23)       -177.7879         estimate D2E/DX2                !
 ! D54   D(16,19,22,24)          3.5779         estimate D2E/DX2                !
 ! D55   D(20,19,22,23)          0.8726         estimate D2E/DX2                !
 ! D56   D(20,19,22,24)       -177.7615         estimate D2E/DX2                !
 ! D57   D(19,22,24,13)          4.2449         estimate D2E/DX2                !
 ! D58   D(19,22,24,25)        176.8991         estimate D2E/DX2                !
 ! D59   D(23,22,24,13)       -174.4078         estimate D2E/DX2                !
 ! D60   D(23,22,24,25)         -1.7536         estimate D2E/DX2                !
 --------------------------------------------------------------------------------
 Trust Radius=3.00D-01 FncErr=1.00D-07 GrdErr=1.00D-06 EigMax=2.50D+02 EigMin=1.00D-04
 Number of steps in this run=    138 maximum allowed number of steps=    156.
 GradGradGradGradGradGradGradGradGradGradGradGradGradGradGradGradGradGrad

 Leave Link  103 at Sun Jul 18 13:46:42 2021, MaxMem=   104857600 cpu:               0.1 elap:               0.0
 (Enter /prod/apps/gaussian/g16b1/l202.exe)
                          Input orientation:                          
 ---------------------------------------------------------------------
 Center     Atomic      Atomic             Coordinates (Angstroms)
 Number     Number       Type             X           Y           Z
 ---------------------------------------------------------------------
      1          7           0        3.329000   -0.862000   -0.248000
      2          1           0        3.969000   -0.567000   -0.957000
      3          1           0        3.040000   -1.802000   -0.430000
      4          6           0        2.162000    0.015000   -0.250000
      5          6           0        2.364000    1.234000    0.751000
      6          8           0        3.407000    0.951000    1.454000
      7          1           0        3.593000    0.177000    0.892000
      8          8           0        1.455000    1.941000    1.123000
      9          1           0        1.920000    0.350000   -1.262000
     10          6           0        1.007000   -0.932000    0.126000
     11          1           0        1.204000   -1.360000    1.111000
     12          1           0        0.946000   -1.816000   -0.512000
     13          6           0       -0.365000   -0.273000    0.181000
     14          6           0       -1.015000    0.052000   -0.974000
     15          1           0       -0.552000   -0.131000   -1.940000
     16          6           0       -2.318000    0.389000   -0.970000
     17          8           0       -2.866000    0.506000   -2.196000
     18          1           0       -2.280000    0.594000   -2.968000
     19          6           0       -3.044000    0.465000    0.275000
     20          8           0       -4.325000    0.927000    0.232000
     21          1           0       -4.564000    1.062000   -0.703000
     22          6           0       -2.421000    0.052000    1.393000
     23          1           0       -2.945000    0.059000    2.346000
     24          6           0       -1.082000   -0.367000    1.360000
     25          1           0       -0.569000   -0.652000    2.275000
     26          1           0        3.777000   -0.818000    0.645000
 ---------------------------------------------------------------------
                    Distance matrix (angstroms):
                    1          2          3          4          5
     1  N    0.000000
     2  H    0.999653   0.000000
     3  H    1.000122   1.632787   0.000000
     4  C    1.459802   2.025789   2.026024   0.000000
     5  C    2.514447   2.955823   3.327016   1.590209   0.000000
     6  O    2.487942   2.903978   3.356062   2.308622   1.289243
     7  H    1.564870   2.028229   2.443345   1.837980   1.627136
     8  O    3.639825   4.115417   4.351331   2.468695   1.210171
     9  H    2.117173   2.265461   2.564708   1.093130   2.242936
    10  C    2.352968   3.174832   2.280159   1.540198   2.631279
    11  H    2.571091   3.542696   2.437405   2.158868   2.864269
    12  H    2.580407   3.300993   2.095652   2.213563   3.592825
    13  C    3.765182   4.490550   3.782220   2.579619   3.169131
    14  C    4.498089   5.022321   4.491801   3.258661   3.973712
    15  H    4.296439   4.647131   4.239670   3.200502   4.196160
    16  C    5.828799   6.359283   5.813798   4.552876   5.059347
    17  O    6.636577   7.028775   6.582283   5.413758   6.047123
    18  H    6.401501   6.666487   6.362756   5.239669   5.983920
    19  C    6.530665   7.194791   6.530802   5.251720   5.483101
    20  O    7.874937   8.510945   7.882189   6.568503   6.716125
    21  H    8.136845   8.690814   8.130058   6.822059   7.081023
    22  C    6.049031   6.836502   6.048402   4.868748   4.970464
    23  H    6.851288   7.687983   6.854905   5.729101   5.666580
    24  C    4.720976   5.560674   4.717437   3.641642   3.848246
    25  H    4.648014   5.571938   4.654504   3.778740   3.805530
    26  H    1.000044   1.632871   1.633111   2.025621   2.493694
                    6          7          8          9         10
     6  O    0.000000
     7  H    0.974431   0.000000
     8  O    2.213586   2.781385   0.000000
     9  H    3.154208   2.732869   2.904433   0.000000
    10  C    3.327052   2.916168   3.073897   2.098484   0.000000
    11  H    3.211165   2.849149   3.310551   3.011293   1.091887
    12  H    4.192608   3.598593   4.128844   2.490528   1.091889
    13  C    4.164936   4.046453   3.016879   2.773374   1.523053
    14  C    5.124204   4.973052   3.750551   2.964114   2.503346
    15  H    5.325753   5.029524   4.207517   2.608032   2.709324
    16  C    6.242375   6.200960   4.585290   4.248227   3.741909
    17  O    7.271248   7.166775   5.634361   4.878779   4.739162
    18  H    7.212732   7.040285   5.700957   4.539821   4.765069
    19  C    6.575837   6.671836   4.810268   5.197777   4.287705
    20  O    7.828006   7.980778   5.935527   6.447092   5.647773
    21  H    8.258439   8.358463   6.351006   6.546883   5.974891
    22  C    5.897246   6.036126   4.320254   5.097265   3.784802
    23  H    6.476051   6.698767   4.939398   6.063874   4.639912
    24  C    4.679432   4.729755   3.437936   4.049812   2.491165
    25  H    4.364886   4.463426   3.485302   4.439538   2.679623
    26  H    1.980086   1.041581   3.637616   2.906772   2.820507
                   11         12         13         14         15
    11  H    0.000000
    12  H    1.705470   0.000000
    13  C    2.123259   2.140051   0.000000
    14  C    3.356327   2.747433   1.364606   0.000000
    15  H    3.728616   2.668785   2.133957   1.086745   0.000000
    16  C    4.449050   3.965537   2.361621   1.345880   2.080879
    17  O    5.566247   4.770627   3.537226   2.263979   2.413690
    18  H    5.709169   4.716684   3.786174   2.422813   2.137380
    19  C    4.698407   4.662878   2.780381   2.418142   3.386961
    20  O    6.047549   5.988408   4.138140   3.629898   4.480232
    21  H    6.513563   6.219282   4.493916   3.699857   4.364580
    22  C    3.900499   4.295944   2.408673   2.753094   3.825642
    23  H    4.555545   5.179157   3.384354   3.840228   4.912468
    24  C    2.504765   3.117173   1.383100   2.372258   3.350611
    25  H    2.235998   3.378978   2.137778   3.354181   4.247111
    26  H    2.670440   3.217019   4.203390   5.132380   5.088657
                   16         17         18         19         20
    16  C    0.000000
    17  O    1.347987   0.000000
    18  H    2.008849   0.973203   0.000000
    19  C    1.443218   2.477742   3.334274   0.000000
    20  O    2.400478   2.863757   3.812206   1.362444   0.000000
    21  H    2.359817   2.328388   3.250524   1.903495   0.974459
    22  C    2.389131   3.644868   4.396813   1.344850   2.395571
    23  H    3.390853   4.564626   5.382104   2.112742   2.669610
    24  C    2.743744   4.073073   4.592419   2.391421   3.669315
    25  H    3.830497   5.158199   5.654121   3.372434   4.557919
    26  H    6.419821   7.345319   7.192688   6.950470   8.298072
                   21         22         23         24         25
    21  H    0.000000
    22  C    3.163189   0.000000
    23  H    3.594937   1.087582   0.000000
    24  C    4.292125   1.403414   2.150451   0.000000
    25  H    5.269374   2.168742   2.481116   1.087023   0.000000
    26  H    8.655853   6.303301   6.989121   4.931988   4.644585
                   26
    26  H    0.000000
 Stoichiometry    C9H12NO4(1+)
 Framework group  C1[X(C9H12NO4)]
 Deg. of freedom    72
 Full point group                 C1      NOp   1
 Largest Abelian subgroup         C1      NOp   1
 Largest concise Abelian subgroup C1      NOp   1
                         Standard orientation:                         
 ---------------------------------------------------------------------
 Center     Atomic      Atomic             Coordinates (Angstroms)
 Number     Number       Type             X           Y           Z
 ---------------------------------------------------------------------
      1          7           0       -3.435140    1.159815    0.616193
      2          1           0       -3.951919    1.796158    0.044080
      3          1           0       -3.162859    1.618092    1.462414
      4          6           0       -2.244148    0.716352   -0.102069
      5          6           0       -2.537915   -0.610982   -0.927085
      6          8           0       -3.683264   -1.039955   -0.519281
      7          1           0       -3.818077   -0.227193    0.001064
      8          8           0       -1.663636   -1.312279   -1.383519
      9          1           0       -1.843300    1.512952   -0.734274
     10          6           0       -1.197485    0.551806    1.015800
     11          1           0       -1.553867   -0.193092    1.730179
     12          1           0       -1.081754    1.443018    1.635935
     13          6           0        0.178578    0.105418    0.539484
     14          6           0        1.003111    0.988623   -0.094744
     15          1           0        0.678441    2.007368   -0.289068
     16          6           0        2.304740    0.709217   -0.292452
     17          8           0        3.029971    1.742728   -0.764642
     18          1           0        2.566961    2.502500   -1.158968
     19          6           0        2.844178   -0.564435    0.119487
     20          8           0        4.136213   -0.840531   -0.213185
     21          1           0        4.514391   -0.046228   -0.632272
     22          6           0        2.047989   -1.386155    0.826228
     23          1           0        2.427379   -2.339551    1.186688
     24          6           0        0.711522   -1.047069    1.087855
     25          1           0        0.059066   -1.737490    1.616285
     26          1           0       -4.006183    0.368421    0.834581
 ---------------------------------------------------------------------
 Rotational constants (GHZ):           1.4871971           0.3500645           0.3252305
 Leave Link  202 at Sun Jul 18 13:46:42 2021, MaxMem=   104857600 cpu:               0.1 elap:               0.0
 (Enter /prod/apps/gaussian/g16b1/l301.exe)
 Standard basis: 6-31G(d) (6D, 7F)
 Ernie: Thresh=  0.10000D-02 Tol=  0.10000D-05 Strict=F.
 There are   234 symmetry adapted cartesian basis functions of A   symmetry.
 There are   234 symmetry adapted basis functions of A   symmetry.
   234 basis functions,   440 primitive gaussians,   234 cartesian basis functions
    52 alpha electrons       52 beta electrons
       nuclear repulsion energy       912.4547995344 Hartrees.
 IExCor=  402 DFT=T Ex+Corr=B3LYP ExCW=0 ScaHFX=  0.200000
 ScaDFX=  0.800000  0.720000  1.000000  0.810000 ScalE2=  1.000000  1.000000
 IRadAn=      5 IRanWt=     -1 IRanGd=            0 ICorTp=0 IEmpDi=  4
 NAtoms=   26 NActive=   26 NUniq=   26 SFac= 1.00D+00 NAtFMM=   60 NAOKFM=F Big=F
 Integral buffers will be    131072 words long.
 Raffenetti 2 integral format.
 Two-electron integral symmetry is turned on.
 Using the following non-standard input for PCM:
 MSTModel=DFT cav MSTCharged
 --- end of non-standard input.
 MST model for solvation energy: B3LYP parametrization.
 MST cavity parameters:
 ISph   IAn     Re0     Alpha   Atom Type   QCorr
 ------------------------------------------------
   1      7     1.70     1.15      NH         T
   2      1     0.90     1.15      NH         T
   3      1     0.90     1.15      NH         T
   4      6     1.50     1.25      CH         F
   5      6     1.50     1.25      C          F
   6      8     1.45     1.25      OH         F
   7      1     0.90     1.25      OH         F
   8      8     1.40     1.25      O          F
   9      1     1.20     1.25      CH         F
  10      6     1.50     1.25      CH2        F
  11      1     1.20     1.25      CH2        F
  12      1     1.20     1.25      CH2        F
  13      6     1.50     1.25      C          F
  14      6     1.50     1.25      CH         F
  15      1     1.20     1.25      CH         F
  16      6     1.50     1.25      C          F
  17      8     1.45     1.25      OH         F
  18      1     0.90     1.25      OH         F
  19      6     1.50     1.25      C          F
  20      8     1.45     1.25      OH         F
  21      1     0.90     1.25      OH         F
  22      6     1.50     1.25      CH         F
  23      1     1.20     1.25      CH         F
  24      6     1.50     1.25      CH         F
  25      1     1.20     1.25      CH         F
  26      1     0.90     1.15      NH         T
 ------------------------------------------------------------------------------
 Polarizable Continuum Model (PCM)
 =================================
 Model                : PCM.
 Atomic radii         : MST.
 Polarization charges : Total charges.
 Charge compensation  : None.
 Solution method      : On-the-fly selection.
 Cavity type          : Scaled VdW (van der Waals Surface) (Alpha=1.250).
 Cavity algorithm     : GePol (No added spheres)
                        Default sphere list used, NSphG=   26.
                        Lebedev-Laikov grids with approx.  5.0 points / Ang**2.
                        Smoothing algorithm: York/Karplus (Gamma=1.0000).
                        Polarization charges: spherical gaussians, with
                                              point-specific exponents (IZeta= 3).
                        Self-potential: point-specific (ISelfS= 7).
                        Self-field    : sphere-specific E.n sum rule (ISelfD= 2).
 1st derivatives      : Analytical E(r).r(x)/FMM algorithm (CHGder, D1EAlg=3).
                        Cavity 1st derivative terms included.
 Solvent              : Water, Eps=  78.355300 Eps(inf)=   1.777849
 ------------------------------------------------------------------------------
 GePol: Number of generator spheres                  =      26
 GePol: Total number of spheres                      =      26
 GePol: Number of exposed spheres                    =      26 (100.00%)
 GePol: Number of points                             =    1932
 GePol: Average weight of points                     =       0.12
 GePol: Minimum weight of points                     =   0.43D-08
 GePol: Maximum weight of points                     =    0.22001
 GePol: Number of points with low weight             =     111
 GePol: Fraction of low-weight points (<1% of avg)   =       5.75%
 GePol: Cavity surface area                          =    236.340 Ang**2
 GePol: Cavity volume                                =    219.654 Ang**3
 PCM non-electrostatic energy =        -0.0001490064 Hartrees.
 Nuclear repulsion after PCM non-electrostatic terms =      912.4546505280 Hartrees.
 Leave Link  301 at Sun Jul 18 13:46:42 2021, MaxMem=   104857600 cpu:               0.4 elap:               0.1
 (Enter /prod/apps/gaussian/g16b1/l302.exe)
 NPDir=0 NMtPBC=     1 NCelOv=     1 NCel=       1 NClECP=     1 NCelD=      1
         NCelK=      1 NCelE2=     1 NClLst=     1 CellRange=     0.0.
 One-electron integrals computed using PRISM.
 One-electron integral symmetry used in STVInt
 NBasis=   234 RedAO= T EigKep=  4.12D-04  NBF=   234
 NBsUse=   234 1.00D-06 EigRej= -1.00D+00 NBFU=   234
 Precomputing XC quadrature grid using
 IXCGrd= 4 IRadAn=           5 IRanWt=          -1 IRanGd=           0 AccXCQ= 0.00D+00.
 Generated NRdTot=       0 NPtTot=           0 NUsed=           0 NTot=          32
 NSgBfM=   233   233   233   233   233 MxSgAt=    26 MxSgA2=    26.
 Leave Link  302 at Sun Jul 18 13:46:43 2021, MaxMem=   104857600 cpu:               1.4 elap:               0.4
 (Enter /prod/apps/gaussian/g16b1/l303.exe)
 DipDrv:  MaxL=1.
 Leave Link  303 at Sun Jul 18 13:46:43 2021, MaxMem=   104857600 cpu:               0.1 elap:               0.1
 (Enter /prod/apps/gaussian/g16b1/l401.exe)
 ExpMin= 1.61D-01 ExpMax= 5.48D+03 ExpMxC= 8.25D+02 IAcc=3 IRadAn=         5 AccDes= 0.00D+00
 Harris functional with IExCor=  402 and IRadAn=       5 diagonalized for initial guess.
 HarFok:  IExCor=  402 AccDes= 0.00D+00 IRadAn=         5 IDoV= 1 UseB2=F ITyADJ=14
 ICtDFT=  3500011 ScaDFX=  1.000000  1.000000  1.000000  1.000000
 FoFCou: FMM=F IPFlag=           0 FMFlag=      100000 FMFlg1=           0
         NFxFlg=           0 DoJE=T BraDBF=F KetDBF=T FulRan=T
         wScrn=  0.000000 ICntrl=       500 IOpCl=  0 I1Cent=   200000004 NGrid=           0
         NMat0=    1 NMatS0=      1 NMatT0=    0 NMatD0=    1 NMtDS0=    0 NMtDT0=    0
 Petite list used in FoFCou.
 Harris En= -705.532673888322    
 JPrj=0 DoOrth=F DoCkMO=F.
 Leave Link  401 at Sun Jul 18 13:46:44 2021, MaxMem=   104857600 cpu:               5.9 elap:               1.5
 (Enter /prod/apps/gaussian/g16b1/l502.exe)
 Integral symmetry usage will be decided dynamically.
 Closed shell SCF:
 Using DIIS extrapolation, IDIIS=  1040.
 NGot=   104857600 LenX=   104743994 LenY=   104688797
 Requested convergence on RMS density matrix=1.00D-08 within 128 cycles.
 Requested convergence on MAX density matrix=1.00D-06.
 Requested convergence on             energy=1.00D-06.
 No special actions if energy rises.
 Fock matrices will be formed incrementally for  20 cycles.

 Cycle   1  Pass 1  IDiag  1:
 FoFJK:  IHMeth= 1 ICntrl=       0 DoSepK=F KAlg= 0 I1Cent=           0 FoldK=F
 IRaf= 860000000 NMat=       1 IRICut=       1 DoRegI=T DoRafI=F ISym2E= 0 IDoP0=0 IntGTp=1.
 FoFCou: FMM=F IPFlag=           0 FMFlag=      100000 FMFlg1=           0
         NFxFlg=           0 DoJE=F BraDBF=F KetDBF=F FulRan=T
         wScrn=  0.000000 ICntrl=         0 IOpCl=  0 I1Cent=           0 NGrid=           0
         NMat0=    1 NMatS0=      1 NMatT0=    0 NMatD0=    1 NMtDS0=    0 NMtDT0=    0
 Symmetry not used in FoFCou.
 Inv3:  Mode=1 IEnd=    11197872.
 Iteration    1 A*A^-1 deviation from unit magnitude is 3.66D-15 for   1143.
 Iteration    1 A*A^-1 deviation from orthogonality  is 2.25D-15 for   1051     73.
 Iteration    1 A^-1*A deviation from unit magnitude is 3.44D-15 for   1459.
 Iteration    1 A^-1*A deviation from orthogonality  is 5.47D-13 for   1627   1480.
 E= -705.248023439320    
 DIIS: error= 2.65D-02 at cycle   1 NSaved=   1.
 NSaved= 1 IEnMin= 1 EnMin= -705.248023439320     IErMin= 1 ErrMin= 2.65D-02
 ErrMax= 2.65D-02  0.00D+00 EMaxC= 1.00D-01 BMatC= 3.82D-01 BMatP= 3.82D-01
 IDIUse=3 WtCom= 7.35D-01 WtEn= 2.65D-01
 Coeff-Com:  0.100D+01
 Coeff-En:   0.100D+01
 Coeff:      0.100D+01
 Gap=     0.217 Goal=   None    Shift=    0.000
 GapD=    0.217 DampG=1.000 DampE=0.500 DampFc=0.5000 IDamp=-1.
 Damping current iteration by 5.00D-01
 RMSDP=5.68D-03 MaxDP=1.94D-01              OVMax= 2.52D-01

 Cycle   2  Pass 1  IDiag  1:
 RMSU=  2.82D-03    CP:  9.85D-01
 E= -705.366905796475     Delta-E=       -0.118882357155 Rises=F Damp=T
 DIIS: error= 1.07D-02 at cycle   2 NSaved=   2.
 NSaved= 2 IEnMin= 2 EnMin= -705.366905796475     IErMin= 2 ErrMin= 1.07D-02
 ErrMax= 1.07D-02  0.00D+00 EMaxC= 1.00D-01 BMatC= 4.08D-02 BMatP= 3.82D-01
 IDIUse=3 WtCom= 8.93D-01 WtEn= 1.07D-01
 Coeff-Com:  0.154D+00 0.846D+00
 Coeff-En:   0.247D+00 0.753D+00
 Coeff:      0.164D+00 0.836D+00
 Gap=     0.153 Goal=   None    Shift=    0.000
 RMSDP=1.56D-03 MaxDP=6.07D-02 DE=-1.19D-01 OVMax= 1.76D-01

 Cycle   3  Pass 1  IDiag  1:
 RMSU=  1.48D-03    CP:  9.77D-01  8.39D-01
 E= -705.544965029721     Delta-E=       -0.178059233246 Rises=F Damp=F
 DIIS: error= 1.63D-02 at cycle   3 NSaved=   3.
 NSaved= 3 IEnMin= 3 EnMin= -705.544965029721     IErMin= 2 ErrMin= 1.07D-02
 ErrMax= 1.63D-02  0.00D+00 EMaxC= 1.00D-01 BMatC= 3.96D-02 BMatP= 4.08D-02
 IDIUse=3 WtCom= 8.37D-01 WtEn= 1.63D-01
 Coeff-Com:  0.325D-01 0.492D+00 0.475D+00
 Coeff-En:   0.000D+00 0.000D+00 0.100D+01
 Coeff:      0.272D-01 0.412D+00 0.561D+00
 Gap=     0.175 Goal=   None    Shift=    0.000
 RMSDP=9.87D-04 MaxDP=5.86D-02 DE=-1.78D-01 OVMax= 9.16D-02

 Cycle   4  Pass 1  IDiag  1:
 RMSU=  6.63D-04    CP:  9.81D-01  8.89D-01  5.17D-01
 E= -705.569045659395     Delta-E=       -0.024080629675 Rises=F Damp=F
 DIIS: error= 9.24D-03 at cycle   4 NSaved=   4.
 NSaved= 4 IEnMin= 4 EnMin= -705.569045659395     IErMin= 4 ErrMin= 9.24D-03
 ErrMax= 9.24D-03  0.00D+00 EMaxC= 1.00D-01 BMatC= 1.05D-02 BMatP= 3.96D-02
 IDIUse=3 WtCom= 9.08D-01 WtEn= 9.24D-02
 Coeff-Com:  0.416D-02 0.102D+00 0.347D+00 0.546D+00
 Coeff-En:   0.000D+00 0.000D+00 0.229D+00 0.771D+00
 Coeff:      0.378D-02 0.925D-01 0.336D+00 0.567D+00
 Gap=     0.173 Goal=   None    Shift=    0.000
 RMSDP=3.93D-04 MaxDP=2.34D-02 DE=-2.41D-02 OVMax= 4.02D-02

 Cycle   5  Pass 1  IDiag  1:
 RMSU=  1.89D-04    CP:  9.80D-01  8.58D-01  6.63D-01  6.17D-01
 E= -705.576255402153     Delta-E=       -0.007209742758 Rises=F Damp=F
 DIIS: error= 2.00D-03 at cycle   5 NSaved=   5.
 NSaved= 5 IEnMin= 5 EnMin= -705.576255402153     IErMin= 5 ErrMin= 2.00D-03
 ErrMax= 2.00D-03  0.00D+00 EMaxC= 1.00D-01 BMatC= 8.07D-04 BMatP= 1.05D-02
 IDIUse=3 WtCom= 9.80D-01 WtEn= 2.00D-02
 Coeff-Com:  0.125D-03 0.771D-02 0.150D+00 0.347D+00 0.495D+00
 Coeff-En:   0.000D+00 0.000D+00 0.000D+00 0.153D-01 0.985D+00
 Coeff:      0.123D-03 0.756D-02 0.147D+00 0.341D+00 0.505D+00
 Gap=     0.173 Goal=   None    Shift=    0.000
 RMSDP=1.11D-04 MaxDP=5.00D-03 DE=-7.21D-03 OVMax= 7.97D-03

 Cycle   6  Pass 1  IDiag  1:
 RMSU=  4.88D-05    CP:  9.80D-01  8.65D-01  6.63D-01  6.66D-01  5.14D-01
 E= -705.576892055141     Delta-E=       -0.000636652988 Rises=F Damp=F
 DIIS: error= 1.83D-04 at cycle   6 NSaved=   6.
 NSaved= 6 IEnMin= 6 EnMin= -705.576892055141     IErMin= 6 ErrMin= 1.83D-04
 ErrMax= 1.83D-04  0.00D+00 EMaxC= 1.00D-01 BMatC= 1.52D-05 BMatP= 8.07D-04
 IDIUse=3 WtCom= 9.98D-01 WtEn= 1.83D-03
 Coeff-Com: -0.178D-03-0.197D-02 0.368D-01 0.963D-01 0.205D+00 0.664D+00
 Coeff-En:   0.000D+00 0.000D+00 0.000D+00 0.000D+00 0.000D+00 0.100D+01
 Coeff:     -0.178D-03-0.197D-02 0.368D-01 0.961D-01 0.205D+00 0.664D+00
 Gap=     0.174 Goal=   None    Shift=    0.000
 RMSDP=1.87D-05 MaxDP=5.70D-04 DE=-6.37D-04 OVMax= 1.12D-03

 Cycle   7  Pass 1  IDiag  1:
 RMSU=  1.26D-05    CP:  9.80D-01  8.66D-01  6.63D-01  6.67D-01  5.57D-01
                    CP:  7.73D-01
 E= -705.576903623650     Delta-E=       -0.000011568509 Rises=F Damp=F
 DIIS: error= 3.98D-05 at cycle   7 NSaved=   7.
 NSaved= 7 IEnMin= 7 EnMin= -705.576903623650     IErMin= 7 ErrMin= 3.98D-05
 ErrMax= 3.98D-05  0.00D+00 EMaxC= 1.00D-01 BMatC= 1.61D-06 BMatP= 1.52D-05
 IDIUse=1 WtCom= 1.00D+00 WtEn= 0.00D+00
 Coeff-Com: -0.111D-03-0.128D-02 0.106D-01 0.293D-01 0.792D-01 0.346D+00
 Coeff-Com:  0.537D+00
 Coeff:     -0.111D-03-0.128D-02 0.106D-01 0.293D-01 0.792D-01 0.346D+00
 Coeff:      0.537D+00
 Gap=     0.174 Goal=   None    Shift=    0.000
 RMSDP=6.60D-06 MaxDP=1.95D-04 DE=-1.16D-05 OVMax= 4.46D-04

 Cycle   8  Pass 1  IDiag  1:
 RMSU=  3.44D-06    CP:  9.80D-01  8.65D-01  6.63D-01  6.69D-01  5.58D-01
                    CP:  7.86D-01  5.98D-01
 E= -705.576905071218     Delta-E=       -0.000001447568 Rises=F Damp=F
 DIIS: error= 1.03D-05 at cycle   8 NSaved=   8.
 NSaved= 8 IEnMin= 8 EnMin= -705.576905071218     IErMin= 8 ErrMin= 1.03D-05
 ErrMax= 1.03D-05  0.00D+00 EMaxC= 1.00D-01 BMatC= 8.87D-08 BMatP= 1.61D-06
 IDIUse=1 WtCom= 1.00D+00 WtEn= 0.00D+00
 Coeff-Com: -0.162D-04-0.402D-03 0.151D-02 0.431D-02 0.178D-01 0.915D-01
 Coeff-Com:  0.232D+00 0.653D+00
 Coeff:     -0.162D-04-0.402D-03 0.151D-02 0.431D-02 0.178D-01 0.915D-01
 Coeff:      0.232D+00 0.653D+00
 Gap=     0.174 Goal=   None    Shift=    0.000
 RMSDP=1.79D-06 MaxDP=4.65D-05 DE=-1.45D-06 OVMax= 1.52D-04

 Cycle   9  Pass 1  IDiag  1:
 RMSU=  1.16D-06    CP:  9.80D-01  8.65D-01  6.63D-01  6.68D-01  5.61D-01
                    CP:  7.93D-01  6.53D-01  7.25D-01
 E= -705.576905142597     Delta-E=       -0.000000071379 Rises=F Damp=F
 DIIS: error= 5.16D-06 at cycle   9 NSaved=   9.
 NSaved= 9 IEnMin= 9 EnMin= -705.576905142597     IErMin= 9 ErrMin= 5.16D-06
 ErrMax= 5.16D-06  0.00D+00 EMaxC= 1.00D-01 BMatC= 1.63D-08 BMatP= 8.87D-08
 IDIUse=1 WtCom= 1.00D+00 WtEn= 0.00D+00
 Coeff-Com:  0.274D-05-0.786D-04-0.311D-03-0.902D-03 0.120D-02 0.123D-01
 Coeff-Com:  0.698D-01 0.361D+00 0.557D+00
 Coeff:      0.274D-05-0.786D-04-0.311D-03-0.902D-03 0.120D-02 0.123D-01
 Coeff:      0.698D-01 0.361D+00 0.557D+00
 Gap=     0.174 Goal=   None    Shift=    0.000
 RMSDP=6.45D-07 MaxDP=1.66D-05 DE=-7.14D-08 OVMax= 4.70D-05

 Cycle  10  Pass 1  IDiag  1:
 RMSU=  3.24D-07    CP:  9.80D-01  8.65D-01  6.63D-01  6.68D-01  5.61D-01
                    CP:  7.94D-01  6.53D-01  8.15D-01  6.27D-01
 E= -705.576905157192     Delta-E=       -0.000000014595 Rises=F Damp=F
 DIIS: error= 9.13D-07 at cycle  10 NSaved=  10.
 NSaved=10 IEnMin=10 EnMin= -705.576905157192     IErMin=10 ErrMin= 9.13D-07
 ErrMax= 9.13D-07  0.00D+00 EMaxC= 1.00D-01 BMatC= 7.87D-10 BMatP= 1.63D-08
 IDIUse=1 WtCom= 1.00D+00 WtEn= 0.00D+00
 Coeff-Com:  0.282D-05-0.856D-05-0.232D-03-0.683D-03-0.637D-03-0.750D-03
 Coeff-Com:  0.154D-01 0.116D+00 0.252D+00 0.619D+00
 Coeff:      0.282D-05-0.856D-05-0.232D-03-0.683D-03-0.637D-03-0.750D-03
 Coeff:      0.154D-01 0.116D+00 0.252D+00 0.619D+00
 Gap=     0.174 Goal=   None    Shift=    0.000
 RMSDP=1.63D-07 MaxDP=4.72D-06 DE=-1.46D-08 OVMax= 1.61D-05

 Cycle  11  Pass 1  IDiag  1:
 RMSU=  1.05D-07    CP:  9.80D-01  8.65D-01  6.63D-01  6.68D-01  5.61D-01
                    CP:  7.94D-01  6.55D-01  8.20D-01  6.93D-01  7.45D-01
 E= -705.576905157960     Delta-E=       -0.000000000768 Rises=F Damp=F
 DIIS: error= 3.29D-07 at cycle  11 NSaved=  11.
 NSaved=11 IEnMin=11 EnMin= -705.576905157960     IErMin=11 ErrMin= 3.29D-07
 ErrMax= 3.29D-07  0.00D+00 EMaxC= 1.00D-01 BMatC= 6.15D-11 BMatP= 7.87D-10
 IDIUse=1 WtCom= 1.00D+00 WtEn= 0.00D+00
 Coeff-Com:  0.848D-06 0.318D-05-0.688D-04-0.196D-03-0.388D-03-0.147D-02
 Coeff-Com: -0.157D-03 0.129D-01 0.440D-01 0.258D+00 0.687D+00
 Coeff:      0.848D-06 0.318D-05-0.688D-04-0.196D-03-0.388D-03-0.147D-02
 Coeff:     -0.157D-03 0.129D-01 0.440D-01 0.258D+00 0.687D+00
 Gap=     0.174 Goal=   None    Shift=    0.000
 RMSDP=4.20D-08 MaxDP=1.08D-06 DE=-7.68D-10 OVMax= 3.04D-06

 Cycle  12  Pass 1  IDiag  1:
 RMSU=  2.74D-08    CP:  9.80D-01  8.65D-01  6.63D-01  6.68D-01  5.61D-01
                    CP:  7.94D-01  6.56D-01  8.23D-01  6.99D-01  8.07D-01
                    CP:  8.40D-01
 E= -705.576905158015     Delta-E=       -0.000000000055 Rises=F Damp=F
 DIIS: error= 8.13D-08 at cycle  12 NSaved=  12.
 NSaved=12 IEnMin=12 EnMin= -705.576905158015     IErMin=12 ErrMin= 8.13D-08
 ErrMax= 8.13D-08  0.00D+00 EMaxC= 1.00D-01 BMatC= 4.66D-12 BMatP= 6.15D-11
 IDIUse=1 WtCom= 1.00D+00 WtEn= 0.00D+00
 Coeff-Com:  0.850D-07 0.168D-05-0.727D-05-0.174D-04-0.104D-03-0.529D-03
 Coeff-Com: -0.140D-02-0.512D-02-0.544D-02 0.585D-01 0.272D+00 0.683D+00
 Coeff:      0.850D-07 0.168D-05-0.727D-05-0.174D-04-0.104D-03-0.529D-03
 Coeff:     -0.140D-02-0.512D-02-0.544D-02 0.585D-01 0.272D+00 0.683D+00
 Gap=     0.174 Goal=   None    Shift=    0.000
 RMSDP=1.29D-08 MaxDP=3.82D-07 DE=-5.48D-11 OVMax= 1.19D-06

 Cycle  13  Pass 1  IDiag  1:
 RMSU=  9.96D-09    CP:  9.80D-01  8.65D-01  6.63D-01  6.68D-01  5.61D-01
                    CP:  7.94D-01  6.56D-01  8.23D-01  7.01D-01  8.20D-01
                    CP:  8.84D-01  9.17D-01
 E= -705.576905158024     Delta-E=       -0.000000000009 Rises=F Damp=F
 DIIS: error= 4.27D-08 at cycle  13 NSaved=  13.
 NSaved=13 IEnMin=13 EnMin= -705.576905158024     IErMin=13 ErrMin= 4.27D-08
 ErrMax= 4.27D-08  0.00D+00 EMaxC= 1.00D-01 BMatC= 1.21D-12 BMatP= 4.66D-12
 IDIUse=1 WtCom= 1.00D+00 WtEn= 0.00D+00
 Coeff-Com: -0.145D-07 0.420D-06 0.446D-05 0.149D-04-0.846D-05-0.103D-03
 Coeff-Com: -0.727D-03-0.440D-02-0.906D-02-0.167D-04 0.612D-01 0.384D+00
 Coeff-Com:  0.569D+00
 Coeff:     -0.145D-07 0.420D-06 0.446D-05 0.149D-04-0.846D-05-0.103D-03
 Coeff:     -0.727D-03-0.440D-02-0.906D-02-0.167D-04 0.612D-01 0.384D+00
 Coeff:      0.569D+00
 Gap=     0.174 Goal=   None    Shift=    0.000
 RMSDP=5.02D-09 MaxDP=1.69D-07 DE=-9.32D-12 OVMax= 4.30D-07

 Error on total polarization charges =  0.01161
 SCF Done:  E(RB3LYP) =  -705.576905158     A.U. after   13 cycles
            NFock= 13  Conv=0.50D-08     -V/T= 2.0079
 KE= 7.000537797036D+02 PE=-3.456949187292D+03 EE= 1.138863851903D+03
 Leave Link  502 at Sun Jul 18 13:47:25 2021, MaxMem=   104857600 cpu:             164.1 elap:              41.1
 (Enter /prod/apps/gaussian/g16b1/l601.exe)
 Copying SCF densities to generalized density rwf, IOpCl= 0 IROHF=0.

 **********************************************************************

            Population analysis using the SCF Density.

 **********************************************************************

 Orbital symmetries:
       Occupied  (A) (A) (A) (A) (A) (A) (A) (A) (A) (A) (A) (A)
                 (A) (A) (A) (A) (A) (A) (A) (A) (A) (A) (A) (A)
                 (A) (A) (A) (A) (A) (A) (A) (A) (A) (A) (A) (A)
                 (A) (A) (A) (A) (A) (A) (A) (A) (A) (A) (A) (A)
                 (A) (A) (A) (A)
       Virtual   (A) (A) (A) (A) (A) (A) (A) (A) (A) (A) (A) (A)
                 (A) (A) (A) (A) (A) (A) (A) (A) (A) (A) (A) (A)
                 (A) (A) (A) (A) (A) (A) (A) (A) (A) (A) (A) (A)
                 (A) (A) (A) (A) (A) (A) (A) (A) (A) (A) (A) (A)
                 (A) (A) (A) (A) (A) (A) (A) (A) (A) (A) (A) (A)
                 (A) (A) (A) (A) (A) (A) (A) (A) (A) (A) (A) (A)
                 (A) (A) (A) (A) (A) (A) (A) (A) (A) (A) (A) (A)
                 (A) (A) (A) (A) (A) (A) (A) (A) (A) (A) (A) (A)
                 (A) (A) (A) (A) (A) (A) (A) (A) (A) (A) (A) (A)
                 (A) (A) (A) (A) (A) (A) (A) (A) (A) (A) (A) (A)
                 (A) (A) (A) (A) (A) (A) (A) (A) (A) (A) (A) (A)
                 (A) (A) (A) (A) (A) (A) (A) (A) (A) (A) (A) (A)
                 (A) (A) (A) (A) (A) (A) (A) (A) (A) (A) (A) (A)
                 (A) (A) (A) (A) (A) (A) (A) (A) (A) (A) (A) (A)
                 (A) (A) (A) (A) (A) (A) (A) (A) (A) (A) (A) (A)
                 (A) (A)
 The electronic state is 1-A.
 Alpha  occ. eigenvalues --  -19.23130 -19.17556 -19.17335 -19.16402 -14.48499
 Alpha  occ. eigenvalues --  -10.35694 -10.28563 -10.25193 -10.24821 -10.21618
 Alpha  occ. eigenvalues --  -10.19298 -10.18659 -10.18505 -10.17716  -1.18275
 Alpha  occ. eigenvalues --   -1.07035  -1.06910  -1.04780  -1.04770  -0.86679
 Alpha  occ. eigenvalues --   -0.81515  -0.75742  -0.74272  -0.70587  -0.68531
 Alpha  occ. eigenvalues --   -0.64017  -0.62665  -0.61311  -0.58591  -0.56256
 Alpha  occ. eigenvalues --   -0.55598  -0.54156  -0.51881  -0.49563  -0.48785
 Alpha  occ. eigenvalues --   -0.47540  -0.45719  -0.44682  -0.43339  -0.42724
 Alpha  occ. eigenvalues --   -0.41204  -0.40039  -0.39310  -0.37356  -0.37035
 Alpha  occ. eigenvalues --   -0.34884  -0.34348  -0.33399  -0.32749  -0.30058
 Alpha  occ. eigenvalues --   -0.24417  -0.20835
 Alpha virt. eigenvalues --   -0.03433   0.00644   0.00743   0.04164   0.07196
 Alpha virt. eigenvalues --    0.08383   0.08656   0.09683   0.11283   0.12661
 Alpha virt. eigenvalues --    0.13875   0.14175   0.15970   0.17358   0.17967
 Alpha virt. eigenvalues --    0.19087   0.20384   0.22341   0.24079   0.24505
 Alpha virt. eigenvalues --    0.26636   0.29359   0.29998   0.34091   0.35007
 Alpha virt. eigenvalues --    0.35809   0.37194   0.38830   0.47256   0.49493
 Alpha virt. eigenvalues --    0.50126   0.51214   0.51715   0.52658   0.53717
 Alpha virt. eigenvalues --    0.56211   0.57107   0.58492   0.59484   0.59786
 Alpha virt. eigenvalues --    0.60550   0.61631   0.61824   0.64176   0.64540
 Alpha virt. eigenvalues --    0.64946   0.66362   0.67623   0.68887   0.69524
 Alpha virt. eigenvalues --    0.72081   0.72551   0.75398   0.77203   0.79481
 Alpha virt. eigenvalues --    0.80278   0.81082   0.81367   0.82961   0.83648
 Alpha virt. eigenvalues --    0.86019   0.86277   0.87983   0.88552   0.89460
 Alpha virt. eigenvalues --    0.89747   0.90543   0.92825   0.93788   0.94495
 Alpha virt. eigenvalues --    0.95160   0.95576   0.98119   0.99594   1.00207
 Alpha virt. eigenvalues --    1.02798   1.03606   1.05506   1.06160   1.09068
 Alpha virt. eigenvalues --    1.12086   1.13088   1.14657   1.16394   1.19618
 Alpha virt. eigenvalues --    1.21236   1.25248   1.26981   1.27359   1.31218
 Alpha virt. eigenvalues --    1.34280   1.36240   1.38808   1.39424   1.42204
 Alpha virt. eigenvalues --    1.44839   1.46673   1.47658   1.49314   1.51939
 Alpha virt. eigenvalues --    1.54637   1.59898   1.62523   1.66935   1.68938
 Alpha virt. eigenvalues --    1.70417   1.71223   1.73177   1.74954   1.76250
 Alpha virt. eigenvalues --    1.77303   1.78608   1.81152   1.81870   1.83197
 Alpha virt. eigenvalues --    1.83917   1.85798   1.86708   1.87295   1.88886
 Alpha virt. eigenvalues --    1.91625   1.94826   1.97404   1.98293   1.98628
 Alpha virt. eigenvalues --    1.99922   2.02288   2.04537   2.08602   2.10927
 Alpha virt. eigenvalues --    2.11881   2.14683   2.16369   2.21197   2.26757
 Alpha virt. eigenvalues --    2.27795   2.28731   2.31083   2.31325   2.33775
 Alpha virt. eigenvalues --    2.35424   2.38033   2.40743   2.42703   2.44658
 Alpha virt. eigenvalues --    2.46312   2.51655   2.54719   2.56887   2.59237
 Alpha virt. eigenvalues --    2.60543   2.62503   2.64135   2.66247   2.69884
 Alpha virt. eigenvalues --    2.71411   2.75792   2.80295   2.83396   2.86513
 Alpha virt. eigenvalues --    2.87963   2.92348   2.95429   2.97910   3.01001
 Alpha virt. eigenvalues --    3.05097   3.22365   3.45880   3.79467   3.88346
 Alpha virt. eigenvalues --    4.01317   4.03457   4.06386   4.13165   4.15705
 Alpha virt. eigenvalues --    4.19412   4.25961   4.34657   4.38288   4.53613
 Alpha virt. eigenvalues --    4.57871   4.87764
          Condensed to atoms (all electrons):
               1          2          3          4          5          6
     1  N    6.917260   0.291004   0.289598   0.135425  -0.021133  -0.049895
     2  H    0.291004   0.239227  -0.007686  -0.013943  -0.000132   0.000828
     3  H    0.289598  -0.007686   0.236054  -0.023044   0.001986   0.000430
     4  C    0.135425  -0.013943  -0.023044   5.444563   0.315132  -0.086507
     5  C   -0.021133  -0.000132   0.001986   0.315132   4.299856   0.300756
     6  O   -0.049895   0.000828   0.000430  -0.086507   0.300756   8.183117
     7  H    0.023655  -0.000849   0.001262  -0.020642  -0.044997   0.205246
     8  O    0.001792  -0.000013  -0.000023  -0.076380   0.584195  -0.072811
     9  H   -0.026575  -0.003750   0.000133   0.363793  -0.018079   0.002533
    10  C   -0.066638   0.004074   0.001696   0.298408  -0.032973  -0.003924
    11  H   -0.002137   0.000069  -0.000480  -0.037021  -0.004813   0.002194
    12  H   -0.004421  -0.000175   0.007542  -0.036537   0.002892  -0.000126
    13  C    0.003273  -0.000059   0.000183  -0.038835   0.000458  -0.000021
    14  C    0.000110  -0.000000  -0.000003  -0.002416  -0.000693  -0.000004
    15  H   -0.000075   0.000006   0.000006  -0.000030   0.000127  -0.000000
    16  C    0.000001  -0.000000   0.000000   0.000206  -0.000038   0.000000
    17  O   -0.000000   0.000000  -0.000000  -0.000000   0.000000  -0.000000
    18  H   -0.000000   0.000000   0.000000  -0.000003   0.000000  -0.000000
    19  C    0.000000  -0.000000   0.000000  -0.000008   0.000001   0.000000
    20  O    0.000000  -0.000000  -0.000000  -0.000000  -0.000000  -0.000000
    21  H   -0.000000   0.000000  -0.000000   0.000000   0.000000   0.000000
    22  C    0.000001  -0.000000   0.000000  -0.000130  -0.000037   0.000000
    23  H   -0.000000   0.000000  -0.000000   0.000002   0.000000  -0.000000
    24  C   -0.000105   0.000001  -0.000010  -0.001009   0.001622   0.000001
    25  H   -0.000019   0.000000  -0.000000   0.000161   0.000205  -0.000027
    26  H    0.257989  -0.007839  -0.004693  -0.020728  -0.010503   0.011513
               7          8          9         10         11         12
     1  N    0.023655   0.001792  -0.026575  -0.066638  -0.002137  -0.004421
     2  H   -0.000849  -0.000013  -0.003750   0.004074   0.000069  -0.000175
     3  H    0.001262  -0.000023   0.000133   0.001696  -0.000480   0.007542
     4  C   -0.020642  -0.076380   0.363793   0.298408  -0.037021  -0.036537
     5  C   -0.044997   0.584195  -0.018079  -0.032973  -0.004813   0.002892
     6  O    0.205246  -0.072811   0.002533  -0.003924   0.002194  -0.000126
     7  H    0.379584   0.005072  -0.000308   0.001682  -0.000999   0.000142
     8  O    0.005072   8.029723   0.001411  -0.002247  -0.000306   0.000029
     9  H   -0.000308   0.001411   0.454158  -0.039718   0.005096  -0.004662
    10  C    0.001682  -0.002247  -0.039718   5.269567   0.366354   0.367768
    11  H   -0.000999  -0.000306   0.005096   0.366354   0.540662  -0.037169
    12  H    0.000142   0.000029  -0.004662   0.367768  -0.037169   0.511084
    13  C    0.000049   0.004427  -0.002912   0.336724  -0.035020  -0.020579
    14  C    0.000000  -0.000384   0.002935  -0.054809   0.003072  -0.002336
    15  H    0.000001   0.000004   0.001795  -0.008230  -0.000006   0.002313
    16  C    0.000000  -0.000076  -0.000022   0.005319  -0.000071  -0.000030
    17  O    0.000000  -0.000000   0.000000  -0.000118   0.000001  -0.000007
    18  H    0.000000  -0.000000   0.000000  -0.000025   0.000000   0.000005
    19  C   -0.000000   0.000036  -0.000003   0.000744  -0.000017   0.000059
    20  O    0.000000   0.000000  -0.000000   0.000000  -0.000000  -0.000000
    21  H    0.000000  -0.000000  -0.000000   0.000000  -0.000000   0.000000
    22  C   -0.000000  -0.000150   0.000009   0.007108   0.000492  -0.000231
    23  H    0.000000  -0.000003   0.000000  -0.000196  -0.000014   0.000003
    24  C    0.000015   0.000723   0.000140  -0.042260  -0.002055  -0.000600
    25  H    0.000004   0.000304  -0.000010  -0.011960   0.006505   0.000187
    26  H    0.029278  -0.000073   0.003892  -0.000880   0.002893  -0.000363
              13         14         15         16         17         18
     1  N    0.003273   0.000110  -0.000075   0.000001  -0.000000  -0.000000
     2  H   -0.000059  -0.000000   0.000006  -0.000000   0.000000   0.000000
     3  H    0.000183  -0.000003   0.000006   0.000000  -0.000000   0.000000
     4  C   -0.038835  -0.002416  -0.000030   0.000206  -0.000000  -0.000003
     5  C    0.000458  -0.000693   0.000127  -0.000038   0.000000   0.000000
     6  O   -0.000021  -0.000004  -0.000000   0.000000  -0.000000  -0.000000
     7  H    0.000049   0.000000   0.000001   0.000000   0.000000   0.000000
     8  O    0.004427  -0.000384   0.000004  -0.000076  -0.000000  -0.000000
     9  H   -0.002912   0.002935   0.001795  -0.000022   0.000000   0.000000
    10  C    0.336724  -0.054809  -0.008230   0.005319  -0.000118  -0.000025
    11  H   -0.035020   0.003072  -0.000006  -0.000071   0.000001   0.000000
    12  H   -0.020579  -0.002336   0.002313  -0.000030  -0.000007   0.000005
    13  C    4.696744   0.445937  -0.038781  -0.000937   0.008240   0.000612
    14  C    0.445937   5.264509   0.348939   0.460118  -0.067097  -0.001452
    15  H   -0.038781   0.348939   0.568707  -0.037748  -0.007366   0.006345
    16  C   -0.000937   0.460118  -0.037748   4.734281   0.257961  -0.023787
    17  O    0.008240  -0.067097  -0.007366   0.257961   8.281782   0.253860
    18  H    0.000612  -0.001452   0.006345  -0.023787   0.253860   0.285029
    19  C   -0.036700  -0.031241   0.003765   0.430913  -0.044732   0.003105
    20  O   -0.000281   0.007736  -0.000064  -0.061071  -0.005326  -0.000080
    21  H   -0.000134   0.001296  -0.000006  -0.009294   0.016356  -0.000563
    22  C   -0.021457  -0.060314   0.000621  -0.035158   0.003072  -0.000081
    23  H    0.004682   0.000036   0.000019   0.007191  -0.000038   0.000004
    24  C    0.568089  -0.045384   0.005435  -0.050108   0.000393  -0.000009
    25  H   -0.040158   0.007247  -0.000195   0.000340   0.000001  -0.000000
    26  H   -0.000135   0.000003  -0.000000   0.000000   0.000000  -0.000000
              19         20         21         22         23         24
     1  N    0.000000   0.000000  -0.000000   0.000001  -0.000000  -0.000105
     2  H   -0.000000  -0.000000   0.000000  -0.000000   0.000000   0.000001
     3  H    0.000000  -0.000000  -0.000000   0.000000  -0.000000  -0.000010
     4  C   -0.000008  -0.000000   0.000000  -0.000130   0.000002  -0.001009
     5  C    0.000001  -0.000000   0.000000  -0.000037   0.000000   0.001622
     6  O    0.000000  -0.000000   0.000000   0.000000  -0.000000   0.000001
     7  H   -0.000000   0.000000   0.000000  -0.000000   0.000000   0.000015
     8  O    0.000036   0.000000  -0.000000  -0.000150  -0.000003   0.000723
     9  H   -0.000003  -0.000000  -0.000000   0.000009   0.000000   0.000140
    10  C    0.000744   0.000000   0.000000   0.007108  -0.000196  -0.042260
    11  H   -0.000017  -0.000000  -0.000000   0.000492  -0.000014  -0.002055
    12  H    0.000059  -0.000000   0.000000  -0.000231   0.000003  -0.000600
    13  C   -0.036700  -0.000281  -0.000134  -0.021457   0.004682   0.568089
    14  C   -0.031241   0.007736   0.001296  -0.060314   0.000036  -0.045384
    15  H    0.003765  -0.000064  -0.000006   0.000621   0.000019   0.005435
    16  C    0.430913  -0.061071  -0.009294  -0.035158   0.007191  -0.050108
    17  O   -0.044732  -0.005326   0.016356   0.003072  -0.000038   0.000393
    18  H    0.003105  -0.000080  -0.000563  -0.000081   0.000004  -0.000009
    19  C    4.568110   0.284428  -0.033537   0.573352  -0.043763  -0.019202
    20  O    0.284428   8.262448   0.251594  -0.057542  -0.002018   0.003709
    21  H   -0.033537   0.251594   0.311193   0.004254  -0.000238  -0.000086
    22  C    0.573352  -0.057542   0.004254   4.994333   0.350945   0.491656
    23  H   -0.043763  -0.002018  -0.000238   0.350945   0.576279  -0.038297
    24  C   -0.019202   0.003709  -0.000086   0.491656  -0.038297   4.994706
    25  H    0.004413  -0.000042   0.000004  -0.040963  -0.005857   0.358289
    26  H   -0.000000   0.000000  -0.000000   0.000000   0.000000  -0.000000
              25         26
     1  N   -0.000019   0.257989
     2  H    0.000000  -0.007839
     3  H   -0.000000  -0.004693
     4  C    0.000161  -0.020728
     5  C    0.000205  -0.010503
     6  O   -0.000027   0.011513
     7  H    0.000004   0.029278
     8  O    0.000304  -0.000073
     9  H   -0.000010   0.003892
    10  C   -0.011960  -0.000880
    11  H    0.006505   0.002893
    12  H    0.000187  -0.000363
    13  C   -0.040158  -0.000135
    14  C    0.007247   0.000003
    15  H   -0.000195  -0.000000
    16  C    0.000340   0.000000
    17  O    0.000001   0.000000
    18  H   -0.000000  -0.000000
    19  C    0.004413  -0.000000
    20  O   -0.000042   0.000000
    21  H    0.000004  -0.000000
    22  C   -0.040963   0.000000
    23  H   -0.005857   0.000000
    24  C    0.358289  -0.000000
    25  H    0.575475  -0.000000
    26  H   -0.000000   0.263595
 Mulliken charges:
               1
     1  N   -0.749111
     2  H    0.499236
     3  H    0.497049
     4  C   -0.200456
     5  C    0.626167
     6  O   -0.493304
     7  H    0.421804
     8  O   -0.475249
     9  H    0.260142
    10  C   -0.395466
    11  H    0.192771
    12  H    0.215211
    13  C    0.166593
    14  C   -0.275806
    15  H    0.154419
    16  C    0.322010
    17  O   -0.696982
    18  H    0.477039
    19  C    0.340279
    20  O   -0.683491
    21  H    0.459161
    22  C   -0.209780
    23  H    0.151264
    24  C   -0.225653
    25  H    0.146097
    26  H    0.476054
 Sum of Mulliken charges =   1.00000
 Mulliken charges with hydrogens summed into heavy atoms:
               1
     1  N    0.723229
     4  C    0.059686
     5  C    0.626167
     6  O   -0.071500
     8  O   -0.475249
    10  C    0.012516
    13  C    0.166593
    14  C   -0.121387
    16  C    0.322010
    17  O   -0.219943
    19  C    0.340279
    20  O   -0.224330
    22  C   -0.058516
    24  C   -0.079556
 Electronic spatial extent (au):  <R**2>=           3346.3530
 Charge=              1.0000 electrons
 Dipole moment (field-independent basis, Debye):
    X=            -17.6549    Y=             12.3720    Z=              4.1458  Tot=             21.9533
 Quadrupole moment (field-independent basis, Debye-Ang):
   XX=            -16.3161   YY=            -65.0825   ZZ=            -74.3437
   XY=            -19.8058   XZ=            -19.2626   YZ=             -5.6844
 Traceless Quadrupole moment (field-independent basis, Debye-Ang):
   XX=             35.5980   YY=            -13.1684   ZZ=            -22.4296
   XY=            -19.8058   XZ=            -19.2626   YZ=             -5.6844
 Octapole moment (field-independent basis, Debye-Ang**2):
  XXX=           -261.3211  YYY=             53.0100  ZZZ=             -0.4363  XYY=            -22.6088
  XXY=            119.0086  XXZ=             26.8615  XZZ=            -18.6121  YZZ=             17.3121
  YYZ=              2.7208  XYZ=            -14.7849
 Hexadecapole moment (field-independent basis, Debye-Ang**3):
 XXXX=          -2112.3049 YYYY=           -498.7460 ZZZZ=           -348.3830 XXXY=           -228.0916
 XXXZ=           -252.4021 YYYX=            -24.9935 YYYZ=            -36.3758 ZZZX=            -54.4372
 ZZZY=              2.3793 XXYY=           -525.0257 XXZZ=           -501.8168 YYZZ=           -134.5469
 XXYZ=             -3.3159 YYXZ=            -49.1434 ZZXY=            -15.0523
 N-N= 9.124546505280D+02 E-N=-3.456949187862D+03  KE= 7.000537797036D+02
 No NMR shielding tensors so no spin-rotation constants.
 Leave Link  601 at Sun Jul 18 13:47:26 2021, MaxMem=   104857600 cpu:               0.6 elap:               0.2
 (Enter /prod/apps/gaussian/g16b1/l701.exe)
 ... and contract with generalized density number  0.
 Compute integral first derivatives.
 D1PCM: PCM CHGder 1st derivatives, ID1Alg=3 FixD1E=F DoIter=F DoCFld=F I1PDM=0.
 GePol: Maximum number of non-zero 1st derivatives   =     265
 Leave Link  701 at Sun Jul 18 13:47:27 2021, MaxMem=   104857600 cpu:               6.2 elap:               1.6
 (Enter /prod/apps/gaussian/g16b1/l702.exe)
 L702 exits ... SP integral derivatives will be done elsewhere.
 Leave Link  702 at Sun Jul 18 13:47:27 2021, MaxMem=   104857600 cpu:               0.1 elap:               0.0
 (Enter /prod/apps/gaussian/g16b1/l703.exe)
 Integral derivatives from FoFJK, PRISM(SPDF).
 Compute integral first derivatives, UseDBF=F ICtDFT=           0.
 Calling FoFJK, ICntrl=      2127 FMM=F ISym2X=0 I1Cent= 0 IOpClX= 0 NMat=1 NMatS=1 NMatT=0.
 FoFJK:  IHMeth= 1 ICntrl=    2127 DoSepK=F KAlg= 0 I1Cent=           0 FoldK=F
 IRaf=         0 NMat=       1 IRICut=       1 DoRegI=T DoRafI=F ISym2E= 0 IDoP0=0 IntGTp=1.
 FoFCou: FMM=F IPFlag=           0 FMFlag=      100000 FMFlg1=         800
         NFxFlg=           0 DoJE=F BraDBF=F KetDBF=F FulRan=T
         wScrn=  0.000000 ICntrl=      2127 IOpCl=  0 I1Cent=           0 NGrid=           0
         NMat0=    1 NMatS0=      1 NMatT0=    0 NMatD0=    1 NMtDS0=    0 NMtDT0=    0
 Symmetry not used in FoFCou.
 Leave Link  703 at Sun Jul 18 13:47:36 2021, MaxMem=   104857600 cpu:              34.5 elap:               8.6
 (Enter /prod/apps/gaussian/g16b1/l716.exe)
 Dipole        =-6.94595541D+00 4.86751183D+00 1.63109242D+00
 ***** Axes restored to original set *****
 -------------------------------------------------------------------
 Center     Atomic                   Forces (Hartrees/Bohr)
 Number     Number              X              Y              Z
 -------------------------------------------------------------------
      1        7          -0.006381928    0.010156889   -0.033101483
      2        1           0.027879696    0.003441463   -0.020384653
      3        1          -0.001278028   -0.033153171   -0.004558068
      4        6          -0.055125298    0.014881354   -0.025498581
      5        6          -0.077385217   -0.030295339    0.006694755
      6        8           0.035101479    0.010996991    0.011654689
      7        1           0.044580866    0.048861884    0.055586740
      8        8           0.008778958    0.017098982   -0.019621133
      9        1           0.012800273    0.002562072    0.001016607
     10        6          -0.019860573    0.014162757    0.027130183
     11        1           0.001829860    0.002172976    0.004572643
     12        1           0.006256291    0.005682469   -0.011285316
     13        6           0.025879023   -0.034435338    0.021938921
     14        6           0.024761975   -0.008108610   -0.012935058
     15        1           0.004256123    0.004416827    0.000585292
     16        6          -0.000388799   -0.000234052   -0.003130546
     17        8          -0.057198141    0.014593272   -0.003790302
     18        1           0.009078483   -0.000527161    0.011699222
     19        6          -0.013325753    0.013495524   -0.071073351
     20        8          -0.005570807   -0.002820747    0.007657432
     21        1          -0.000869920    0.000953091    0.000585577
     22        6           0.014608167   -0.008739171    0.040835700
     23        1          -0.002124734    0.000411971   -0.002253949
     24        6          -0.000002217    0.014573464    0.008596432
     25        1          -0.003625464   -0.001926624   -0.001063353
     26        1           0.027325684   -0.058221771    0.010141601
 -------------------------------------------------------------------
 Cartesian Forces:  Max     0.077385217 RMS     0.023975613
 Leave Link  716 at Sun Jul 18 13:47:36 2021, MaxMem=   104857600 cpu:               0.1 elap:               0.1
 (Enter /prod/apps/gaussian/g16b1/l103.exe)

 GradGradGradGradGradGradGradGradGradGradGradGradGradGradGradGradGradGrad
 Berny optimization.
 FormGI is forming the generalized inverse of G from B-inverse, IUseBI=4.
 Internal  Forces:  Max     0.201751949 RMS     0.033692092
 Search for a local minimum.
 Step number   1 out of a maximum of  138
 All quantities printed in internal units (Hartrees-Bohrs-Radians)
 RMS Force = .33692D-01 SwitMx=.10000D-02 MixMth= 1
 Mixed Optimization -- RFO/linear search
 Second derivative matrix not updated -- first step.
 ITU=  0
     Eigenvalues ---    0.00230   0.00234   0.00461   0.00901   0.01799
     Eigenvalues ---    0.01846   0.01983   0.02163   0.02189   0.02208
     Eigenvalues ---    0.02260   0.02380   0.02386   0.02502   0.02638
     Eigenvalues ---    0.02741   0.03157   0.03557   0.04368   0.04759
     Eigenvalues ---    0.05112   0.05708   0.06151   0.06155   0.09876
     Eigenvalues ---    0.13155   0.15193   0.15723   0.15875   0.15996
     Eigenvalues ---    0.16000   0.16000   0.16000   0.16000   0.16000
     Eigenvalues ---    0.16000   0.18237   0.21824   0.22322   0.23083
     Eigenvalues ---    0.23195   0.23803   0.24460   0.24497   0.24844
     Eigenvalues ---    0.24994   0.25000   0.28501   0.30074   0.34453
     Eigenvalues ---    0.34595   0.34595   0.35094   0.35159   0.35192
     Eigenvalues ---    0.36989   0.37838   0.43160   0.46850   0.47667
     Eigenvalues ---    0.47681   0.47749   0.49846   0.52457   0.52476
     Eigenvalues ---    0.52482   0.52728   0.54133   0.55386   0.55452
     Eigenvalues ---    0.70271   0.99874
 RFO step:  Lambda=-2.83139946D-01 EMin= 2.30000000D-03
 Linear search not attempted -- first point.
 Maximum step size (   0.300) exceeded in Quadratic search.
    -- Step size scaled by   0.441
 Iteration  1 RMS(Cart)=  0.10026101 RMS(Int)=  0.00891418
 Iteration  2 RMS(Cart)=  0.01623923 RMS(Int)=  0.00028808
 Iteration  3 RMS(Cart)=  0.00030574 RMS(Int)=  0.00024271
 Iteration  4 RMS(Cart)=  0.00000019 RMS(Int)=  0.00024271
 ITry= 1 IFail=0 DXMaxC= 5.96D-01 DCOld= 1.00D+10 DXMaxT= 3.00D-01 DXLimC= 3.00D+00 Rises=F
 Variable       Old X    -DE/DX   Delta X   Delta X   Delta X     New X
                                 (Linear)    (Quad)   (Total)
    R1        1.88907   0.03332   0.00000   0.01931   0.01931   1.90838
    R2        1.88996   0.03239   0.00000   0.01880   0.01880   1.90875
    R3        2.75863   0.08471   0.00000   0.05720   0.05720   2.81582
    R4        1.88981   0.01872   0.00000   0.01086   0.01086   1.90067
    R5        3.00506   0.07128   0.00000   0.05952   0.05952   3.06458
    R6        2.06572  -0.00298   0.00000  -0.00209  -0.00209   2.06362
    R7        2.91055   0.00818   0.00000   0.00635   0.00635   2.91690
    R8        2.43632   0.08798   0.00000   0.03935   0.03935   2.47567
    R9        2.28689  -0.00266   0.00000  -0.00092  -0.00092   2.28598
   R10        1.84141  -0.06233   0.00000  -0.03402  -0.03402   1.80739
   R11        2.06337   0.00361   0.00000   0.00253   0.00253   2.06590
   R12        2.06337   0.00164   0.00000   0.00115   0.00115   2.06452
   R13        2.87815   0.00046   0.00000   0.00035   0.00035   2.87850
   R14        2.57873   0.04219   0.00000   0.02359   0.02359   2.60232
   R15        2.61368   0.01105   0.00000   0.00619   0.00619   2.61987
   R16        2.05365   0.00054   0.00000   0.00038   0.00038   2.05403
   R17        2.54335   0.05431   0.00000   0.02895   0.02894   2.57229
   R18        2.54733   0.01358   0.00000   0.00715   0.00715   2.55447
   R19        2.72729  -0.02036   0.00000  -0.01319  -0.01320   2.71409
   R20        1.83909  -0.00388   0.00000  -0.00211  -0.00211   1.83698
   R21        2.57465   0.00517   0.00000   0.00282   0.00282   2.57747
   R22        2.54140   0.04089   0.00000   0.02098   0.02098   2.56237
   R23        1.84146  -0.00023   0.00000  -0.00013  -0.00013   1.84134
   R24        2.05523  -0.00094   0.00000  -0.00065  -0.00065   2.05458
   R25        2.65207   0.00384   0.00000   0.00175   0.00176   2.65383
   R26        2.05418  -0.00209   0.00000  -0.00145  -0.00145   2.05272
    A1        1.91059  -0.00750   0.00000  -0.00954  -0.00954   1.90106
    A2        1.91086   0.00323   0.00000   0.00385   0.00336   1.91422
    A3        1.91085  -0.02250   0.00000  -0.01904  -0.01990   1.89095
    A4        1.91070  -0.00648   0.00000  -0.00813  -0.00810   1.90260
    A5        1.91060  -0.03795   0.00000  -0.03903  -0.03899   1.87161
    A6        1.91019   0.07121   0.00000   0.07190   0.07147   1.98166
    A7        1.93705   0.10040   0.00000   0.10454   0.10504   2.04209
    A8        1.94159  -0.03549   0.00000  -0.03858  -0.03824   1.90335
    A9        1.80264  -0.02877   0.00000  -0.02222  -0.02165   1.78099
   A10        1.95623  -0.03019   0.00000  -0.03307  -0.03288   1.92335
   A11        1.99645  -0.04115   0.00000  -0.03999  -0.04022   1.95623
   A12        1.82184   0.02892   0.00000   0.02308   0.02196   1.84381
   A13        1.85224   0.20175   0.00000   0.17088   0.17006   2.02230
   A14        2.14829  -0.08902   0.00000  -0.06997  -0.07081   2.07747
   A15        2.17523  -0.08589   0.00000  -0.06634  -0.06720   2.10802
   A16        1.58509   0.10412   0.00000   0.10360   0.10360   1.68869
   A17        1.90280  -0.00083   0.00000  -0.00043  -0.00044   1.90236
   A18        1.97909  -0.01224   0.00000  -0.01342  -0.01342   1.96567
   A19        2.00238   0.00617   0.00000   0.00507   0.00507   2.00744
   A20        1.79244   0.00588   0.00000   0.00672   0.00671   1.79915
   A21        1.87502  -0.00115   0.00000  -0.00006  -0.00006   1.87496
   A22        1.89766   0.00259   0.00000   0.00288   0.00288   1.90055
   A23        2.09621   0.00255   0.00000   0.00220   0.00218   2.09839
   A24        2.05823   0.00642   0.00000   0.00560   0.00560   2.06383
   A25        2.08375  -0.00738   0.00000  -0.00548  -0.00549   2.07826
   A26        2.10519  -0.00205   0.00000  -0.00257  -0.00257   2.10261
   A27        2.11562  -0.00059   0.00000   0.00102   0.00102   2.11664
   A28        2.04573   0.00333   0.00000   0.00261   0.00260   2.04833
   A29        1.99611   0.05196   0.00000   0.04275   0.04276   2.03887
   A30        2.09759  -0.00609   0.00000  -0.00413  -0.00413   2.09346
   A31        2.18403  -0.04570   0.00000  -0.03831  -0.03832   2.14572
   A32        2.07662  -0.02628   0.00000  -0.02615  -0.02615   2.05047
   A33        2.05285   0.00958   0.00000   0.00825   0.00825   2.06110
   A34        2.05775   0.00593   0.00000   0.00431   0.00431   2.06206
   A35        2.17236  -0.01550   0.00000  -0.01254  -0.01253   2.15982
   A36        1.88374   0.00232   0.00000   0.00231   0.00231   1.88605
   A37        2.09818  -0.00519   0.00000  -0.00416  -0.00416   2.09402
   A38        2.11078   0.00443   0.00000   0.00236   0.00237   2.11315
   A39        2.07398   0.00075   0.00000   0.00179   0.00179   2.07576
   A40        2.08790   0.00414   0.00000   0.00259   0.00260   2.09049
   A41        2.08369   0.00041   0.00000   0.00129   0.00129   2.08498
   A42        2.10453  -0.00431   0.00000  -0.00351  -0.00352   2.10102
    D1       -1.59291  -0.01098   0.00000  -0.00694  -0.00696  -1.59987
    D2        0.59802  -0.00160   0.00000  -0.00053  -0.00097   0.59705
    D3        2.54314   0.00248   0.00000  -0.00106  -0.00128   2.54187
    D4        2.59575   0.00020   0.00000   0.00737   0.00757   2.60331
    D5       -1.49651   0.00959   0.00000   0.01379   0.01356  -1.48295
    D6        0.44861   0.01367   0.00000   0.01325   0.01326   0.46187
    D7        0.50162   0.00705   0.00000   0.01613   0.01657   0.51819
    D8        2.69255   0.01644   0.00000   0.02255   0.02256   2.71511
    D9       -1.64551   0.02051   0.00000   0.02201   0.02226  -1.62325
   D10       -0.20137   0.02255   0.00000   0.02803   0.02844  -0.17294
   D11       -2.87936  -0.01816   0.00000  -0.03169  -0.03142  -2.91078
   D12       -2.38409   0.01520   0.00000   0.02376   0.02420  -2.35989
   D13        1.22111  -0.02550   0.00000  -0.03596  -0.03566   1.18545
   D14        1.82959   0.02883   0.00000   0.04631   0.04567   1.87526
   D15       -0.84840  -0.01188   0.00000  -0.01340  -0.01418  -0.86258
   D16        1.05246   0.03956   0.00000   0.04382   0.04390   1.09635
   D17       -0.93260   0.03980   0.00000   0.04345   0.04352  -0.88908
   D18       -3.12751   0.04160   0.00000   0.04683   0.04691  -3.08060
   D19       -1.05474  -0.04187   0.00000  -0.04768  -0.04776  -1.10250
   D20       -3.03979  -0.04163   0.00000  -0.04805  -0.04814  -3.08793
   D21        1.04848  -0.03983   0.00000  -0.04467  -0.04475   1.00373
   D22        3.08433   0.00008   0.00000   0.00129   0.00130   3.08564
   D23        1.09928   0.00032   0.00000   0.00092   0.00093   1.10021
   D24       -1.09563   0.00212   0.00000   0.00430   0.00431  -1.09132
   D25        0.13621  -0.00324   0.00000  -0.00550  -0.00560   0.13061
   D26        2.80506   0.03907   0.00000   0.05570   0.05581   2.86087
   D27        1.30597  -0.00585   0.00000  -0.00816  -0.00818   1.29779
   D28       -2.15515  -0.00170   0.00000  -0.00116  -0.00115  -2.15630
   D29       -2.85873  -0.00375   0.00000  -0.00547  -0.00549  -2.86422
   D30       -0.03667   0.00040   0.00000   0.00153   0.00155  -0.03512
   D31       -0.93064   0.00366   0.00000   0.00357   0.00356  -0.92708
[...]
     10          6           0       -1.291095    0.770112    1.107469
     11          1           0       -1.697719    0.165982    1.923624
     12          1           0       -1.276431    1.806875    1.459417
     13          6           0        0.111167    0.308173    0.770197
     14          6           0        1.014173    1.186183    0.147992
     15          1           0        0.717285    2.207753   -0.072505
     16          6           0        2.297514    0.763464   -0.181709
     17          8           0        3.248916    1.540836   -0.782474
     18          1           0        2.903089    2.437392   -0.941883
     19          6           0        2.703475   -0.554748    0.108538
     20          8           0        3.960639   -0.975058   -0.207789
     21          1           0        4.431861   -0.232718   -0.627658
     22          6           0        1.813591   -1.424362    0.729448
     23          1           0        2.141216   -2.433536    0.954989
     24          6           0        0.524477   -0.995485    1.059139
     25          1           0       -0.156673   -1.683600    1.548362
     26          1           0       -4.035548    0.629263    1.033827
 ---------------------------------------------------------------------
 Rotational constants (GHZ):           1.3266367           0.3670184           0.3392977
 Leave Link  202 at Sun Jul 18 14:16:43 2021, MaxMem=   262144000 cpu:               0.1 elap:               0.0
 (Enter /prod/apps/gaussian/g16b1/l301.exe)
 Standard basis: Aug-CC-pVDZ (5D, 7F)
 Ernie: Thresh=  0.10000D-02 Tol=  0.10000D-05 Strict=F.
 Ernie:  28 primitive shells out of 434 were deleted.
 There are   458 symmetry adapted cartesian basis functions of A   symmetry.
 There are   430 symmetry adapted basis functions of A   symmetry.
   430 basis functions,   734 primitive gaussians,   458 cartesian basis functions
    52 alpha electrons       52 beta electrons
       nuclear repulsion energy       904.6749635645 Hartrees.
 IExCor=    0 DFT=F Ex=HF Corr=None ExCW=0 ScaHFX=  1.000000
 ScaDFX=  1.000000  1.000000  1.000000  1.000000 ScalE2=  1.000000  1.000000
 IRadAn=      5 IRanWt=     -1 IRanGd=            0 ICorTp=0 IEmpDi=  4
 NAtoms=   26 NActive=   26 NUniq=   26 SFac= 1.00D+00 NAtFMM=   60 NAOKFM=F Big=F
 Integral buffers will be    131072 words long.
 Raffenetti 1 integral format.
 Two-electron integral symmetry is turned on.
 Leave Link  301 at Sun Jul 18 14:16:43 2021, MaxMem=   262144000 cpu:               0.3 elap:               0.1
 (Enter /prod/apps/gaussian/g16b1/l302.exe)
 NPDir=0 NMtPBC=     1 NCelOv=     1 NCel=       1 NClECP=     1 NCelD=      1
         NCelK=      1 NCelE2=     1 NClLst=     1 CellRange=     0.0.
 One-electron integrals computed using PRISM.
 One-electron integral symmetry used in STVInt
 NBasis=   430 RedAO= T EigKep=  1.73D-06  NBF=   430
 NBsUse=   430 1.00D-06 EigRej= -1.00D+00 NBFU=   430
 Leave Link  302 at Sun Jul 18 14:16:43 2021, MaxMem=   262144000 cpu:               1.2 elap:               0.3
 (Enter /prod/apps/gaussian/g16b1/l303.exe)
 DipDrv:  MaxL=1.
 Leave Link  303 at Sun Jul 18 14:16:43 2021, MaxMem=   262144000 cpu:               0.3 elap:               0.1
 (Enter /prod/apps/gaussian/g16b1/l401.exe)
 ExpMin= 2.97D-02 ExpMax= 1.17D+04 ExpMxC= 4.01D+02 IAcc=3 IRadAn=         5 AccDes= 0.00D+00
 Harris functional with IExCor=  205 and IRadAn=       5 diagonalized for initial guess.
 HarFok:  IExCor=  205 AccDes= 0.00D+00 IRadAn=         5 IDoV= 1 UseB2=F ITyADJ=14
 ICtDFT=  3500011 ScaDFX=  1.000000  1.000000  1.000000  1.000000
 FoFCou: FMM=F IPFlag=           0 FMFlag=      100000 FMFlg1=           0
         NFxFlg=           0 DoJE=T BraDBF=F KetDBF=T FulRan=T
         wScrn=  0.000000 ICntrl=       500 IOpCl=  0 I1Cent=   200000004 NGrid=           0
         NMat0=    1 NMatS0=      1 NMatT0=    0 NMatD0=    1 NMtDS0=    0 NMtDT0=    0
 Petite list used in FoFCou.
 Harris En= -702.290137683124    
 JPrj=0 DoOrth=F DoCkMO=F.
 Leave Link  401 at Sun Jul 18 14:16:45 2021, MaxMem=   262144000 cpu:               8.4 elap:               2.1
 (Enter /prod/apps/gaussian/g16b1/l502.exe)
 Integral symmetry usage will be decided dynamically.
 Closed shell SCF:
 Using DIIS extrapolation, IDIIS=  1040.
 NGot=   262144000 LenX=   261717388 LenY=   261507166
 Requested convergence on RMS density matrix=1.00D-08 within 128 cycles.
 Requested convergence on MAX density matrix=1.00D-06.
 Requested convergence on             energy=1.00D-06.
 No special actions if energy rises.
 Fock matrices will be formed incrementally for  20 cycles.

 Cycle   1  Pass 1  IDiag  1:
 FoFJK:  IHMeth= 1 ICntrl=       0 DoSepK=F KAlg= 0 I1Cent=           0 FoldK=F
 IRaf= 950000000 NMat=       1 IRICut=       1 DoRegI=T DoRafI=F ISym2E= 0 IDoP0=0 IntGTp=1.
 FoFCou: FMM=F IPFlag=           0 FMFlag=      100000 FMFlg1=           0
         NFxFlg=           0 DoJE=F BraDBF=F KetDBF=F FulRan=T
         wScrn=  0.000000 ICntrl=         0 IOpCl=  0 I1Cent=           0 NGrid=           0
         NMat0=    1 NMatS0=      1 NMatT0=    0 NMatD0=    1 NMtDS0=    0 NMtDT0=    0
 Symmetry not used in FoFCou.
 E= -701.078866032286    
 DIIS: error= 1.52D-02 at cycle   1 NSaved=   1.
 NSaved= 1 IEnMin= 1 EnMin= -701.078866032286     IErMin= 1 ErrMin= 1.52D-02
 ErrMax= 1.52D-02  0.00D+00 EMaxC= 1.00D-01 BMatC= 6.78D-01 BMatP= 6.78D-01
 IDIUse=3 WtCom= 8.48D-01 WtEn= 1.52D-01
 Coeff-Com:  0.100D+01
 Coeff-En:   0.100D+01
 Coeff:      0.100D+01
 Gap=     0.448 Goal=   None    Shift=    0.000
 GapD=    0.448 DampG=2.000 DampE=0.500 DampFc=1.0000 IDamp=-1.
 RMSDP=4.96D-02 MaxDP=3.96D+00              OVMax= 1.52D-01

 Cycle   2  Pass 1  IDiag  1:
 RMSU=  1.82D-02    CP:  5.32D-01
 E= -701.463515166980     Delta-E=       -0.384649134695 Rises=F Damp=F
 DIIS: error= 7.87D-03 at cycle   2 NSaved=   2.
 NSaved= 2 IEnMin= 2 EnMin= -701.463515166980     IErMin= 2 ErrMin= 7.87D-03
 ErrMax= 7.87D-03  0.00D+00 EMaxC= 1.00D-01 BMatC= 1.13D-01 BMatP= 6.78D-01
 IDIUse=3 WtCom= 9.21D-01 WtEn= 7.87D-02
 Coeff-Com:  0.233D+00 0.767D+00
 Coeff-En:   0.000D+00 0.100D+01
 Coeff:      0.215D+00 0.785D+00
 Gap=     0.303 Goal=   None    Shift=    0.000
 RMSDP=4.50D-03 MaxDP=2.64D-01 DE=-3.85D-01 OVMax= 6.27D-02

 Cycle   3  Pass 1  IDiag  1:
 RMSU=  3.93D-03    CP:  5.22D-01  8.93D-01
 E= -701.549593339765     Delta-E=       -0.086078172784 Rises=F Damp=F
 DIIS: error= 3.51D-03 at cycle   3 NSaved=   3.
 NSaved= 3 IEnMin= 3 EnMin= -701.549593339765     IErMin= 3 ErrMin= 3.51D-03
 ErrMax= 3.51D-03  0.00D+00 EMaxC= 1.00D-01 BMatC= 1.29D-02 BMatP= 1.13D-01
 IDIUse=3 WtCom= 9.65D-01 WtEn= 3.51D-02
 Coeff-Com: -0.149D-01 0.217D+00 0.798D+00
 Coeff-En:   0.000D+00 0.000D+00 0.100D+01
 Coeff:     -0.144D-01 0.210D+00 0.805D+00
 Gap=     0.294 Goal=   None    Shift=    0.000
 RMSDP=1.26D-03 MaxDP=9.46D-02 DE=-8.61D-02 OVMax= 3.65D-02

 Cycle   4  Pass 1  IDiag  1:
 RMSU=  7.49D-04    CP:  5.13D-01  9.15D-01  9.19D-01
 E= -701.559680865185     Delta-E=       -0.010087525420 Rises=F Damp=F
 DIIS: error= 1.00D-03 at cycle   4 NSaved=   4.
 NSaved= 4 IEnMin= 4 EnMin= -701.559680865185     IErMin= 4 ErrMin= 1.00D-03
 ErrMax= 1.00D-03  0.00D+00 EMaxC= 1.00D-01 BMatC= 9.24D-04 BMatP= 1.29D-02
 IDIUse=3 WtCom= 9.90D-01 WtEn= 1.00D-02
 Coeff-Com: -0.162D-01 0.245D-01 0.248D+00 0.743D+00
 Coeff-En:   0.000D+00 0.000D+00 0.000D+00 0.100D+01
 Coeff:     -0.160D-01 0.242D-01 0.246D+00 0.746D+00
 Gap=     0.289 Goal=   None    Shift=    0.000
 RMSDP=3.94D-04 MaxDP=3.63D-02 DE=-1.01D-02 OVMax= 6.28D-03

 Cycle   5  Pass 1  IDiag  1:
 RMSU=  2.79D-04    CP:  5.10D-01  9.19D-01  9.02D-01  9.84D-01
 E= -701.560573259217     Delta-E=       -0.000892394032 Rises=F Damp=F
 DIIS: error= 1.88D-04 at cycle   5 NSaved=   5.
 NSaved= 5 IEnMin= 5 EnMin= -701.560573259217     IErMin= 5 ErrMin= 1.88D-04
 ErrMax= 1.88D-04  0.00D+00 EMaxC= 1.00D-01 BMatC= 5.17D-05 BMatP= 9.24D-04
 IDIUse=3 WtCom= 9.98D-01 WtEn= 1.88D-03
 Coeff-Com:  0.169D-02-0.189D-01-0.772D-01-0.260D-01 0.112D+01
 Coeff-En:   0.000D+00 0.000D+00 0.000D+00 0.000D+00 0.100D+01
 Coeff:      0.169D-02-0.189D-01-0.770D-01-0.259D-01 0.112D+01
 Gap=     0.290 Goal=   None    Shift=    0.000
 RMSDP=1.39D-04 MaxDP=1.08D-02 DE=-8.92D-04 OVMax= 5.42D-03

 Cycle   6  Pass 1  IDiag  1:
 RMSU=  8.93D-05    CP:  5.10D-01  9.17D-01  9.15D-01  1.04D+00  1.19D+00
 E= -701.560701446845     Delta-E=       -0.000128187628 Rises=F Damp=F
 DIIS: error= 8.65D-05 at cycle   6 NSaved=   6.
 NSaved= 6 IEnMin= 6 EnMin= -701.560701446845     IErMin= 6 ErrMin= 8.65D-05
 ErrMax= 8.65D-05  0.00D+00 EMaxC= 1.00D-01 BMatC= 1.23D-05 BMatP= 5.17D-05
 IDIUse=1 WtCom= 1.00D+00 WtEn= 0.00D+00
 Coeff-Com:  0.212D-02-0.824D-02-0.447D-01-0.984D-01 0.291D+00 0.858D+00
 Coeff:      0.212D-02-0.824D-02-0.447D-01-0.984D-01 0.291D+00 0.858D+00
 Gap=     0.291 Goal=   None    Shift=    0.000
 RMSDP=4.54D-05 MaxDP=3.32D-03 DE=-1.28D-04 OVMax= 1.43D-03

 Cycle   7  Pass 1  IDiag  1:
 RMSU=  3.07D-05    CP:  5.10D-01  9.17D-01  9.15D-01  1.07D+00  1.24D+00
                    CP:  1.21D+00
 E= -701.560723678289     Delta-E=       -0.000022231444 Rises=F Damp=F
 DIIS: error= 3.46D-05 at cycle   7 NSaved=   7.
 NSaved= 7 IEnMin= 7 EnMin= -701.560723678289     IErMin= 7 ErrMin= 3.46D-05
 ErrMax= 3.46D-05  0.00D+00 EMaxC= 1.00D-01 BMatC= 1.77D-06 BMatP= 1.23D-05
 IDIUse=1 WtCom= 1.00D+00 WtEn= 0.00D+00
 Coeff-Com: -0.108D-03 0.219D-02 0.123D-01-0.885D-02-0.150D+00 0.340D-02
 Coeff-Com:  0.114D+01
 Coeff:     -0.108D-03 0.219D-02 0.123D-01-0.885D-02-0.150D+00 0.340D-02
 Coeff:      0.114D+01
 Gap=     0.291 Goal=   None    Shift=    0.000
 RMSDP=2.79D-05 MaxDP=1.49D-03 DE=-2.22D-05 OVMax= 1.23D-03

 Cycle   8  Pass 1  IDiag  1:
 RMSU=  1.71D-05    CP:  5.10D-01  9.17D-01  9.16D-01  1.06D+00  1.29D+00
                    CP:  1.34D+00  1.24D+00
 E= -701.560729301474     Delta-E=       -0.000005623184 Rises=F Damp=F
 DIIS: error= 2.14D-05 at cycle   8 NSaved=   8.
 NSaved= 8 IEnMin= 8 EnMin= -701.560729301474     IErMin= 8 ErrMin= 2.14D-05
 ErrMax= 2.14D-05  0.00D+00 EMaxC= 1.00D-01 BMatC= 3.34D-07 BMatP= 1.77D-06
 IDIUse=1 WtCom= 1.00D+00 WtEn= 0.00D+00
 Coeff-Com: -0.346D-03 0.136D-02 0.875D-02 0.127D-01-0.426D-01-0.163D+00
 Coeff-Com:  0.510D-01 0.113D+01
 Coeff:     -0.346D-03 0.136D-02 0.875D-02 0.127D-01-0.426D-01-0.163D+00
 Coeff:      0.510D-01 0.113D+01
 Gap=     0.291 Goal=   None    Shift=    0.000
 RMSDP=1.40D-05 MaxDP=5.90D-04 DE=-5.62D-06 OVMax= 4.97D-04

 Cycle   9  Pass 1  IDiag  1:
 RMSU=  8.65D-06    CP:  5.10D-01  9.17D-01  9.16D-01  1.06D+00  1.29D+00
                    CP:  1.42D+00  1.44D+00  1.22D+00
 E= -701.560730412112     Delta-E=       -0.000001110638 Rises=F Damp=F
 DIIS: error= 5.97D-06 at cycle   9 NSaved=   9.
 NSaved= 9 IEnMin= 9 EnMin= -701.560730412112     IErMin= 9 ErrMin= 5.97D-06
 ErrMax= 5.97D-06  0.00D+00 EMaxC= 1.00D-01 BMatC= 5.26D-08 BMatP= 3.34D-07
 IDIUse=1 WtCom= 1.00D+00 WtEn= 0.00D+00
 Coeff-Com: -0.323D-04-0.118D-03-0.447D-03 0.204D-02 0.187D-01-0.304D-01
 Coeff-Com: -0.166D+00 0.182D+00 0.993D+00
 Coeff:     -0.323D-04-0.118D-03-0.447D-03 0.204D-02 0.187D-01-0.304D-01
 Coeff:     -0.166D+00 0.182D+00 0.993D+00
 Gap=     0.291 Goal=   None    Shift=    0.000
 RMSDP=5.63D-06 MaxDP=2.07D-04 DE=-1.11D-06 OVMax= 2.20D-04

 Cycle  10  Pass 1  IDiag  1:
 RMSU=  2.32D-06    CP:  5.10D-01  9.17D-01  9.17D-01  1.06D+00  1.30D+00
                    CP:  1.45D+00  1.47D+00  1.39D+00  1.22D+00
 E= -701.560730594012     Delta-E=       -0.000000181901 Rises=F Damp=F
 DIIS: error= 2.55D-06 at cycle  10 NSaved=  10.
 NSaved=10 IEnMin=10 EnMin= -701.560730594012     IErMin=10 ErrMin= 2.55D-06
 ErrMax= 2.55D-06  0.00D+00 EMaxC= 1.00D-01 BMatC= 1.00D-08 BMatP= 5.26D-08
 IDIUse=1 WtCom= 1.00D+00 WtEn= 0.00D+00
 Coeff-Com:  0.635D-04-0.302D-03-0.178D-02-0.246D-02 0.117D-01 0.271D-01
 Coeff-Com: -0.268D-01-0.203D+00 0.811D-01 0.111D+01
 Coeff:      0.635D-04-0.302D-03-0.178D-02-0.246D-02 0.117D-01 0.271D-01
 Coeff:     -0.268D-01-0.203D+00 0.811D-01 0.111D+01
 Gap=     0.291 Goal=   None    Shift=    0.000
 RMSDP=2.85D-06 MaxDP=1.43D-04 DE=-1.82D-07 OVMax= 1.26D-04

 Cycle  11  Pass 1  IDiag  1:
 RMSU=  1.21D-06    CP:  5.10D-01  9.17D-01  9.17D-01  1.06D+00  1.30D+00
                    CP:  1.46D+00  1.50D+00  1.43D+00  1.38D+00  1.47D+00
 E= -701.560730634825     Delta-E=       -0.000000040812 Rises=F Damp=F
 DIIS: error= 1.05D-06 at cycle  11 NSaved=  11.
 NSaved=11 IEnMin=11 EnMin= -701.560730634825     IErMin=11 ErrMin= 1.05D-06
 ErrMax= 1.05D-06  0.00D+00 EMaxC= 1.00D-01 BMatC= 1.58D-09 BMatP= 1.00D-08
 IDIUse=1 WtCom= 1.00D+00 WtEn= 0.00D+00
 Coeff-Com:  0.137D-04-0.202D-04-0.139D-03-0.617D-03-0.195D-02 0.808D-02
 Coeff-Com:  0.274D-01-0.503D-01-0.172D+00 0.855D-01 0.110D+01
 Coeff:      0.137D-04-0.202D-04-0.139D-03-0.617D-03-0.195D-02 0.808D-02
 Coeff:      0.274D-01-0.503D-01-0.172D+00 0.855D-01 0.110D+01
 Gap=     0.291 Goal=   None    Shift=    0.000
 RMSDP=1.43D-06 MaxDP=5.63D-05 DE=-4.08D-08 OVMax= 5.91D-05

 Cycle  12  Pass 1  IDiag  1:
 RMSU=  5.20D-07    CP:  5.10D-01  9.17D-01  9.17D-01  1.06D+00  1.30D+00
                    CP:  1.47D+00  1.51D+00  1.45D+00  1.44D+00  1.70D+00
                    CP:  1.38D+00
 E= -701.560730642238     Delta-E=       -0.000000007413 Rises=F Damp=F
 DIIS: error= 5.10D-07 at cycle  12 NSaved=  12.
 NSaved=12 IEnMin=12 EnMin= -701.560730642238     IErMin=12 ErrMin= 5.10D-07
 ErrMax= 5.10D-07  0.00D+00 EMaxC= 1.00D-01 BMatC= 3.05D-10 BMatP= 1.58D-09
 IDIUse=1 WtCom= 1.00D+00 WtEn= 0.00D+00
 Coeff-Com: -0.943D-05 0.455D-04 0.260D-03 0.498D-03-0.185D-02-0.452D-02
 Coeff-Com:  0.185D-02 0.371D-01-0.777D-02-0.197D+00 0.824D-02 0.116D+01
 Coeff:     -0.943D-05 0.455D-04 0.260D-03 0.498D-03-0.185D-02-0.452D-02
 Coeff:      0.185D-02 0.371D-01-0.777D-02-0.197D+00 0.824D-02 0.116D+01
 Gap=     0.291 Goal=   None    Shift=    0.000
 RMSDP=5.60D-07 MaxDP=2.04D-05 DE=-7.41D-09 OVMax= 2.50D-05

 Cycle  13  Pass 1  IDiag  1:
 RMSU=  2.06D-07    CP:  5.10D-01  9.17D-01  9.17D-01  1.06D+00  1.30D+00
                    CP:  1.47D+00  1.52D+00  1.46D+00  1.45D+00  1.78D+00
                    CP:  1.57D+00  1.27D+00
 E= -701.560730643574     Delta-E=       -0.000000001336 Rises=F Damp=F
 DIIS: error= 2.44D-07 at cycle  13 NSaved=  13.
 NSaved=13 IEnMin=13 EnMin= -701.560730643574     IErMin=13 ErrMin= 2.44D-07
 ErrMax= 2.44D-07  0.00D+00 EMaxC= 1.00D-01 BMatC= 5.86D-11 BMatP= 3.05D-10
 IDIUse=1 WtCom= 1.00D+00 WtEn= 0.00D+00
 Coeff-Com: -0.313D-05 0.781D-05 0.300D-04 0.185D-03 0.226D-03-0.155D-02
 Coeff-Com: -0.570D-02 0.126D-01 0.311D-01-0.278D-01-0.198D+00 0.120D-01
 Coeff-Com:  0.118D+01
 Coeff:     -0.313D-05 0.781D-05 0.300D-04 0.185D-03 0.226D-03-0.155D-02
 Coeff:     -0.570D-02 0.126D-01 0.311D-01-0.278D-01-0.198D+00 0.120D-01
 Coeff:      0.118D+01
 Gap=     0.291 Goal=   None    Shift=    0.000
 RMSDP=2.56D-07 MaxDP=9.95D-06 DE=-1.34D-09 OVMax= 1.18D-05

 Cycle  14  Pass 1  IDiag  1:
 RMSU=  9.88D-08    CP:  5.10D-01  9.17D-01  9.17D-01  1.06D+00  1.30D+00
                    CP:  1.47D+00  1.52D+00  1.46D+00  1.46D+00  1.81D+00
                    CP:  1.61D+00  1.44D+00  1.21D+00
 E= -701.560730643837     Delta-E=       -0.000000000263 Rises=F Damp=F
 DIIS: error= 8.29D-08 at cycle  14 NSaved=  14.
 NSaved=14 IEnMin=14 EnMin= -701.560730643837     IErMin=14 ErrMin= 8.29D-08
 ErrMax= 8.29D-08  0.00D+00 EMaxC= 1.00D-01 BMatC= 1.03D-11 BMatP= 5.86D-11
 IDIUse=1 WtCom= 1.00D+00 WtEn= 0.00D+00
 Coeff-Com:  0.110D-05-0.616D-05-0.450D-04-0.444D-04 0.327D-03 0.616D-03
 Coeff-Com: -0.129D-02-0.462D-02 0.525D-02 0.322D-01-0.229D-01-0.218D+00
 Coeff-Com:  0.167D+00 0.104D+01
 Coeff:      0.110D-05-0.616D-05-0.450D-04-0.444D-04 0.327D-03 0.616D-03
 Coeff:     -0.129D-02-0.462D-02 0.525D-02 0.322D-01-0.229D-01-0.218D+00
 Coeff:      0.167D+00 0.104D+01
 Gap=     0.291 Goal=   None    Shift=    0.000
 RMSDP=8.54D-08 MaxDP=3.09D-06 DE=-2.63D-10 OVMax= 3.47D-06

 Cycle  15  Pass 1  IDiag  1:
 RMSU=  3.73D-08    CP:  5.10D-01  9.17D-01  9.17D-01  1.06D+00  1.30D+00
                    CP:  1.47D+00  1.52D+00  1.46D+00  1.46D+00  1.82D+00
                    CP:  1.62D+00  1.43D+00  1.36D+00  1.19D+00
 E= -701.560730643871     Delta-E=       -0.000000000034 Rises=F Damp=F
 DIIS: error= 2.87D-08 at cycle  15 NSaved=  15.
 NSaved=15 IEnMin=15 EnMin= -701.560730643871     IErMin=15 ErrMin= 2.87D-08
 ErrMax= 2.87D-08  0.00D+00 EMaxC= 1.00D-01 BMatC= 1.09D-12 BMatP= 1.03D-11
 IDIUse=1 WtCom= 1.00D+00 WtEn= 0.00D+00
 Coeff-Com:  0.592D-06-0.181D-05-0.115D-04-0.281D-04 0.395D-05 0.317D-03
 Coeff-Com:  0.703D-03-0.235D-02-0.435D-02 0.782D-02 0.285D-01-0.295D-01
 Coeff-Com: -0.160D+00 0.122D+00 0.104D+01
 Coeff:      0.592D-06-0.181D-05-0.115D-04-0.281D-04 0.395D-05 0.317D-03
 Coeff:      0.703D-03-0.235D-02-0.435D-02 0.782D-02 0.285D-01-0.295D-01
 Coeff:     -0.160D+00 0.122D+00 0.104D+01
 Gap=     0.291 Goal=   None    Shift=    0.000
 RMSDP=3.01D-08 MaxDP=1.44D-06 DE=-3.39D-11 OVMax= 1.12D-06

 Cycle  16  Pass 1  IDiag  1:
 RMSU=  1.04D-08    CP:  5.10D-01  9.17D-01  9.17D-01  1.06D+00  1.30D+00
                    CP:  1.47D+00  1.52D+00  1.46D+00  1.46D+00  1.82D+00
                    CP:  1.62D+00  1.43D+00  1.36D+00  1.32D+00  1.19D+00
 E= -701.560730643860     Delta-E=        0.000000000011 Rises=F Damp=F
 DIIS: error= 8.20D-09 at cycle  16 NSaved=  16.
 NSaved=16 IEnMin=15 EnMin= -701.560730643871     IErMin=16 ErrMin= 8.20D-09
 ErrMax= 8.20D-09  0.00D+00 EMaxC= 1.00D-01 BMatC= 9.09D-14 BMatP= 1.09D-12
 IDIUse=1 WtCom= 1.00D+00 WtEn= 0.00D+00
 Coeff-Com: -0.633D-07 0.473D-06 0.325D-05 0.339D-05-0.338D-04-0.353D-04
 Coeff-Com:  0.180D-03 0.270D-03-0.986D-03-0.222D-02 0.474D-02 0.157D-01
 Coeff-Com: -0.282D-01-0.872D-01 0.805D-01 0.102D+01
 Coeff:     -0.633D-07 0.473D-06 0.325D-05 0.339D-05-0.338D-04-0.353D-04
 Coeff:      0.180D-03 0.270D-03-0.986D-03-0.222D-02 0.474D-02 0.157D-01
 Coeff:     -0.282D-01-0.872D-01 0.805D-01 0.102D+01
 Gap=     0.291 Goal=   None    Shift=    0.000
 RMSDP=8.84D-09 MaxDP=4.08D-07 DE= 1.07D-11 OVMax= 2.24D-07

 SCF Done:  E(RHF) =  -701.560730644     A.U. after   16 cycles
            NFock= 16  Conv=0.88D-08     -V/T= 2.0015
 KE= 7.004792268641D+02 PE=-3.440331504090D+03 EE= 1.133616583017D+03
 Leave Link  502 at Sun Jul 18 14:21:41 2021, MaxMem=   262144000 cpu:            1175.5 elap:             295.8
 (Enter /prod/apps/gaussian/g16b1/l801.exe)
 ExpMin= 2.97D-02 ExpMax= 1.17D+04 ExpMxC= 4.01D+02 IAcc=3 IRadAn=         5 AccDes= 0.00D+00
 HarFok:  IExCor=  205 AccDes= 0.00D+00 IRadAn=         5 IDoV=-2 UseB2=F ITyADJ=14
 ICtDFT= 12500011 ScaDFX=  1.000000  1.000000  1.000000  1.000000
 Largest valence mixing into a core orbital is  1.10D-04
 Largest core mixing into a valence orbital is  3.80D-05
 Range of M.O.s used for correlation:    15   430
 NBasis=   430 NAE=    52 NBE=    52 NFC=    14 NFV=     0
 NROrb=    416 NOA=    38 NOB=    38 NVA=   378 NVB=   378

 **** Warning!!: The largest alpha MO coefficient is  0.97522091D+02

 Leave Link  801 at Sun Jul 18 14:21:41 2021, MaxMem=   262144000 cpu:               0.7 elap:               0.2
 (Enter /prod/apps/gaussian/g16b1/l906.exe)
 FulOut=F Deriv=F AODrv=F NAtomX=    26
   MMem=           9  MDisk=          38 MDiskD=          38
  W3Min=     6578712 MinDsk=     7262815 NBas6D=         458
 NBas2D=      105729    NTT=      105111    LW2=     2000000
    MDV=   260797548 MDiskM=        7848 NBas2p=       99203
 Disk-based method using OVN memory for 38 occupieds at a time.
 Estimated scratch disk usage=  3757887060 words.
 IMap=   1   2   3   4   5   6   7   8   9  10  11  12  13  14  15  16  17  18  19  20
 IMap=  21  22  23  24  25  26  27  28  29  30  31  32  33  34  35  36  37  38
 Actual    scratch disk usage=  3570767444 words.
 JobTyp=1 Pass  1:  I=   1 to  38 NPSUse=  4 ParTrn=T ParDer=T DoDerP=F.
Erroneous write. Write -1 instead of 47055000.
fd = 4
orig len = 2076914008 left = 47055000
g_write
