 Entering Gaussian System, Link 0=g16
 Initial command:
 /prod/apps/gaussian/g16b1/l1.exe "/tmp/ubator02/1839665/Gau-120200.inp" -scrdir="/tmp/ubator02/1839665/"
 Entering Link 1 = /prod/apps/gaussian/g16b1/l1.exe PID=    120201.
  
 Copyright (c) 1988-2017, Gaussian, Inc.  All Rights Reserved.
  
 This is part of the Gaussian(R) 16 program.  It is based on
 the Gaussian(R) 09 system (copyright 2009, Gaussian, Inc.),
 the Gaussian(R) 03 system (copyright 2003, Gaussian, Inc.),
 the Gaussian(R) 98 system (copyright 1998, Gaussian, Inc.),
 the Gaussian(R) 94 system (copyright 1995, Gaussian, Inc.),
 the Gaussian 92(TM) system (copyright 1992, Gaussian, Inc.),
 the Gaussian 90(TM) system (copyright 1990, Gaussian, Inc.),
 the Gaussian 88(TM) system (copyright 1988, Gaussian, Inc.),
 the Gaussian 86(TM) system (copyright 1986, Carnegie Mellon
 University), and the Gaussian 82(TM) system (copyright 1983,
 Carnegie Mellon University). Gaussian is a federally registered
 trademark of Gaussian, Inc.
  
 This software contains proprietary and confidential information,
 including trade secrets, belonging to Gaussian, Inc.
  
 This software is provided under written license and may be
 used, copied, transmitted, or stored only in accord with that
 written license.
  
 The following legend is applicable only to US Government
 contracts under FAR:
  
                    RESTRICTED RIGHTS LEGEND
  
 Use, reproduction and disclosure by the US Government is
 subject to restrictions as set forth in subparagraphs (a)
 and (c) of the Commercial Computer Software - Restricted
 Rights clause in FAR 52.227-19.
  
 Gaussian, Inc.
 340 Quinnipiac St., Bldg. 40, Wallingford CT 06492
  
  
 ---------------------------------------------------------------
 Warning -- This program may not be used in any manner that
 competes with the business of Gaussian, Inc. or will provide
 assistance to any competitor of Gaussian, Inc.  The licensee
 of this program is prohibited from giving any competitor of
 Gaussian, Inc. access to this program.  By using this program,
 the user acknowledges that Gaussian, Inc. is engaged in the
 business of creating and licensing software in the field of
 computational chemistry and represents and warrants to the
 licensee that it is not a competitor of Gaussian, Inc. and that
 it will not use this program in any manner prohibited above.
 ---------------------------------------------------------------
  

 Cite this work as:
 Gaussian 16, Revision B.01,
 M. J. Frisch, G. W. Trucks, H. B. Schlegel, G. E. Scuseria, 
 M. A. Robb, J. R. Cheeseman, G. Scalmani, V. Barone, 
 G. A. Petersson, H. Nakatsuji, X. Li, M. Caricato, A. V. Marenich, 
 J. Bloino, B. G. Janesko, R. Gomperts, B. Mennucci, H. P. Hratchian, 
 J. V. Ortiz, A. F. Izmaylov, J. L. Sonnenberg, D. Williams-Young, 
 F. Ding, F. Lipparini, F. Egidi, J. Goings, B. Peng, A. Petrone, 
 T. Henderson, D. Ranasinghe, V. G. Zakrzewski, J. Gao, N. Rega, 
 G. Zheng, W. Liang, M. Hada, M. Ehara, K. Toyota, R. Fukuda, 
 J. Hasegawa, M. Ishida, T. Nakajima, Y. Honda, O. Kitao, H. Nakai, 
 T. Vreven, K. Throssell, J. A. Montgomery, Jr., J. E. Peralta, 
 F. Ogliaro, M. J. Bearpark, J. J. Heyd, E. N. Brothers, K. N. Kudin, 
 V. N. Staroverov, T. A. Keith, R. Kobayashi, J. Normand, 
 K. Raghavachari, A. P. Rendell, J. C. Burant, S. S. Iyengar, 
 J. Tomasi, M. Cossi, J. M. Millam, M. Klene, C. Adamo, R. Cammi, 
 J. W. Ochterski, R. L. Martin, K. Morokuma, O. Farkas, 
 J. B. Foresman, and D. J. Fox, Gaussian, Inc., Wallingford CT, 2016.
 
 ******************************************
 Gaussian 16:  ES64L-G16RevB.01 20-Dec-2017
                18-Jul-2021 
 ******************************************
 %mem=800MB
 %nproc=4
 Will use up to    4 processors via shared memory.
 %chk=SET_328_BBB321_conf1.geo_180_030_300.chk
 -----------------------------------------------------------
 #p b3lyp/6-31G(d) opt freq scrf=(iefpcm,read,solvent=water)
 -----------------------------------------------------------
 1/18=20,19=15,26=3,38=1,40=2/1,3;
 2/9=110,12=2,17=6,18=5,40=1/2;
 3/5=1,6=6,7=1,11=2,25=1,30=1,70=2203,71=1,72=1,74=-5/1,2,3;
 4//1;
 5/5=2,38=5,53=1/2;
 6/7=2,8=2,9=2,10=2,28=1/1;
 7//1,2,3,16;
 1/18=20,19=15,26=3/3(2);
 2/9=110/2;
 99//99;
 2/9=110/2;
 3/5=1,6=6,7=1,11=2,25=1,30=1,70=2205,71=1,72=1,74=-5/1,2,3;
 4/5=5,16=3,69=1/1;
 5/5=2,38=5,53=1/2;
 7//1,2,3,16;
 1/18=20,19=15,26=3/3(-5);
 2/9=110/2;
 6/7=2,8=2,9=2,10=2,19=2,28=1/1;
 99/9=1/99;
 Leave Link    1 at Sun Jul 18 15:29:31 2021, MaxMem=   104857600 cpu:               0.1 elap:               0.0
 (Enter /prod/apps/gaussian/g16b1/l101.exe)
 ---------------------------------------------
 SET_328_BBB321_conf1.geo_180_030_300 geometry
 ---------------------------------------------
 Symbolic Z-matrix:
 Charge =  1 Multiplicity = 1
 C                     2.635    -2.231     3.337 
 H                     2.465    -2.016     4.394 
 H                     3.702    -2.317     3.119 
 H                     2.029    -3.097     3.065 
 C                     2.184    -0.966     2.595 
 O                     1.379    -0.181     3.042 
 N                     2.813    -0.719     1.472 
 H                     3.451    -1.44      1.169 
 C                     2.452     0.295     0.554 
 C                     3.369     1.221     0.193 
 C                     3.085     2.058    -0.85 
 C                     1.821     1.978    -1.405 
 H                     1.684     2.64     -2.257 
 H                     3.804     2.688    -1.368 
 H                     4.351     1.116     0.648 
 C                     1.201     0.265     0.001 
 H                     0.524    -0.52      0.328 
 C                     0.801     1.171    -0.979 
 C                    -0.507     1.037    -1.6 
 N                    -1.549     0.489    -0.932 
 C                    -0.703     1.353    -2.937 
 H                    -0.07      1.677    -3.755 
 S                    -2.356     1.146    -3.395 
 C                    -2.576     0.445    -1.805 
 N                    -3.81     -0.212    -1.575 
 C                    -3.876    -0.686    -0.429 
 N                    -4.761    -1.63     -0.473 
 H                    -4.632    -2.182     0.368 
 H                    -4.533    -2.158    -1.308 
 N                    -4.585    -0.035     0.395 
 H                    -4.277     0.932     0.383 
 H                    -5.516    -0.118     0.003 
 H                    -4.54     -0.285    -2.254 
 
 ITRead=  0  0  0  0  0  0  0  0  0  0  0  0  0  0  0  0  0  0  0  0
 ITRead=  0  0  0  0  0  0  0  0  0  0  0  0  0
 MicOpt= -1 -1 -1 -1 -1 -1 -1 -1 -1 -1 -1 -1 -1 -1 -1 -1 -1 -1 -1 -1
 MicOpt= -1 -1 -1 -1 -1 -1 -1 -1 -1 -1 -1 -1 -1
 NAtoms=     33 NQM=       33 NQMF=       0 NMMI=      0 NMMIF=      0
                NMic=       0 NMicF=      0.
                    Isotopes and Nuclear Properties:
 (Nuclear quadrupole moments (NQMom) in fm**2, nuclear magnetic moments (NMagM)
  in nuclear magnetons)

  Atom         1           2           3           4           5           6           7           8           9          10
 IAtWgt=          12           1           1           1          12          16          14           1          12          12
 AtmWgt=  12.0000000   1.0078250   1.0078250   1.0078250  12.0000000  15.9949146  14.0030740   1.0078250  12.0000000  12.0000000
 NucSpn=           0           1           1           1           0           0           2           1           0           0
 AtZEff=  -0.0000000  -0.0000000  -0.0000000  -0.0000000  -0.0000000  -0.0000000  -0.0000000  -0.0000000  -0.0000000  -0.0000000
 NQMom=    0.0000000   0.0000000   0.0000000   0.0000000   0.0000000   0.0000000   2.0440000   0.0000000   0.0000000   0.0000000
 NMagM=    0.0000000   2.7928460   2.7928460   2.7928460   0.0000000   0.0000000   0.4037610   2.7928460   0.0000000   0.0000000
 AtZNuc=   6.0000000   1.0000000   1.0000000   1.0000000   6.0000000   8.0000000   7.0000000   1.0000000   6.0000000   6.0000000

  Atom        11          12          13          14          15          16          17          18          19          20
 IAtWgt=          12          12           1           1           1          12           1          12          12          14
 AtmWgt=  12.0000000  12.0000000   1.0078250   1.0078250   1.0078250  12.0000000   1.0078250  12.0000000  12.0000000  14.0030740
 NucSpn=           0           0           1           1           1           0           1           0           0           2
 AtZEff=  -0.0000000  -0.0000000  -0.0000000  -0.0000000  -0.0000000  -0.0000000  -0.0000000  -0.0000000  -0.0000000  -0.0000000
 NQMom=    0.0000000   0.0000000   0.0000000   0.0000000   0.0000000   0.0000000   0.0000000   0.0000000   0.0000000   2.0440000
 NMagM=    0.0000000   0.0000000   2.7928460   2.7928460   2.7928460   0.0000000   2.7928460   0.0000000   0.0000000   0.4037610
 AtZNuc=   6.0000000   6.0000000   1.0000000   1.0000000   1.0000000   6.0000000   1.0000000   6.0000000   6.0000000   7.0000000

  Atom        21          22          23          24          25          26          27          28          29          30
 IAtWgt=          12           1          32          12          14          12          14           1           1          14
 AtmWgt=  12.0000000   1.0078250  31.9720718  12.0000000  14.0030740  12.0000000  14.0030740   1.0078250   1.0078250  14.0030740
 NucSpn=           0           1           0           0           2           0           2           1           1           2
 AtZEff=  -0.0000000  -0.0000000  -0.0000000  -0.0000000  -0.0000000  -0.0000000  -0.0000000  -0.0000000  -0.0000000  -0.0000000
 NQMom=    0.0000000   0.0000000   0.0000000   0.0000000   2.0440000   0.0000000   2.0440000   0.0000000   0.0000000   2.0440000
 NMagM=    0.0000000   2.7928460   0.0000000   0.0000000   0.4037610   0.0000000   0.4037610   2.7928460   2.7928460   0.4037610
 AtZNuc=   6.0000000   1.0000000  16.0000000   6.0000000   7.0000000   6.0000000   7.0000000   1.0000000   1.0000000   7.0000000

  Atom        31          32          33
 IAtWgt=           1           1           1
 AtmWgt=   1.0078250   1.0078250   1.0078250
 NucSpn=           1           1           1
 AtZEff=  -0.0000000  -0.0000000  -0.0000000
 NQMom=    0.0000000   0.0000000   0.0000000
 NMagM=    2.7928460   2.7928460   2.7928460
 AtZNuc=   1.0000000   1.0000000   1.0000000
 Leave Link  101 at Sun Jul 18 15:29:31 2021, MaxMem=   104857600 cpu:               0.5 elap:               0.1
 (Enter /prod/apps/gaussian/g16b1/l103.exe)

 GradGradGradGradGradGradGradGradGradGradGradGradGradGradGradGradGradGrad
 Berny optimization.
 Initialization pass.
                           ----------------------------
                           !    Initial Parameters    !
                           ! (Angstroms and Degrees)  !
 --------------------------                            --------------------------
 ! Name  Definition              Value          Derivative Info.                !
 --------------------------------------------------------------------------------
 ! R1    R(1,2)                  1.092          estimate D2E/DX2                !
 ! R2    R(1,3)                  1.0924         estimate D2E/DX2                !
 ! R3    R(1,4)                  1.0914         estimate D2E/DX2                !
 ! R4    R(1,5)                  1.5343         estimate D2E/DX2                !
 ! R5    R(5,6)                  1.21           estimate D2E/DX2                !
 ! R6    R(5,7)                  1.3106         estimate D2E/DX2                !
 ! R7    R(7,8)                  1.0093         estimate D2E/DX2                !
 ! R8    R(7,9)                  1.4147         estimate D2E/DX2                !
 ! R9    R(9,10)                 1.3523         estimate D2E/DX2                !
 ! R10   R(9,16)                 1.3681         estimate D2E/DX2                !
 ! R11   R(10,11)                1.3671         estimate D2E/DX2                !
 ! R12   R(10,15)                1.0874         estimate D2E/DX2                !
 ! R13   R(11,12)                1.3828         estimate D2E/DX2                !
 ! R14   R(11,14)                1.0873         estimate D2E/DX2                !
 ! R15   R(12,13)                1.0876         estimate D2E/DX2                !
 ! R16   R(12,18)                1.3686         estimate D2E/DX2                !
 ! R17   R(16,17)                1.087          estimate D2E/DX2                !
 ! R18   R(16,18)                1.3933         estimate D2E/DX2                !
 ! R19   R(18,19)                1.4541         estimate D2E/DX2                !
 ! R20   R(19,20)                1.3536         estimate D2E/DX2                !
 ! R21   R(19,21)                1.3877         estimate D2E/DX2                !
 ! R22   R(20,24)                1.3486         estimate D2E/DX2                !
 ! R23   R(21,22)                1.0839         estimate D2E/DX2                !
 ! R24   R(21,23)                1.7277         estimate D2E/DX2                !
 ! R25   R(23,24)                1.7515         estimate D2E/DX2                !
 ! R26   R(24,25)                1.4168         estimate D2E/DX2                !
 ! R27   R(25,26)                1.2419         estimate D2E/DX2                !
 ! R28   R(25,33)                0.9996         estimate D2E/DX2                !
 ! R29   R(26,27)                1.2947         estimate D2E/DX2                !
 ! R30   R(26,30)                1.2671         estimate D2E/DX2                !
 ! R31   R(27,28)                1.0142         estimate D2E/DX2                !
 ! R32   R(27,29)                1.0139         estimate D2E/DX2                !
 ! R33   R(30,31)                1.0149         estimate D2E/DX2                !
 ! R34   R(30,32)                1.0136         estimate D2E/DX2                !
 ! A1    A(2,1,3)              111.1447         estimate D2E/DX2                !
 ! A2    A(2,1,4)              108.1211         estimate D2E/DX2                !
 ! A3    A(2,1,5)              105.0714         estimate D2E/DX2                !
 ! A4    A(3,1,4)              115.4752         estimate D2E/DX2                !
 ! A5    A(3,1,5)              104.8029         estimate D2E/DX2                !
 ! A6    A(4,1,5)              111.7437         estimate D2E/DX2                !
 ! A7    A(1,5,6)              123.4897         estimate D2E/DX2                !
 ! A8    A(1,5,7)              115.3832         estimate D2E/DX2                !
 ! A9    A(6,5,7)              120.9013         estimate D2E/DX2                !
 ! A10   A(5,7,8)              115.2119         estimate D2E/DX2                !
 ! A11   A(5,7,9)              124.655          estimate D2E/DX2                !
 ! A12   A(8,7,9)              118.5897         estimate D2E/DX2                !
 ! A13   A(7,9,10)             119.4075         estimate D2E/DX2                !
 ! A14   A(7,9,16)             118.6806         estimate D2E/DX2                !
 ! A15   A(10,9,16)            121.8148         estimate D2E/DX2                !
 ! A16   A(9,10,11)            118.8179         estimate D2E/DX2                !
 ! A17   A(9,10,15)            115.7579         estimate D2E/DX2                !
 ! A18   A(11,10,15)           124.4684         estimate D2E/DX2                !
 ! A19   A(10,11,12)           117.4302         estimate D2E/DX2                !
 ! A20   A(10,11,14)           125.509          estimate D2E/DX2                !
 ! A21   A(12,11,14)           116.5371         estimate D2E/DX2                !
 ! A22   A(11,12,13)           113.2248         estimate D2E/DX2                !
 ! A23   A(11,12,18)           126.1878         estimate D2E/DX2                !
 ! A24   A(13,12,18)           120.5874         estimate D2E/DX2                !
 ! A25   A(9,16,17)            117.63           estimate D2E/DX2                !
 ! A26   A(9,16,18)            122.1792         estimate D2E/DX2                !
 ! A27   A(17,16,18)           120.1595         estimate D2E/DX2                !
 ! A28   A(12,18,16)           112.8547         estimate D2E/DX2                !
 ! A29   A(12,18,19)           126.2844         estimate D2E/DX2                !
 ! A30   A(16,18,19)           119.9144         estimate D2E/DX2                !
 ! A31   A(18,19,20)           121.2645         estimate D2E/DX2                !
 ! A32   A(18,19,21)           121.1651         estimate D2E/DX2                !
 ! A33   A(20,19,21)           117.3167         estimate D2E/DX2                !
 ! A34   A(19,20,24)           106.258          estimate D2E/DX2                !
 ! A35   A(19,21,22)           135.4538         estimate D2E/DX2                !
 ! A36   A(19,21,23)           111.2994         estimate D2E/DX2                !
 ! A37   A(22,21,23)           113.2354         estimate D2E/DX2                !
 ! A38   A(21,23,24)            85.8414         estimate D2E/DX2                !
 ! A39   A(20,24,23)           118.6147         estimate D2E/DX2                !
 ! A40   A(20,24,25)           124.9813         estimate D2E/DX2                !
 ! A41   A(23,24,25)           116.2542         estimate D2E/DX2                !
 ! A42   A(24,25,26)           111.9055         estimate D2E/DX2                !
 ! A43   A(24,25,33)           124.0312         estimate D2E/DX2                !
 ! A44   A(26,25,33)           124.0633         estimate D2E/DX2                !
 ! A45   A(25,26,27)           106.4541         estimate D2E/DX2                !
 ! A46   A(25,26,30)           115.705          estimate D2E/DX2                !
 ! A47   A(27,26,30)            90.815          estimate D2E/DX2                !
 ! A48   A(26,27,28)           106.3623         estimate D2E/DX2                !
 ! A49   A(26,27,29)           104.7126         estimate D2E/DX2                !
 ! A50   A(28,27,29)           111.7692         estimate D2E/DX2                !
 ! A51   A(26,30,31)           108.1811         estimate D2E/DX2                !
 ! A52   A(26,30,32)           102.732          estimate D2E/DX2                !
 ! A53   A(31,30,32)           110.6217         estimate D2E/DX2                !
 ! D1    D(2,1,5,6)            -24.5683         estimate D2E/DX2                !
 ! D2    D(2,1,5,7)            150.0053         estimate D2E/DX2                !
 ! D3    D(3,1,5,6)           -141.7982         estimate D2E/DX2                !
 ! D4    D(3,1,5,7)             32.7753         estimate D2E/DX2                !
 ! D5    D(4,1,5,6)             92.4438         estimate D2E/DX2                !
 ! D6    D(4,1,5,7)            -92.9826         estimate D2E/DX2                !
 ! D7    D(1,5,7,8)              6.4755         estimate D2E/DX2                !
 ! D8    D(1,5,7,9)            172.046          estimate D2E/DX2                !
 ! D9    D(6,5,7,8)           -178.7982         estimate D2E/DX2                !
 ! D10   D(6,5,7,9)            -13.2277         estimate D2E/DX2                !
 ! D11   D(5,7,9,10)           124.3184         estimate D2E/DX2                !
 ! D12   D(5,7,9,16)           -59.1991         estimate D2E/DX2                !
 ! D13   D(8,7,9,10)           -70.5594         estimate D2E/DX2                !
 ! D14   D(8,7,9,16)           105.9231         estimate D2E/DX2                !
 ! D15   D(7,9,10,11)          169.3958         estimate D2E/DX2                !
 ! D16   D(7,9,10,15)            0.0772         estimate D2E/DX2                !
 ! D17   D(16,9,10,11)          -6.9725         estimate D2E/DX2                !
 ! D18   D(16,9,10,15)        -176.2911         estimate D2E/DX2                !
 ! D19   D(7,9,16,17)            2.5173         estimate D2E/DX2                !
 ! D20   D(7,9,16,18)         -175.4499         estimate D2E/DX2                !
 ! D21   D(10,9,16,17)         178.9111         estimate D2E/DX2                !
 ! D22   D(10,9,16,18)           0.9439         estimate D2E/DX2                !
 ! D23   D(9,10,11,12)           5.2589         estimate D2E/DX2                !
 ! D24   D(9,10,11,14)        -166.1234         estimate D2E/DX2                !
 ! D25   D(15,10,11,12)        173.5769         estimate D2E/DX2                !
 ! D26   D(15,10,11,14)          2.1947         estimate D2E/DX2                !
 ! D27   D(10,11,12,13)       -177.3592         estimate D2E/DX2                !
 ! D28   D(10,11,12,18)          2.5542         estimate D2E/DX2                !
 ! D29   D(14,11,12,13)         -5.1953         estimate D2E/DX2                !
 ! D30   D(14,11,12,18)        174.7182         estimate D2E/DX2                !
 ! D31   D(11,12,18,16)         -8.027          estimate D2E/DX2                !
 ! D32   D(11,12,18,19)       -176.786          estimate D2E/DX2                !
 ! D33   D(13,12,18,16)        171.8806         estimate D2E/DX2                !
 ! D34   D(13,12,18,19)          3.1215         estimate D2E/DX2                !
 ! D35   D(9,16,18,12)           6.1537         estimate D2E/DX2                !
 ! D36   D(9,16,18,19)         175.7089         estimate D2E/DX2                !
 ! D37   D(17,16,18,12)       -171.7633         estimate D2E/DX2                !
 ! D38   D(17,16,18,19)         -2.2081         estimate D2E/DX2                !
 ! D39   D(12,18,19,20)       -162.9894         estimate D2E/DX2                !
 ! D40   D(12,18,19,21)         22.9528         estimate D2E/DX2                !
 ! D41   D(16,18,19,20)         28.9714         estimate D2E/DX2                !
 ! D42   D(16,18,19,21)       -145.0864         estimate D2E/DX2                !
 ! D43   D(18,19,20,24)       -176.5958         estimate D2E/DX2                !
 ! D44   D(21,19,20,24)         -2.3178         estimate D2E/DX2                !
 ! D45   D(18,19,21,22)          3.058          estimate D2E/DX2                !
 ! D46   D(18,19,21,23)       -178.3014         estimate D2E/DX2                !
 ! D47   D(20,19,21,22)       -171.226          estimate D2E/DX2                !
 ! D48   D(20,19,21,23)          7.4146         estimate D2E/DX2                !
 ! D49   D(19,20,24,23)         -3.935          estimate D2E/DX2                !
 ! D50   D(19,20,24,25)        171.4386         estimate D2E/DX2                !
 ! D51   D(19,21,23,24)         -7.3399         estimate D2E/DX2                !
 ! D52   D(22,21,23,24)        171.6223         estimate D2E/DX2                !
 ! D53   D(21,23,24,20)          6.8174         estimate D2E/DX2                !
 ! D54   D(21,23,24,25)       -168.9568         estimate D2E/DX2                !
 ! D55   D(20,24,25,26)          4.0358         estimate D2E/DX2                !
 ! D56   D(20,24,25,33)       -175.973          estimate D2E/DX2                !
 ! D57   D(23,24,25,26)        179.5075         estimate D2E/DX2                !
 ! D58   D(23,24,25,33)         -0.5013         estimate D2E/DX2                !
 ! D59   D(24,25,26,27)       -157.5339         estimate D2E/DX2                !
 ! D60   D(24,25,26,30)        103.3386         estimate D2E/DX2                !
 ! D61   D(33,25,26,27)         22.4749         estimate D2E/DX2                !
 ! D62   D(33,25,26,30)        -76.6526         estimate D2E/DX2                !
 ! D63   D(25,26,27,28)        164.4101         estimate D2E/DX2                !
 ! D64   D(25,26,27,29)         45.9388         estimate D2E/DX2                !
 ! D65   D(30,26,27,28)        -78.428          estimate D2E/DX2                !
 ! D66   D(30,26,27,29)        163.1007         estimate D2E/DX2                !
 ! D67   D(25,26,30,31)        -52.087          estimate D2E/DX2                !
 ! D68   D(25,26,30,32)         64.9299         estimate D2E/DX2                !
 ! D69   D(27,26,30,31)       -160.8247         estimate D2E/DX2                !
 ! D70   D(27,26,30,32)        -43.8079         estimate D2E/DX2                !
 --------------------------------------------------------------------------------
 Trust Radius=3.00D-01 FncErr=1.00D-07 GrdErr=1.00D-06 EigMax=2.50D+02 EigMin=1.00D-04
 Number of steps in this run=    167 maximum allowed number of steps=    198.
 GradGradGradGradGradGradGradGradGradGradGradGradGradGradGradGradGradGrad

 Leave Link  103 at Sun Jul 18 15:29:31 2021, MaxMem=   104857600 cpu:               0.1 elap:               0.0
 (Enter /prod/apps/gaussian/g16b1/l202.exe)
                          Input orientation:                          
 ---------------------------------------------------------------------
 Center     Atomic      Atomic             Coordinates (Angstroms)
 Number     Number       Type             X           Y           Z
 ---------------------------------------------------------------------
      1          6           0        2.635000   -2.231000    3.337000
      2          1           0        2.465000   -2.016000    4.394000
      3          1           0        3.702000   -2.317000    3.119000
      4          1           0        2.029000   -3.097000    3.065000
      5          6           0        2.184000   -0.966000    2.595000
      6          8           0        1.379000   -0.181000    3.042000
      7          7           0        2.813000   -0.719000    1.472000
      8          1           0        3.451000   -1.440000    1.169000
      9          6           0        2.452000    0.295000    0.554000
     10          6           0        3.369000    1.221000    0.193000
     11          6           0        3.085000    2.058000   -0.850000
     12          6           0        1.821000    1.978000   -1.405000
     13          1           0        1.684000    2.640000   -2.257000
     14          1           0        3.804000    2.688000   -1.368000
     15          1           0        4.351000    1.116000    0.648000
     16          6           0        1.201000    0.265000    0.001000
     17          1           0        0.524000   -0.520000    0.328000
     18          6           0        0.801000    1.171000   -0.979000
     19          6           0       -0.507000    1.037000   -1.600000
     20          7           0       -1.549000    0.489000   -0.932000
     21          6           0       -0.703000    1.353000   -2.937000
     22          1           0       -0.070000    1.677000   -3.755000
     23         16           0       -2.356000    1.146000   -3.395000
     24          6           0       -2.576000    0.445000   -1.805000
     25          7           0       -3.810000   -0.212000   -1.575000
     26          6           0       -3.876000   -0.686000   -0.429000
     27          7           0       -4.761000   -1.630000   -0.473000
     28          1           0       -4.632000   -2.182000    0.368000
     29          1           0       -4.533000   -2.158000   -1.308000
     30          7           0       -4.585000   -0.035000    0.395000
     31          1           0       -4.277000    0.932000    0.383000
     32          1           0       -5.516000   -0.118000    0.003000
     33          1           0       -4.540000   -0.285000   -2.254000
 ---------------------------------------------------------------------
                    Distance matrix (angstroms):
                    1          2          3          4          5
     1  C    0.000000
     2  H    1.091959   0.000000
     3  H    1.092433   1.801776   0.000000
     4  H    1.091410   1.767738   1.846685   0.000000
     5  C    1.534337   2.101871   2.098595   2.187713   0.000000
     6  O    2.422202   2.524782   3.156700   2.987655   1.209983
     7  N    2.407499   3.215804   2.461003   2.967691   1.310641
     8  H    2.447807   3.421198   2.152819   2.891807   1.965564
     9  C    3.762878   4.481795   3.868368   4.241428   2.414048
    10  C    4.726499   5.379943   4.603239   5.356221   3.457860
    11  C    6.010740   6.669439   5.939215   6.558688   4.671659
    12  C    6.392561   7.070726   6.515502   6.766076   4.979850
    13  H    7.478227   8.156231   7.585878   7.832999   6.065900
    14  H    6.906529   7.557856   6.722618   7.501223   5.628631
    15  H    4.623612   5.234399   4.279314   5.383581   3.580701
    16  C    4.406276   5.108728   4.758534   4.623497   3.034878
    17  H    4.054371   4.747405   4.595495   4.049336   2.844961
    18  C    5.793532   6.464905   6.113555   6.006475   4.387817
    19  C    6.702683   7.354021   7.157790   6.729300   5.371361
    20  N    6.567238   7.124149   7.201197   6.452712   5.337794
    21  C    7.959295   8.667753   8.339548   7.955522   6.656993
    22  H    8.537327   9.298961   8.799540   8.585411   7.237988
    23  S    9.035155   9.690656   9.545885   8.886106   7.807192
    24  C    7.794592   8.360371   8.443205   7.580811   6.633892
    25  N    8.351175   8.846412   9.104658   7.996671   7.340671
    26  C    7.678730   8.077036   8.524937   7.272550   6.778390
    27  N    8.341350   8.720766   9.219371   7.795745   7.621453
    28  H    7.850264   8.161105   8.777345   7.244305   7.272966
    29  H    8.541755   9.028010   9.350873   7.941328   7.859540
    30  N    8.099764   8.343792   9.016766   7.762071   7.178170
    31  H    8.155147   8.380536   9.039145   7.949314   7.088009
    32  H    9.056441   9.304818   9.975800   8.670485   8.168694
    33  H    9.301979   9.811335  10.046329   8.907910   8.317977
                    6          7          8          9         10
     6  O    0.000000
     7  N    2.193331   0.000000
     8  H    3.063722   1.009304   0.000000
     9  C    2.751009   1.414652   2.094386   0.000000
    10  C    3.747333   2.389263   2.835528   1.352289   0.000000
    11  C    4.803251   3.630068   4.055406   2.340956   1.367141
    12  C    4.963109   4.066325   4.578766   2.658633   2.350097
    13  H    6.010862   5.144216   5.613035   3.740397   3.294736
    14  H    5.793090   4.544814   4.858123   3.353869   2.185872
    15  H    4.030661   2.532123   2.759452   2.071009   1.087370
    16  C    3.078682   2.393876   3.055118   1.368105   2.377188
    17  H    2.865614   2.566682   3.181353   2.105347   3.338163
    18  C    4.281405   3.691564   4.295780   2.417285   2.823244
    19  C    5.156422   4.852125   5.428504   3.734429   4.274585
    20  N    4.981442   5.124990   5.756322   4.272450   5.097860
    21  C    6.514317   6.007888   6.474241   4.822911   5.137656
    22  H    7.193815   6.432265   6.808737   5.180530   5.255603
    23  S    7.559505   7.340605   7.825519   6.279782   6.756848
    24  C    6.287075   6.413653   6.980160   5.555913   6.319589
    25  N    6.945745   7.307899   7.858730   6.633426   7.531092
    26  C    6.318061   6.953964   7.537045   6.478598   7.517550
    27  N    7.221802   7.872638   8.376706   7.535763   8.641103
    28  H    6.876511   7.667282   8.156412   7.506876   8.696381
    29  H    7.601498   7.985164   8.390191   7.633772   8.724233
    30  N    6.526655   7.507209   8.194535   7.046528   8.055089
    31  H    6.348180   7.360694   8.121956   6.761246   7.653818
    32  H    7.535285   8.478880   9.138617   7.997699   8.987338
    33  H    7.943110   8.254577   8.769666   7.557071   8.414756
                   11         12         13         14         15
    11  C    0.000000
    12  C    1.382795   0.000000
    13  H    2.069100   1.087620   0.000000
    14  H    1.087283   2.106599   2.299353   0.000000
    15  H    2.175804   3.370275   4.227823   2.614316   0.000000
    16  C    2.736513   2.301218   3.312473   3.810603   3.326456
    17  H    3.820012   3.305375   4.244223   4.891429   4.174305
    18  C    2.453582   1.368622   2.137974   3.386830   3.905465
    19  C    3.808859   2.518549   2.793159   4.622158   5.353495
    20  N    4.893101   3.714532   4.103013   5.803474   6.139994
    21  C    4.381956   3.017984   2.795807   4.955506   6.200912
    22  H    4.305602   3.031333   2.499578   4.661305   6.264692
    23  S    6.075628   4.701027   4.455186   6.665740   7.831385
    24  C    5.963281   4.673724   4.813515   6.776903   7.379077
    25  N    7.295173   6.044267   6.227605   8.150205   8.561964
    26  C    7.494151   6.364376   6.731824   8.440853   8.490622
    27  N    8.677741   7.563664   7.934329   9.633555   9.582573
    28  H    8.888938   7.879742   8.368642   9.894276   9.573374
    29  H    8.718850   7.582165   7.910278   9.643282   9.668013
    30  N    8.047333   6.951907   7.313624   8.994344   9.013374
    31  H    7.548987   6.440238   6.739465   8.452934   8.634029
    32  H    8.912900   7.759333   8.034561   9.829327   9.964761
    33  H    8.099475   6.804726   6.877050   8.902026   9.456970
                   16         17         18         19         20
    16  C    0.000000
    17  H    1.086960   0.000000
    18  C    1.393282   2.155101   0.000000
    19  C    2.465045   2.684100   1.454119   0.000000
    20  N    2.912587   2.627358   2.447414   1.353622   0.000000
    21  C    3.666170   3.959026   2.475662   1.387747   2.341418
    22  H    4.209124   4.674455   2.953109   2.290108   3.401193
    23  S    4.996121   4.993064   3.975466   2.579284   2.673811
    24  C    4.190437   3.884703   3.551546   2.161770   1.348627
    25  N    5.274602   4.743398   4.850693   3.531350   2.452951
    26  C    5.183168   4.467729   5.062142   3.961077   2.654913
    27  N    6.273846   5.459389   6.247998   5.145827   3.875279
    28  H    6.336118   5.417396   6.524914   5.590225   4.281253
    29  H    6.361066   5.561725   6.296192   5.148006   4.006525
    30  N    5.807154   5.132406   5.687821   4.664686   3.354519
    31  H    5.531663   5.016067   5.262913   4.261011   3.060630
    32  H    6.727911   6.062081   6.521529   5.384581   4.120651
    33  H    6.192464   5.689116   5.680831   4.294239   3.360482
                   21         22         23         24         25
    21  C    0.000000
    22  H    1.083877   0.000000
    23  S    1.727722   2.374312   0.000000
    24  C    2.369392   3.405930   1.751542   0.000000
    25  N    3.736003   4.723169   2.696420   1.416794   0.000000
    26  C    4.529405   5.579577   3.803128   2.205116   1.241913
    27  N    5.606866   6.611600   4.693430   3.294552   2.032124
    28  H    6.233481   7.259673   5.515064   3.981230   2.886491
    29  H    5.445150   6.372865   4.473401   3.294308   2.093068
    30  N    5.300820   6.366998   4.552725   3.017695   2.124348
    31  H    4.896235   5.947850   4.243739   2.813879   2.315295
    32  H    5.828586   6.855910   4.809335   3.497061   2.325802
    33  H    4.227541   5.107186   2.849473   2.142848   0.999635
                   26         27         28         29         30
    26  C    0.000000
    27  N    1.294719   0.000000
    28  H    1.856007   1.014212   0.000000
    29  H    1.836048   1.013900   1.679093   0.000000
    30  N    1.267067   1.824397   2.147684   2.722139   0.000000
    31  H    1.854203   2.744237   3.134206   3.531730   1.014937
    32  H    1.788532   1.755775   2.274814   2.616603   1.013565
    33  H    1.983008   2.242728   3.237585   2.098355   2.661151
                   31         32         33
    31  H    0.000000
    32  H    1.667939   0.000000
    33  H    2.916166   2.464653   0.000000
 Stoichiometry    C12H14N5OS(1+)
 Framework group  C1[X(C12H14N5OS)]
 Deg. of freedom    93
 Full point group                 C1      NOp   1
 Largest Abelian subgroup         C1      NOp   1
 Largest concise Abelian subgroup C1      NOp   1
                         Standard orientation:                         
 ---------------------------------------------------------------------
 Center     Atomic      Atomic             Coordinates (Angstroms)
 Number     Number       Type             X           Y           Z
 ---------------------------------------------------------------------
      1          6           0       -4.439166    2.925095   -0.748821
      2          1           0       -4.758494    3.627147    0.024177
      3          1           0       -5.294197    2.403387   -1.184884
      4          1           0       -3.807194    3.464103   -1.456817
      5          6           0       -3.656060    1.837777   -0.001377
      6          8           0       -3.113042    2.019461    1.064542
      7          7           0       -3.699218    0.643672   -0.539921
      8          1           0       -4.156341    0.593510   -1.438373
      9          6           0       -2.925628   -0.460482   -0.111385
     10          6           0       -3.545971   -1.609989    0.238607
     11          6           0       -2.790747   -2.731912    0.438604
     12          6           0       -1.416220   -2.593734    0.377753
     13          1           0       -0.884708   -3.534589    0.501055
     14          1           0       -3.174231   -3.746766    0.510684
     15          1           0       -4.630621   -1.603875    0.161981
     16          6           0       -1.561794   -0.354734   -0.133417
     17          1           0       -1.134826    0.595819   -0.442656
     18          6           0       -0.729265   -1.426065    0.183414
     19          6           0        0.712404   -1.287119    0.054011
     20          7           0        1.318699   -0.086194    0.203936
     21          6           0        1.503625   -2.354321   -0.347100
     22          1           0        1.321593   -3.375082   -0.662853
     23         16           0        3.176260   -1.922077   -0.369013
     24          6           0        2.627323   -0.289465   -0.050972
     25          7           0        3.599051    0.733981   -0.175911
     26          6           0        3.122052    1.856719    0.057068
     27          7           0        3.896583    2.712997   -0.528755
     28          1           0        3.381125    3.585653   -0.566173
     29          1           0        4.052507    2.328413   -1.453837
     30          7           0        3.404064    2.349378    1.189858
     31          1           0        3.169783    1.663757    1.900585
     32          1           0        4.408010    2.477098    1.134236
     33          1           0        4.554201    0.571509   -0.422001
 ---------------------------------------------------------------------
 Rotational constants (GHZ):           0.4775186           0.1971770           0.1459360
 Leave Link  202 at Sun Jul 18 15:29:31 2021, MaxMem=   104857600 cpu:               0.1 elap:               0.0
 (Enter /prod/apps/gaussian/g16b1/l301.exe)
 Standard basis: 6-31G(d) (6D, 7F)
 Ernie: Thresh=  0.10000D-02 Tol=  0.10000D-05 Strict=F.
 There are   317 symmetry adapted cartesian basis functions of A   symmetry.
 There are   317 symmetry adapted basis functions of A   symmetry.
   317 basis functions,   612 primitive gaussians,   317 cartesian basis functions
    72 alpha electrons       72 beta electrons
       nuclear repulsion energy      1492.3834409836 Hartrees.
 IExCor=  402 DFT=T Ex+Corr=B3LYP ExCW=0 ScaHFX=  0.200000
 ScaDFX=  0.800000  0.720000  1.000000  0.810000 ScalE2=  1.000000  1.000000
 IRadAn=      5 IRanWt=     -1 IRanGd=            0 ICorTp=0 IEmpDi=  4
 NAtoms=   33 NActive=   33 NUniq=   33 SFac= 1.00D+00 NAtFMM=   60 NAOKFM=F Big=F
 Integral buffers will be    131072 words long.
 Raffenetti 2 integral format.
 Two-electron integral symmetry is turned on.
 Using the following non-standard input for PCM:
 MSTModel=DFT cav MSTCharged
 --- end of non-standard input.
 MST model for solvation energy: B3LYP parametrization.
 MST cavity parameters:
 ISph   IAn     Re0     Alpha   Atom Type   QCorr
 ------------------------------------------------
   1      6     1.50     1.25      CH3        F
   2      1     1.20     1.25      CH3        F
   3      1     1.20     1.25      CH3        F
   4      1     1.20     1.25      CH3        F
   5      6     1.50     1.25      C          F
   6      8     1.40     1.25      O          F
   7      7     1.50     1.25      NH         F
   8      1     0.90     1.25      NH         F
   9      6     1.50     1.25      C          F
  10      6     1.50     1.25      CH         F
  11      6     1.50     1.25      CH         F
  12      6     1.50     1.25      CH         F
  13      1     1.20     1.25      CH         F
  14      1     1.20     1.25      CH         F
  15      1     1.20     1.25      CH         F
  16      6     1.50     1.25      CH         F
  17      1     1.20     1.25      CH         F
  18      6     1.50     1.25      C          F
  19      6     1.50     1.25      C          F
  20      7     1.40     1.25      N          F
  21      6     1.50     1.25      CH         F
  22      1     1.20     1.25      CH         F
  23     16     1.75     1.25      S          F
  24      6     1.50     1.25      C          F
  25      7     1.50     1.15      NH         T
  26      6     1.50     1.15      C          T
  27      7     1.55     1.15      NH         T
  28      1     0.90     1.15      NH         T
  29      1     0.90     1.15      NH         T
  30      7     1.55     1.15      NH         T
  31      1     0.90     1.15      NH         T
  32      1     0.90     1.15      NH         T
  33      1     0.90     1.15      NH         T
 ------------------------------------------------------------------------------
 Polarizable Continuum Model (PCM)
 =================================
 Model                : PCM.
 Atomic radii         : MST.
 Polarization charges : Total charges.
 Charge compensation  : None.
 Solution method      : On-the-fly selection.
 Cavity type          : Scaled VdW (van der Waals Surface) (Alpha=1.250).
 Cavity algorithm     : GePol (No added spheres)
                        Default sphere list used, NSphG=   33.
                        Lebedev-Laikov grids with approx.  5.0 points / Ang**2.
                        Smoothing algorithm: York/Karplus (Gamma=1.0000).
                        Polarization charges: spherical gaussians, with
                                              point-specific exponents (IZeta= 3).
                        Self-potential: point-specific (ISelfS= 7).
                        Self-field    : sphere-specific E.n sum rule (ISelfD= 2).
 1st derivatives      : Analytical E(r).r(x)/FMM algorithm (CHGder, D1EAlg=3).
                        Cavity 1st derivative terms included.
 Solvent              : Water, Eps=  78.355300 Eps(inf)=   1.777849
 ------------------------------------------------------------------------------
 GePol: Number of generator spheres                  =      33
 GePol: Total number of spheres                      =      33
 GePol: Number of exposed spheres                    =      33 (100.00%)
 GePol: Number of points                             =    2495
 GePol: Average weight of points                     =       0.13
 GePol: Minimum weight of points                     =   0.37D-11
 GePol: Maximum weight of points                     =    0.22001
 GePol: Number of points with low weight             =     147
 GePol: Fraction of low-weight points (<1% of avg)   =       5.89%
 GePol: Cavity surface area                          =    314.278 Ang**2
 GePol: Cavity volume                                =    293.101 Ang**3
 PCM non-electrostatic energy =         0.0016032641 Hartrees.
 Nuclear repulsion after PCM non-electrostatic terms =     1492.3850442477 Hartrees.
 Leave Link  301 at Sun Jul 18 15:29:31 2021, MaxMem=   104857600 cpu:               0.3 elap:               0.1
 (Enter /prod/apps/gaussian/g16b1/l302.exe)
 NPDir=0 NMtPBC=     1 NCelOv=     1 NCel=       1 NClECP=     1 NCelD=      1
         NCelK=      1 NCelE2=     1 NClLst=     1 CellRange=     0.0.
 One-electron integrals computed using PRISM.
 One-electron integral symmetry used in STVInt
 NBasis=   317 RedAO= T EigKep=  3.64D-04  NBF=   317
 NBsUse=   317 1.00D-06 EigRej= -1.00D+00 NBFU=   317
 Precomputing XC quadrature grid using
 IXCGrd= 4 IRadAn=           5 IRanWt=          -1 IRanGd=           0 AccXCQ= 0.00D+00.
 Generated NRdTot=       0 NPtTot=           0 NUsed=           0 NTot=          32
 NSgBfM=   314   314   314   314   314 MxSgAt=    33 MxSgA2=    33.
 Leave Link  302 at Sun Jul 18 15:29:32 2021, MaxMem=   104857600 cpu:               1.6 elap:               0.4
 (Enter /prod/apps/gaussian/g16b1/l303.exe)
 DipDrv:  MaxL=1.
 Leave Link  303 at Sun Jul 18 15:29:32 2021, MaxMem=   104857600 cpu:               0.1 elap:               0.1
 (Enter /prod/apps/gaussian/g16b1/l401.exe)
 ExpMin= 1.17D-01 ExpMax= 2.19D+04 ExpMxC= 3.30D+03 IAcc=3 IRadAn=         5 AccDes= 0.00D+00
 Harris functional with IExCor=  402 and IRadAn=       5 diagonalized for initial guess.
 HarFok:  IExCor=  402 AccDes= 0.00D+00 IRadAn=         5 IDoV= 1 UseB2=F ITyADJ=14
 ICtDFT=  3500011 ScaDFX=  1.000000  1.000000  1.000000  1.000000
 FoFCou: FMM=F IPFlag=           0 FMFlag=      100000 FMFlg1=           0
         NFxFlg=           0 DoJE=T BraDBF=F KetDBF=T FulRan=T
         wScrn=  0.000000 ICntrl=       500 IOpCl=  0 I1Cent=   200000004 NGrid=           0
         NMat0=    1 NMatS0=      1 NMatT0=    0 NMatD0=    1 NMtDS0=    0 NMtDT0=    0
 Petite list used in FoFCou.
 Harris En= -1212.37213273163    
 JPrj=0 DoOrth=F DoCkMO=F.
 Leave Link  401 at Sun Jul 18 15:29:34 2021, MaxMem=   104857600 cpu:               8.2 elap:               2.1
 (Enter /prod/apps/gaussian/g16b1/l502.exe)
 Integral symmetry usage will be decided dynamically.
 Closed shell SCF:
 Using DIIS extrapolation, IDIIS=  1040.
 NGot=   104857600 LenX=   104651207 LenY=   104550277
 Requested convergence on RMS density matrix=1.00D-08 within 128 cycles.
 Requested convergence on MAX density matrix=1.00D-06.
 Requested convergence on             energy=1.00D-06.
 No special actions if energy rises.
 Fock matrices will be formed incrementally for  20 cycles.

 Cycle   1  Pass 1  IDiag  1:
 FoFJK:  IHMeth= 1 ICntrl=       0 DoSepK=F KAlg= 0 I1Cent=           0 FoldK=F
 IRaf= 760000000 NMat=       1 IRICut=       1 DoRegI=T DoRafI=F ISym2E= 0 IDoP0=0 IntGTp=1.
 FoFCou: FMM=F IPFlag=           0 FMFlag=      100000 FMFlg1=           0
         NFxFlg=           0 DoJE=F BraDBF=F KetDBF=F FulRan=T
         wScrn=  0.000000 ICntrl=         0 IOpCl=  0 I1Cent=           0 NGrid=           0
         NMat0=    1 NMatS0=      1 NMatT0=    0 NMatD0=    1 NMtDS0=    0 NMtDT0=    0
 Symmetry not used in FoFCou.
 Inv3:  Mode=1 IEnd=    18675075.
 Iteration    1 A*A^-1 deviation from unit magnitude is 3.00D-15 for   1311.
 Iteration    1 A*A^-1 deviation from orthogonality  is 2.22D-15 for   2255    206.
 Iteration    1 A^-1*A deviation from unit magnitude is 3.11D-15 for   2367.
 Iteration    1 A^-1*A deviation from orthogonality  is 6.55D-14 for   2283   2282.
 E= -1211.98983533921    
 DIIS: error= 2.63D-02 at cycle   1 NSaved=   1.
 NSaved= 1 IEnMin= 1 EnMin= -1211.98983533921     IErMin= 1 ErrMin= 2.63D-02
 ErrMax= 2.63D-02  0.00D+00 EMaxC= 1.00D-01 BMatC= 5.40D-01 BMatP= 5.40D-01
 IDIUse=3 WtCom= 7.37D-01 WtEn= 2.63D-01
 Coeff-Com:  0.100D+01
 Coeff-En:   0.100D+01
 Coeff:      0.100D+01
 Gap=     0.061 Goal=   None    Shift=    0.000
 GapD=    0.061 DampG=0.500 DampE=0.500 DampFc=0.2500 IDamp=-1.
 Damping current iteration by 2.50D-01
 RMSDP=6.89D-03 MaxDP=4.04D-01              OVMax= 9.12D-01

 Cycle   2  Pass 1  IDiag  1:
 RMSU=  1.70D-03    CP:  9.88D-01
 E= -1212.11029423747     Delta-E=       -0.120458898265 Rises=F Damp=T
 DIIS: error= 1.16D-02 at cycle   2 NSaved=   2.
 NSaved= 2 IEnMin= 2 EnMin= -1212.11029423747     IErMin= 2 ErrMin= 1.16D-02
 ErrMax= 1.16D-02  0.00D+00 EMaxC= 1.00D-01 BMatC= 1.25D-01 BMatP= 5.40D-01
 IDIUse=3 WtCom= 8.84D-01 WtEn= 1.16D-01
 Coeff-Com: -0.406D+00 0.141D+01
 Coeff-En:   0.133D+00 0.867D+00
 Coeff:     -0.343D+00 0.134D+01
 Gap=    -0.273 Goal=   None    Shift=    0.000
 RMSDP=2.73D-03 MaxDP=1.24D-01 DE=-1.20D-01 OVMax= 6.29D-01

 Cycle   3  Pass 1  IDiag  1:
 RMSU=  2.70D-03    CP:  9.67D-01  1.04D+00
 E= -1212.20673404226     Delta-E=       -0.096439804783 Rises=F Damp=F
 DIIS: error= 3.83D-02 at cycle   3 NSaved=   3.
 NSaved= 3 IEnMin= 3 EnMin= -1212.20673404226     IErMin= 2 ErrMin= 1.16D-02
 ErrMax= 3.83D-02  0.00D+00 EMaxC= 1.00D-01 BMatC= 3.25D-01 BMatP= 1.25D-01
 IDIUse=2 WtCom= 0.00D+00 WtEn= 1.00D+00
 Coeff-En:   0.000D+00 0.385D+00 0.615D+00
 Coeff:      0.000D+00 0.385D+00 0.615D+00
 Gap=     0.055 Goal=   None    Shift=    0.000
 RMSDP=5.20D-03 MaxDP=4.44D-01 DE=-9.64D-02 OVMax= 9.36D-01

 Cycle   4  Pass 1  IDiag  1:
 RMSU=  1.99D-03    CP:  9.61D-01  2.73D+00 -4.25D-01
 E= -1210.92553315849     Delta-E=        1.281200883762 Rises=F Damp=F
 DIIS: error= 8.12D-02 at cycle   4 NSaved=   4.
 NSaved= 4 IEnMin= 3 EnMin= -1212.20673404226     IErMin= 2 ErrMin= 1.16D-02
 ErrMax= 8.12D-02  0.00D+00 EMaxC= 1.00D-01 BMatC= 1.06D+00 BMatP= 1.25D-01
 IDIUse=2 WtCom= 0.00D+00 WtEn= 1.00D+00
 EnCoef did     1 forward-backward iterations
 Coeff-En:   0.384D-01 0.000D+00 0.740D+00 0.222D+00
 Coeff:      0.384D-01 0.000D+00 0.740D+00 0.222D+00
 Gap=    -0.065 Goal=   None    Shift=    0.000
 RMSDP=4.76D-03 MaxDP=3.32D-01 DE= 1.28D+00 OVMax= 9.77D-01

 Cycle   5  Pass 1  IDiag  1:
 RMSU=  1.67D-03    CP:  9.78D-01  7.21D-01  3.93D-01  1.09D-01
 E= -1212.44978990831     Delta-E=       -1.524256749812 Rises=F Damp=F
 DIIS: error= 8.97D-03 at cycle   5 NSaved=   5.
 NSaved= 5 IEnMin= 5 EnMin= -1212.44978990831     IErMin= 5 ErrMin= 8.97D-03
 ErrMax= 8.97D-03  0.00D+00 EMaxC= 1.00D-01 BMatC= 4.98D-02 BMatP= 1.25D-01
 IDIUse=3 WtCom= 9.10D-01 WtEn= 8.97D-02
 Coeff-Com: -0.230D+00 0.472D+00 0.288D+00 0.830D-02 0.462D+00
 Coeff-En:   0.000D+00 0.000D+00 0.815D-01 0.000D+00 0.918D+00
 Coeff:     -0.209D+00 0.429D+00 0.269D+00 0.756D-02 0.503D+00
 Gap=     0.063 Goal=   None    Shift=    0.000
 RMSDP=9.37D-04 MaxDP=4.41D-02 DE=-1.52D+00 OVMax= 5.86D-02

 Cycle   6  Pass 1  IDiag  1:
 RMSU=  5.75D-04    CP:  9.75D-01  8.27D-01  5.73D-01  5.94D-02  6.93D-01
 E= -1212.47946195691     Delta-E=       -0.029672048605 Rises=F Damp=F
 DIIS: error= 8.27D-03 at cycle   6 NSaved=   6.
 NSaved= 6 IEnMin= 6 EnMin= -1212.47946195691     IErMin= 6 ErrMin= 8.27D-03
 ErrMax= 8.27D-03  0.00D+00 EMaxC= 1.00D-01 BMatC= 1.58D-02 BMatP= 4.98D-02
 IDIUse=3 WtCom= 9.17D-01 WtEn= 8.27D-02
 Coeff-Com: -0.160D+00 0.234D+00 0.468D-01-0.105D-01 0.328D+00 0.562D+00
 Coeff-En:   0.000D+00 0.000D+00 0.000D+00 0.000D+00 0.228D+00 0.772D+00
 Coeff:     -0.147D+00 0.215D+00 0.429D-01-0.964D-02 0.320D+00 0.579D+00
 Gap=     0.066 Goal=   None    Shift=    0.000
 RMSDP=4.07D-04 MaxDP=2.12D-02 DE=-2.97D-02 OVMax= 2.86D-02

 Cycle   7  Pass 1  IDiag  1:
 RMSU=  1.62D-04    CP:  9.76D-01  8.67D-01  5.24D-01  2.40D-02  8.72D-01
                    CP:  7.40D-01
 E= -1212.49246483037     Delta-E=       -0.013002873459 Rises=F Damp=F
 DIIS: error= 1.11D-03 at cycle   7 NSaved=   7.
 NSaved= 7 IEnMin= 7 EnMin= -1212.49246483037     IErMin= 7 ErrMin= 1.11D-03
 ErrMax= 1.11D-03  0.00D+00 EMaxC= 1.00D-01 BMatC= 6.96D-04 BMatP= 1.58D-02
 IDIUse=3 WtCom= 9.89D-01 WtEn= 1.11D-02
 Coeff-Com: -0.517D-01 0.679D-01-0.266D-01-0.103D-02 0.821D-01 0.290D+00
 Coeff-Com:  0.639D+00
 Coeff-En:   0.000D+00 0.000D+00 0.000D+00 0.000D+00 0.000D+00 0.000D+00
 Coeff-En:   0.100D+01
 Coeff:     -0.511D-01 0.672D-01-0.263D-01-0.102D-02 0.812D-01 0.287D+00
 Coeff:      0.643D+00
 Gap=     0.066 Goal=   None    Shift=    0.000
 RMSDP=1.09D-04 MaxDP=5.22D-03 DE=-1.30D-02 OVMax= 9.49D-03

 Cycle   8  Pass 1  IDiag  1:
 RMSU=  6.95D-05    CP:  9.76D-01  8.54D-01  5.10D-01  3.13D-02  8.92D-01
                    CP:  8.41D-01  8.39D-01
 E= -1212.49304643234     Delta-E=       -0.000581601972 Rises=F Damp=F
 DIIS: error= 3.70D-04 at cycle   8 NSaved=   8.
 NSaved= 8 IEnMin= 8 EnMin= -1212.49304643234     IErMin= 8 ErrMin= 3.70D-04
 ErrMax= 3.70D-04  0.00D+00 EMaxC= 1.00D-01 BMatC= 1.30D-04 BMatP= 6.96D-04
 IDIUse=3 WtCom= 9.96D-01 WtEn= 3.70D-03
 Coeff-Com: -0.724D-02 0.876D-02-0.296D-01 0.111D-02-0.167D-01 0.716D-01
 Coeff-Com:  0.398D+00 0.574D+00
 Coeff-En:   0.000D+00 0.000D+00 0.000D+00 0.000D+00 0.000D+00 0.000D+00
 Coeff-En:   0.000D+00 0.100D+01
 Coeff:     -0.722D-02 0.873D-02-0.295D-01 0.111D-02-0.167D-01 0.714D-01
 Coeff:      0.397D+00 0.575D+00
 Gap=     0.066 Goal=   None    Shift=    0.000
 RMSDP=5.19D-05 MaxDP=2.30D-03 DE=-5.82D-04 OVMax= 6.43D-03

 Cycle   9  Pass 1  IDiag  1:
 RMSU=  2.93D-05    CP:  9.76D-01  8.58D-01  5.04D-01  2.78D-02  9.05D-01
                    CP:  8.71D-01  9.61D-01  7.70D-01
 E= -1212.49317990655     Delta-E=       -0.000133474209 Rises=F Damp=F
 DIIS: error= 1.30D-04 at cycle   9 NSaved=   9.
 NSaved= 9 IEnMin= 9 EnMin= -1212.49317990655     IErMin= 9 ErrMin= 1.30D-04
 ErrMax= 1.30D-04  0.00D+00 EMaxC= 1.00D-01 BMatC= 8.74D-06 BMatP= 1.30D-04
 IDIUse=3 WtCom= 9.99D-01 WtEn= 1.30D-03
 Coeff-Com: -0.131D-03 0.975D-03-0.847D-02 0.280D-03-0.132D-01-0.321D-02
 Coeff-Com:  0.707D-01 0.253D+00 0.700D+00
 Coeff-En:   0.000D+00 0.000D+00 0.000D+00 0.000D+00 0.000D+00 0.000D+00
 Coeff-En:   0.000D+00 0.000D+00 0.100D+01
 Coeff:     -0.131D-03 0.974D-03-0.846D-02 0.280D-03-0.132D-01-0.320D-02
 Coeff:      0.706D-01 0.253D+00 0.700D+00
 Gap=     0.066 Goal=   None    Shift=    0.000
 RMSDP=1.54D-05 MaxDP=7.39D-04 DE=-1.33D-04 OVMax= 1.12D-03

 Cycle  10  Pass 1  IDiag  1:
 RMSU=  1.18D-05    CP:  9.76D-01  8.58D-01  5.03D-01  2.68D-02  9.07D-01
                    CP:  8.78D-01  9.73D-01  8.68D-01  8.86D-01
 E= -1212.49318797388     Delta-E=       -0.000008067324 Rises=F Damp=F
 DIIS: error= 2.86D-05 at cycle  10 NSaved=  10.
 NSaved=10 IEnMin=10 EnMin= -1212.49318797388     IErMin=10 ErrMin= 2.86D-05
 ErrMax= 2.86D-05  0.00D+00 EMaxC= 1.00D-01 BMatC= 1.28D-06 BMatP= 8.74D-06
 IDIUse=1 WtCom= 1.00D+00 WtEn= 0.00D+00
 Coeff-Com: -0.102D-03 0.632D-03-0.605D-03 0.240D-04-0.247D-02-0.693D-02
 Coeff-Com: -0.954D-02 0.613D-01 0.353D+00 0.605D+00
 Coeff:     -0.102D-03 0.632D-03-0.605D-03 0.240D-04-0.247D-02-0.693D-02
 Coeff:     -0.954D-02 0.613D-01 0.353D+00 0.605D+00
 Gap=     0.066 Goal=   None    Shift=    0.000
 RMSDP=6.44D-06 MaxDP=1.77D-04 DE=-8.07D-06 OVMax= 1.05D-03

 Cycle  11  Pass 1  IDiag  1:
 RMSU=  4.77D-06    CP:  9.76D-01  8.59D-01  5.03D-01  2.66D-02  9.07D-01
                    CP:  8.80D-01  9.76D-01  8.78D-01  1.01D+00  8.50D-01
 E= -1212.49318937668     Delta-E=       -0.000001402800 Rises=F Damp=F
 DIIS: error= 1.44D-05 at cycle  11 NSaved=  11.
 NSaved=11 IEnMin=11 EnMin= -1212.49318937668     IErMin=11 ErrMin= 1.44D-05
 ErrMax= 1.44D-05  0.00D+00 EMaxC= 1.00D-01 BMatC= 1.84D-07 BMatP= 1.28D-06
 IDIUse=1 WtCom= 1.00D+00 WtEn= 0.00D+00
 Coeff-Com:  0.132D-03-0.135D-03 0.618D-03 0.695D-05 0.377D-03-0.315D-02
 Coeff-Com: -0.118D-01 0.170D-02 0.768D-01 0.318D+00 0.617D+00
 Coeff:      0.132D-03-0.135D-03 0.618D-03 0.695D-05 0.377D-03-0.315D-02
 Coeff:     -0.118D-01 0.170D-02 0.768D-01 0.318D+00 0.617D+00
 Gap=     0.066 Goal=   None    Shift=    0.000
 RMSDP=3.02D-06 MaxDP=1.38D-04 DE=-1.40D-06 OVMax= 5.49D-04

 Cycle  12  Pass 1  IDiag  1:
 RMSU=  1.83D-06    CP:  9.76D-01  8.59D-01  5.03D-01  2.66D-02  9.08D-01
                    CP:  8.80D-01  9.76D-01  8.93D-01  1.06D+00  9.53D-01
                    CP:  1.05D+00
 E= -1212.49318961342     Delta-E=       -0.000000236746 Rises=F Damp=F
 DIIS: error= 6.08D-06 at cycle  12 NSaved=  12.
 NSaved=12 IEnMin=12 EnMin= -1212.49318961342     IErMin=12 ErrMin= 6.08D-06
 ErrMax= 6.08D-06  0.00D+00 EMaxC= 1.00D-01 BMatC= 3.24D-08 BMatP= 1.84D-07
 IDIUse=1 WtCom= 1.00D+00 WtEn= 0.00D+00
 Coeff-Com:  0.456D-04-0.797D-04 0.553D-03-0.202D-04 0.756D-03-0.541D-03
 Coeff-Com: -0.425D-02-0.911D-02-0.255D-01 0.787D-01 0.317D+00 0.642D+00
 Coeff:      0.456D-04-0.797D-04 0.553D-03-0.202D-04 0.756D-03-0.541D-03
 Coeff:     -0.425D-02-0.911D-02-0.255D-01 0.787D-01 0.317D+00 0.642D+00
 Gap=     0.066 Goal=   None    Shift=    0.000
 RMSDP=1.24D-06 MaxDP=3.49D-05 DE=-2.37D-07 OVMax= 1.82D-04

 Cycle  13  Pass 1  IDiag  1:
 RMSU=  5.22D-07    CP:  9.76D-01  8.59D-01  5.03D-01  2.65D-02  9.07D-01
                    CP:  8.80D-01  9.76D-01  8.98D-01  1.08D+00  1.01D+00
                    CP:  1.17D+00  1.01D+00
 E= -1212.49318965657     Delta-E=       -0.000000043150 Rises=F Damp=F
 DIIS: error= 3.45D-06 at cycle  13 NSaved=  13.
 NSaved=13 IEnMin=13 EnMin= -1212.49318965657     IErMin=13 ErrMin= 3.45D-06
 ErrMax= 3.45D-06  0.00D+00 EMaxC= 1.00D-01 BMatC= 5.73D-09 BMatP= 3.24D-08
 IDIUse=1 WtCom= 1.00D+00 WtEn= 0.00D+00
 Coeff-Com:  0.416D-04-0.815D-04 0.135D-03-0.248D-05 0.238D-03 0.430D-03
 Coeff-Com:  0.154D-02-0.375D-02-0.317D-01-0.260D-01 0.328D-01 0.218D+00
 Coeff-Com:  0.808D+00
 Coeff:      0.416D-04-0.815D-04 0.135D-03-0.248D-05 0.238D-03 0.430D-03
 Coeff:      0.154D-02-0.375D-02-0.317D-01-0.260D-01 0.328D-01 0.218D+00
 Coeff:      0.808D+00
 Gap=     0.066 Goal=   None    Shift=    0.000
 RMSDP=8.64D-07 MaxDP=2.88D-05 DE=-4.31D-08 OVMax= 1.59D-04

 Cycle  14  Pass 1  IDiag  1:
 RMSU=  2.81D-07    CP:  9.76D-01  8.59D-01  5.03D-01  2.64D-02  9.07D-01
                    CP:  8.80D-01  9.76D-01  9.00D-01  1.09D+00  1.05D+00
                    CP:  1.27D+00  1.15D+00  1.04D+00
 E= -1212.49318966620     Delta-E=       -0.000000009632 Rises=F Damp=F
 DIIS: error= 1.71D-06 at cycle  14 NSaved=  14.
 NSaved=14 IEnMin=14 EnMin= -1212.49318966620     IErMin=14 ErrMin= 1.71D-06
 ErrMax= 1.71D-06  0.00D+00 EMaxC= 1.00D-01 BMatC= 1.99D-09 BMatP= 5.73D-09
 IDIUse=1 WtCom= 1.00D+00 WtEn= 0.00D+00
 Coeff-Com:  0.123D-04-0.172D-04-0.159D-04-0.463D-06-0.152D-04 0.327D-03
 Coeff-Com:  0.179D-02-0.498D-04-0.126D-01-0.285D-01-0.409D-01-0.464D-01
 Coeff-Com:  0.477D+00 0.649D+00
 Coeff:      0.123D-04-0.172D-04-0.159D-04-0.463D-06-0.152D-04 0.327D-03
 Coeff:      0.179D-02-0.498D-04-0.126D-01-0.285D-01-0.409D-01-0.464D-01
 Coeff:      0.477D+00 0.649D+00
 Gap=     0.066 Goal=   None    Shift=    0.000
 RMSDP=3.27D-07 MaxDP=1.05D-05 DE=-9.63D-09 OVMax= 4.85D-05

 Cycle  15  Pass 1  IDiag  1:
 RMSU=  9.42D-08    CP:  9.76D-01  8.59D-01  5.03D-01  2.64D-02  9.07D-01
                    CP:  8.80D-01  9.76D-01  9.02D-01  1.09D+00  1.06D+00
                    CP:  1.30D+00  1.21D+00  1.24D+00  7.70D-01
 E= -1212.49318966845     Delta-E=       -0.000000002249 Rises=F Damp=F
 DIIS: error= 4.23D-07 at cycle  15 NSaved=  15.
 NSaved=15 IEnMin=15 EnMin= -1212.49318966845     IErMin=15 ErrMin= 4.23D-07
 ErrMax= 4.23D-07  0.00D+00 EMaxC= 1.00D-01 BMatC= 1.18D-10 BMatP= 1.99D-09
 IDIUse=1 WtCom= 1.00D+00 WtEn= 0.00D+00
 Coeff-Com:  0.103D-04-0.157D-04-0.202D-04 0.115D-06-0.347D-04 0.952D-04
 Coeff-Com:  0.720D-03 0.312D-03-0.311D-02-0.110D-01-0.208D-01-0.459D-01
 Coeff-Com:  0.147D+00 0.308D+00 0.625D+00
 Coeff:      0.103D-04-0.157D-04-0.202D-04 0.115D-06-0.347D-04 0.952D-04
 Coeff:      0.720D-03 0.312D-03-0.311D-02-0.110D-01-0.208D-01-0.459D-01
 Coeff:      0.147D+00 0.308D+00 0.625D+00
 Gap=     0.066 Goal=   None    Shift=    0.000
 RMSDP=7.45D-08 MaxDP=2.45D-06 DE=-2.25D-09 OVMax= 8.93D-06

 Cycle  16  Pass 1  IDiag  1:
 RMSU=  3.85D-08    CP:  9.76D-01  8.59D-01  5.03D-01  2.64D-02  9.07D-01
                    CP:  8.80D-01  9.76D-01  9.02D-01  1.10D+00  1.06D+00
                    CP:  1.31D+00  1.22D+00  1.28D+00  8.61D-01  8.04D-01
 E= -1212.49318966860     Delta-E=       -0.000000000147 Rises=F Damp=F
 DIIS: error= 1.66D-07 at cycle  16 NSaved=  16.
 NSaved=16 IEnMin=16 EnMin= -1212.49318966860     IErMin=16 ErrMin= 1.66D-07
 ErrMax= 1.66D-07  0.00D+00 EMaxC= 1.00D-01 BMatC= 1.93D-11 BMatP= 1.18D-10
 IDIUse=1 WtCom= 1.00D+00 WtEn= 0.00D+00
 Coeff-Com: -0.253D-06 0.930D-06-0.671D-05-0.882D-07-0.118D-04 0.968D-05
 Coeff-Com:  0.145D-03 0.220D-03 0.328D-03-0.154D-02-0.470D-02-0.174D-01
 Coeff-Com:  0.808D-02 0.635D-01 0.325D+00 0.627D+00
 Coeff:     -0.253D-06 0.930D-06-0.671D-05-0.882D-07-0.118D-04 0.968D-05
 Coeff:      0.145D-03 0.220D-03 0.328D-03-0.154D-02-0.470D-02-0.174D-01
 Coeff:      0.808D-02 0.635D-01 0.325D+00 0.627D+00
 Gap=     0.066 Goal=   None    Shift=    0.000
 RMSDP=2.16D-08 MaxDP=8.12D-07 DE=-1.47D-10 OVMax= 1.84D-06

 Cycle  17  Pass 1  IDiag  1:
 RMSU=  1.08D-08    CP:  9.76D-01  8.59D-01  5.03D-01  2.64D-02  9.07D-01
                    CP:  8.80D-01  9.76D-01  9.02D-01  1.10D+00  1.06D+00
                    CP:  1.31D+00  1.22D+00  1.29D+00  8.74D-01  8.91D-01
                    CP:  7.69D-01
 E= -1212.49318966862     Delta-E=       -0.000000000017 Rises=F Damp=F
 DIIS: error= 7.20D-08 at cycle  17 NSaved=  17.
 NSaved=17 IEnMin=17 EnMin= -1212.49318966862     IErMin=17 ErrMin= 7.20D-08
 ErrMax= 7.20D-08  0.00D+00 EMaxC= 1.00D-01 BMatC= 2.16D-12 BMatP= 1.93D-11
 IDIUse=1 WtCom= 1.00D+00 WtEn= 0.00D+00
 Coeff-Com: -0.187D-05 0.292D-05-0.220D-05-0.107D-06-0.277D-05-0.305D-05
 Coeff-Com:  0.877D-05 0.945D-04 0.501D-03 0.205D-03-0.605D-03-0.472D-02
 Coeff-Com: -0.111D-01 0.426D-02 0.127D+00 0.340D+00 0.544D+00
 Coeff:     -0.187D-05 0.292D-05-0.220D-05-0.107D-06-0.277D-05-0.305D-05
 Coeff:      0.877D-05 0.945D-04 0.501D-03 0.205D-03-0.605D-03-0.472D-02
 Coeff:     -0.111D-01 0.426D-02 0.127D+00 0.340D+00 0.544D+00
 Gap=     0.066 Goal=   None    Shift=    0.000
 RMSDP=6.45D-09 MaxDP=3.32D-07 DE=-1.68D-11 OVMax= 6.93D-07

 Error on total polarization charges =  0.02521
 SCF Done:  E(RB3LYP) =  -1212.49318967     A.U. after   17 cycles
            NFock= 17  Conv=0.64D-08     -V/T= 2.0056
 KE= 1.205773800365D+03 PE=-5.807050632641D+03 EE= 1.896398598359D+03
 Leave Link  502 at Sun Jul 18 15:30:54 2021, MaxMem=   104857600 cpu:             321.3 elap:              80.4
 (Enter /prod/apps/gaussian/g16b1/l601.exe)
 Copying SCF densities to generalized density rwf, IOpCl= 0 IROHF=0.

 **********************************************************************

            Population analysis using the SCF Density.

 **********************************************************************

 Orbital symmetries:
       Occupied  (A) (A) (A) (A) (A) (A) (A) (A) (A) (A) (A) (A)
                 (A) (A) (A) (A) (A) (A) (A) (A) (A) (A) (A) (A)
                 (A) (A) (A) (A) (A) (A) (A) (A) (A) (A) (A) (A)
                 (A) (A) (A) (A) (A) (A) (A) (A) (A) (A) (A) (A)
                 (A) (A) (A) (A) (A) (A) (A) (A) (A) (A) (A) (A)
                 (A) (A) (A) (A) (A) (A) (A) (A) (A) (A) (A) (A)
       Virtual   (A) (A) (A) (A) (A) (A) (A) (A) (A) (A) (A) (A)
                 (A) (A) (A) (A) (A) (A) (A) (A) (A) (A) (A) (A)
                 (A) (A) (A) (A) (A) (A) (A) (A) (A) (A) (A) (A)
                 (A) (A) (A) (A) (A) (A) (A) (A) (A) (A) (A) (A)
                 (A) (A) (A) (A) (A) (A) (A) (A) (A) (A) (A) (A)
                 (A) (A) (A) (A) (A) (A) (A) (A) (A) (A) (A) (A)
                 (A) (A) (A) (A) (A) (A) (A) (A) (A) (A) (A) (A)
                 (A) (A) (A) (A) (A) (A) (A) (A) (A) (A) (A) (A)
                 (A) (A) (A) (A) (A) (A) (A) (A) (A) (A) (A) (A)
                 (A) (A) (A) (A) (A) (A) (A) (A) (A) (A) (A) (A)
                 (A) (A) (A) (A) (A) (A) (A) (A) (A) (A) (A) (A)
                 (A) (A) (A) (A) (A) (A) (A) (A) (A) (A) (A) (A)
                 (A) (A) (A) (A) (A) (A) (A) (A) (A) (A) (A) (A)
                 (A) (A) (A) (A) (A) (A) (A) (A) (A) (A) (A) (A)
                 (A) (A) (A) (A) (A) (A) (A) (A) (A) (A) (A) (A)
                 (A) (A) (A) (A) (A) (A) (A) (A) (A) (A) (A) (A)
                 (A) (A) (A) (A) (A) (A) (A) (A) (A) (A) (A) (A)
                 (A) (A) (A) (A) (A) (A) (A) (A) (A) (A) (A) (A)
                 (A) (A) (A) (A) (A) (A) (A) (A) (A) (A) (A) (A)
                 (A) (A) (A) (A) (A) (A) (A) (A) (A) (A) (A) (A)
                 (A) (A) (A) (A) (A)
 The electronic state is 1-A.
 Alpha  occ. eigenvalues --  -88.93323 -19.10707 -14.40340 -14.37175 -14.36519
 Alpha  occ. eigenvalues --  -14.35724 -14.34586 -10.33311 -10.31629 -10.28128
 Alpha  occ. eigenvalues --  -10.24775 -10.22858 -10.22482 -10.20713 -10.19388
 Alpha  occ. eigenvalues --  -10.19275 -10.19175 -10.19079 -10.18431  -7.99497
 Alpha  occ. eigenvalues --   -5.95875  -5.95540  -5.95197  -1.13444  -1.04626
 Alpha  occ. eigenvalues --   -1.00656  -0.95660  -0.94146  -0.89960  -0.87253
 Alpha  occ. eigenvalues --   -0.82585  -0.79545  -0.76419  -0.73898  -0.72026
 Alpha  occ. eigenvalues --   -0.67620  -0.65645  -0.63062  -0.62453  -0.61071
 Alpha  occ. eigenvalues --   -0.59279  -0.56959  -0.55746  -0.54537  -0.52939
 Alpha  occ. eigenvalues --   -0.50603  -0.49372  -0.48651  -0.47808  -0.46753
 Alpha  occ. eigenvalues --   -0.45842  -0.44449  -0.43751  -0.43283  -0.42415
 Alpha  occ. eigenvalues --   -0.40146  -0.40004  -0.39448  -0.38393  -0.37273
 Alpha  occ. eigenvalues --   -0.37057  -0.35831  -0.35439  -0.32738  -0.32033
 Alpha  occ. eigenvalues --   -0.30814  -0.30025  -0.28019  -0.26572  -0.25231
 Alpha  occ. eigenvalues --   -0.24354  -0.21643
 Alpha virt. eigenvalues --   -0.15001  -0.04680  -0.01938  -0.00664   0.00054
 Alpha virt. eigenvalues --    0.03747   0.06466   0.09119   0.09479   0.09984
 Alpha virt. eigenvalues --    0.10863   0.12462   0.13424   0.14047   0.14254
 Alpha virt. eigenvalues --    0.14876   0.15708   0.16297   0.16934   0.17791
 Alpha virt. eigenvalues --    0.18039   0.19657   0.19953   0.20726   0.21257
 Alpha virt. eigenvalues --    0.22595   0.24472   0.26236   0.27442   0.29374
 Alpha virt. eigenvalues --    0.30298   0.31543   0.32429   0.33006   0.34536
 Alpha virt. eigenvalues --    0.34710   0.35427   0.36347   0.38187   0.40328
 Alpha virt. eigenvalues --    0.40490   0.42451   0.44916   0.46790   0.49639
 Alpha virt. eigenvalues --    0.50703   0.51779   0.52869   0.53787   0.54088
 Alpha virt. eigenvalues --    0.54452   0.55079   0.55799   0.56088   0.57023
 Alpha virt. eigenvalues --    0.57713   0.59117   0.59431   0.60151   0.60861
 Alpha virt. eigenvalues --    0.61570   0.62091   0.62862   0.63883   0.65301
 Alpha virt. eigenvalues --    0.66208   0.67116   0.69040   0.69792   0.70292
 Alpha virt. eigenvalues --    0.71075   0.72146   0.72813   0.74854   0.75897
 Alpha virt. eigenvalues --    0.76117   0.77187   0.77847   0.78867   0.80485
 Alpha virt. eigenvalues --    0.81783   0.82360   0.82846   0.83487   0.83662
 Alpha virt. eigenvalues --    0.84694   0.84927   0.85409   0.85896   0.86364
 Alpha virt. eigenvalues --    0.86503   0.87816   0.88111   0.89307   0.90046
 Alpha virt. eigenvalues --    0.90460   0.91036   0.91325   0.92623   0.93190
 Alpha virt. eigenvalues --    0.94020   0.94332   0.96059   0.96583   0.96756
 Alpha virt. eigenvalues --    0.97476   0.97923   1.00987   1.01572   1.03071
 Alpha virt. eigenvalues --    1.05074   1.07384   1.07649   1.09760   1.10321
 Alpha virt. eigenvalues --    1.11136   1.12767   1.16014   1.16918   1.18803
 Alpha virt. eigenvalues --    1.21158   1.22425   1.24131   1.25242   1.27064
 Alpha virt. eigenvalues --    1.28900   1.31602   1.32033   1.36436   1.36668
 Alpha virt. eigenvalues --    1.38996   1.39833   1.40743   1.42969   1.44467
 Alpha virt. eigenvalues --    1.46895   1.48087   1.50790   1.51736   1.53583
 Alpha virt. eigenvalues --    1.54508   1.55439   1.57511   1.59535   1.65152
 Alpha virt. eigenvalues --    1.66649   1.67843   1.69771   1.72116   1.74858
 Alpha virt. eigenvalues --    1.77579   1.78273   1.80573   1.81964   1.82739
 Alpha virt. eigenvalues --    1.83959   1.84330   1.86599   1.88089   1.89295
 Alpha virt. eigenvalues --    1.91059   1.93103   1.93895   1.94972   1.96306
 Alpha virt. eigenvalues --    1.97795   1.98905   2.00631   2.03081   2.05128
 Alpha virt. eigenvalues --    2.06226   2.10212   2.11422   2.12125   2.13905
 Alpha virt. eigenvalues --    2.14445   2.16267   2.19042   2.19347   2.20499
 Alpha virt. eigenvalues --    2.21392   2.22386   2.24383   2.24708   2.25589
 Alpha virt. eigenvalues --    2.26475   2.30024   2.31580   2.33074   2.33939
 Alpha virt. eigenvalues --    2.34808   2.39845   2.40678   2.43077   2.46090
 Alpha virt. eigenvalues --    2.47752   2.48363   2.49899   2.52393   2.53445
 Alpha virt. eigenvalues --    2.57092   2.59209   2.60620   2.62787   2.64411
 Alpha virt. eigenvalues --    2.66266   2.67564   2.69784   2.70149   2.74700
 Alpha virt. eigenvalues --    2.76572   2.77445   2.78279   2.80770   2.83300
 Alpha virt. eigenvalues --    2.85437   2.90358   2.96132   2.98238   2.99507
 Alpha virt. eigenvalues --    3.00316   3.06039   3.15683   3.21124   3.28912
 Alpha virt. eigenvalues --    3.48795   3.80721   3.84672   3.92771   4.00147
 Alpha virt. eigenvalues --    4.04629   4.08883   4.10739   4.12595   4.14640
 Alpha virt. eigenvalues --    4.16591   4.19302   4.20400   4.28604   4.32191
 Alpha virt. eigenvalues --    4.36263   4.45610   4.52608   4.54125   4.77192
          Condensed to atoms (all electrons):
               1          2          3          4          5          6
     1  C    5.335274   0.353546   0.347428   0.361250   0.348750  -0.088745
     2  H    0.353546   0.531292  -0.021486  -0.023597  -0.024778   0.005052
     3  H    0.347428  -0.021486   0.534231  -0.017327  -0.029744   0.002690
     4  H    0.361250  -0.023597  -0.017327   0.501846  -0.016426   0.000969
     5  C    0.348750  -0.024778  -0.029744  -0.016426   4.282400   0.628689
     6  O   -0.088745   0.005052   0.002690   0.000969   0.628689   8.134202
     7  N   -0.125138   0.004759   0.007340   0.000063   0.274001  -0.125568
     8  H    0.000030  -0.000025   0.001935   0.000181  -0.021544   0.003865
     9  C    0.008191  -0.000217  -0.000073  -0.000175  -0.008822   0.015101
    10  C   -0.000439   0.000006   0.000055   0.000001   0.000303  -0.001024
    11  C    0.000004  -0.000000   0.000000   0.000000  -0.000133  -0.000044
    12  C    0.000000  -0.000000  -0.000000  -0.000000   0.000056   0.000024
    13  H    0.000000  -0.000000  -0.000000  -0.000000   0.000000   0.000000
    14  H   -0.000000   0.000000  -0.000000  -0.000000  -0.000002   0.000000
    15  H   -0.000044  -0.000001   0.000021   0.000001   0.000577  -0.000033
    16  C    0.000216   0.000008  -0.000020   0.000017  -0.000646   0.000865
    17  H   -0.000229   0.000008   0.000004   0.000003   0.004257   0.002004
    18  C   -0.000005   0.000000   0.000001  -0.000001  -0.000280  -0.000612
    19  C   -0.000000  -0.000000   0.000000   0.000000  -0.000009   0.000007
    20  N   -0.000000   0.000000  -0.000000   0.000000  -0.000010  -0.000004
    21  C    0.000000  -0.000000  -0.000000  -0.000000  -0.000000   0.000000
    22  H    0.000000   0.000000   0.000000  -0.000000   0.000000  -0.000000
    23  S    0.000000  -0.000000   0.000000   0.000000  -0.000000   0.000000
    24  C   -0.000000   0.000000   0.000000   0.000000  -0.000000  -0.000000
    25  N    0.000000   0.000000   0.000000  -0.000000   0.000000   0.000000
    26  C   -0.000000   0.000000   0.000000   0.000000  -0.000000   0.000000
    27  N    0.000000   0.000000   0.000000  -0.000000   0.000000  -0.000000
    28  H    0.000000   0.000000   0.000000  -0.000000  -0.000000  -0.000000
    29  H    0.000000   0.000000   0.000000  -0.000000   0.000000  -0.000000
    30  N    0.000000  -0.000000  -0.000000  -0.000000   0.000000   0.000000
    31  H   -0.000000  -0.000000   0.000000   0.000000  -0.000000   0.000000
    32  H   -0.000000  -0.000000   0.000000   0.000000  -0.000000   0.000000
    33  H   -0.000000  -0.000000   0.000000   0.000000  -0.000000   0.000000
               7          8          9         10         11         12
     1  C   -0.125138   0.000030   0.008191  -0.000439   0.000004   0.000000
     2  H    0.004759  -0.000025  -0.000217   0.000006  -0.000000  -0.000000
     3  H    0.007340   0.001935  -0.000073   0.000055   0.000000  -0.000000
     4  H    0.000063   0.000181  -0.000175   0.000001   0.000000  -0.000000
     5  C    0.274001  -0.021544  -0.008822   0.000303  -0.000133   0.000056
     6  O   -0.125568   0.003865   0.015101  -0.001024  -0.000044   0.000024
     7  N    7.277541   0.300312   0.166770  -0.055453   0.006321   0.000644
     8  H    0.300312   0.344832  -0.018327  -0.004000  -0.000030   0.000029
     9  C    0.166770  -0.018327   4.583688   0.559683  -0.015862  -0.045557
    10  C   -0.055453  -0.004000   0.559683   4.976311   0.504324  -0.045250
    11  C    0.006321  -0.000030  -0.015862   0.504324   4.921420   0.519275
    12  C    0.000644   0.000029  -0.045557  -0.045250   0.519275   5.059913
    13  H    0.000004  -0.000001   0.000553   0.006691  -0.047131   0.350557
    14  H   -0.000136   0.000003   0.002767  -0.034758   0.361924  -0.034699
    15  H   -0.004659   0.001107  -0.044457   0.351872  -0.040533   0.004962
    16  C   -0.057260   0.002303   0.519513  -0.055806  -0.062374  -0.067725
    17  H   -0.010797   0.000084  -0.038296   0.007637   0.000148   0.007110
    18  C    0.006889   0.000034  -0.008658  -0.043230  -0.003441   0.537512
    19  C   -0.000243   0.000004   0.006583   0.000723   0.006302  -0.061712
    20  N    0.000003   0.000000   0.000399   0.000002  -0.000096   0.005546
    21  C    0.000001  -0.000000  -0.000216   0.000029   0.000134  -0.018721
    22  H    0.000000   0.000000   0.000003  -0.000003   0.000085   0.002033
    23  S   -0.000000   0.000000   0.000011  -0.000000  -0.000001   0.000379
    24  C    0.000000   0.000000  -0.000009  -0.000000   0.000003  -0.000054
    25  N    0.000000   0.000000  -0.000000  -0.000000  -0.000000   0.000001
    26  C   -0.000000  -0.000000   0.000001   0.000000  -0.000000  -0.000001
    27  N    0.000000   0.000000   0.000000   0.000000  -0.000000   0.000000
    28  H    0.000000   0.000000  -0.000000   0.000000   0.000000  -0.000000
    29  H    0.000000   0.000000  -0.000000  -0.000000  -0.000000   0.000000
    30  N   -0.000000   0.000000  -0.000000   0.000000  -0.000000  -0.000000
    31  H    0.000000  -0.000000   0.000000  -0.000000  -0.000000  -0.000000
    32  H   -0.000000  -0.000000   0.000000  -0.000000  -0.000000  -0.000000
    33  H   -0.000000  -0.000000   0.000000   0.000000   0.000000  -0.000000
              13         14         15         16         17         18
     1  C    0.000000  -0.000000  -0.000044   0.000216  -0.000229  -0.000005
     2  H   -0.000000   0.000000  -0.000001   0.000008   0.000008   0.000000
     3  H   -0.000000  -0.000000   0.000021  -0.000020   0.000004   0.000001
     4  H   -0.000000  -0.000000   0.000001   0.000017   0.000003  -0.000001
     5  C    0.000000  -0.000002   0.000577  -0.000646   0.004257  -0.000280
     6  O    0.000000   0.000000  -0.000033   0.000865   0.002004  -0.000612
     7  N    0.000004  -0.000136  -0.004659  -0.057260  -0.010797   0.006889
     8  H   -0.000001   0.000003   0.001107   0.002303   0.000084   0.000034
     9  C    0.000553   0.002767  -0.044457   0.519513  -0.038296  -0.008658
    10  C    0.006691  -0.034758   0.351872  -0.055806   0.007637  -0.043230
    11  C   -0.047131   0.361924  -0.040533  -0.062374   0.000148  -0.003441
    12  C    0.350557  -0.034699   0.004962  -0.067725   0.007110   0.537512
    13  H    0.590394  -0.007762  -0.000202   0.008495  -0.000189  -0.042310
    14  H   -0.007762   0.549590  -0.004316   0.000932   0.000019   0.003181
    15  H   -0.000202  -0.004316   0.574941   0.007169  -0.000207   0.000673
    16  C    0.008495   0.000932   0.007169   5.166234   0.349901   0.439926
    17  H   -0.000189   0.000019  -0.000207   0.349901   0.575814  -0.049758
    18  C   -0.042310   0.003181   0.000673   0.439926  -0.049758   4.805227
    19  C   -0.011744  -0.000179   0.000016  -0.045959  -0.012273   0.338578
    20  N   -0.000034   0.000001  -0.000000  -0.008138   0.012652  -0.055970
    21  C    0.007725  -0.000001  -0.000000   0.009855   0.000355  -0.059820
    22  H    0.002052  -0.000002  -0.000000  -0.000115  -0.000011  -0.005387
    23  S   -0.000143  -0.000000   0.000000   0.000003   0.000056   0.005295
    24  C   -0.000013  -0.000000  -0.000000  -0.000094  -0.000298   0.008956
    25  N   -0.000000   0.000000  -0.000000  -0.000016  -0.000025  -0.000148
    26  C   -0.000000   0.000000   0.000000  -0.000001   0.000076  -0.000053
    27  N    0.000000  -0.000000  -0.000000   0.000000   0.000001  -0.000000
    28  H    0.000000  -0.000000   0.000000  -0.000000   0.000000   0.000000
    29  H   -0.000000  -0.000000  -0.000000  -0.000000  -0.000000   0.000000
    30  N   -0.000000   0.000000   0.000000  -0.000000   0.000000   0.000003
    31  H   -0.000000   0.000000  -0.000000   0.000001   0.000000  -0.000004
    32  H   -0.000000   0.000000   0.000000   0.000000   0.000000  -0.000000
    33  H   -0.000000  -0.000000   0.000000  -0.000000  -0.000000   0.000001
              19         20         21         22         23         24
     1  C   -0.000000  -0.000000   0.000000   0.000000   0.000000  -0.000000
     2  H   -0.000000   0.000000  -0.000000   0.000000  -0.000000   0.000000
     3  H    0.000000  -0.000000  -0.000000   0.000000   0.000000   0.000000
     4  H    0.000000   0.000000  -0.000000  -0.000000   0.000000   0.000000
     5  C   -0.000009  -0.000010  -0.000000   0.000000  -0.000000  -0.000000
     6  O    0.000007  -0.000004   0.000000  -0.000000   0.000000  -0.000000
     7  N   -0.000243   0.000003   0.000001   0.000000  -0.000000   0.000000
     8  H    0.000004   0.000000  -0.000000   0.000000   0.000000   0.000000
     9  C    0.006583   0.000399  -0.000216   0.000003   0.000011  -0.000009
    10  C    0.000723   0.000002   0.000029  -0.000003  -0.000000  -0.000000
    11  C    0.006302  -0.000096   0.000134   0.000085  -0.000001   0.000003
    12  C   -0.061712   0.005546  -0.018721   0.002033   0.000379  -0.000054
    13  H   -0.011744  -0.000034   0.007725   0.002052  -0.000143  -0.000013
    14  H   -0.000179   0.000001  -0.000001  -0.000002  -0.000000  -0.000000
    15  H    0.000016  -0.000000  -0.000000  -0.000000   0.000000  -0.000000
    16  C   -0.045959  -0.008138   0.009855  -0.000115   0.000003  -0.000094
    17  H   -0.012273   0.012652   0.000355  -0.000011   0.000056  -0.000298
    18  C    0.338578  -0.055970  -0.059820  -0.005387   0.005295   0.008956
    19  C    4.687929   0.388926   0.525798  -0.006621  -0.058538  -0.054676
    20  N    0.388926   6.985088  -0.102115   0.003634  -0.064360   0.411538
    21  C    0.525798  -0.102115   5.461066   0.352224   0.286567  -0.065663
    22  H   -0.006621   0.003634   0.352224   0.462666  -0.037309   0.002461
    23  S   -0.058538  -0.064360   0.286567  -0.037309  15.300169   0.317863
    24  C   -0.054676   0.411538  -0.065663   0.002461   0.317863   4.851452
    25  N    0.001946  -0.058330   0.002693  -0.000043  -0.068331   0.266807
    26  C    0.000819   0.017592   0.000220  -0.000001   0.006700  -0.046845
    27  N   -0.000035   0.000906   0.000007  -0.000000  -0.000387   0.007281
    28  H    0.000001   0.000031  -0.000000   0.000000   0.000022  -0.000249
    29  H    0.000004  -0.000060   0.000001   0.000000  -0.000022  -0.000554
    30  N    0.000032  -0.001489  -0.000014  -0.000000   0.000361   0.000545
    31  H   -0.000078   0.002112   0.000003  -0.000000  -0.000029   0.006339
    32  H    0.000001   0.000111   0.000000  -0.000000   0.000128   0.000303
    33  H   -0.000011   0.001429   0.000041  -0.000002  -0.000489  -0.015599
              25         26         27         28         29         30
     1  C    0.000000  -0.000000   0.000000   0.000000   0.000000   0.000000
     2  H    0.000000   0.000000   0.000000   0.000000   0.000000  -0.000000
     3  H    0.000000   0.000000   0.000000   0.000000   0.000000  -0.000000
     4  H   -0.000000   0.000000  -0.000000  -0.000000  -0.000000  -0.000000
     5  C    0.000000  -0.000000   0.000000  -0.000000   0.000000   0.000000
     6  O    0.000000   0.000000  -0.000000  -0.000000  -0.000000   0.000000
     7  N    0.000000  -0.000000   0.000000   0.000000   0.000000  -0.000000
     8  H    0.000000  -0.000000   0.000000   0.000000   0.000000   0.000000
     9  C   -0.000000   0.000001   0.000000  -0.000000  -0.000000  -0.000000
    10  C   -0.000000   0.000000   0.000000   0.000000  -0.000000   0.000000
[...]
 Alpha virt. eigenvalues --    4.13205   4.19431   4.26150   4.98188
          Condensed to atoms (all electrons):
               1          2          3          4          5          6
     1  C    4.841023   0.363360   0.244908   0.309689  -0.100611  -0.075608
     2  H    0.363360   0.806042  -0.127099  -0.047337  -0.088991   0.017034
     3  H    0.244908  -0.127099   1.025875  -0.059935   0.161891   0.020285
     4  H    0.309689  -0.047337  -0.059935   0.693890   0.035852  -0.003089
     5  C   -0.100611  -0.088991   0.161891   0.035852   5.860009   0.068935
     6  O   -0.075608   0.017034   0.020285  -0.003089   0.068935   8.889192
     7  N   -0.006203   0.088626  -0.157246   0.015940   0.235610  -0.108154
     8  H   -0.099233  -0.009979   0.006677   0.001498  -0.054820  -0.014894
     9  C    0.228501   0.005604  -0.028006  -0.027921  -1.070614   0.253563
    10  C   -0.207973   0.007798  -0.025929  -0.009412  -0.408864   0.118405
    11  C    0.051137   0.001677   0.003076   0.001491  -0.114180  -0.002144
    12  C   -0.058897  -0.000484  -0.007385  -0.001715   0.261864  -0.027014
    13  H   -0.001074   0.000010  -0.000019  -0.000097   0.002495  -0.000073
    14  H    0.000474  -0.000024  -0.000168   0.000056   0.001397  -0.000592
    15  H    0.003125   0.000596   0.002534  -0.000924  -0.018785   0.004272
    16  C   -0.124953  -0.006716   0.035685   0.009740   0.439287  -0.034171
    17  H    0.030794   0.001671  -0.001377   0.002844   0.097510  -0.110044
    18  C    0.078730  -0.003372   0.007622   0.002343   0.217095  -0.104787
    19  C    0.000049   0.000432   0.000512  -0.000373   0.034647   0.015327
    20  N    0.002829   0.000267  -0.000016   0.000247   0.007082  -0.001509
    21  C    0.003465   0.000074   0.000097   0.000249  -0.003166   0.000449
    22  H    0.000546   0.000018   0.000035   0.000036   0.001918  -0.000214
    23  S    0.000013   0.000004   0.000005   0.000001   0.001585  -0.000082
    24  C    0.000194   0.000245  -0.000139   0.000180   0.000099  -0.007017
    25  N    0.000162   0.000022   0.000016   0.000002   0.000864   0.000323
    26  C   -0.001348  -0.000072  -0.000070  -0.000075  -0.013464  -0.001169
    27  N    0.000003   0.000032  -0.000002  -0.000003   0.000569  -0.000223
    28  H   -0.000109  -0.000011  -0.000004  -0.000009  -0.000278   0.000136
    29  H    0.000017   0.000004   0.000001   0.000001   0.000070  -0.000064
    30  N   -0.001567   0.000127   0.000019  -0.000082   0.003532  -0.002753
    31  H   -0.006700  -0.000450  -0.000029  -0.000591   0.007337   0.010785
    32  H   -0.000235  -0.000334   0.000046   0.000045  -0.000696  -0.000009
    33  H   -0.000025  -0.000001  -0.000002  -0.000000  -0.000089   0.000078
               7          8          9         10         11         12
     1  C   -0.006203  -0.099233   0.228501  -0.207973   0.051137  -0.058897
     2  H    0.088626  -0.009979   0.005604   0.007798   0.001677  -0.000484
     3  H   -0.157246   0.006677  -0.028006  -0.025929   0.003076  -0.007385
     4  H    0.015940   0.001498  -0.027921  -0.009412   0.001491  -0.001715
     5  C    0.235610  -0.054820  -1.070614  -0.408864  -0.114180   0.261864
     6  O   -0.108154  -0.014894   0.253563   0.118405  -0.002144  -0.027014
     7  N    8.273203   0.247629  -2.033339   1.156533  -0.881251   0.638086
     8  H    0.247629   0.988409   0.120005  -0.061835   0.042954   0.050653
     9  C   -2.033339   0.120005  25.410404 -11.187655   6.018720  -6.058914
    10  C    1.156533  -0.061835 -11.187655  21.306484  -6.607909   4.126779
    11  C   -0.881251   0.042954   6.018720  -6.607909  16.368921  -5.553332
    12  C    0.638086   0.050653  -6.058914   4.126779  -5.553332  26.751559
    13  H    0.017203  -0.003953  -0.169230  -0.101113   0.113244  -1.763043
    14  H    0.005120   0.010191  -0.238785   0.574804  -1.126446   0.819110
    15  H   -0.295590   0.003219   1.750849  -2.152613   0.793191  -0.336048
    16  C    1.359109  -0.192215 -10.712721   5.370719  -4.906163  -0.276176
    17  H   -0.245059   0.008203   1.038252  -0.756902   0.321162  -0.639176
    18  C   -0.713443   0.004475   3.847528  -6.712341   2.124117 -11.657251
    19  C    0.129659  -0.011345  -1.588127   0.776422  -0.838629   1.811645
    20  N   -0.008827   0.000458   0.280619  -0.114445   0.175386  -0.204677
    21  C   -0.047046   0.003218   0.503970  -0.144241   0.082505  -2.745938
    22  H   -0.004473   0.000083   0.047665  -0.036966   0.118237   0.242774
    23  S   -0.000145   0.000081  -0.027773   0.018799  -0.049972   0.013354
    24  C    0.005479   0.000926   0.155480  -0.073126   0.037043   0.066908
    25  N    0.000261  -0.000083  -0.030785   0.006768  -0.008749   0.011733
    26  C   -0.002907   0.000439   0.094403   0.002711  -0.013937  -0.103392
    27  N    0.000038  -0.000011  -0.004889   0.000054   0.000193   0.004261
    28  H    0.000005   0.000005   0.001006   0.000178  -0.000147  -0.000499
    29  H    0.000004  -0.000003  -0.000401  -0.000040   0.000106   0.000344
    30  N    0.001542  -0.000046  -0.050912  -0.001399   0.003267   0.029482
    31  H    0.013236   0.000129  -0.125002   0.078440  -0.052596   0.118275
    32  H   -0.001080   0.000149   0.008248  -0.003878   0.001710  -0.003677
    33  H   -0.000065   0.000016   0.002340   0.000234  -0.001110  -0.004415
              13         14         15         16         17         18
     1  C   -0.001074   0.000474   0.003125  -0.124953   0.030794   0.078730
     2  H    0.000010  -0.000024   0.000596  -0.006716   0.001671  -0.003372
     3  H   -0.000019  -0.000168   0.002534   0.035685  -0.001377   0.007622
     4  H   -0.000097   0.000056  -0.000924   0.009740   0.002844   0.002343
     5  C    0.002495   0.001397  -0.018785   0.439287   0.097510   0.217095
     6  O   -0.000073  -0.000592   0.004272  -0.034171  -0.110044  -0.104787
     7  N    0.017203   0.005120  -0.295590   1.359109  -0.245059  -0.713443
     8  H   -0.003953   0.010191   0.003219  -0.192215   0.008203   0.004475
     9  C   -0.169230  -0.238785   1.750849 -10.712721   1.038252   3.847528
    10  C   -0.101113   0.574804  -2.152613   5.370719  -0.756902  -6.712341
    11  C    0.113244  -1.126446   0.793191  -4.906163   0.321162   2.124117
    12  C   -1.763043   0.819110  -0.336048  -0.276176  -0.639176 -11.657251
    13  H    2.139505  -0.082999  -0.009504   0.304104  -0.008914   1.112108
    14  H   -0.082999   1.730006  -0.108341   0.047610   0.008131  -0.120985
    15  H   -0.009504  -0.108341   2.208227  -0.230109  -0.011737   0.076486
    16  C    0.304104   0.047610  -0.230109  24.197393  -2.283283  -7.375898
    17  H   -0.008914   0.008131  -0.011737  -2.283283   3.049130   1.367994
    18  C    1.112108  -0.120985   0.076486  -7.375898   1.367994  28.879130
    19  C    0.168057  -0.125181   0.016928   0.362151  -0.029775 -12.062732
    20  N   -0.012635   0.006056   0.000222  -0.189381  -0.114754   0.906496
    21  C    0.015595   0.085511  -0.008047  -1.215334   0.113776   4.743346
    22  H   -0.068578   0.002778   0.000097   0.026171   0.021144  -0.482629
    23  S   -0.002750  -0.000181   0.000128   0.000215   0.003428  -0.207642
    24  C   -0.005461   0.003338  -0.001081  -0.133735  -0.158817   0.181653
    25  N    0.003204  -0.000383   0.000223   0.012370  -0.000529  -0.150987
    26  C   -0.000886  -0.000071  -0.000266   0.013777   0.042647  -0.013226
    27  N    0.000130  -0.000003   0.000014  -0.005133  -0.000342   0.000951
    28  H    0.000022  -0.000003   0.000001   0.000831   0.000484  -0.001868
    29  H   -0.000005   0.000001   0.000001   0.000074  -0.000260   0.000921
    30  N   -0.000239   0.000081   0.000054  -0.003758  -0.001664   0.044251
    31  H    0.001619  -0.000800   0.000397   0.077203  -0.092298  -0.099032
    32  H   -0.000178   0.000048  -0.000108   0.002403   0.009289   0.001443
    33  H   -0.000171   0.000007  -0.000003   0.004808  -0.002018  -0.001578
              19         20         21         22         23         24
     1  C    0.000049   0.002829   0.003465   0.000546   0.000013   0.000194
     2  H    0.000432   0.000267   0.000074   0.000018   0.000004   0.000245
     3  H    0.000512  -0.000016   0.000097   0.000035   0.000005  -0.000139
     4  H   -0.000373   0.000247   0.000249   0.000036   0.000001   0.000180
     5  C    0.034647   0.007082  -0.003166   0.001918   0.001585   0.000099
     6  O    0.015327  -0.001509   0.000449  -0.000214  -0.000082  -0.007017
     7  N    0.129659  -0.008827  -0.047046  -0.004473  -0.000145   0.005479
     8  H   -0.011345   0.000458   0.003218   0.000083   0.000081   0.000926
     9  C   -1.588127   0.280619   0.503970   0.047665  -0.027773   0.155480
    10  C    0.776422  -0.114445  -0.144241  -0.036966   0.018799  -0.073126
    11  C   -0.838629   0.175386   0.082505   0.118237  -0.049972   0.037043
    12  C    1.811645  -0.204677  -2.745938   0.242774   0.013354   0.066908
    13  H    0.168057  -0.012635   0.015595  -0.068578  -0.002750  -0.005461
    14  H   -0.125181   0.006056   0.085511   0.002778  -0.000181   0.003338
    15  H    0.016928   0.000222  -0.008047   0.000097   0.000128  -0.001081
    16  C    0.362151  -0.189381  -1.215334   0.026171   0.000215  -0.133735
    17  H   -0.029775  -0.114754   0.113776   0.021144   0.003428  -0.158817
    18  C  -12.062732   0.906496   4.743346  -0.482629  -0.207642   0.181653
    19  C   32.294330  -2.072719 -11.801597   1.083066   0.082167  -1.349350
    20  N   -2.072719   8.135313   0.924826   0.008034  -0.181420   0.186115
    21  C  -11.801597   0.924826  16.077788  -0.643450   0.208509  -0.644469
    22  H    1.083066   0.008034  -0.643450   1.637259  -0.231519  -0.098671
    23  S    0.082167  -0.181420   0.208509  -0.231519  15.922805   0.174642
    24  C   -1.349350   0.186115  -0.644469  -0.098671   0.174642   7.883772
    25  N    0.563340  -0.139775  -0.092057  -0.015200  -0.112043  -0.221607
    26  C    0.023737   0.082110  -0.143244  -0.009741  -0.080126  -0.525841
    27  N    0.025419   0.001805  -0.000181  -0.000164   0.009048   0.031766
    28  H    0.003601   0.002807  -0.003651  -0.000199  -0.000498  -0.014454
    29  H   -0.002342   0.001078   0.001203   0.000121  -0.002004  -0.034308
    30  N   -0.084313  -0.026423   0.065011   0.002600  -0.007709   0.038176
    31  H    0.033016  -0.037064  -0.071934  -0.009543   0.000966   0.002320
    32  H   -0.000299  -0.004244   0.000470   0.000225  -0.000434   0.012686
    33  H   -0.064042  -0.008564  -0.002085   0.000240   0.011914  -0.116309
              25         26         27         28         29         30
     1  C    0.000162  -0.001348   0.000003  -0.000109   0.000017  -0.001567
     2  H    0.000022  -0.000072   0.000032  -0.000011   0.000004   0.000127
     3  H    0.000016  -0.000070  -0.000002  -0.000004   0.000001   0.000019
     4  H    0.000002  -0.000075  -0.000003  -0.000009   0.000001  -0.000082
     5  C    0.000864  -0.013464   0.000569  -0.000278   0.000070   0.003532
     6  O    0.000323  -0.001169  -0.000223   0.000136  -0.000064  -0.002753
     7  N    0.000261  -0.002907   0.000038   0.000005   0.000004   0.001542
     8  H   -0.000083   0.000439  -0.000011   0.000005  -0.000003  -0.000046
     9  C   -0.030785   0.094403  -0.004889   0.001006  -0.000401  -0.050912
    10  C    0.006768   0.002711   0.000054   0.000178  -0.000040  -0.001399
    11  C   -0.008749  -0.013937   0.000193  -0.000147   0.000106   0.003267
    12  C    0.011733  -0.103392   0.004261  -0.000499   0.000344   0.029482
    13  H    0.003204  -0.000886   0.000130   0.000022  -0.000005  -0.000239
    14  H   -0.000383  -0.000071  -0.000003  -0.000003   0.000001   0.000081
    15  H    0.000223  -0.000266   0.000014   0.000001   0.000001   0.000054
    16  C    0.012370   0.013777  -0.005133   0.000831   0.000074  -0.003758
    17  H   -0.000529   0.042647  -0.000342   0.000484  -0.000260  -0.001664
    18  C   -0.150987  -0.013226   0.000951  -0.001868   0.000921   0.044251
    19  C    0.563340   0.023737   0.025419   0.003601  -0.002342  -0.084313
    20  N   -0.139775   0.082110   0.001805   0.002807   0.001078  -0.026423
    21  C   -0.092057  -0.143244  -0.000181  -0.003651   0.001203   0.065011
    22  H   -0.015200  -0.009741  -0.000164  -0.000199   0.000121   0.002600
    23  S   -0.112043  -0.080126   0.009048  -0.000498  -0.002004  -0.007709
    24  C   -0.221607  -0.525841   0.031766  -0.014454  -0.034308   0.038176
    25  N    7.426674   0.170494  -0.102298  -0.024148   0.017953  -0.024195
    26  C    0.170494   5.530397   0.112436  -0.054095  -0.075631   0.058365
    27  N   -0.102298   0.112436   6.385877   0.453588   0.453805  -0.107651
    28  H   -0.024148  -0.054095   0.453588   0.784283  -0.145755  -0.019424
    29  H    0.017953  -0.075631   0.453805  -0.145755   0.786030   0.004888
    30  N   -0.024195   0.058365  -0.107651  -0.019424   0.004888   6.282259
    31  H   -0.029853  -0.197910   0.015188  -0.002969   0.003145   0.429766
    32  H    0.010951  -0.135420  -0.005470  -0.008645   0.002816   0.445854
    33  H    0.438293  -0.095819  -0.007040   0.002843  -0.006107   0.010806
              31         32         33
     1  C   -0.006700  -0.000235  -0.000025
     2  H   -0.000450  -0.000334  -0.000001
     3  H   -0.000029   0.000046  -0.000002
     4  H   -0.000591   0.000045  -0.000000
     5  C    0.007337  -0.000696  -0.000089
     6  O    0.010785  -0.000009   0.000078
     7  N    0.013236  -0.001080  -0.000065
     8  H    0.000129   0.000149   0.000016
     9  C   -0.125002   0.008248   0.002340
    10  C    0.078440  -0.003878   0.000234
    11  C   -0.052596   0.001710  -0.001110
    12  C    0.118275  -0.003677  -0.004415
    13  H    0.001619  -0.000178  -0.000171
    14  H   -0.000800   0.000048   0.000007
    15  H    0.000397  -0.000108  -0.000003
    16  C    0.077203   0.002403   0.004808
    17  H   -0.092298   0.009289  -0.002018
    18  C   -0.099032   0.001443  -0.001578
    19  C    0.033016  -0.000299  -0.064042
    20  N   -0.037064  -0.004244  -0.008564
    21  C   -0.071934   0.000470  -0.002085
    22  H   -0.009543   0.000225   0.000240
    23  S    0.000966  -0.000434   0.011914
    24  C    0.002320   0.012686  -0.116309
    25  N   -0.029853   0.010951   0.438293
    26  C   -0.197910  -0.135420  -0.095819
    27  N    0.015188  -0.005470  -0.007040
    28  H   -0.002969  -0.008645   0.002843
    29  H    0.003145   0.002816  -0.006107
    30  N    0.429766   0.445854   0.010806
    31  H    1.052210  -0.215541   0.002901
    32  H   -0.215541   0.870463  -0.001647
    33  H    0.002901  -0.001647   0.846367
 Mulliken charges:
               1
     1  C    0.525516
     2  H   -0.008773
     3  H   -0.101859
     4  H    0.077459
     5  C    0.434911
     6  O   -0.905177
     7  N   -0.682456
     8  H   -0.041001
     9  C   -0.412084
    10  C    1.061511
    11  C   -0.101577
    12  C    0.495203
    13  H   -0.646374
    14  H   -0.489760
    15  H   -0.687406
    16  C    1.426094
    17  H   -0.659509
    18  C    2.111083
    19  C   -1.393681
    20  N   -0.605297
    21  C    0.736380
    22  H   -0.591700
    23  S    0.456634
    24  C    0.603364
    25  N   -0.710963
    26  C    1.337192
    27  N   -0.261767
    28  H    0.026974
    29  H   -0.005661
    30  N   -0.087944
    31  H    0.095381
    32  H    0.015048
    33  H   -0.009759
 Sum of Mulliken charges =   1.00000
 Mulliken charges with hydrogens summed into heavy atoms:
               1
     1  C    0.492342
     5  C    0.434911
     6  O   -0.905177
     7  N   -0.723457
     9  C   -0.412084
    10  C    0.374105
    11  C   -0.591336
    12  C   -0.151171
    16  C    0.766585
    18  C    2.111083
    19  C   -1.393681
    20  N   -0.605297
    21  C    0.144680
    23  S    0.456634
    24  C    0.603364
    25  N   -0.720723
    26  C    1.337192
    27  N   -0.240454
    30  N    0.022485
 Electronic spatial extent (au):  <R**2>=           6828.8732
 Charge=              1.0000 electrons
 Dipole moment (field-independent basis, Debye):
    X=              9.0826    Y=              6.2480    Z=              0.1084  Tot=             11.0247
 Quadrupole moment (field-independent basis, Debye-Ang):
   XX=            -14.8303   YY=            -67.4961   ZZ=           -124.5685
   XY=             26.6542   XZ=              0.3933   YZ=              0.6970
 Traceless Quadrupole moment (field-independent basis, Debye-Ang):
   XX=             54.1347   YY=              1.4688   ZZ=            -55.6035
   XY=             26.6542   XZ=              0.3933   YZ=              0.6970
 Octapole moment (field-independent basis, Debye-Ang**2):
  XXX=            117.1078  YYY=             98.2926  ZZZ=             -1.2662  XYY=             95.6787
  XXY=            170.4890  XXZ=             -0.6303  XZZ=              3.9524  YZZ=             19.9580
  YYZ=              3.5302  XYZ=              4.4429
 Hexadecapole moment (field-independent basis, Debye-Ang**3):
 XXXX=          -3573.8759 YYYY=          -2236.8888 ZZZZ=           -143.8628 XXXY=            450.6298
 XXXZ=             -0.1883 YYYX=            369.6309 YYYZ=             17.2852 ZZZX=              6.5607
 ZZZY=             -2.3196 XXYY=           -854.1925 XXZZ=          -1076.8897 YYZZ=           -570.9674
 XXYZ=             -2.1564 YYXZ=              8.1375 ZZXY=            -25.6050
 N-N= 1.484940870831D+03 E-N=-5.790539159379D+03  KE= 1.206001142765D+03
 Leave Link  601 at Sun Jul 18 17:06:14 2021, MaxMem=   262144000 cpu:               0.5 elap:               0.2
 (Enter /prod/apps/gaussian/g16b1/l9999.exe)
 1\1\GINC-PIRINEUS12\SP\RMP2-FC\Aug-CC-pVDZ\C12H14N5O1S1(1+)\UBATOR02\1
 8-Jul-2021\0\\#p mp2/aug-cc-pVDZ scf=tight maxdisk=180GB geom=allcheck
 \\SET_328_BBB321_conf1.geo_180_030_300 geometry\\1,1\C,0,2.3208392887,
 -1.8782980275,3.6395044312\H,0,1.5601043359,-1.9930601384,4.4125152362
 \H,0,3.1781599118,-1.3408018548,4.0483781234\H,0,2.6520750152,-2.87789
 09681,3.340190095\C,0,1.6994914217,-1.1835828574,2.4449212717\O,0,0.52
 05719419,-1.364905204,2.1355146774\N,0,2.5585877952,-0.3799820829,1.74
 34888014\H,0,3.5055010972,-0.3189558865,2.100826194\C,0,2.3122673997,0
 .3615329239,0.5716280065\C,0,3.3715038607,1.1112313134,0.0365285426\C,
 0,3.173444141,1.8618790528,-1.1200867671\C,0,1.9351675136,1.8812685336
 ,-1.7574805637\H,0,1.8005074783,2.4741692473,-2.6549753241\H,0,3.99712
 83069,2.439150965,-1.5266378989\H,0,4.3414313165,1.1064926167,0.523126
 9686\C,0,1.0660652343,0.3775198868,-0.0661351959\H,0,0.2576501178,-0.1
 998226765,0.3465514451\C,0,0.8708061019,1.1338595538,-1.2289126065\C,0
 ,-0.4559017708,1.1248499523,-1.8719751459\N,0,-1.4871398538,0.39745221
 41,-1.2880894451\C,0,-0.8042883629,1.7736261867,-3.0242795273\H,0,-0.1
 959033967,2.3941933483,-3.6643223776\S,0,-2.4704591331,1.4893410813,-3
 .4210186069\C,0,-2.5862023216,0.4930425166,-1.9769797811\N,0,-3.787154
 7737,-0.1150573509,-1.6534763137\C,0,-4.0346290379,-0.8959255464,-0.55
 96930258\N,0,-5.258281137,-1.3984791524,-0.4287621047\H,0,-5.490107445
 3,-1.9722628104,0.3753638846\H,0,-5.9841153282,-1.1886428981,-1.106053
 2605\N,0,-3.0877331936,-1.1409185623,0.3315849634\H,0,-2.155633065,-0.
 7542793158,0.1938125338\H,0,-3.2908953575,-1.7317102533,1.1317976404\H
 ,0,-4.5738581013,0.032966193,-2.2828548704\\Version=ES64L-G16RevB.01\S
 tate=1-A\HF=-1207.1660732\MP2=-1209.9824049\RMSD=6.097e-09\PG=C01 [X(C
 12H14N5O1S1)]\\@


 IT IS UNWORTHY OF EXCELLENT MEN TO LOSE HOURS LIKE SLAVES IN THE LABOR
 OF CALCULATION WHICH COULD BE SAFELY RELEGATED TO ANYONE ELSE
 IF A MACHINE WERE USED.
    -- G.W. VON LEIBNIZ
 Job cpu time:       0 days  2 hours  8 minutes 58.1 seconds.
 Elapsed time:       0 days  0 hours 34 minutes 29.7 seconds.
 File lengths (MBytes):  RWF=  91040 Int=      0 D2E=      0 Chk=     27 Scr=      1
 Normal termination of Gaussian 16 at Sun Jul 18 17:06:16 2021.
