 Entering Gaussian System, Link 0=g16
 Initial command:
 /prod/apps/gaussian/g16b1/l1.exe "/tmp/ubator02/1839636/Gau-116464.inp" -scrdir="/tmp/ubator02/1839636/"
 Entering Link 1 = /prod/apps/gaussian/g16b1/l1.exe PID=    116465.
  
 Copyright (c) 1988-2017, Gaussian, Inc.  All Rights Reserved.
  
 This is part of the Gaussian(R) 16 program.  It is based on
 the Gaussian(R) 09 system (copyright 2009, Gaussian, Inc.),
 the Gaussian(R) 03 system (copyright 2003, Gaussian, Inc.),
 the Gaussian(R) 98 system (copyright 1998, Gaussian, Inc.),
 the Gaussian(R) 94 system (copyright 1995, Gaussian, Inc.),
 the Gaussian 92(TM) system (copyright 1992, Gaussian, Inc.),
 the Gaussian 90(TM) system (copyright 1990, Gaussian, Inc.),
 the Gaussian 88(TM) system (copyright 1988, Gaussian, Inc.),
 the Gaussian 86(TM) system (copyright 1986, Carnegie Mellon
 University), and the Gaussian 82(TM) system (copyright 1983,
 Carnegie Mellon University). Gaussian is a federally registered
 trademark of Gaussian, Inc.
  
 This software contains proprietary and confidential information,
 including trade secrets, belonging to Gaussian, Inc.
  
 This software is provided under written license and may be
 used, copied, transmitted, or stored only in accord with that
 written license.
  
 The following legend is applicable only to US Government
 contracts under FAR:
  
                    RESTRICTED RIGHTS LEGEND
  
 Use, reproduction and disclosure by the US Government is
 subject to restrictions as set forth in subparagraphs (a)
 and (c) of the Commercial Computer Software - Restricted
 Rights clause in FAR 52.227-19.
  
 Gaussian, Inc.
 340 Quinnipiac St., Bldg. 40, Wallingford CT 06492
  
  
 ---------------------------------------------------------------
 Warning -- This program may not be used in any manner that
 competes with the business of Gaussian, Inc. or will provide
 assistance to any competitor of Gaussian, Inc.  The licensee
 of this program is prohibited from giving any competitor of
 Gaussian, Inc. access to this program.  By using this program,
 the user acknowledges that Gaussian, Inc. is engaged in the
 business of creating and licensing software in the field of
 computational chemistry and represents and warrants to the
 licensee that it is not a competitor of Gaussian, Inc. and that
 it will not use this program in any manner prohibited above.
 ---------------------------------------------------------------
  

 Cite this work as:
 Gaussian 16, Revision B.01,
 M. J. Frisch, G. W. Trucks, H. B. Schlegel, G. E. Scuseria, 
 M. A. Robb, J. R. Cheeseman, G. Scalmani, V. Barone, 
 G. A. Petersson, H. Nakatsuji, X. Li, M. Caricato, A. V. Marenich, 
 J. Bloino, B. G. Janesko, R. Gomperts, B. Mennucci, H. P. Hratchian, 
 J. V. Ortiz, A. F. Izmaylov, J. L. Sonnenberg, D. Williams-Young, 
 F. Ding, F. Lipparini, F. Egidi, J. Goings, B. Peng, A. Petrone, 
 T. Henderson, D. Ranasinghe, V. G. Zakrzewski, J. Gao, N. Rega, 
 G. Zheng, W. Liang, M. Hada, M. Ehara, K. Toyota, R. Fukuda, 
 J. Hasegawa, M. Ishida, T. Nakajima, Y. Honda, O. Kitao, H. Nakai, 
 T. Vreven, K. Throssell, J. A. Montgomery, Jr., J. E. Peralta, 
 F. Ogliaro, M. J. Bearpark, J. J. Heyd, E. N. Brothers, K. N. Kudin, 
 V. N. Staroverov, T. A. Keith, R. Kobayashi, J. Normand, 
 K. Raghavachari, A. P. Rendell, J. C. Burant, S. S. Iyengar, 
 J. Tomasi, M. Cossi, J. M. Millam, M. Klene, C. Adamo, R. Cammi, 
 J. W. Ochterski, R. L. Martin, K. Morokuma, O. Farkas, 
 J. B. Foresman, and D. J. Fox, Gaussian, Inc., Wallingford CT, 2016.
 
 ******************************************
 Gaussian 16:  ES64L-G16RevB.01 20-Dec-2017
                18-Jul-2021 
 ******************************************
 %mem=800MB
 %nproc=4
 Will use up to    4 processors via shared memory.
 %chk=SET_328_BBB301_conf1.geo_165_105_045.chk
 -----------------------------------------------------------
 #p b3lyp/6-31G(d) opt freq scrf=(iefpcm,read,solvent=water)
 -----------------------------------------------------------
 1/18=20,19=15,26=3,38=1,40=2/1,3;
 2/9=110,12=2,17=6,18=5,40=1/2;
 3/5=1,6=6,7=1,11=2,25=1,30=1,70=2203,71=1,72=1,74=-5/1,2,3;
 4//1;
 5/5=2,38=5,53=1/2;
 6/7=2,8=2,9=2,10=2,28=1/1;
 7//1,2,3,16;
 1/18=20,19=15,26=3/3(2);
 2/9=110/2;
 99//99;
 2/9=110/2;
 3/5=1,6=6,7=1,11=2,25=1,30=1,70=2205,71=1,72=1,74=-5/1,2,3;
 4/5=5,16=3,69=1/1;
 5/5=2,38=5,53=1/2;
 7//1,2,3,16;
 1/18=20,19=15,26=3/3(-5);
 2/9=110/2;
 6/7=2,8=2,9=2,10=2,19=2,28=1/1;
 99/9=1/99;
 Leave Link    1 at Sun Jul 18 14:37:52 2021, MaxMem=   104857600 cpu:               0.1 elap:               0.0
 (Enter /prod/apps/gaussian/g16b1/l101.exe)
 ---------------------------------------------
 SET_328_BBB301_conf1.geo_165_105_045 geometry
 ---------------------------------------------
 Symbolic Z-matrix:
 Charge =  1 Multiplicity = 1
 C                     2.6      -1.988    -1.858 
 H                     3.108    -2.482    -1.028 
 H                     2.507    -0.938    -1.572 
 H                     3.294    -2.018    -2.701 
 C                     1.204    -2.493    -2.185 
 C                     0.49     -1.901    -3.449 
 H                    -0.53     -2.279    -3.544 
 H                     1.07     -2.235    -4.313 
 H                     0.369    -0.819    -3.362 
 C                     1.229    -4.021    -2.368 
 H                     1.469    -4.551    -1.445 
 H                     1.956    -4.275    -3.143 
 H                     0.244    -4.338    -2.715 
 N                     0.253    -2.289    -1.068 
 H                    -0.659    -2.532    -1.398 
 C                     0.164    -0.887    -0.443 
 H                    -0.007    -0.116    -1.2 
 H                     1.131    -0.558    -0.054 
 C                    -0.85     -0.704     0.66 
 O                    -0.761    -1.79      1.584 
 H                    -0.737    -2.52      0.94 
 H                    -1.9      -0.75      0.359 
 C                    -0.714     0.595     1.496 
 C                    -1.596     1.711     1.308 
 H                    -2.375     1.682     0.55 
 C                    -1.343     2.904     1.945 
 C                    -2.206     4.112     1.608 
 O                    -1.469     5.389     1.38 
 H                    -2.176     5.911     0.96 
 H                    -2.918     4.172     2.435 
 H                    -2.958     3.914     0.84 
 C                    -0.3       2.968     2.914 
 O                    -0.146     4.089     3.636 
 H                    -0.464     4.857     3.128 
 C                     0.459     1.841     3.165 
 H                     1.196     1.942     3.957 
 C                     0.288     0.654     2.456 
 H                     1.002    -0.142     2.653 
 H                     0.498    -2.93     -0.341 
 
 ITRead=  0  0  0  0  0  0  0  0  0  0  0  0  0  0  0  0  0  0  0  0
 ITRead=  0  0  0  0  0  0  0  0  0  0  0  0  0  0  0  0  0  0  0
 MicOpt= -1 -1 -1 -1 -1 -1 -1 -1 -1 -1 -1 -1 -1 -1 -1 -1 -1 -1 -1 -1
 MicOpt= -1 -1 -1 -1 -1 -1 -1 -1 -1 -1 -1 -1 -1 -1 -1 -1 -1 -1 -1
 NAtoms=     39 NQM=       39 NQMF=       0 NMMI=      0 NMMIF=      0
                NMic=       0 NMicF=      0.
                    Isotopes and Nuclear Properties:
 (Nuclear quadrupole moments (NQMom) in fm**2, nuclear magnetic moments (NMagM)
  in nuclear magnetons)

  Atom         1           2           3           4           5           6           7           8           9          10
 IAtWgt=          12           1           1           1          12          12           1           1           1          12
 AtmWgt=  12.0000000   1.0078250   1.0078250   1.0078250  12.0000000  12.0000000   1.0078250   1.0078250   1.0078250  12.0000000
 NucSpn=           0           1           1           1           0           0           1           1           1           0
 AtZEff=  -0.0000000  -0.0000000  -0.0000000  -0.0000000  -0.0000000  -0.0000000  -0.0000000  -0.0000000  -0.0000000  -0.0000000
 NQMom=    0.0000000   0.0000000   0.0000000   0.0000000   0.0000000   0.0000000   0.0000000   0.0000000   0.0000000   0.0000000
 NMagM=    0.0000000   2.7928460   2.7928460   2.7928460   0.0000000   0.0000000   2.7928460   2.7928460   2.7928460   0.0000000
 AtZNuc=   6.0000000   1.0000000   1.0000000   1.0000000   6.0000000   6.0000000   1.0000000   1.0000000   1.0000000   6.0000000

  Atom        11          12          13          14          15          16          17          18          19          20
 IAtWgt=           1           1           1          14           1          12           1           1          12          16
 AtmWgt=   1.0078250   1.0078250   1.0078250  14.0030740   1.0078250  12.0000000   1.0078250   1.0078250  12.0000000  15.9949146
 NucSpn=           1           1           1           2           1           0           1           1           0           0
 AtZEff=  -0.0000000  -0.0000000  -0.0000000  -0.0000000  -0.0000000  -0.0000000  -0.0000000  -0.0000000  -0.0000000  -0.0000000
 NQMom=    0.0000000   0.0000000   0.0000000   2.0440000   0.0000000   0.0000000   0.0000000   0.0000000   0.0000000   0.0000000
 NMagM=    2.7928460   2.7928460   2.7928460   0.4037610   2.7928460   0.0000000   2.7928460   2.7928460   0.0000000   0.0000000
 AtZNuc=   1.0000000   1.0000000   1.0000000   7.0000000   1.0000000   6.0000000   1.0000000   1.0000000   6.0000000   8.0000000

  Atom        21          22          23          24          25          26          27          28          29          30
 IAtWgt=           1           1          12          12           1          12          12          16           1           1
 AtmWgt=   1.0078250   1.0078250  12.0000000  12.0000000   1.0078250  12.0000000  12.0000000  15.9949146   1.0078250   1.0078250
 NucSpn=           1           1           0           0           1           0           0           0           1           1
 AtZEff=  -0.0000000  -0.0000000  -0.0000000  -0.0000000  -0.0000000  -0.0000000  -0.0000000  -0.0000000  -0.0000000  -0.0000000
 NQMom=    0.0000000   0.0000000   0.0000000   0.0000000   0.0000000   0.0000000   0.0000000   0.0000000   0.0000000   0.0000000
 NMagM=    2.7928460   2.7928460   0.0000000   0.0000000   2.7928460   0.0000000   0.0000000   0.0000000   2.7928460   2.7928460
 AtZNuc=   1.0000000   1.0000000   6.0000000   6.0000000   1.0000000   6.0000000   6.0000000   8.0000000   1.0000000   1.0000000

  Atom        31          32          33          34          35          36          37          38          39
 IAtWgt=           1          12          16           1          12           1          12           1           1
 AtmWgt=   1.0078250  12.0000000  15.9949146   1.0078250  12.0000000   1.0078250  12.0000000   1.0078250   1.0078250
 NucSpn=           1           0           0           1           0           1           0           1           1
 AtZEff=  -0.0000000  -0.0000000  -0.0000000  -0.0000000  -0.0000000  -0.0000000  -0.0000000  -0.0000000  -0.0000000
 NQMom=    0.0000000   0.0000000   0.0000000   0.0000000   0.0000000   0.0000000   0.0000000   0.0000000   0.0000000
 NMagM=    2.7928460   0.0000000   0.0000000   2.7928460   0.0000000   2.7928460   0.0000000   2.7928460   2.7928460
 AtZNuc=   1.0000000   6.0000000   8.0000000   1.0000000   6.0000000   1.0000000   6.0000000   1.0000000   1.0000000
 Leave Link  101 at Sun Jul 18 14:37:53 2021, MaxMem=   104857600 cpu:               0.7 elap:               0.2
 (Enter /prod/apps/gaussian/g16b1/l103.exe)

 GradGradGradGradGradGradGradGradGradGradGradGradGradGradGradGradGradGrad
 Berny optimization.
 Initialization pass.
                           ----------------------------
                           !    Initial Parameters    !
                           ! (Angstroms and Degrees)  !
 --------------------------                            --------------------------
 ! Name  Definition              Value          Derivative Info.                !
 --------------------------------------------------------------------------------
 ! R1    R(1,2)                  1.0913         estimate D2E/DX2                !
 ! R2    R(1,3)                  1.0922         estimate D2E/DX2                !
 ! R3    R(1,4)                  1.0923         estimate D2E/DX2                !
 ! R4    R(1,5)                  1.5201         estimate D2E/DX2                !
 ! R5    R(5,6)                  1.5678         estimate D2E/DX2                !
 ! R6    R(5,10)                 1.5391         estimate D2E/DX2                !
 ! R7    R(5,14)                 1.4811         estimate D2E/DX2                !
 ! R8    R(6,7)                  1.0919         estimate D2E/DX2                !
 ! R9    R(6,8)                  1.0929         estimate D2E/DX2                !
 ! R10   R(6,9)                  1.0922         estimate D2E/DX2                !
 ! R11   R(10,11)                1.0911         estimate D2E/DX2                !
 ! R12   R(10,12)                1.0926         estimate D2E/DX2                !
 ! R13   R(10,13)                1.0914         estimate D2E/DX2                !
 ! R14   R(14,15)                0.9998         estimate D2E/DX2                !
 ! R15   R(14,16)                1.5376         estimate D2E/DX2                !
 ! R16   R(14,39)                0.9997         estimate D2E/DX2                !
 ! R17   R(16,17)                1.094          estimate D2E/DX2                !
 ! R18   R(16,18)                1.093          estimate D2E/DX2                !
 ! R19   R(16,19)                1.5094         estimate D2E/DX2                !
 ! R20   R(19,20)                1.4287         estimate D2E/DX2                !
 ! R21   R(19,22)                1.0933         estimate D2E/DX2                !
 ! R22   R(19,23)                1.5507         estimate D2E/DX2                !
 ! R23   R(20,21)                0.9738         estimate D2E/DX2                !
 ! R24   R(23,24)                1.4348         estimate D2E/DX2                !
 ! R25   R(23,37)                1.3889         estimate D2E/DX2                !
 ! R26   R(24,25)                1.0873         estimate D2E/DX2                !
 ! R27   R(24,26)                1.3759         estimate D2E/DX2                !
 ! R28   R(26,27)                1.5224         estimate D2E/DX2                !
 ! R29   R(26,32)                1.4251         estimate D2E/DX2                !
 ! R30   R(27,28)                1.4919         estimate D2E/DX2                !
 ! R31   R(27,30)                1.0929         estimate D2E/DX2                !
 ! R32   R(27,31)                1.0929         estimate D2E/DX2                !
 ! R33   R(28,29)                0.974          estimate D2E/DX2                !
 ! R34   R(32,33)                1.3423         estimate D2E/DX2                !
 ! R35   R(32,35)                1.3817         estimate D2E/DX2                !
 ! R36   R(33,34)                0.9742         estimate D2E/DX2                !
 ! R37   R(35,36)                1.0866         estimate D2E/DX2                !
 ! R38   R(35,37)                1.3932         estimate D2E/DX2                !
 ! R39   R(37,38)                1.0873         estimate D2E/DX2                !
 ! A1    A(2,1,3)              106.0006         estimate D2E/DX2                !
 ! A2    A(2,1,4)              106.1867         estimate D2E/DX2                !
 ! A3    A(2,1,5)              116.1488         estimate D2E/DX2                !
 ! A4    A(3,1,4)              106.4144         estimate D2E/DX2                !
 ! A5    A(3,1,5)              107.3076         estimate D2E/DX2                !
 ! A6    A(4,1,5)              114.0996         estimate D2E/DX2                !
 ! A7    A(1,5,6)              117.7893         estimate D2E/DX2                !
 ! A8    A(1,5,10)             109.9055         estimate D2E/DX2                !
 ! A9    A(1,5,14)             112.437          estimate D2E/DX2                !
 ! A10   A(6,5,10)             106.6432         estimate D2E/DX2                !
 ! A11   A(6,5,14)             105.284          estimate D2E/DX2                !
 ! A12   A(10,5,14)            103.6999         estimate D2E/DX2                !
 ! A13   A(5,6,7)              111.3981         estimate D2E/DX2                !
 ! A14   A(5,6,8)              106.277          estimate D2E/DX2                !
 ! A15   A(5,6,9)              111.1189         estimate D2E/DX2                !
 ! A16   A(7,6,8)              108.7332         estimate D2E/DX2                !
 ! A17   A(7,6,9)              104.2635         estimate D2E/DX2                !
 ! A18   A(8,6,9)              115.1197         estimate D2E/DX2                !
 ! A19   A(5,10,11)            112.6587         estimate D2E/DX2                !
 ! A20   A(5,10,12)            109.0233         estimate D2E/DX2                !
 ! A21   A(5,10,13)            108.1497         estimate D2E/DX2                !
 ! A22   A(11,10,12)           109.9243         estimate D2E/DX2                !
 ! A23   A(11,10,13)           109.0505         estimate D2E/DX2                !
 ! A24   A(12,10,13)           107.9081         estimate D2E/DX2                !
 ! A25   A(5,14,15)            107.655          estimate D2E/DX2                !
 ! A26   A(5,14,16)            117.9894         estimate D2E/DX2                !
 ! A27   A(5,14,39)            107.6236         estimate D2E/DX2                !
 ! A28   A(15,14,16)           107.636          estimate D2E/DX2                !
 ! A29   A(15,14,39)           107.922          estimate D2E/DX2                !
 ! A30   A(16,14,39)           107.6518         estimate D2E/DX2                !
 ! A31   A(14,16,17)           111.7406         estimate D2E/DX2                !
 ! A32   A(14,16,18)           111.5875         estimate D2E/DX2                !
 ! A33   A(14,16,19)           116.5177         estimate D2E/DX2                !
 ! A34   A(17,16,18)            99.929          estimate D2E/DX2                !
 ! A35   A(17,16,19)           108.3737         estimate D2E/DX2                !
 ! A36   A(18,16,19)           107.3241         estimate D2E/DX2                !
 ! A37   A(16,19,20)           109.7921         estimate D2E/DX2                !
 ! A38   A(16,19,22)           116.0345         estimate D2E/DX2                !
 ! A39   A(16,19,23)           115.8865         estimate D2E/DX2                !
 ! A40   A(20,19,22)           101.883          estimate D2E/DX2                !
 ! A41   A(20,19,23)           106.4167         estimate D2E/DX2                !
 ! A42   A(22,19,23)           105.5394         estimate D2E/DX2                !
 ! A43   A(19,20,21)            98.2598         estimate D2E/DX2                !
 ! A44   A(19,23,24)           121.802          estimate D2E/DX2                !
 ! A45   A(19,23,37)           118.1297         estimate D2E/DX2                !
 ! A46   A(24,23,37)           120.0656         estimate D2E/DX2                !
 ! A47   A(23,24,25)           120.7307         estimate D2E/DX2                !
 ! A48   A(23,24,26)           120.0475         estimate D2E/DX2                !
 ! A49   A(25,24,26)           118.5305         estimate D2E/DX2                !
 ! A50   A(24,26,27)           118.7707         estimate D2E/DX2                !
 ! A51   A(24,26,32)           119.2305         estimate D2E/DX2                !
 ! A52   A(27,26,32)           121.99           estimate D2E/DX2                !
 ! A53   A(26,27,28)           115.6569         estimate D2E/DX2                !
 ! A54   A(26,27,30)           104.2031         estimate D2E/DX2                !
 ! A55   A(26,27,31)           113.6933         estimate D2E/DX2                !
 ! A56   A(28,27,30)           112.9834         estimate D2E/DX2                !
 ! A57   A(28,27,31)           112.803          estimate D2E/DX2                !
 ! A58   A(30,27,31)            95.3605         estimate D2E/DX2                !
 ! A59   A(27,28,29)            99.5579         estimate D2E/DX2                !
 ! A60   A(26,32,33)           119.1583         estimate D2E/DX2                !
 ! A61   A(26,32,35)           119.2692         estimate D2E/DX2                !
 ! A62   A(33,32,35)           121.3627         estimate D2E/DX2                !
 ! A63   A(32,33,34)           109.9049         estimate D2E/DX2                !
 ! A64   A(32,35,36)           115.4153         estimate D2E/DX2                !
 ! A65   A(32,35,37)           122.3486         estimate D2E/DX2                !
 ! A66   A(36,35,37)           122.2355         estimate D2E/DX2                !
 ! A67   A(23,37,35)           118.457          estimate D2E/DX2                !
 ! A68   A(23,37,38)           124.6021         estimate D2E/DX2                !
 ! A69   A(35,37,38)           116.8044         estimate D2E/DX2                !
 ! D1    D(2,1,5,6)           -174.6176         estimate D2E/DX2                !
 ! D2    D(2,1,5,10)           -52.2635         estimate D2E/DX2                !
 ! D3    D(2,1,5,14)            62.6998         estimate D2E/DX2                !
 ! D4    D(3,1,5,6)             67.0474         estimate D2E/DX2                !
 ! D5    D(3,1,5,10)          -170.5985         estimate D2E/DX2                !
 ! D6    D(3,1,5,14)           -55.6352         estimate D2E/DX2                !
 ! D7    D(4,1,5,6)            -50.5745         estimate D2E/DX2                !
 ! D8    D(4,1,5,10)            71.7796         estimate D2E/DX2                !
 ! D9    D(4,1,5,14)          -173.2571         estimate D2E/DX2                !
 ! D10   D(1,5,6,7)           -175.7987         estimate D2E/DX2                !
 ! D11   D(1,5,6,8)             65.9227         estimate D2E/DX2                !
 ! D12   D(1,5,6,9)            -60.0115         estimate D2E/DX2                !
 ! D13   D(10,5,6,7)            60.1993         estimate D2E/DX2                !
 ! D14   D(10,5,6,8)           -58.0793         estimate D2E/DX2                !
 ! D15   D(10,5,6,9)           175.9865         estimate D2E/DX2                !
 ! D16   D(14,5,6,7)           -49.5525         estimate D2E/DX2                !
 ! D17   D(14,5,6,8)          -167.831          estimate D2E/DX2                !
 ! D18   D(14,5,6,9)            66.2347         estimate D2E/DX2                !
 ! D19   D(1,5,10,11)           65.9382         estimate D2E/DX2                !
 ! D20   D(1,5,10,12)          -56.3751         estimate D2E/DX2                !
 ! D21   D(1,5,10,13)         -173.4599         estimate D2E/DX2                !
 ! D22   D(6,5,10,11)         -165.323          estimate D2E/DX2                !
 ! D23   D(6,5,10,12)           72.3638         estimate D2E/DX2                !
 ! D24   D(6,5,10,13)          -44.721          estimate D2E/DX2                !
 ! D25   D(14,5,10,11)         -54.4647         estimate D2E/DX2                !
 ! D26   D(14,5,10,12)        -176.778          estimate D2E/DX2                !
 ! D27   D(14,5,10,13)          66.1372         estimate D2E/DX2                !
 ! D28   D(1,5,14,15)          172.7101         estimate D2E/DX2                !
 ! D29   D(1,5,14,16)           50.7578         estimate D2E/DX2                !
 ! D30   D(1,5,14,39)          -71.1898         estimate D2E/DX2                !
 ! D31   D(6,5,14,15)           43.2353         estimate D2E/DX2                !
 ! D32   D(6,5,14,16)          -78.717          estimate D2E/DX2                !
 ! D33   D(6,5,14,39)          159.3354         estimate D2E/DX2                !
 ! D34   D(10,5,14,15)         -68.6175         estimate D2E/DX2                !
 ! D35   D(10,5,14,16)         169.4302         estimate D2E/DX2                !
 ! D36   D(10,5,14,39)          47.4827         estimate D2E/DX2                !
 ! D37   D(5,14,16,17)          52.593          estimate D2E/DX2                !
 ! D38   D(5,14,16,18)         -58.3488         estimate D2E/DX2                !
 ! D39   D(5,14,16,19)         177.9186         estimate D2E/DX2                !
 ! D40   D(15,14,16,17)        -69.369          estimate D2E/DX2                !
 ! D41   D(15,14,16,18)        179.6893         estimate D2E/DX2                !
 ! D42   D(15,14,16,19)         55.9566         estimate D2E/DX2                !
 ! D43   D(39,14,16,17)        174.5261         estimate D2E/DX2                !
 ! D44   D(39,14,16,18)         63.5844         estimate D2E/DX2                !
 ! D45   D(39,14,16,19)        -60.1483         estimate D2E/DX2                !
 ! D46   D(14,16,19,20)         45.9857         estimate D2E/DX2                !
 ! D47   D(14,16,19,22)        -68.8074         estimate D2E/DX2                !
 ! D48   D(14,16,19,23)        166.5498         estimate D2E/DX2                !
 ! D49   D(17,16,19,20)        172.9933         estimate D2E/DX2                !
 ! D50   D(17,16,19,22)         58.2002         estimate D2E/DX2                !
 ! D51   D(17,16,19,23)        -66.4426         estimate D2E/DX2                !
 ! D52   D(18,16,19,20)        -79.9134         estimate D2E/DX2                !
 ! D53   D(18,16,19,22)        165.2936         estimate D2E/DX2                !
 ! D54   D(18,16,19,23)         40.6507         estimate D2E/DX2                !
 ! D55   D(16,19,20,21)        -46.6351         estimate D2E/DX2                !
 ! D56   D(22,19,20,21)         76.8972         estimate D2E/DX2                !
 ! D57   D(23,19,20,21)       -172.7743         estimate D2E/DX2                !
 ! D58   D(16,19,23,24)        103.7266         estimate D2E/DX2                !
 ! D59   D(16,19,23,37)        -76.8685         estimate D2E/DX2                !
 ! D60   D(20,19,23,24)       -133.9057         estimate D2E/DX2                !
 ! D61   D(20,19,23,37)         45.4992         estimate D2E/DX2                !
 ! D62   D(22,19,23,24)        -26.1634         estimate D2E/DX2                !
 ! D63   D(22,19,23,37)        153.2415         estimate D2E/DX2                !
 ! D64   D(19,23,24,25)         -1.4859         estimate D2E/DX2                !
 ! D65   D(19,23,24,26)       -171.8189         estimate D2E/DX2                !
 ! D66   D(37,23,24,25)        179.1205         estimate D2E/DX2                !
 ! D67   D(37,23,24,26)          8.7875         estimate D2E/DX2                !
 ! D68   D(19,23,37,35)        176.8706         estimate D2E/DX2                !
 ! D69   D(19,23,37,38)          1.2631         estimate D2E/DX2                !
 ! D70   D(24,23,37,35)         -3.7138         estimate D2E/DX2                !
 ! D71   D(24,23,37,38)       -179.3212         estimate D2E/DX2                !
 ! D72   D(23,24,26,27)        173.3535         estimate D2E/DX2                !
 ! D73   D(23,24,26,32)         -7.7043         estimate D2E/DX2                !
 ! D74   D(25,24,26,27)          2.8096         estimate D2E/DX2                !
 ! D75   D(25,24,26,32)       -178.2482         estimate D2E/DX2                !
 ! D76   D(24,26,27,28)       -134.5047         estimate D2E/DX2                !
 ! D77   D(24,26,27,30)        100.8561         estimate D2E/DX2                !
 ! D78   D(24,26,27,31)         -1.636          estimate D2E/DX2                !
 ! D79   D(32,26,27,28)         46.5837         estimate D2E/DX2                !
 ! D80   D(32,26,27,30)        -78.0555         estimate D2E/DX2                !
 ! D81   D(32,26,27,31)        179.4524         estimate D2E/DX2                !
 ! D82   D(24,26,32,33)       -172.984          estimate D2E/DX2                !
 ! D83   D(24,26,32,35)          1.8267         estimate D2E/DX2                !
 ! D84   D(27,26,32,33)          5.9228         estimate D2E/DX2                !
 ! D85   D(27,26,32,35)       -179.2666         estimate D2E/DX2                !
 ! D86   D(26,27,28,29)        165.424          estimate D2E/DX2                !
 ! D87   D(30,27,28,29)        -74.6158         estimate D2E/DX2                !
 ! D88   D(31,27,28,29)         32.1461         estimate D2E/DX2                !
 ! D89   D(26,32,33,34)        -28.1536         estimate D2E/DX2                !
 ! D90   D(35,32,33,34)        157.1481         estimate D2E/DX2                !
 ! D91   D(26,32,35,36)       -176.4322         estimate D2E/DX2                !
 ! D92   D(26,32,35,37)          3.2921         estimate D2E/DX2                !
 ! D93   D(33,32,35,36)         -1.7397         estimate D2E/DX2                !
 ! D94   D(33,32,35,37)        177.9846         estimate D2E/DX2                !
 ! D95   D(32,35,37,23)         -2.2652         estimate D2E/DX2                !
 ! D96   D(32,35,37,38)        173.6846         estimate D2E/DX2                !
 ! D97   D(36,35,37,23)        177.4404         estimate D2E/DX2                !
 ! D98   D(36,35,37,38)         -6.6098         estimate D2E/DX2                !
 --------------------------------------------------------------------------------
 Trust Radius=3.00D-01 FncErr=1.00D-07 GrdErr=1.00D-06 EigMax=2.50D+02 EigMin=1.00D-04
 Number of steps in this run=    216 maximum allowed number of steps=    234.
 GradGradGradGradGradGradGradGradGradGradGradGradGradGradGradGradGradGrad

 Leave Link  103 at Sun Jul 18 14:37:53 2021, MaxMem=   104857600 cpu:               0.1 elap:               0.1
 (Enter /prod/apps/gaussian/g16b1/l202.exe)
                          Input orientation:                          
 ---------------------------------------------------------------------
 Center     Atomic      Atomic             Coordinates (Angstroms)
 Number     Number       Type             X           Y           Z
 ---------------------------------------------------------------------
      1          6           0        2.600000   -1.988000   -1.858000
      2          1           0        3.108000   -2.482000   -1.028000
      3          1           0        2.507000   -0.938000   -1.572000
      4          1           0        3.294000   -2.018000   -2.701000
      5          6           0        1.204000   -2.493000   -2.185000
      6          6           0        0.490000   -1.901000   -3.449000
      7          1           0       -0.530000   -2.279000   -3.544000
      8          1           0        1.070000   -2.235000   -4.313000
      9          1           0        0.369000   -0.819000   -3.362000
     10          6           0        1.229000   -4.021000   -2.368000
     11          1           0        1.469000   -4.551000   -1.445000
     12          1           0        1.956000   -4.275000   -3.143000
     13          1           0        0.244000   -4.338000   -2.715000
     14          7           0        0.253000   -2.289000   -1.068000
     15          1           0       -0.659000   -2.532000   -1.398000
     16          6           0        0.164000   -0.887000   -0.443000
     17          1           0       -0.007000   -0.116000   -1.200000
     18          1           0        1.131000   -0.558000   -0.054000
     19          6           0       -0.850000   -0.704000    0.660000
     20          8           0       -0.761000   -1.790000    1.584000
     21          1           0       -0.737000   -2.520000    0.940000
     22          1           0       -1.900000   -0.750000    0.359000
     23          6           0       -0.714000    0.595000    1.496000
     24          6           0       -1.596000    1.711000    1.308000
     25          1           0       -2.375000    1.682000    0.550000
     26          6           0       -1.343000    2.904000    1.945000
     27          6           0       -2.206000    4.112000    1.608000
     28          8           0       -1.469000    5.389000    1.380000
     29          1           0       -2.176000    5.911000    0.960000
     30          1           0       -2.918000    4.172000    2.435000
     31          1           0       -2.958000    3.914000    0.840000
     32          6           0       -0.300000    2.968000    2.914000
     33          8           0       -0.146000    4.089000    3.636000
     34          1           0       -0.464000    4.857000    3.128000
     35          6           0        0.459000    1.841000    3.165000
     36          1           0        1.196000    1.942000    3.957000
     37          6           0        0.288000    0.654000    2.456000
     38          1           0        1.002000   -0.142000    2.653000
     39          1           0        0.498000   -2.930000   -0.341000
 ---------------------------------------------------------------------
                    Distance matrix (angstroms):
                    1          2          3          4          5
     1  C    0.000000
     2  H    1.091329   0.000000
     3  H    1.092220   1.743867   0.000000
     4  H    1.092330   1.746087   1.749403   0.000000
     5  C    1.520122   2.228000   2.119340   2.204536   0.000000
     6  C    2.644040   3.612856   2.918696   2.904412   1.567787
     7  H    3.567096   4.427924   3.861403   3.924506   2.213466
     8  H    2.903263   3.873716   3.355631   2.755324   2.147767
     9  H    2.933588   3.964246   2.790933   3.229574   2.210165
    10  C    2.504562   2.773943   3.431004   2.896053   1.539122
    11  H    2.831731   2.672260   3.761295   3.365152   2.202995
    12  H    2.701172   3.002529   3.729237   2.660762   2.158423
    13  H    3.436231   3.806994   4.241181   3.832114   2.146282
    14  N    2.494616   2.861796   2.675768   3.462342   1.481116
    15  H    3.335958   3.785458   3.548897   4.193830   2.022785
    16  C    3.024652   3.399027   2.601325   4.021769   2.587547
    17  H    3.276247   3.915452   2.671004   4.094778   2.843743
    18  H    2.730802   2.925574   2.083771   3.717093   2.879360
    19  C    4.459987   4.655791   4.038072   5.495057   3.938713
    20  O    4.814861   4.719170   4.622344   5.903917   4.308224
    21  H    4.387186   4.319548   4.397318   5.455075   3.678836
    22  H    5.166985   5.477559   4.815159   6.160281   4.375477
    23  C    5.376226   5.517807   4.705056   6.364483   5.173416
    24  C    6.427486   6.720548   5.669763   7.340955   6.141227
    25  H    6.634605   7.063446   5.933061   7.509764   6.141668
    26  C    7.344503   7.593361   6.477094   8.204460   7.257528
    27  C    8.504163   8.869494   7.604424   9.294858   8.345117
    28  O    9.025604   9.418070   8.034539   9.705894   9.054285
    29  H    9.651192  10.115100   8.674694  10.304992   9.588673
    30  H    9.317928   9.621890   8.461606  10.162851   9.097115
    31  H    8.544248   9.010804   7.695835   9.317446   8.217209
    32  C    7.466185   7.540314   6.577255   8.324978   7.621308
    33  O    8.640282   8.690193   7.709241   9.449160   8.889841
    34  H    9.005682   9.159282   8.031119   9.765523   9.221317
    35  C    6.669007   6.579269   5.861426   7.572256   6.925394
    36  H    7.157537   6.933812   6.370476   8.025719   7.575847
    37  C    5.562023   5.470389   4.866540   6.539898   5.681685
    38  H    5.129370   4.843614   4.555136   6.118656   5.382773
    39  H    2.758089   2.735831   3.085370   3.770804   2.022311
                    6          7          8          9         10
     6  C    0.000000
     7  H    1.091929   0.000000
     8  H    1.092910   1.775753   0.000000
     9  H    1.092215   1.724217   1.844142   0.000000
    10  C    2.491803   2.740734   2.645393   3.461277   0.000000
    11  H    3.463662   3.682905   3.707894   4.337362   1.091068
    12  H    2.806897   3.213256   2.513065   3.809261   1.092552
    13  H    2.556998   2.350702   2.767398   3.580167   1.091386
    14  N    2.424020   2.596876   3.346704   2.727048   2.375374
    15  H    2.434125   2.164709   3.402187   2.801508   2.592791
    16  C    3.189123   3.469222   4.197004   2.926980   3.829074
    17  H    2.913972   3.232094   3.916741   2.304307   4.259219
    18  H    3.706825   4.230941   4.577677   3.404648   4.166122
    19  C    4.484673   4.500738   5.546268   4.204244   4.949092
    20  O    5.187332   5.156439   6.190735   5.165526   4.955377
    21  H    4.599132   4.495240   5.562417   4.756453   4.130499
    22  H    4.640880   4.410006   5.731816   4.358780   5.284563
    23  C    5.668567   5.804768   6.703435   5.174210   6.325599
    24  C    6.326689   6.371684   7.367097   5.663129   7.372206
    25  H    6.085895   5.987853   7.131598   5.393355   7.350357
    26  C    7.452728   7.592995   8.449524   6.704918   8.554109
    27  C    8.306493   8.378363   9.277652   7.459644   9.682639
    28  O    8.961084   9.161098   9.847951   8.025215  10.482118
    29  H    9.358108   9.490597  10.232222   8.393427  11.014274
    30  H    9.116866   9.114076  10.123700   8.325843  10.362995
    31  H    8.006151   7.966674   8.977104   7.150316   9.528193
    32  C    8.051027   8.324042   9.009863   7.360510   8.892890
    33  O    9.299560   9.604753  10.230261   8.563042  10.183847
    34  H    9.478270   9.769464  10.393176   8.662042  10.577861
    35  C    7.599245   7.934936   8.538594   7.048789   8.097533
    36  H    8.373525   8.778435   9.265857   7.866054   8.692760
    37  C    6.437224   6.728418   7.401162   6.002117   6.783221
    38  H    6.371078   6.731761   7.273956   6.085987   6.348906
    39  H    3.273923   3.426338   4.072713   3.687737   2.415237
                   11         12         13         14         15
    11  H    0.000000
    12  H    1.787890   0.000000
    13  H    1.777328   1.765813   0.000000
    14  N    2.595656   3.339166   2.628895   0.000000
    15  H    2.933761   3.594621   2.410712   0.999846   0.000000
    16  C    4.016457   4.688263   4.132528   1.537579   2.072530
    17  H    4.680580   4.992584   4.492606   2.192476   2.510252
    18  H    4.241836   4.902921   4.707026   2.189850   2.984479
    19  C    4.960665   5.923553   5.078722   2.591297   2.759244
    20  O    4.665926   5.991815   5.097424   2.882759   3.074621
    21  H    3.831399   5.196457   4.198394   2.250672   2.339332
    22  H    5.390007   6.289544   5.188444   3.006702   2.793323
    23  C    6.316351   7.236444   6.556277   3.978271   4.261032
    24  C    7.495724   8.261979   7.494033   5.006414   5.118931
    25  H    7.589904   8.239033   7.332107   5.029229   4.949460
    26  C    8.658895   9.397297   8.756754   6.212297   6.418224
    27  C    9.893129  10.499334   9.802720   7.360738   7.454662
    28  O   10.743187  11.206295  10.691956   8.240732   8.433008
    29  H   11.336820  11.732972  11.153655   8.789359   8.896387
    30  H   10.506707  11.234846  10.437473   8.004422   8.046029
    31  H    9.822208  10.347531   9.538676   7.240732   7.200345
    32  C    8.869363   9.707617   9.239005   6.618019   6.998016
    33  O   10.152556  10.969491  10.559433   7.935093   8.333185
    34  H   10.637635  11.339103  10.917414   8.317801   8.667181
    35  C    7.945430   8.912762   8.532331   5.917569   6.418257
    36  H    8.450750   9.467771   9.211964   6.636357   7.220369
    37  C    6.610944   7.643695   7.187575   4.591410   5.089275
    38  H    6.037464   7.182299   6.855392   4.360786   4.988148
    39  H    2.188446   3.433073   2.771797   0.999717   1.616880
                   16         17         18         19         20
    16  C    0.000000
    17  H    1.093952   0.000000
    18  H    1.093001   1.674432   0.000000
    19  C    1.509402   2.125087   2.110799   0.000000
    20  O    2.404114   3.334884   2.789361   1.428668   0.000000
    21  H    2.321891   3.300260   2.885638   1.840930   0.973762
    22  H    2.218574   2.532960   3.065028   1.093260   1.969656
    23  C    2.593632   2.876419   2.671317   1.550740   2.387086
    24  C    3.593495   3.486103   3.799991   2.609338   3.609765
    25  H    3.745975   3.450033   4.204099   2.833853   3.965972
    26  C    4.727079   4.560298   4.701289   3.861598   4.743699
    27  C    5.900297   5.531406   5.975509   5.092278   6.076364
    28  O    6.736334   6.252909   6.647042   6.166540   7.216711
    29  H    7.325081   6.759800   7.335694   6.753259   7.854744
    30  H    6.585977   6.330410   6.705402   5.585931   6.397054
    31  H    5.868780   5.395452   6.125189   5.079566   6.157594
    32  C    5.132813   5.149942   4.825916   4.343570   4.961853
    33  O    6.441655   6.410011   6.069715   5.685511   6.257122
    34  H    6.792640   6.608416   6.480075   6.096289   6.830429
    35  C    4.532844   4.806270   4.070472   3.803358   4.143926
    36  H    5.331816   5.681305   4.726769   4.696556   4.836197
    37  C    3.285462   3.747834   2.911991   2.522860   2.798914
    38  H    3.292793   3.983010   2.741814   2.778092   2.639476
    39  H    2.072633   2.985214   2.471729   2.788222   2.567159
                   21         22         23         24         25
    21  H    0.000000
    22  H    2.196140   0.000000
    23  C    3.164315   2.123297   0.000000
    24  C    4.332974   2.655097   1.434825   0.000000
    25  H    4.526803   2.485303   2.198956   1.087311   0.000000
    26  C    5.549508   4.022109   2.434897   1.375873   2.122341
    27  C    6.825512   5.029183   3.822028   2.495376   2.655716
    28  O    7.954980   6.238231   4.854474   3.680896   3.905328
    29  H    8.552946   6.693751   5.539368   4.254116   4.253486
    30  H    7.195460   5.438031   4.305144   3.012364   3.169885
    31  H    6.807290   4.806623   4.059758   2.631972   2.325040
    32  C    5.848572   4.786601   2.795219   2.416382   3.398223
    33  O    7.162163   6.101735   4.136455   3.630009   4.503941
    34  H    7.699481   6.416222   4.570620   3.806723   4.514270
    35  C    5.039778   4.489075   2.390399   2.772792   3.859412
    36  H    5.722606   5.456893   3.393970   3.855623   4.942397
    37  C    3.663763   3.340055   1.388915   2.446346   3.432374
    38  H    3.407840   3.748827   2.196924   3.462981   4.376496
    39  H    1.826003   3.315540   4.155615   5.351908   5.506229
                   26         27         28         29         30
    26  C    0.000000
    27  C    1.522367   0.000000
    28  O    2.551534   1.491939   0.000000
    29  H    3.272027   1.912382   0.974029   0.000000
    30  H    2.080517   1.092919   2.166498   2.397980   0.000000
    31  H    2.202124   1.092946   2.164335   2.148007   1.616227
    32  C    1.425099   2.578218   3.095312   3.999843   2.921127
    33  O    2.386737   2.890833   2.920593   3.821199   3.022131
    34  H    2.446700   2.428989   2.085318   2.956702   2.640377
    35  C    2.421895   3.831960   4.414942   5.326364   4.167804
    36  H    3.379365   4.669080   5.062111   6.008773   4.920811
    37  C    2.825559   4.347057   5.163821   5.995445   4.759748
    38  H    3.908760   5.429531   6.190180   7.043063   5.833054
    39  H    6.530745   7.791019   8.719902   9.327709   8.355455
                   31         32         33         34         35
    31  H    0.000000
    32  C    3.501622   0.000000
    33  O    3.969331   1.342252   0.000000
    34  H    3.513435   1.908144   0.974172   0.000000
    35  C    4.623726   1.381742   2.375157   3.154291   0.000000
    36  H    5.555195   2.092496   2.552178   3.455440   1.086570
    37  C    4.876020   2.431071   3.657866   4.322302   1.393159
    38  H    5.951446   3.381631   4.492834   5.231136   2.118793
    39  H    7.757515   6.783674   8.093060   8.578856   5.920811
                   36         37         38         39
    36  H    0.000000
    37  C    2.176329   0.000000
    38  H    2.465990   1.087300   0.000000
    39  H    6.534248   4.551084   4.122014   0.000000
 Stoichiometry    C13H22NO3(1+)
 Framework group  C1[X(C13H22NO3)]
 Deg. of freedom   111
 Full point group                 C1      NOp   1
 Largest Abelian subgroup         C1      NOp   1
 Largest concise Abelian subgroup C1      NOp   1
                         Standard orientation:                         
 ---------------------------------------------------------------------
 Center     Atomic      Atomic             Coordinates (Angstroms)
 Number     Number       Type             X           Y           Z
 ---------------------------------------------------------------------
      1          6           0        3.890012    0.074598    1.889194
      2          1           0        3.959293   -0.992144    2.108881
      3          1           0        2.873486    0.371615    2.156405
      4          1           0        4.554099    0.575118    2.597468
      5          6           0        4.112232    0.475935    0.439947
      6          6           0        4.149686    2.006604    0.102893
      7          1           0        4.240396    2.175731   -0.972038
      8          1           0        5.037993    2.407529    0.597486
      9          1           0        3.209487    2.492229    0.373317
     10          6           0        5.435413   -0.120692   -0.072037
     11          1           0        5.413504   -1.210376   -0.122400
     12          1           0        6.249075    0.205605    0.580001
     13          1           0        5.624592    0.278315   -1.070099
     14          7           0        3.093449   -0.099058   -0.468441
     15          1           0        3.233171    0.302161   -1.373534
     16          6           0        1.612019    0.085834   -0.100566
     17          1           0        1.368871    1.135960    0.086098
     18          1           0        1.385652   -0.337456    0.881389
     19          6           0        0.601424   -0.470808   -1.073778
     20          8           0        0.982799   -1.790861   -1.465067
     21          1           0        1.922912   -1.616110   -1.649085
     22          1           0        0.532937    0.038998   -2.038466
     23          6           0       -0.855725   -0.571852   -0.552913
     24          6           0       -1.868034    0.363260   -0.952313
     25          1           0       -1.630050    1.188795   -1.618722
     26          6           0       -3.101704    0.344889   -0.343422
     27          6           0       -4.100758    1.443544   -0.678759
     28          8           0       -4.803047    2.055714    0.486539
     29          1           0       -5.170368    2.848365    0.055827
     30          1           0       -4.784594    0.975736   -1.391498
     31          1           0       -3.715805    2.188069   -1.380205
     32          6           0       -3.415248   -0.710019    0.561987
     33          8           0       -4.663610   -0.807510    1.045441
     34          1           0       -5.078559    0.073456    1.072455
     35          6           0       -2.460317   -1.669881    0.837635
     36          1           0       -2.785046   -2.477460    1.488020
     37          6           0       -1.170900   -1.610700    0.313427
     38          1           0       -0.461486   -2.352795    0.671543
     39          1           0        3.268558   -1.080942   -0.536827
 ---------------------------------------------------------------------
 Rotational constants (GHZ):           0.9532064           0.1706080           0.1625275
 Leave Link  202 at Sun Jul 18 14:37:53 2021, MaxMem=   104857600 cpu:               0.1 elap:               0.0
 (Enter /prod/apps/gaussian/g16b1/l301.exe)
 Standard basis: 6-31G(d) (6D, 7F)
 Ernie: Thresh=  0.10000D-02 Tol=  0.10000D-05 Strict=F.
 There are   299 symmetry adapted cartesian basis functions of A   symmetry.
 There are   299 symmetry adapted basis functions of A   symmetry.
   299 basis functions,   564 primitive gaussians,   299 cartesian basis functions
    65 alpha electrons       65 beta electrons
       nuclear repulsion energy      1234.5924896071 Hartrees.
 IExCor=  402 DFT=T Ex+Corr=B3LYP ExCW=0 ScaHFX=  0.200000
 ScaDFX=  0.800000  0.720000  1.000000  0.810000 ScalE2=  1.000000  1.000000
 IRadAn=      5 IRanWt=     -1 IRanGd=            0 ICorTp=0 IEmpDi=  4
 NAtoms=   39 NActive=   39 NUniq=   39 SFac= 1.00D+00 NAtFMM=   60 NAOKFM=F Big=F
 Integral buffers will be    131072 words long.
 Raffenetti 2 integral format.
 Two-electron integral symmetry is turned on.
 Using the following non-standard input for PCM:
 MSTModel=DFT cav MSTCharged
 --- end of non-standard input.
 MST model for solvation energy: B3LYP parametrization.
 MST cavity parameters:
 ISph   IAn     Re0     Alpha   Atom Type   QCorr
 ------------------------------------------------
   1      6     1.50     1.25      CH3        F
   2      1     1.20     1.25      CH3        F
   3      1     1.20     1.25      CH3        F
   4      1     1.20     1.25      CH3        F
   5      6     1.50     1.25      C          F
   6      6     1.50     1.25      CH3        F
   7      1     1.20     1.25      CH3        F
   8      1     1.20     1.25      CH3        F
   9      1     1.20     1.25      CH3        F
  10      6     1.50     1.25      CH3        F
  11      1     1.20     1.25      CH3        F
  12      1     1.20     1.25      CH3        F
  13      1     1.20     1.25      CH3        F
  14      7     1.55     1.15      NH         T
  15      1     0.90     1.15      NH         T
  16      6     1.50     1.25      CH2        F
  17      1     1.20     1.25      CH2        F
  18      1     1.20     1.25      CH2        F
  19      6     1.50     1.25      CH         F
  20      8     1.45     1.25      OH         F
  21      1     0.90     1.25      OH         F
  22      1     1.20     1.25      CH         F
  23      6     1.50     1.25      C          F
  24      6     1.50     1.25      CH         F
  25      1     1.20     1.25      CH         F
  26      6     1.50     1.25      C          F
  27      6     1.50     1.25      CH2        F
  28      8     1.45     1.25      OH         F
  29      1     0.90     1.25      OH         F
  30      1     1.20     1.25      CH2        F
  31      1     1.20     1.25      CH2        F
  32      6     1.50     1.25      C          F
  33      8     1.45     1.25      OH         F
  34      1     0.90     1.25      OH         F
  35      6     1.50     1.25      CH         F
  36      1     1.20     1.25      CH         F
  37      6     1.50     1.25      CH         F
  38      1     1.20     1.25      CH         F
  39      1     0.90     1.15      NH         T
 ------------------------------------------------------------------------------
 Polarizable Continuum Model (PCM)
 =================================
 Model                : PCM.
 Atomic radii         : MST.
 Polarization charges : Total charges.
 Charge compensation  : None.
 Solution method      : On-the-fly selection.
 Cavity type          : Scaled VdW (van der Waals Surface) (Alpha=1.250).
 Cavity algorithm     : GePol (No added spheres)
                        Default sphere list used, NSphG=   39.
                        Lebedev-Laikov grids with approx.  5.0 points / Ang**2.
                        Smoothing algorithm: York/Karplus (Gamma=1.0000).
                        Polarization charges: spherical gaussians, with
                                              point-specific exponents (IZeta= 3).
                        Self-potential: point-specific (ISelfS= 7).
                        Self-field    : sphere-specific E.n sum rule (ISelfD= 2).
 1st derivatives      : Analytical E(r).r(x)/FMM algorithm (CHGder, D1EAlg=3).
                        Cavity 1st derivative terms included.
 Solvent              : Water, Eps=  78.355300 Eps(inf)=   1.777849
 ------------------------------------------------------------------------------
 GePol: Number of generator spheres                  =      39
 GePol: Total number of spheres                      =      39
 GePol: Number of exposed spheres                    =      39 (100.00%)
 GePol: Number of points                             =    2667
 GePol: Average weight of points                     =       0.12
 GePol: Minimum weight of points                     =   0.34D-11
 GePol: Maximum weight of points                     =    0.21416
 GePol: Number of points with low weight             =     198
 GePol: Fraction of low-weight points (<1% of avg)   =       7.42%
 GePol: Cavity surface area                          =    332.890 Ang**2
 GePol: Cavity volume                                =    314.038 Ang**3
 PCM non-electrostatic energy =         0.0008502846 Hartrees.
 Nuclear repulsion after PCM non-electrostatic terms =     1234.5933398917 Hartrees.
 Leave Link  301 at Sun Jul 18 14:37:53 2021, MaxMem=   104857600 cpu:               0.5 elap:               0.1
 (Enter /prod/apps/gaussian/g16b1/l302.exe)
 NPDir=0 NMtPBC=     1 NCelOv=     1 NCel=       1 NClECP=     1 NCelD=      1
         NCelK=      1 NCelE2=     1 NClLst=     1 CellRange=     0.0.
 One-electron integrals computed using PRISM.
 One-electron integral symmetry used in STVInt
 NBasis=   299 RedAO= T EigKep=  4.49D-04  NBF=   299
 NBsUse=   299 1.00D-06 EigRej= -1.00D+00 NBFU=   299
 Precomputing XC quadrature grid using
 IXCGrd= 4 IRadAn=           5 IRanWt=          -1 IRanGd=           0 AccXCQ= 0.00D+00.
 Generated NRdTot=       0 NPtTot=           0 NUsed=           0 NTot=          32
 NSgBfM=   295   295   295   295   295 MxSgAt=    39 MxSgA2=    39.
 Leave Link  302 at Sun Jul 18 14:37:53 2021, MaxMem=   104857600 cpu:               2.2 elap:               0.6
 (Enter /prod/apps/gaussian/g16b1/l303.exe)
 DipDrv:  MaxL=1.
 Leave Link  303 at Sun Jul 18 14:37:54 2021, MaxMem=   104857600 cpu:               0.1 elap:               0.1
 (Enter /prod/apps/gaussian/g16b1/l401.exe)
 ExpMin= 1.61D-01 ExpMax= 5.48D+03 ExpMxC= 8.25D+02 IAcc=3 IRadAn=         5 AccDes= 0.00D+00
 Harris functional with IExCor=  402 and IRadAn=       5 diagonalized for initial guess.
 HarFok:  IExCor=  402 AccDes= 0.00D+00 IRadAn=         5 IDoV= 1 UseB2=F ITyADJ=14
 ICtDFT=  3500011 ScaDFX=  1.000000  1.000000  1.000000  1.000000
 FoFCou: FMM=F IPFlag=           0 FMFlag=      100000 FMFlg1=           0
         NFxFlg=           0 DoJE=T BraDBF=F KetDBF=T FulRan=T
         wScrn=  0.000000 ICntrl=       500 IOpCl=  0 I1Cent=   200000004 NGrid=           0
         NMat0=    1 NMatS0=      1 NMatT0=    0 NMatD0=    1 NMtDS0=    0 NMtDT0=    0
 Petite list used in FoFCou.
 Harris En= -788.828244605050    
 JPrj=0 DoOrth=F DoCkMO=F.
 Leave Link  401 at Sun Jul 18 14:37:56 2021, MaxMem=   104857600 cpu:               9.3 elap:               2.4
 (Enter /prod/apps/gaussian/g16b1/l502.exe)
 Integral symmetry usage will be decided dynamically.
 Closed shell SCF:
 Using DIIS extrapolation, IDIIS=  1040.
 NGot=   104857600 LenX=   104673424 LenY=   104583582
 Requested convergence on RMS density matrix=1.00D-08 within 128 cycles.
 Requested convergence on MAX density matrix=1.00D-06.
 Requested convergence on             energy=1.00D-06.
 No special actions if energy rises.
 Fock matrices will be formed incrementally for  20 cycles.

 Cycle   1  Pass 1  IDiag  1:
 FoFJK:  IHMeth= 1 ICntrl=       0 DoSepK=F KAlg= 0 I1Cent=           0 FoldK=F
 IRaf= 770000000 NMat=       1 IRICut=       1 DoRegI=T DoRafI=F ISym2E= 0 IDoP0=0 IntGTp=1.
 FoFCou: FMM=F IPFlag=           0 FMFlag=      100000 FMFlg1=           0
         NFxFlg=           0 DoJE=F BraDBF=F KetDBF=F FulRan=T
         wScrn=  0.000000 ICntrl=         0 IOpCl=  0 I1Cent=           0 NGrid=           0
         NMat0=    1 NMatS0=      1 NMatT0=    0 NMatD0=    1 NMtDS0=    0 NMtDT0=    0
 Symmetry not used in FoFCou.
 Inv3:  Mode=1 IEnd=    21338667.
 Iteration    1 A*A^-1 deviation from unit magnitude is 2.89D-15 for    230.
 Iteration    1 A*A^-1 deviation from orthogonality  is 2.47D-15 for   1505     96.
 Iteration    1 A^-1*A deviation from unit magnitude is 3.11D-15 for    384.
 Iteration    1 A^-1*A deviation from orthogonality  is 3.24D-06 for   2376   2359.
 Iteration    2 A*A^-1 deviation from unit magnitude is 2.44D-15 for   1842.
 Iteration    2 A*A^-1 deviation from orthogonality  is 5.23D-15 for   2062    185.
 Iteration    2 A^-1*A deviation from unit magnitude is 1.78D-15 for   1095.
 Iteration    2 A^-1*A deviation from orthogonality  is 1.05D-15 for   1140    189.
 E= -788.459775978934    
 DIIS: error= 2.86D-02 at cycle   1 NSaved=   1.
 NSaved= 1 IEnMin= 1 EnMin= -788.459775978934     IErMin= 1 ErrMin= 2.86D-02
 ErrMax= 2.86D-02  0.00D+00 EMaxC= 1.00D-01 BMatC= 4.38D-01 BMatP= 4.38D-01
 IDIUse=3 WtCom= 7.14D-01 WtEn= 2.86D-01
 Coeff-Com:  0.100D+01
 Coeff-En:   0.100D+01
 Coeff:      0.100D+01
 Gap=     0.224 Goal=   None    Shift=    0.000
 GapD=    0.224 DampG=1.000 DampE=0.500 DampFc=0.5000 IDamp=-1.
 Damping current iteration by 5.00D-01
 RMSDP=4.37D-03 MaxDP=1.27D-01              OVMax= 1.52D-01

 Cycle   2  Pass 1  IDiag  1:
 RMSU=  2.16D-03    CP:  9.82D-01
 E= -788.651040277335     Delta-E=       -0.191264298401 Rises=F Damp=T
 DIIS: error= 5.58D-03 at cycle   2 NSaved=   2.
 NSaved= 2 IEnMin= 2 EnMin= -788.651040277335     IErMin= 2 ErrMin= 5.58D-03
 ErrMax= 5.58D-03  0.00D+00 EMaxC= 1.00D-01 BMatC= 2.34D-02 BMatP= 4.38D-01
 IDIUse=3 WtCom= 9.44D-01 WtEn= 5.58D-02
 Coeff-Com:  0.493D-01 0.951D+00
 Coeff-En:   0.626D-01 0.937D+00
 Coeff:      0.500D-01 0.950D+00
 Gap=     0.227 Goal=   None    Shift=    0.000
 RMSDP=9.25D-04 MaxDP=2.17D-02 DE=-1.91D-01 OVMax= 8.31D-02

 Cycle   3  Pass 1  IDiag  1:
 RMSU=  9.12D-04    CP:  9.76D-01  9.54D-01
 E= -788.862874944451     Delta-E=       -0.211834667116 Rises=F Damp=F
 DIIS: error= 3.93D-03 at cycle   3 NSaved=   3.
 NSaved= 3 IEnMin= 3 EnMin= -788.862874944451     IErMin= 3 ErrMin= 3.93D-03
 ErrMax= 3.93D-03  0.00D+00 EMaxC= 1.00D-01 BMatC= 1.17D-02 BMatP= 2.34D-02
 IDIUse=3 WtCom= 9.61D-01 WtEn= 3.93D-02
 Coeff-Com: -0.195D-01 0.395D+00 0.624D+00
 Coeff-En:   0.000D+00 0.000D+00 0.100D+01
 Coeff:     -0.187D-01 0.380D+00 0.639D+00
 Gap=     0.212 Goal=   None    Shift=    0.000
 RMSDP=4.76D-04 MaxDP=2.06D-02 DE=-2.12D-01 OVMax= 2.54D-02

 Cycle   4  Pass 1  IDiag  1:
 RMSU=  3.83D-04    CP:  9.78D-01  9.78D-01  6.98D-01
 E= -788.870048001817     Delta-E=       -0.007173057366 Rises=F Damp=F
 DIIS: error= 1.91D-03 at cycle   4 NSaved=   4.
 NSaved= 4 IEnMin= 4 EnMin= -788.870048001817     IErMin= 4 ErrMin= 1.91D-03
 ErrMax= 1.91D-03  0.00D+00 EMaxC= 1.00D-01 BMatC= 2.95D-03 BMatP= 1.17D-02
 IDIUse=3 WtCom= 9.81D-01 WtEn= 1.91D-02
 Coeff-Com: -0.124D-01 0.725D-01 0.354D+00 0.586D+00
 Coeff-En:   0.000D+00 0.000D+00 0.215D+00 0.785D+00
 Coeff:     -0.122D-01 0.711D-01 0.352D+00 0.590D+00
 Gap=     0.212 Goal=   None    Shift=    0.000
 RMSDP=1.85D-04 MaxDP=6.27D-03 DE=-7.17D-03 OVMax= 1.19D-02

 Cycle   5  Pass 1  IDiag  1:
 RMSU=  7.84D-05    CP:  9.77D-01  9.77D-01  7.79D-01  6.09D-01
 E= -788.872525607824     Delta-E=       -0.002477606007 Rises=F Damp=F
 DIIS: error= 3.12D-04 at cycle   5 NSaved=   5.
 NSaved= 5 IEnMin= 5 EnMin= -788.872525607824     IErMin= 5 ErrMin= 3.12D-04
 ErrMax= 3.12D-04  0.00D+00 EMaxC= 1.00D-01 BMatC= 9.36D-05 BMatP= 2.95D-03
 IDIUse=3 WtCom= 9.97D-01 WtEn= 3.12D-03
 Coeff-Com: -0.429D-02 0.142D-01 0.132D+00 0.269D+00 0.589D+00
 Coeff-En:   0.000D+00 0.000D+00 0.000D+00 0.000D+00 0.100D+01
 Coeff:     -0.428D-02 0.141D-01 0.132D+00 0.268D+00 0.590D+00
 Gap=     0.211 Goal=   None    Shift=    0.000
 RMSDP=4.17D-05 MaxDP=1.50D-03 DE=-2.48D-03 OVMax= 3.80D-03

 Cycle   6  Pass 1  IDiag  1:
 RMSU=  2.87D-05    CP:  9.77D-01  9.79D-01  7.80D-01  6.32D-01  6.33D-01
 E= -788.872606092228     Delta-E=       -0.000080484404 Rises=F Damp=F
 DIIS: error= 1.31D-04 at cycle   6 NSaved=   6.
 NSaved= 6 IEnMin= 6 EnMin= -788.872606092228     IErMin= 6 ErrMin= 1.31D-04
 ErrMax= 1.31D-04  0.00D+00 EMaxC= 1.00D-01 BMatC= 1.27D-05 BMatP= 9.36D-05
 IDIUse=3 WtCom= 9.99D-01 WtEn= 1.31D-03
 Coeff-Com: -0.131D-02 0.185D-02 0.434D-01 0.988D-01 0.328D+00 0.530D+00
 Coeff-En:   0.000D+00 0.000D+00 0.000D+00 0.000D+00 0.689D-01 0.931D+00
 Coeff:     -0.130D-02 0.185D-02 0.433D-01 0.987D-01 0.327D+00 0.530D+00
 Gap=     0.212 Goal=   None    Shift=    0.000
 RMSDP=1.40D-05 MaxDP=5.40D-04 DE=-8.05D-05 OVMax= 1.38D-03

 Cycle   7  Pass 1  IDiag  1:
 RMSU=  6.07D-06    CP:  9.77D-01  9.79D-01  7.82D-01  6.31D-01  6.95D-01
                    CP:  6.04D-01
 E= -788.872618382583     Delta-E=       -0.000012290356 Rises=F Damp=F
 DIIS: error= 2.59D-05 at cycle   7 NSaved=   7.
 NSaved= 7 IEnMin= 7 EnMin= -788.872618382583     IErMin= 7 ErrMin= 2.59D-05
 ErrMax= 2.59D-05  0.00D+00 EMaxC= 1.00D-01 BMatC= 6.52D-07 BMatP= 1.27D-05
 IDIUse=1 WtCom= 1.00D+00 WtEn= 0.00D+00
 Coeff-Com: -0.463D-03 0.252D-03 0.158D-01 0.379D-01 0.141D+00 0.277D+00
 Coeff-Com:  0.528D+00
 Coeff:     -0.463D-03 0.252D-03 0.158D-01 0.379D-01 0.141D+00 0.277D+00
 Coeff:      0.528D+00
 Gap=     0.212 Goal=   None    Shift=    0.000
 RMSDP=3.14D-06 MaxDP=1.08D-04 DE=-1.23D-05 OVMax= 3.33D-04

 Cycle   8  Pass 1  IDiag  1:
 RMSU=  1.77D-06    CP:  9.77D-01  9.79D-01  7.82D-01  6.34D-01  6.92D-01
                    CP:  6.29D-01  6.18D-01
 E= -788.872618991058     Delta-E=       -0.000000608475 Rises=F Damp=F
 DIIS: error= 4.87D-06 at cycle   8 NSaved=   8.
 NSaved= 8 IEnMin= 8 EnMin= -788.872618991058     IErMin= 8 ErrMin= 4.87D-06
 ErrMax= 4.87D-06  0.00D+00 EMaxC= 1.00D-01 BMatC= 2.79D-08 BMatP= 6.52D-07
 IDIUse=1 WtCom= 1.00D+00 WtEn= 0.00D+00
 Coeff-Com: -0.633D-04-0.925D-04 0.215D-02 0.572D-02 0.248D-01 0.576D-01
 Coeff-Com:  0.211D+00 0.699D+00
 Coeff:     -0.633D-04-0.925D-04 0.215D-02 0.572D-02 0.248D-01 0.576D-01
 Coeff:      0.211D+00 0.699D+00
 Gap=     0.212 Goal=   None    Shift=    0.000
 RMSDP=7.23D-07 MaxDP=3.75D-05 DE=-6.08D-07 OVMax= 7.86D-05

 Cycle   9  Pass 1  IDiag  1:
 RMSU=  4.72D-07    CP:  9.77D-01  9.79D-01  7.82D-01  6.34D-01  6.94D-01
                    CP:  6.30D-01  6.67D-01  7.67D-01
 E= -788.872619013218     Delta-E=       -0.000000022160 Rises=F Damp=F
 DIIS: error= 1.75D-06 at cycle   9 NSaved=   9.
 NSaved= 9 IEnMin= 9 EnMin= -788.872619013218     IErMin= 9 ErrMin= 1.75D-06
 ErrMax= 1.75D-06  0.00D+00 EMaxC= 1.00D-01 BMatC= 4.22D-09 BMatP= 2.79D-08
 IDIUse=1 WtCom= 1.00D+00 WtEn= 0.00D+00
 Coeff-Com:  0.283D-05-0.692D-04-0.859D-04 0.960D-04 0.223D-02 0.885D-02
 Coeff-Com:  0.691D-01 0.357D+00 0.563D+00
 Coeff:      0.283D-05-0.692D-04-0.859D-04 0.960D-04 0.223D-02 0.885D-02
 Coeff:      0.691D-01 0.357D+00 0.563D+00
 Gap=     0.212 Goal=   None    Shift=    0.000
 RMSDP=2.53D-07 MaxDP=1.20D-05 DE=-2.22D-08 OVMax= 2.84D-05

 Cycle  10  Pass 1  IDiag  1:
 RMSU=  1.57D-07    CP:  9.77D-01  9.79D-01  7.82D-01  6.33D-01  6.94D-01
                    CP:  6.31D-01  6.71D-01  8.19D-01  6.56D-01
 E= -788.872619017063     Delta-E=       -0.000000003845 Rises=F Damp=F
 DIIS: error= 6.42D-07 at cycle  10 NSaved=  10.
 NSaved=10 IEnMin=10 EnMin= -788.872619017063     IErMin=10 ErrMin= 6.42D-07
 ErrMax= 6.42D-07  0.00D+00 EMaxC= 1.00D-01 BMatC= 2.87D-10 BMatP= 4.22D-09
 IDIUse=1 WtCom= 1.00D+00 WtEn= 0.00D+00
 Coeff-Com:  0.687D-05-0.191D-04-0.264D-03-0.561D-03-0.163D-02-0.210D-02
 Coeff-Com:  0.941D-02 0.863D-01 0.256D+00 0.653D+00
 Coeff:      0.687D-05-0.191D-04-0.264D-03-0.561D-03-0.163D-02-0.210D-02
 Coeff:      0.941D-02 0.863D-01 0.256D+00 0.653D+00
 Gap=     0.212 Goal=   None    Shift=    0.000
 RMSDP=7.20D-08 MaxDP=2.50D-06 DE=-3.85D-09 OVMax= 9.15D-06

 Cycle  11  Pass 1  IDiag  1:
 RMSU=  4.24D-08    CP:  9.77D-01  9.79D-01  7.82D-01  6.34D-01  6.94D-01
                    CP:  6.31D-01  6.72D-01  8.24D-01  7.31D-01  7.26D-01
 E= -788.872619017329     Delta-E=       -0.000000000266 Rises=F Damp=F
 DIIS: error= 2.67D-07 at cycle  11 NSaved=  11.
 NSaved=11 IEnMin=11 EnMin= -788.872619017329     IErMin=11 ErrMin= 2.67D-07
 ErrMax= 2.67D-07  0.00D+00 EMaxC= 1.00D-01 BMatC= 3.24D-11 BMatP= 2.87D-10
 IDIUse=1 WtCom= 1.00D+00 WtEn= 0.00D+00
 Coeff-Com:  0.358D-05-0.704D-05-0.142D-03-0.315D-03-0.101D-02-0.160D-02
 Coeff-Com:  0.173D-02 0.294D-01 0.115D+00 0.363D+00 0.494D+00
 Coeff:      0.358D-05-0.704D-05-0.142D-03-0.315D-03-0.101D-02-0.160D-02
 Coeff:      0.173D-02 0.294D-01 0.115D+00 0.363D+00 0.494D+00
 Gap=     0.212 Goal=   None    Shift=    0.000
 RMSDP=2.17D-08 MaxDP=9.87D-07 DE=-2.66D-10 OVMax= 2.42D-06

 Cycle  12  Pass 1  IDiag  1:
 RMSU=  1.31D-08    CP:  9.77D-01  9.79D-01  7.82D-01  6.34D-01  6.94D-01
                    CP:  6.31D-01  6.73D-01  8.26D-01  7.27D-01  7.70D-01
                    CP:  6.54D-01
 E= -788.872619017364     Delta-E=       -0.000000000035 Rises=F Damp=F
 DIIS: error= 4.31D-08 at cycle  12 NSaved=  12.
 NSaved=12 IEnMin=12 EnMin= -788.872619017364     IErMin=12 ErrMin= 4.31D-08
 ErrMax= 4.31D-08  0.00D+00 EMaxC= 1.00D-01 BMatC= 1.03D-12 BMatP= 3.24D-11
 IDIUse=1 WtCom= 1.00D+00 WtEn= 0.00D+00
 Coeff-Com:  0.180D-06 0.532D-06-0.112D-04-0.285D-04-0.103D-03-0.245D-03
 Coeff-Com: -0.636D-03-0.228D-02 0.331D-02 0.319D-01 0.159D+00 0.809D+00
 Coeff:      0.180D-06 0.532D-06-0.112D-04-0.285D-04-0.103D-03-0.245D-03
 Coeff:     -0.636D-03-0.228D-02 0.331D-02 0.319D-01 0.159D+00 0.809D+00
 Gap=     0.212 Goal=   None    Shift=    0.000
 RMSDP=5.34D-09 MaxDP=1.79D-07 DE=-3.46D-11 OVMax= 8.21D-07

 Error on total polarization charges =  0.01835
 SCF Done:  E(RB3LYP) =  -788.872619017     A.U. after   12 cycles
            NFock= 12  Conv=0.53D-08     -V/T= 2.0094
 KE= 7.814980025071D+02 PE=-4.286391953753D+03 EE= 1.481427992337D+03
 Leave Link  502 at Sun Jul 18 14:39:00 2021, MaxMem=   104857600 cpu:             254.4 elap:              63.7
 (Enter /prod/apps/gaussian/g16b1/l601.exe)
 Copying SCF densities to generalized density rwf, IOpCl= 0 IROHF=0.

 **********************************************************************

            Population analysis using the SCF Density.

 **********************************************************************

 Orbital symmetries:
       Occupied  (A) (A) (A) (A) (A) (A) (A) (A) (A) (A) (A) (A)
                 (A) (A) (A) (A) (A) (A) (A) (A) (A) (A) (A) (A)
                 (A) (A) (A) (A) (A) (A) (A) (A) (A) (A) (A) (A)
                 (A) (A) (A) (A) (A) (A) (A) (A) (A) (A) (A) (A)
                 (A) (A) (A) (A) (A) (A) (A) (A) (A) (A) (A) (A)
                 (A) (A) (A) (A) (A)
       Virtual   (A) (A) (A) (A) (A) (A) (A) (A) (A) (A) (A) (A)
                 (A) (A) (A) (A) (A) (A) (A) (A) (A) (A) (A) (A)
                 (A) (A) (A) (A) (A) (A) (A) (A) (A) (A) (A) (A)
                 (A) (A) (A) (A) (A) (A) (A) (A) (A) (A) (A) (A)
                 (A) (A) (A) (A) (A) (A) (A) (A) (A) (A) (A) (A)
                 (A) (A) (A) (A) (A) (A) (A) (A) (A) (A) (A) (A)
                 (A) (A) (A) (A) (A) (A) (A) (A) (A) (A) (A) (A)
                 (A) (A) (A) (A) (A) (A) (A) (A) (A) (A) (A) (A)
                 (A) (A) (A) (A) (A) (A) (A) (A) (A) (A) (A) (A)
                 (A) (A) (A) (A) (A) (A) (A) (A) (A) (A) (A) (A)
                 (A) (A) (A) (A) (A) (A) (A) (A) (A) (A) (A) (A)
                 (A) (A) (A) (A) (A) (A) (A) (A) (A) (A) (A) (A)
                 (A) (A) (A) (A) (A) (A) (A) (A) (A) (A) (A) (A)
                 (A) (A) (A) (A) (A) (A) (A) (A) (A) (A) (A) (A)
                 (A) (A) (A) (A) (A) (A) (A) (A) (A) (A) (A) (A)
                 (A) (A) (A) (A) (A) (A) (A) (A) (A) (A) (A) (A)
                 (A) (A) (A) (A) (A) (A) (A) (A) (A) (A) (A) (A)
                 (A) (A) (A) (A) (A) (A) (A) (A) (A) (A) (A) (A)
                 (A) (A) (A) (A) (A) (A) (A) (A) (A) (A) (A) (A)
                 (A) (A) (A) (A) (A) (A)
 The electronic state is 1-A.
 Alpha  occ. eigenvalues --  -19.17413 -19.16160 -19.15450 -14.45259 -10.26636
 Alpha  occ. eigenvalues --  -10.25649 -10.25237 -10.25212 -10.24245 -10.20251
 Alpha  occ. eigenvalues --  -10.20161 -10.19913 -10.19537 -10.19387 -10.19120
 Alpha  occ. eigenvalues --  -10.18844 -10.18662  -1.06475  -1.04281  -1.01384
 Alpha  occ. eigenvalues --   -1.01098  -0.85925  -0.82168  -0.78332  -0.77076
 Alpha  occ. eigenvalues --   -0.73627  -0.71604  -0.70309  -0.68284  -0.64945
 Alpha  occ. eigenvalues --   -0.61336  -0.61025  -0.59221  -0.58226  -0.54451
 Alpha  occ. eigenvalues --   -0.52741  -0.51719  -0.51471  -0.49890  -0.47639
 Alpha  occ. eigenvalues --   -0.45887  -0.45444  -0.44742  -0.44440  -0.44029
 Alpha  occ. eigenvalues --   -0.42839  -0.42284  -0.41045  -0.40823  -0.40199
 Alpha  occ. eigenvalues --   -0.39756  -0.39522  -0.38639  -0.38019  -0.37478
 Alpha  occ. eigenvalues --   -0.36962  -0.35877  -0.34474  -0.33883  -0.33609
 Alpha  occ. eigenvalues --   -0.32656  -0.28429  -0.27970  -0.25330  -0.22255
 Alpha virt. eigenvalues --   -0.01104  -0.00409   0.04759   0.07116   0.08320
 Alpha virt. eigenvalues --    0.09016   0.09887   0.10387   0.11258   0.11369
 Alpha virt. eigenvalues --    0.12294   0.12935   0.13936   0.14006   0.14753
 Alpha virt. eigenvalues --    0.15425   0.15549   0.16154   0.16498   0.17292
 Alpha virt. eigenvalues --    0.18096   0.18315   0.19283   0.19594   0.20088
 Alpha virt. eigenvalues --    0.20304   0.21106   0.21658   0.22134   0.22800
 Alpha virt. eigenvalues --    0.23851   0.25404   0.25749   0.26848   0.28575
 Alpha virt. eigenvalues --    0.28746   0.33204   0.35070   0.35468   0.38628
 Alpha virt. eigenvalues --    0.46697   0.47229   0.47603   0.48940   0.49973
 Alpha virt. eigenvalues --    0.50577   0.51965   0.52804   0.53514   0.54111
 Alpha virt. eigenvalues --    0.55243   0.55993   0.57290   0.57938   0.58843
 Alpha virt. eigenvalues --    0.59773   0.60476   0.61104   0.61521   0.63402
 Alpha virt. eigenvalues --    0.63872   0.65149   0.65669   0.66925   0.67584
 Alpha virt. eigenvalues --    0.70247   0.70497   0.72123   0.72427   0.73528
 Alpha virt. eigenvalues --    0.74591   0.75575   0.77858   0.78228   0.79960
 Alpha virt. eigenvalues --    0.81192   0.81820   0.82309   0.83633   0.84081
 Alpha virt. eigenvalues --    0.84777   0.85955   0.86205   0.87668   0.88019
 Alpha virt. eigenvalues --    0.88667   0.89055   0.89631   0.89792   0.90290
 Alpha virt. eigenvalues --    0.91024   0.91938   0.92205   0.92614   0.94499
 Alpha virt. eigenvalues --    0.94765   0.95239   0.95741   0.97294   0.97472
 Alpha virt. eigenvalues --    0.98621   1.00128   1.00600   1.01168   1.02008
 Alpha virt. eigenvalues --    1.02713   1.04409   1.05907   1.07545   1.09409
 Alpha virt. eigenvalues --    1.11683   1.14143   1.16135   1.16707   1.18284
 Alpha virt. eigenvalues --    1.19419   1.22154   1.22840   1.25633   1.28162
 Alpha virt. eigenvalues --    1.29001   1.31336   1.34659   1.38900   1.39402
 Alpha virt. eigenvalues --    1.41162   1.41631   1.42324   1.43682   1.46640
 Alpha virt. eigenvalues --    1.48664   1.49988   1.52156   1.53174   1.56042
 Alpha virt. eigenvalues --    1.63292   1.64469   1.65897   1.67241   1.68849
 Alpha virt. eigenvalues --    1.69574   1.70184   1.70881   1.72774   1.73123
 Alpha virt. eigenvalues --    1.75454   1.77390   1.78957   1.80158   1.81519
 Alpha virt. eigenvalues --    1.82589   1.83670   1.84707   1.86123   1.86879
 Alpha virt. eigenvalues --    1.88124   1.89435   1.92948   1.93505   1.94909
 Alpha virt. eigenvalues --    1.96485   1.98182   1.98827   1.99962   2.00706
 Alpha virt. eigenvalues --    2.04091   2.04542   2.05618   2.08603   2.08938
 Alpha virt. eigenvalues --    2.10188   2.11472   2.13468   2.15557   2.18863
 Alpha virt. eigenvalues --    2.22263   2.22699   2.23136   2.24255   2.25623
 Alpha virt. eigenvalues --    2.25854   2.27106   2.28370   2.29667   2.30054
 Alpha virt. eigenvalues --    2.32929   2.33510   2.35615   2.37427   2.38040
 Alpha virt. eigenvalues --    2.40071   2.41866   2.45772   2.46154   2.49140
 Alpha virt. eigenvalues --    2.51916   2.53497   2.55433   2.60389   2.61474
 Alpha virt. eigenvalues --    2.63051   2.64248   2.65646   2.68327   2.73311
 Alpha virt. eigenvalues --    2.74066   2.74834   2.75979   2.78498   2.81297
 Alpha virt. eigenvalues --    2.85765   2.86783   2.91661   2.94327   2.98547
 Alpha virt. eigenvalues --    3.16524   3.39964   3.71008   3.79639   3.93587
 Alpha virt. eigenvalues --    4.01141   4.10846   4.12605   4.18444   4.19571
 Alpha virt. eigenvalues --    4.25890   4.29033   4.29709   4.32076   4.42057
 Alpha virt. eigenvalues --    4.46657   4.53274   4.63363   4.76826
          Condensed to atoms (all electrons):
               1          2          3          4          5          6
     1  C    5.143353   0.372906   0.362717   0.373941   0.394254  -0.049009
     2  H    0.372906   0.525361  -0.031734  -0.027830  -0.023075   0.003714
     3  H    0.362717  -0.031734   0.548402  -0.023099  -0.032047  -0.003039
     4  H    0.373941  -0.027830  -0.023099   0.508499  -0.021686  -0.003147
     5  C    0.394254  -0.023075  -0.032047  -0.021686   4.750343   0.390175
     6  C   -0.049009   0.003714  -0.003039  -0.003147   0.390175   5.161311
     7  H    0.003929  -0.000108  -0.000093   0.000037  -0.021991   0.368353
     8  H   -0.002309  -0.000053  -0.000058   0.001792  -0.030438   0.375648
     9  H   -0.003244  -0.000069   0.002161   0.000055  -0.028936   0.365883
    10  C   -0.068925  -0.005360   0.005855  -0.002431   0.394277  -0.067238
    11  H   -0.003662   0.002626  -0.000098  -0.000081  -0.026026   0.005179
    12  H   -0.003942  -0.000047   0.000064   0.001748  -0.027028  -0.002692
    13  H    0.005928   0.000040  -0.000241  -0.000017  -0.030833  -0.007419
    14  N   -0.059506  -0.001421  -0.006471   0.003568   0.217902  -0.071690
    15  H    0.004676  -0.000083  -0.000186  -0.000072  -0.016792  -0.005055
    16  C   -0.004614  -0.000519   0.003737   0.000158  -0.024340  -0.004497
    17  H   -0.001687   0.000086   0.000366  -0.000053   0.000668   0.002285
    18  H    0.002933   0.000360   0.001648   0.000008  -0.005038  -0.000049
    19  C    0.000350  -0.000039   0.000174  -0.000004   0.002801  -0.000187
    20  O   -0.000032   0.000001   0.000005  -0.000000   0.000335  -0.000009
    21  H    0.000014  -0.000003   0.000002  -0.000000   0.000324   0.000015
    22  H    0.000001   0.000000  -0.000004   0.000000  -0.000125  -0.000002
    23  C    0.000004  -0.000000   0.000004  -0.000000  -0.000009  -0.000003
    24  C   -0.000000   0.000000   0.000000   0.000000  -0.000000   0.000000
    25  H   -0.000000   0.000000  -0.000000   0.000000   0.000000  -0.000000
    26  C   -0.000000  -0.000000   0.000000   0.000000  -0.000000  -0.000000
    27  C    0.000000   0.000000  -0.000000  -0.000000   0.000000   0.000000
    28  O   -0.000000   0.000000   0.000000  -0.000000  -0.000000  -0.000000
    29  H    0.000000  -0.000000   0.000000   0.000000   0.000000   0.000000
    30  H    0.000000  -0.000000   0.000000   0.000000   0.000000   0.000000
    31  H   -0.000000   0.000000  -0.000000  -0.000000   0.000000   0.000000
    32  C    0.000000  -0.000000   0.000000  -0.000000   0.000000  -0.000000
    33  O    0.000000   0.000000   0.000000  -0.000000  -0.000000   0.000000
    34  H    0.000000   0.000000  -0.000000  -0.000000  -0.000000   0.000000
    35  C   -0.000000  -0.000000   0.000000  -0.000000   0.000000  -0.000000
    36  H   -0.000000  -0.000000  -0.000000   0.000000   0.000000  -0.000000
    37  C   -0.000005   0.000000  -0.000013   0.000000  -0.000003  -0.000000
    38  H   -0.000002   0.000001  -0.000004  -0.000000   0.000001  -0.000000
    39  H   -0.002223   0.002140  -0.000273  -0.000113  -0.016208   0.005506
               7          8          9         10         11         12
     1  C    0.003929  -0.002309  -0.003244  -0.068925  -0.003662  -0.003942
     2  H   -0.000108  -0.000053  -0.000069  -0.005360   0.002626  -0.000047
     3  H   -0.000093  -0.000058   0.002161   0.005855  -0.000098   0.000064
     4  H    0.000037   0.001792   0.000055  -0.002431  -0.000081   0.001748
     5  C   -0.021991  -0.030438  -0.028936   0.394277  -0.026026  -0.027028
     6  C    0.368353   0.375648   0.365883  -0.067238   0.005179  -0.002692
     7  H    0.530713  -0.023931  -0.034853  -0.007002   0.000014   0.000007
     8  H   -0.023931   0.507262  -0.015850  -0.003245   0.000038   0.002544
     9  H   -0.034853  -0.015850   0.530787   0.005292  -0.000182  -0.000059
    10  C   -0.007002  -0.003245   0.005292   5.176692   0.366714   0.374308
    11  H    0.000014   0.000038  -0.000182   0.366714   0.526787  -0.021158
    12  H    0.000007   0.002544  -0.000059   0.374308  -0.021158   0.512928
    13  H    0.004415  -0.000173   0.000087   0.366471  -0.027845  -0.024238
    14  N   -0.004769   0.004432  -0.001999  -0.068480  -0.004705   0.004563
    15  H    0.006379  -0.000008  -0.000453  -0.002980  -0.000290  -0.000096
    16  C   -0.000080   0.000049   0.001772   0.004548  -0.000094  -0.000108
    17  H    0.000045  -0.000049   0.002559   0.000021  -0.000004   0.000001
    18  H   -0.000004  -0.000007   0.000045  -0.000001  -0.000005   0.000000
    19  C   -0.000020   0.000002  -0.000038  -0.000131   0.000001   0.000001
    20  O    0.000001   0.000000   0.000000  -0.000013  -0.000010  -0.000000
    21  H   -0.000002  -0.000000  -0.000002  -0.000056  -0.000010   0.000000
    22  H    0.000002  -0.000000   0.000001  -0.000004  -0.000000  -0.000000
    23  C   -0.000000   0.000000   0.000003   0.000001  -0.000000  -0.000000
    24  C    0.000000  -0.000000  -0.000001  -0.000000  -0.000000  -0.000000
    25  H    0.000000   0.000000  -0.000000  -0.000000  -0.000000   0.000000
    26  C   -0.000000   0.000000   0.000000   0.000000  -0.000000  -0.000000
    27  C    0.000000   0.000000  -0.000000  -0.000000  -0.000000   0.000000
    28  O   -0.000000  -0.000000   0.000000   0.000000   0.000000  -0.000000
    29  H    0.000000   0.000000  -0.000000  -0.000000  -0.000000   0.000000
    30  H   -0.000000  -0.000000  -0.000000  -0.000000   0.000000   0.000000
    31  H   -0.000000   0.000000   0.000000  -0.000000   0.000000   0.000000
    32  C   -0.000000   0.000000   0.000000   0.000000   0.000000   0.000000
    33  O    0.000000  -0.000000   0.000000   0.000000   0.000000  -0.000000
    34  H    0.000000  -0.000000  -0.000000   0.000000   0.000000  -0.000000
    35  C    0.000000   0.000000   0.000000   0.000000  -0.000000  -0.000000
    36  H    0.000000   0.000000  -0.000000  -0.000000  -0.000000   0.000000
    37  C    0.000000  -0.000000   0.000000   0.000000  -0.000000  -0.000000
    38  H   -0.000000   0.000000  -0.000000  -0.000000  -0.000000   0.000000
    39  H    0.000025  -0.000134  -0.000193  -0.004552   0.007041  -0.000042
              13         14         15         16         17         18
     1  C    0.005928  -0.059506   0.004676  -0.004614  -0.001687   0.002933
     2  H    0.000040  -0.001421  -0.000083  -0.000519   0.000086   0.000360
     3  H   -0.000241  -0.006471  -0.000186   0.003737   0.000366   0.001648
     4  H   -0.000017   0.003568  -0.000072   0.000158  -0.000053   0.000008
     5  C   -0.030833   0.217902  -0.016792  -0.024340   0.000668  -0.005038
     6  C   -0.007419  -0.071690  -0.005055  -0.004497   0.002285  -0.000049
     7  H    0.004415  -0.004769   0.006379  -0.000080   0.000045  -0.000004
     8  H   -0.000173   0.004432  -0.000008   0.000049  -0.000049  -0.000007
     9  H    0.000087  -0.001999  -0.000453   0.001772   0.002559   0.000045
    10  C    0.366471  -0.068480  -0.002980   0.004548   0.000021  -0.000001
    11  H   -0.027845  -0.004705  -0.000290  -0.000094  -0.000004  -0.000005
    12  H   -0.024238   0.004563  -0.000096  -0.000108   0.000001   0.000000
    13  H    0.544287  -0.002913   0.003598  -0.000076  -0.000003  -0.000002
    14  N   -0.002913   6.924172   0.293621   0.208267  -0.029370  -0.028455
    15  H    0.003598   0.293621   0.280570  -0.021395  -0.002380   0.002911
    16  C   -0.000076   0.208267  -0.021395   5.163003   0.348894   0.365344
    17  H   -0.000003  -0.029370  -0.002380   0.348894   0.504742  -0.034568
    18  H   -0.000002  -0.028455   0.002911   0.365344  -0.034568   0.501400
    19  C   -0.000001  -0.021990   0.000275   0.313434  -0.019693  -0.033491
    20  O    0.000000  -0.006274  -0.000240  -0.048663   0.003507   0.000181
    21  H    0.000007   0.010689   0.000026  -0.013859  -0.000115  -0.000558
[...]
    36  H   -0.000000   0.000004  -0.000067  -0.000059  -0.000037   0.000001
    37  C   -0.002783   0.001247  -0.008367  -0.000545   0.001945   0.000669
    38  H    0.000424  -0.000113  -0.001045  -0.000297  -0.000052  -0.000073
    39  H   -0.002592  -0.007960   0.015362  -0.004370  -0.016188   0.004702
              13         14         15         16         17         18
     1  C   -0.034972   0.127166  -0.011630  -0.035136   0.036336  -0.069722
     2  H    0.012880  -0.048540   0.001130   0.042218  -0.008628   0.006696
     3  H   -0.017048  -0.061669   0.013897   0.122750  -0.026058  -0.011403
     4  H    0.011614   0.058090  -0.008676  -0.014596   0.009765  -0.007145
     5  C    0.214679  -1.556081  -0.074109  -0.277240   0.096050   0.030465
     6  C   -0.008138   0.244715   0.005223  -0.170802  -0.095735   0.041234
     7  H   -0.037958  -0.028362   0.008621   0.070676   0.002327  -0.014944
     8  H   -0.003110   0.008126   0.012072  -0.011700  -0.008813   0.012046
     9  H    0.015673  -0.031953  -0.029347   0.069424   0.012132  -0.022380
    10  C    0.205594   0.137666  -0.015336   0.016986   0.005393   0.042376
    11  H   -0.285840  -0.038136  -0.004082   0.002724   0.000273   0.006528
    12  H   -0.252848   0.048713   0.003043   0.033221  -0.002216  -0.004691
    13  H    1.291460  -0.092646  -0.007335   0.013526   0.003945   0.004759
    14  N   -0.092646   9.975645   0.271331  -1.192864  -0.260785  -0.167661
    15  H   -0.007335   0.271331   0.676021   0.066689  -0.047048   0.033529
    16  C    0.013526  -1.192864   0.066689   7.403825   0.030112   0.175008
    17  H    0.003945  -0.260785  -0.047048   0.030112   1.814989  -0.192082
    18  H    0.004759  -0.167661   0.033529   0.175008  -0.192082   1.739382
    19  C   -0.007490  -0.923274   0.029664   0.229918   0.088195  -0.550189
    20  O   -0.000905   0.026241   0.000405  -0.024049   0.042984   0.043931
    21  H   -0.000313  -0.004803  -0.000145  -0.024099   0.001443  -0.013899
    22  H    0.002935  -0.029428  -0.026142   0.178521  -0.080858   0.107031
    23  C   -0.004235   1.089277  -0.071999  -0.890201  -0.227543  -0.056546
    24  C    0.002946  -0.137996  -0.017267  -0.305197   0.079536   0.029132
    25  H    0.000206   0.010997   0.008316   0.117214  -0.016616   0.022352
    26  C    0.000013   0.070560  -0.008738  -0.083601  -0.056632  -0.016393
    27  C   -0.000055   0.008158   0.000274  -0.078988  -0.026896   0.003080
    28  O    0.000001  -0.000039  -0.000058  -0.005167  -0.001171   0.000363
    29  H    0.000001  -0.000029  -0.000008  -0.000312   0.000027   0.000048
    30  H   -0.000001   0.000541   0.000020   0.001427  -0.000328   0.000009
    31  H   -0.000029   0.000466  -0.000022  -0.004340  -0.000355  -0.000034
    32  C    0.000099  -0.011592   0.000991  -0.052598   0.003481   0.012905
    33  O   -0.000000  -0.000172  -0.000029  -0.004775  -0.000025  -0.000020
    34  H   -0.000002  -0.000002   0.000059   0.001641   0.000311  -0.000315
    35  C   -0.000276   0.039333  -0.002203   0.318362   0.002978  -0.001627
    36  H    0.000013   0.000947  -0.000218  -0.003836  -0.000149  -0.001242
    37  C   -0.003143  -0.048862   0.055227  -0.601515  -0.012386   0.112609
    38  H   -0.000101   0.013614  -0.003270   0.098077   0.013330  -0.028997
    39  H   -0.007179   0.280928  -0.092852   0.066392   0.071832  -0.049118
              19         20         21         22         23         24
     1  C   -0.027817   0.003628  -0.000440  -0.005593   0.067639   0.010981
     2  H   -0.024573   0.000794   0.000760  -0.005227   0.012886  -0.002746
     3  H    0.096144  -0.012886   0.000770   0.003273  -0.063560   0.002881
     4  H   -0.006687   0.002911  -0.000292   0.000485   0.006855   0.001297
     5  C   -0.049255   0.048385  -0.004190   0.026336  -0.071998  -0.030713
     6  C   -0.071342  -0.001744  -0.000219  -0.002013   0.114765  -0.010155
     7  H    0.005030  -0.000264  -0.000104   0.002483  -0.002388   0.002599
     8  H    0.015870  -0.000556   0.000169   0.000095  -0.000768  -0.001679
     9  H   -0.053221   0.001953  -0.000343  -0.000033   0.017356   0.008390
    10  C   -0.115461   0.006230  -0.001982   0.008481   0.004322  -0.002521
    11  H   -0.001520   0.000324  -0.000202   0.000992  -0.005077  -0.000166
    12  H   -0.000864   0.000516   0.000049   0.000732   0.000286  -0.001079
    13  H   -0.007490  -0.000905  -0.000313   0.002935  -0.004235   0.002946
    14  N   -0.923274   0.026241  -0.004803  -0.029428   1.089277  -0.137996
    15  H    0.029664   0.000405  -0.000145  -0.026142  -0.071999  -0.017267
    16  C    0.229918  -0.024049  -0.024099   0.178521  -0.890201  -0.305197
    17  H    0.088195   0.042984   0.001443  -0.080858  -0.227543   0.079536
    18  H   -0.550189   0.043931  -0.013899   0.107031  -0.056546   0.029132
    19  C   14.996985  -0.830877   0.209523  -0.857577  -4.863924  -1.210312
    20  O   -0.830877   8.979137   0.309471   0.007167   0.238072  -0.156782
    21  H    0.209523   0.309471   0.522261  -0.070696  -0.100169  -0.014640
    22  H   -0.857577   0.007167  -0.070696   1.733609   0.471439   0.012657
    23  C   -4.863924   0.238072  -0.100169   0.471439  24.475337  -6.552913
    24  C   -1.210312  -0.156782  -0.014640   0.012657  -6.552913  26.233687
    25  H   -0.265543   0.019883   0.001961  -0.079546   1.065213  -1.993307
    26  C   -1.307529  -0.039864  -0.008704   0.006355   1.526012  -3.949427
    27  C   -0.301549  -0.000844  -0.004031   0.023299  -1.185884  -1.277599
    28  O    0.005607  -0.000062  -0.000020   0.000605  -0.046493   0.046395
    29  H    0.000909   0.000010  -0.000018   0.000083  -0.001372   0.002456
    30  H   -0.020877   0.000317  -0.000230   0.000590   0.031478  -0.104775
    31  H    0.024294  -0.001195  -0.000012   0.002869   0.083133   0.213138
    32  C    0.140237  -0.000075  -0.000279   0.000157  -4.701621  -0.074621
    33  O    0.015185  -0.000141   0.000153   0.000898   0.104279   0.016262
    34  H    0.001879   0.000036   0.000048  -0.000183   0.053707   0.037374
    35  C    0.402828  -0.044035   0.003603  -0.005692   1.966439  -4.518813
    36  H   -0.001395   0.000308  -0.000041  -0.001403  -0.539133   0.181668
    37  C   -0.527171   0.299935   0.006601  -0.150457  -7.296915  -0.942449
    38  H    0.151276  -0.039088  -0.007024   0.020846   0.756250  -0.007974
    39  H   -0.012908   0.021913  -0.003252  -0.007352  -0.058500   0.019418
              25         26         27         28         29         30
     1  C   -0.000825   0.004639  -0.000840  -0.000009  -0.000012  -0.000018
     2  H    0.000448   0.000755  -0.000148  -0.000001  -0.000001  -0.000001
     3  H   -0.001939  -0.004817  -0.000452  -0.000024  -0.000002  -0.000024
     4  H    0.000019   0.000147  -0.000019  -0.000000  -0.000001   0.000000
     5  C   -0.001067  -0.038024  -0.001106  -0.000047  -0.000000   0.000003
     6  C    0.003485   0.024507   0.001417   0.000009  -0.000002   0.000056
     7  H   -0.002171   0.003062  -0.000002   0.000001  -0.000005   0.000007
     8  H    0.000970   0.000579   0.000067   0.000002   0.000001   0.000002
     9  H   -0.001457   0.006735   0.002335   0.000121   0.000019   0.000006
    10  C    0.001450  -0.001823   0.000145  -0.000001   0.000002   0.000013
    11  H    0.000034  -0.000256   0.000034  -0.000000   0.000000   0.000001
    12  H   -0.000120  -0.000113   0.000018  -0.000000  -0.000000   0.000001
    13  H    0.000206   0.000013  -0.000055   0.000001   0.000001  -0.000001
    14  N    0.010997   0.070560   0.008158  -0.000039  -0.000029   0.000541
    15  H    0.008316  -0.008738   0.000274  -0.000058  -0.000008   0.000020
    16  C    0.117214  -0.083601  -0.078988  -0.005167  -0.000312   0.001427
    17  H   -0.016616  -0.056632  -0.026896  -0.001171   0.000027  -0.000328
    18  H    0.022352  -0.016393   0.003080   0.000363   0.000048   0.000009
    19  C   -0.265543  -1.307529  -0.301549   0.005607   0.000909  -0.020877
    20  O    0.019883  -0.039864  -0.000844  -0.000062   0.000010   0.000317
    21  H    0.001961  -0.008704  -0.004031  -0.000020  -0.000018  -0.000230
    22  H   -0.079546   0.006355   0.023299   0.000605   0.000083   0.000590
    23  C    1.065213   1.526012  -1.185884  -0.046493  -0.001372   0.031478
    24  C   -1.993307  -3.949427  -1.277599   0.046395   0.002456  -0.104775
    25  H    2.466138   0.426950  -0.044563  -0.012958   0.000162   0.005680
    26  C    0.426950  17.964455  -1.832116  -0.042626   0.075210   0.159669
    27  C   -0.044563  -1.832116   7.968077   0.239048  -0.149414   0.207487
    28  O   -0.012958  -0.042626   0.239048   8.522561   0.399654  -0.013091
    29  H    0.000162   0.075210  -0.149414   0.399654   0.487887  -0.036688
    30  H    0.005680   0.159669   0.207487  -0.013091  -0.036688   0.923499
    31  H   -0.056457   0.156230  -0.133883  -0.069181   0.004181  -0.135243
    32  C   -0.050706  -3.628674   0.584473  -0.033652  -0.006395  -0.068771
    33  O   -0.006136   0.270934   0.120060  -0.073839  -0.010024   0.010806
    34  H   -0.002123   0.329541  -0.144228  -0.042577   0.009284  -0.010863
    35  C    0.078787   0.350347   0.236717  -0.047035   0.008920   0.028777
    36  H    0.008062  -0.112665   0.011452   0.002405  -0.000580   0.000780
    37  C    0.094240  -3.953365   0.613958  -0.023036  -0.002267  -0.008215
    38  H   -0.027316  -0.038778  -0.010424  -0.001052   0.000121  -0.000608
    39  H   -0.002862  -0.002659  -0.000416   0.000020   0.000004  -0.000054
              31         32         33         34         35         36
     1  C   -0.000067  -0.003409  -0.000004   0.000003  -0.001881   0.000451
     2  H   -0.000018  -0.000898   0.000002  -0.000005   0.002888   0.000107
     3  H    0.000063   0.001319   0.000041   0.000024   0.000552  -0.000168
     4  H   -0.000006  -0.000021  -0.000000   0.000002  -0.000722   0.000003
     5  C   -0.000355   0.009458  -0.000059   0.000079   0.007655  -0.000544
     6  C    0.000303  -0.002674  -0.000027  -0.000026  -0.002435   0.000061
     7  H    0.000039  -0.000304  -0.000000   0.000004  -0.000007  -0.000000
     8  H    0.000010  -0.000091  -0.000003  -0.000002   0.000261   0.000004
     9  H    0.000204   0.000032   0.000001  -0.000034  -0.005454  -0.000067
    10  C   -0.000020   0.000661  -0.000002  -0.000003  -0.001083  -0.000059
    11  H    0.000006   0.000197  -0.000001   0.000001  -0.000333  -0.000037
    12  H    0.000005  -0.000004  -0.000000  -0.000000   0.000189   0.000001
    13  H   -0.000029   0.000099  -0.000000  -0.000002  -0.000276   0.000013
    14  N    0.000466  -0.011592  -0.000172  -0.000002   0.039333   0.000947
    15  H   -0.000022   0.000991  -0.000029   0.000059  -0.002203  -0.000218
    16  C   -0.004340  -0.052598  -0.004775   0.001641   0.318362  -0.003836
    17  H   -0.000355   0.003481  -0.000025   0.000311   0.002978  -0.000149
    18  H   -0.000034   0.012905  -0.000020  -0.000315  -0.001627  -0.001242
    19  C    0.024294   0.140237   0.015185   0.001879   0.402828  -0.001395
    20  O   -0.001195  -0.000075  -0.000141   0.000036  -0.044035   0.000308
    21  H   -0.000012  -0.000279   0.000153   0.000048   0.003603  -0.000041
    22  H    0.002869   0.000157   0.000898  -0.000183  -0.005692  -0.001403
    23  C    0.083133  -4.701621   0.104279   0.053707   1.966439  -0.539133
    24  C    0.213138  -0.074621   0.016262   0.037374  -4.518813   0.181668
    25  H   -0.056457  -0.050706  -0.006136  -0.002123   0.078787   0.008062
    26  C    0.156230  -3.628674   0.270934   0.329541   0.350347  -0.112665
    27  C   -0.133883   0.584473   0.120060  -0.144228   0.236717   0.011452
    28  O   -0.069181  -0.033652  -0.073839  -0.042577  -0.047035   0.002405
    29  H    0.004181  -0.006395  -0.010024   0.009284   0.008920  -0.000580
    30  H   -0.135243  -0.068771   0.010806  -0.010863   0.028777   0.000780
    31  H    1.244698  -0.102206   0.006847   0.012945  -0.066160   0.000022
    32  C   -0.102206  15.252481  -0.874441  -0.138316  -4.244433   1.363893
    33  O    0.006847  -0.874441   9.116984   0.299917   0.074156  -0.069758
    34  H    0.012945  -0.138316   0.299917   0.522320  -0.165437   0.000414
    35  C   -0.066160  -4.244433   0.074156  -0.165437  18.009554  -1.774101
    36  H    0.000022   1.363893  -0.069758   0.000414  -1.774101   1.884007
    37  C    0.022745   2.462122  -0.023574  -0.030703  -5.875404   0.681512
    38  H   -0.001252  -0.307183  -0.002820  -0.001399   0.860732  -0.110091
    39  H    0.000012  -0.000382   0.000034  -0.000013   0.003514   0.000103
              37         38         39
     1  C   -0.059433   0.005088   0.011655
     2  H   -0.001181  -0.001057   0.008716
     3  H   -0.002641  -0.000155  -0.029197
     4  H   -0.001940   0.000922   0.013437
     5  C    0.097295  -0.005383  -0.081517
     6  C   -0.018523   0.001015  -0.021312
     7  H   -0.002783   0.000424  -0.002592
     8  H    0.001247  -0.000113  -0.007960
     9  H   -0.008367  -0.001045   0.015362
    10  C   -0.000545  -0.000297  -0.004370
    11  H    0.001945  -0.000052  -0.016188
    12  H    0.000669  -0.000073   0.004702
    13  H   -0.003143  -0.000101  -0.007179
    14  N   -0.048862   0.013614   0.280928
    15  H    0.055227  -0.003270  -0.092852
    16  C   -0.601515   0.098077   0.066392
    17  H   -0.012386   0.013330   0.071832
    18  H    0.112609  -0.028997  -0.049118
    19  C   -0.527171   0.151276  -0.012908
    20  O    0.299935  -0.039088   0.021913
    21  H    0.006601  -0.007024  -0.003252
    22  H   -0.150457   0.020846  -0.007352
    23  C   -7.296915   0.756250  -0.058500
    24  C   -0.942449  -0.007974   0.019418
    25  H    0.094240  -0.027316  -0.002862
    26  C   -3.953365  -0.038778  -0.002659
    27  C    0.613958  -0.010424  -0.000416
    28  O   -0.023036  -0.001052   0.000020
    29  H   -0.002267   0.000121   0.000004
    30  H   -0.008215  -0.000608  -0.000054
    31  H    0.022745  -0.001252   0.000012
    32  C    2.462122  -0.307183  -0.000382
    33  O   -0.023574  -0.002820   0.000034
    34  H   -0.030703  -0.001399  -0.000013
    35  C   -5.875404   0.860732   0.003514
    36  H    0.681512  -0.110091   0.000103
    37  C   22.453762  -1.894413  -0.026963
    38  H   -1.894413   2.318791   0.004712
    39  H   -0.026963   0.004712   0.616148
 Mulliken charges:
               1
     1  C    1.307777
     2  H   -0.005492
     3  H   -0.018740
     4  H   -0.020488
     5  C   -3.403614
     6  C    1.301233
     7  H   -0.023012
     8  H    0.013896
     9  H   -0.034997
    10  C    1.307948
    11  H   -0.002686
    12  H    0.033544
    13  H   -0.016719
    14  N   -0.777623
    15  H    0.234002
    16  C    0.722303
    17  H   -0.251120
    18  H   -0.215078
    19  C    1.617812
    20  O   -0.901185
    21  H    0.203335
    22  H   -0.289739
    23  C    0.656492
    24  C    0.412317
    25  H   -0.766854
    26  C   -0.249896
    27  C    1.173356
    28  O   -0.804652
    29  H    0.218154
    30  H    0.028613
    31  H   -0.201374
    32  C    0.470843
    33  O   -0.970709
    34  H    0.266644
    35  C    0.360538
    36  H   -0.520725
    37  C    0.612384
    38  H   -0.755234
    39  H    0.288746
 Sum of Mulliken charges =   1.00000
 Mulliken charges with hydrogens summed into heavy atoms:
               1
     1  C    1.263058
     5  C   -3.403614
     6  C    1.257120
    10  C    1.322086
    14  N   -0.254874
    16  C    0.256106
    19  C    1.328073
    20  O   -0.697849
    23  C    0.656492
    24  C   -0.354537
    26  C   -0.249896
    27  C    1.000595
    28  O   -0.586498
    32  C    0.470843
    33  O   -0.704065
    35  C   -0.160186
    37  C   -0.142850
 Electronic spatial extent (au):  <R**2>=           6669.9303
 Charge=              1.0000 electrons
 Dipole moment (field-independent basis, Debye):
    X=             10.2299    Y=              3.0215    Z=             -3.8610  Tot=             11.3441
 Quadrupole moment (field-independent basis, Debye-Ang):
   XX=            -30.1469   YY=            -91.5866   ZZ=            -93.6849
   XY=             -7.3166   XZ=              9.0320   YZ=             -2.7018
 Traceless Quadrupole moment (field-independent basis, Debye-Ang):
   XX=             41.6592   YY=            -19.7805   ZZ=            -21.8788
   XY=             -7.3166   XZ=              9.0320   YZ=             -2.7018
 Octapole moment (field-independent basis, Debye-Ang**2):
  XXX=            104.9021  YYY=              5.8635  ZZZ=            -15.9271  XYY=            -13.0279
  XXY=            111.2066  XXZ=            -34.7478  XZZ=             23.9999  YZZ=             -4.3251
  YYZ=            -10.3416  XYZ=             17.0115
 Hexadecapole moment (field-independent basis, Debye-Ang**3):
 XXXX=          -5102.7575 YYYY=           -920.6467 ZZZZ=           -545.7114 XXXY=           -454.9510
 XXXZ=            236.0342 YYYX=            -73.5672 YYYZ=              2.9049 ZZZX=            -13.5235
 ZZZY=             27.6773 XXYY=          -1138.8000 XXZZ=          -1204.2666 YYZZ=           -223.2305
 XXYZ=            -37.2467 YYXZ=             15.6217 ZZXY=             -8.9437
 N-N= 1.243146073369D+03 E-N=-4.303637256057D+03  KE= 7.830134318240D+02
 Leave Link  601 at Sun Jul 18 16:31:09 2021, MaxMem=   262144000 cpu:               1.2 elap:               0.4
 (Enter /prod/apps/gaussian/g16b1/l9999.exe)
 1\1\GINC-PIRINEUS34\SP\RMP2-FC\Aug-CC-pVDZ\C13H22N1O3(1+)\UBATOR02\18-
 Jul-2021\0\\#p mp2/aug-cc-pVDZ scf=tight maxdisk=180GB geom=allcheck\\
 SET_328_BBB301_conf1.geo_165_105_045 geometry\\1,1\C,0,2.5874080457,-2
 .4140975304,-1.7395523425\H,0,2.758568943,-3.0945182859,-0.9006170028\
 H,0,2.8612038429,-1.4029148326,-1.4315372935\H,0,3.2581118242,-2.70548
 62627,-2.5507613701\C,0,1.1422705794,-2.4955597826,-2.2405377537\C,0,0
 .8610403531,-1.4749887393,-3.3478175759\H,0,-0.1790722146,-1.525401739
 2,-3.6830594013\H,0,1.503037947,-1.6919567892,-4.2043659265\H,0,1.0739
 279672,-0.4551203058,-3.0221036245\C,0,0.8002628934,-3.918422736,-2.69
 34664246\H,0,0.965150156,-4.6422572783,-1.8907963359\H,0,1.4401666715,
 -4.1950632384,-3.533486707\H,0,-0.2397956953,-3.9953826278,-3.02191534
 39\N,0,0.1995950463,-2.2001986254,-1.0635124333\H,0,-0.7708065624,-2.3
 228010864,-1.3928771435\C,0,0.306875234,-0.861465048,-0.3975215486\H,0
 ,0.0542148034,-0.0963029182,-1.1279223729\H,0,1.3396514519,-0.73261244
 52,-0.0771136459\C,0,-0.6289810975,-0.8054647457,0.809803281\O,0,-0.21
 88383393,-1.882438174,1.6465534494\H,0,-0.8656624771,-1.9614662584,2.3
 715815635\H,0,-1.6578415356,-0.959833607,0.4605210771\C,0,-0.548359209
 6,0.5419111115,1.4982526169\C,0,-1.4496885728,1.560029499,1.1771360098
 \H,0,-2.2323071508,1.3726337535,0.4458472861\C,0,-1.3878781315,2.81377
 15919,1.7841170081\C,0,-2.4333022962,3.8595587857,1.5024534604\O,0,-1.
 7985377926,5.1468385857,1.396485292\H,0,-2.4889249268,5.8264129029,1.4
 934126739\H,0,-3.171958202,3.8828429503,2.314439427\H,0,-2.9662502388,
 3.6174670452,0.5768676748\C,0,-0.3731782934,3.0587852755,2.7325303775\
 O,0,-0.2567468707,4.2641826161,3.3533062062\H,0,-0.8020043749,4.901119
 623,2.8325697899\C,0,0.5322210884,2.0441409311,3.0650345849\H,0,1.2992
 604909,2.251022229,3.8028579389\C,0,0.4389891392,0.7964982975,2.455748
 8074\H,0,1.1275982343,0.0037425589,2.7247867291\H,0,0.3425792702,-2.92
 22047005,-0.3383410074\\Version=ES64L-G16RevB.01\State=1-A\HF=-784.037
 2753\MP2=-786.6730097\RMSD=8.251e-09\PG=C01 [X(C13H22N1O3)]\\@


 I KNOW YOU BELIEVE YOU UNDERSTAND WHAT YOU THINK I SAID,
 BUT I AM NOT SURE YOU REALIZE THAT WHAT YOU HEARD IS NOT WHAT I MEANT.
 Job cpu time:       0 days  2 hours 46 minutes 16.9 seconds.
 Elapsed time:       0 days  0 hours 47 minutes  0.8 seconds.
 File lengths (MBytes):  RWF=  98540 Int=      0 D2E=      0 Chk=     28 Scr=      1
 Normal termination of Gaussian 16 at Sun Jul 18 16:31:11 2021.
