 Entering Gaussian System, Link 0=g16
 Initial command:
 /prod/apps/gaussian/g16b1/l1.exe "/tmp/ubator02/1839598/Gau-71348.inp" -scrdir="/tmp/ubator02/1839598/"
 Entering Link 1 = /prod/apps/gaussian/g16b1/l1.exe PID=     71358.
  
 Copyright (c) 1988-2017, Gaussian, Inc.  All Rights Reserved.
  
 This is part of the Gaussian(R) 16 program.  It is based on
 the Gaussian(R) 09 system (copyright 2009, Gaussian, Inc.),
 the Gaussian(R) 03 system (copyright 2003, Gaussian, Inc.),
 the Gaussian(R) 98 system (copyright 1998, Gaussian, Inc.),
 the Gaussian(R) 94 system (copyright 1995, Gaussian, Inc.),
 the Gaussian 92(TM) system (copyright 1992, Gaussian, Inc.),
 the Gaussian 90(TM) system (copyright 1990, Gaussian, Inc.),
 the Gaussian 88(TM) system (copyright 1988, Gaussian, Inc.),
 the Gaussian 86(TM) system (copyright 1986, Carnegie Mellon
 University), and the Gaussian 82(TM) system (copyright 1983,
 Carnegie Mellon University). Gaussian is a federally registered
 trademark of Gaussian, Inc.
  
 This software contains proprietary and confidential information,
 including trade secrets, belonging to Gaussian, Inc.
  
 This software is provided under written license and may be
 used, copied, transmitted, or stored only in accord with that
 written license.
  
 The following legend is applicable only to US Government
 contracts under FAR:
  
                    RESTRICTED RIGHTS LEGEND
  
 Use, reproduction and disclosure by the US Government is
 subject to restrictions as set forth in subparagraphs (a)
 and (c) of the Commercial Computer Software - Restricted
 Rights clause in FAR 52.227-19.
  
 Gaussian, Inc.
 340 Quinnipiac St., Bldg. 40, Wallingford CT 06492
  
  
 ---------------------------------------------------------------
 Warning -- This program may not be used in any manner that
 competes with the business of Gaussian, Inc. or will provide
 assistance to any competitor of Gaussian, Inc.  The licensee
 of this program is prohibited from giving any competitor of
 Gaussian, Inc. access to this program.  By using this program,
 the user acknowledges that Gaussian, Inc. is engaged in the
 business of creating and licensing software in the field of
 computational chemistry and represents and warrants to the
 licensee that it is not a competitor of Gaussian, Inc. and that
 it will not use this program in any manner prohibited above.
 ---------------------------------------------------------------
  

 Cite this work as:
 Gaussian 16, Revision B.01,
 M. J. Frisch, G. W. Trucks, H. B. Schlegel, G. E. Scuseria, 
 M. A. Robb, J. R. Cheeseman, G. Scalmani, V. Barone, 
 G. A. Petersson, H. Nakatsuji, X. Li, M. Caricato, A. V. Marenich, 
 J. Bloino, B. G. Janesko, R. Gomperts, B. Mennucci, H. P. Hratchian, 
 J. V. Ortiz, A. F. Izmaylov, J. L. Sonnenberg, D. Williams-Young, 
 F. Ding, F. Lipparini, F. Egidi, J. Goings, B. Peng, A. Petrone, 
 T. Henderson, D. Ranasinghe, V. G. Zakrzewski, J. Gao, N. Rega, 
 G. Zheng, W. Liang, M. Hada, M. Ehara, K. Toyota, R. Fukuda, 
 J. Hasegawa, M. Ishida, T. Nakajima, Y. Honda, O. Kitao, H. Nakai, 
 T. Vreven, K. Throssell, J. A. Montgomery, Jr., J. E. Peralta, 
 F. Ogliaro, M. J. Bearpark, J. J. Heyd, E. N. Brothers, K. N. Kudin, 
 V. N. Staroverov, T. A. Keith, R. Kobayashi, J. Normand, 
 K. Raghavachari, A. P. Rendell, J. C. Burant, S. S. Iyengar, 
 J. Tomasi, M. Cossi, J. M. Millam, M. Klene, C. Adamo, R. Cammi, 
 J. W. Ochterski, R. L. Martin, K. Morokuma, O. Farkas, 
 J. B. Foresman, and D. J. Fox, Gaussian, Inc., Wallingford CT, 2016.
 
 ******************************************
 Gaussian 16:  ES64L-G16RevB.01 20-Dec-2017
                18-Jul-2021 
 ******************************************
 %mem=800MB
 %nproc=4
 Will use up to    4 processors via shared memory.
 %chk=SET_328_BBB29_conf1.geo_135_285_285.chk
 -----------------------------------------------------------
 #p b3lyp/6-31G(d) opt freq scrf=(iefpcm,read,solvent=water)
 -----------------------------------------------------------
 1/18=20,19=15,26=3,38=1,40=2/1,3;
 2/9=110,12=2,17=6,18=5,40=1/2;
 3/5=1,6=6,7=1,11=2,25=1,30=1,70=2203,71=1,72=1,74=-5/1,2,3;
 4//1;
 5/5=2,38=5,53=1/2;
 6/7=2,8=2,9=2,10=2,28=1/1;
 7//1,2,3,16;
 1/18=20,19=15,26=3/3(2);
 2/9=110/2;
 99//99;
 2/9=110/2;
 3/5=1,6=6,7=1,11=2,25=1,30=1,70=2205,71=1,72=1,74=-5/1,2,3;
 4/5=5,16=3,69=1/1;
 5/5=2,38=5,53=1/2;
 7//1,2,3,16;
 1/18=20,19=15,26=3/3(-5);
 2/9=110/2;
 6/7=2,8=2,9=2,10=2,19=2,28=1/1;
 99/9=1/99;
 Leave Link    1 at Sun Jul 18 13:49:17 2021, MaxMem=   104857600 cpu:               0.1 elap:               0.0
 (Enter /prod/apps/gaussian/g16b1/l101.exe)
 --------------------------------------------
 SET_328_BBB29_conf1.geo_135_285_285 geometry
 --------------------------------------------
 Symbolic Z-matrix:
 Charge =  1 Multiplicity = 1
 N                    -0.087     1.006     3.72 
 H                     0.177     0.6       4.595 
 H                    -0.83      1.659     3.866 
 C                    -0.538    -0.053     2.804 
 H                    -1.16      0.303     1.979 
 H                    -1.126    -0.769     3.385 
 C                     0.636    -0.836     2.196 
 H                     0.294    -1.832     1.908 
 H                     1.387    -1.03      2.964 
 C                     1.384    -0.072     1.038 
 H                     2.352    -0.577     1.009 
 H                     1.585     0.969     1.304 
 N                     0.758    -0.048    -0.294 
 C                     0.234     1.123    -0.72 
 C                     1.061     2.202    -0.851 
 H                     2.11      2.032    -0.619 
 C                     0.596     3.427    -1.281 
 Cl                    1.721     4.676    -1.513 
 C                    -0.792     3.595    -1.501 
 H                    -1.201     4.572    -1.744 
 C                    -1.656     2.476    -1.437 
 H                    -2.677     2.563    -1.798 
 C                    -1.136     1.232    -1.001 
 S                    -2.251    -0.139    -0.737 
 C                    -1.084    -1.349    -1.241 
 C                     0.299    -1.176    -0.894 
 C                     1.213    -2.136    -1.251 
 H                     2.238    -1.986    -0.922 
 C                     0.773    -3.314    -1.944 
 H                     1.5      -4.067    -2.235 
 C                    -0.584    -3.516    -2.208 
 H                    -0.933    -4.315    -2.858 
 C                    -1.531    -2.554    -1.779 
 H                    -2.589    -2.571    -2.03 
 H                     0.699     1.479     3.321 
 
 ITRead=  0  0  0  0  0  0  0  0  0  0  0  0  0  0  0  0  0  0  0  0
 ITRead=  0  0  0  0  0  0  0  0  0  0  0  0  0  0  0
 MicOpt= -1 -1 -1 -1 -1 -1 -1 -1 -1 -1 -1 -1 -1 -1 -1 -1 -1 -1 -1 -1
 MicOpt= -1 -1 -1 -1 -1 -1 -1 -1 -1 -1 -1 -1 -1 -1 -1
 NAtoms=     35 NQM=       35 NQMF=       0 NMMI=      0 NMMIF=      0
                NMic=       0 NMicF=      0.
                    Isotopes and Nuclear Properties:
 (Nuclear quadrupole moments (NQMom) in fm**2, nuclear magnetic moments (NMagM)
  in nuclear magnetons)

  Atom         1           2           3           4           5           6           7           8           9          10
 IAtWgt=          14           1           1          12           1           1          12           1           1          12
 AtmWgt=  14.0030740   1.0078250   1.0078250  12.0000000   1.0078250   1.0078250  12.0000000   1.0078250   1.0078250  12.0000000
 NucSpn=           2           1           1           0           1           1           0           1           1           0
 AtZEff=  -0.0000000  -0.0000000  -0.0000000  -0.0000000  -0.0000000  -0.0000000  -0.0000000  -0.0000000  -0.0000000  -0.0000000
 NQMom=    2.0440000   0.0000000   0.0000000   0.0000000   0.0000000   0.0000000   0.0000000   0.0000000   0.0000000   0.0000000
 NMagM=    0.4037610   2.7928460   2.7928460   0.0000000   2.7928460   2.7928460   0.0000000   2.7928460   2.7928460   0.0000000
 AtZNuc=   7.0000000   1.0000000   1.0000000   6.0000000   1.0000000   1.0000000   6.0000000   1.0000000   1.0000000   6.0000000

  Atom        11          12          13          14          15          16          17          18          19          20
 IAtWgt=           1           1          14          12          12           1          12          35          12           1
 AtmWgt=   1.0078250   1.0078250  14.0030740  12.0000000  12.0000000   1.0078250  12.0000000  34.9688527  12.0000000   1.0078250
 NucSpn=           1           1           2           0           0           1           0           3           0           1
 AtZEff=  -0.0000000  -0.0000000  -0.0000000  -0.0000000  -0.0000000  -0.0000000  -0.0000000  -0.0000000  -0.0000000  -0.0000000
 NQMom=    0.0000000   0.0000000   2.0440000   0.0000000   0.0000000   0.0000000   0.0000000  -8.1650000   0.0000000   0.0000000
 NMagM=    2.7928460   2.7928460   0.4037610   0.0000000   0.0000000   2.7928460   0.0000000   0.8218740   0.0000000   2.7928460
 AtZNuc=   1.0000000   1.0000000   7.0000000   6.0000000   6.0000000   1.0000000   6.0000000  17.0000000   6.0000000   1.0000000

  Atom        21          22          23          24          25          26          27          28          29          30
 IAtWgt=          12           1          12          32          12          12          12           1          12           1
 AtmWgt=  12.0000000   1.0078250  12.0000000  31.9720718  12.0000000  12.0000000  12.0000000   1.0078250  12.0000000   1.0078250
 NucSpn=           0           1           0           0           0           0           0           1           0           1
 AtZEff=  -0.0000000  -0.0000000  -0.0000000  -0.0000000  -0.0000000  -0.0000000  -0.0000000  -0.0000000  -0.0000000  -0.0000000
 NQMom=    0.0000000   0.0000000   0.0000000   0.0000000   0.0000000   0.0000000   0.0000000   0.0000000   0.0000000   0.0000000
 NMagM=    0.0000000   2.7928460   0.0000000   0.0000000   0.0000000   0.0000000   0.0000000   2.7928460   0.0000000   2.7928460
 AtZNuc=   6.0000000   1.0000000   6.0000000  16.0000000   6.0000000   6.0000000   6.0000000   1.0000000   6.0000000   1.0000000

  Atom        31          32          33          34          35
 IAtWgt=          12           1          12           1           1
 AtmWgt=  12.0000000   1.0078250  12.0000000   1.0078250   1.0078250
 NucSpn=           0           1           0           1           1
 AtZEff=  -0.0000000  -0.0000000  -0.0000000  -0.0000000  -0.0000000
 NQMom=    0.0000000   0.0000000   0.0000000   0.0000000   0.0000000
 NMagM=    0.0000000   2.7928460   0.0000000   2.7928460   2.7928460
 AtZNuc=   6.0000000   1.0000000   6.0000000   1.0000000   1.0000000
 Leave Link  101 at Sun Jul 18 13:49:18 2021, MaxMem=   104857600 cpu:               0.5 elap:               0.1
 (Enter /prod/apps/gaussian/g16b1/l103.exe)

 GradGradGradGradGradGradGradGradGradGradGradGradGradGradGradGradGradGrad
 Berny optimization.
 Initialization pass.
                           ----------------------------
                           !    Initial Parameters    !
                           ! (Angstroms and Degrees)  !
 --------------------------                            --------------------------
 ! Name  Definition              Value          Derivative Info.                !
 --------------------------------------------------------------------------------
 ! R1    R(1,2)                  1.0001         estimate D2E/DX2                !
 ! R2    R(1,3)                  0.9999         estimate D2E/DX2                !
 ! R3    R(1,4)                  1.471          estimate D2E/DX2                !
 ! R4    R(1,35)                 1.0004         estimate D2E/DX2                !
 ! R5    R(4,5)                  1.0928         estimate D2E/DX2                !
 ! R6    R(4,6)                  1.0936         estimate D2E/DX2                !
 ! R7    R(4,7)                  1.5366         estimate D2E/DX2                !
 ! R8    R(7,8)                  1.0918         estimate D2E/DX2                !
 ! R9    R(7,9)                  1.0915         estimate D2E/DX2                !
 ! R10   R(7,10)                 1.5761         estimate D2E/DX2                !
 ! R11   R(10,11)                1.0922         estimate D2E/DX2                !
 ! R12   R(10,12)                1.0931         estimate D2E/DX2                !
 ! R13   R(10,13)                1.472          estimate D2E/DX2                !
 ! R14   R(13,14)                1.3518         estimate D2E/DX2                !
 ! R15   R(13,26)                1.3576         estimate D2E/DX2                !
 ! R16   R(14,15)                1.3658         estimate D2E/DX2                !
 ! R17   R(14,23)                1.4028         estimate D2E/DX2                !
 ! R18   R(15,16)                1.0877         estimate D2E/DX2                !
 ! R19   R(15,17)                1.379          estimate D2E/DX2                !
 ! R20   R(17,18)                1.6969         estimate D2E/DX2                !
 ! R21   R(17,19)                1.4153         estimate D2E/DX2                !
 ! R22   R(19,20)                1.0867         estimate D2E/DX2                !
 ! R23   R(19,21)                1.4152         estimate D2E/DX2                !
 ! R24   R(21,22)                1.0864         estimate D2E/DX2                !
 ! R25   R(21,23)                1.4171         estimate D2E/DX2                !
 ! R26   R(23,24)                1.7868         estimate D2E/DX2                !
 ! R27   R(24,25)                1.755          estimate D2E/DX2                !
 ! R28   R(25,26)                1.4363         estimate D2E/DX2                !
 ! R29   R(25,33)                1.3933         estimate D2E/DX2                !
 ! R30   R(26,27)                1.3728         estimate D2E/DX2                !
 ! R31   R(27,28)                1.0869         estimate D2E/DX2                !
 ! R32   R(27,29)                1.4358         estimate D2E/DX2                !
 ! R33   R(29,30)                1.0864         estimate D2E/DX2                !
 ! R34   R(29,31)                1.3971         estimate D2E/DX2                !
 ! R35   R(31,32)                1.0875         estimate D2E/DX2                !
 ! R36   R(31,33)                1.4164         estimate D2E/DX2                !
 ! R37   R(33,34)                1.0875         estimate D2E/DX2                !
 ! A1    A(2,1,3)              109.4833         estimate D2E/DX2                !
 ! A2    A(2,1,4)              109.4806         estimate D2E/DX2                !
 ! A3    A(2,1,35)             109.4821         estimate D2E/DX2                !
 ! A4    A(3,1,4)              109.4663         estimate D2E/DX2                !
 ! A5    A(3,1,35)             109.4692         estimate D2E/DX2                !
 ! A6    A(4,1,35)             109.4459         estimate D2E/DX2                !
 ! A7    A(1,4,5)              114.2093         estimate D2E/DX2                !
 ! A8    A(1,4,6)              107.7797         estimate D2E/DX2                !
 ! A9    A(1,4,7)              112.2713         estimate D2E/DX2                !
 ! A10   A(5,4,6)              107.9586         estimate D2E/DX2                !
 ! A11   A(5,4,7)              107.5872         estimate D2E/DX2                !
 ! A12   A(6,4,7)              106.702          estimate D2E/DX2                !
 ! A13   A(4,7,8)              109.2642         estimate D2E/DX2                !
 ! A14   A(4,7,9)              109.7453         estimate D2E/DX2                !
 ! A15   A(4,7,10)             113.9732         estimate D2E/DX2                !
 ! A16   A(8,7,9)              103.8269         estimate D2E/DX2                !
 ! A17   A(8,7,10)             113.3952         estimate D2E/DX2                !
 ! A18   A(9,7,10)             106.0556         estimate D2E/DX2                !
 ! A19   A(7,10,11)            102.4741         estimate D2E/DX2                !
 ! A20   A(7,10,12)            111.7225         estimate D2E/DX2                !
 ! A21   A(7,10,13)            118.0944         estimate D2E/DX2                !
 ! A22   A(11,10,12)           106.4888         estimate D2E/DX2                !
 ! A23   A(11,10,13)           111.1269         estimate D2E/DX2                !
 ! A24   A(12,10,13)           106.4323         estimate D2E/DX2                !
 ! A25   A(10,13,14)           117.6556         estimate D2E/DX2                !
 ! A26   A(10,13,26)           122.0172         estimate D2E/DX2                !
 ! A27   A(14,13,26)           116.7069         estimate D2E/DX2                !
 ! A28   A(13,14,15)           118.6778         estimate D2E/DX2                !
 ! A29   A(13,14,23)           120.599          estimate D2E/DX2                !
 ! A30   A(15,14,23)           120.7154         estimate D2E/DX2                !
 ! A31   A(14,15,16)           116.106          estimate D2E/DX2                !
 ! A32   A(14,15,17)           121.8377         estimate D2E/DX2                !
 ! A33   A(16,15,17)           122.0412         estimate D2E/DX2                !
 ! A34   A(15,17,18)           118.2237         estimate D2E/DX2                !
 ! A35   A(15,17,19)           118.9855         estimate D2E/DX2                !
 ! A36   A(18,17,19)           122.7893         estimate D2E/DX2                !
 ! A37   A(17,19,20)           120.7031         estimate D2E/DX2                !
 ! A38   A(17,19,21)           119.8574         estimate D2E/DX2                !
 ! A39   A(20,19,21)           119.4216         estimate D2E/DX2                !
 ! A40   A(19,21,22)           119.6965         estimate D2E/DX2                !
 ! A41   A(19,21,23)           118.9486         estimate D2E/DX2                !
 ! A42   A(22,21,23)           121.1577         estimate D2E/DX2                !
 ! A43   A(14,23,21)           119.2248         estimate D2E/DX2                !
 ! A44   A(14,23,24)           121.348          estimate D2E/DX2                !
 ! A45   A(21,23,24)           119.3451         estimate D2E/DX2                !
 ! A46   A(23,24,25)            94.1082         estimate D2E/DX2                !
 ! A47   A(24,25,26)           119.1994         estimate D2E/DX2                !
 ! A48   A(24,25,33)           119.5933         estimate D2E/DX2                !
 ! A49   A(26,25,33)           120.422          estimate D2E/DX2                !
 ! A50   A(13,26,25)           122.1674         estimate D2E/DX2                !
 ! A51   A(13,26,27)           118.0915         estimate D2E/DX2                !
 ! A52   A(25,26,27)           119.6064         estimate D2E/DX2                !
 ! A53   A(26,27,28)           116.9147         estimate D2E/DX2                !
 ! A54   A(26,27,29)           119.6857         estimate D2E/DX2                !
 ! A55   A(28,27,29)           123.2517         estimate D2E/DX2                !
 ! A56   A(27,29,30)           119.5305         estimate D2E/DX2                !
 ! A57   A(27,29,31)           120.4957         estimate D2E/DX2                !
 ! A58   A(30,29,31)           119.9437         estimate D2E/DX2                !
 ! A59   A(29,31,32)           122.0637         estimate D2E/DX2                !
 ! A60   A(29,31,33)           119.6007         estimate D2E/DX2                !
 ! A61   A(32,31,33)           117.7395         estimate D2E/DX2                !
 ! A62   A(25,33,31)           119.3299         estimate D2E/DX2                !
 ! A63   A(25,33,34)           114.5042         estimate D2E/DX2                !
 ! A64   A(31,33,34)           124.7448         estimate D2E/DX2                !
 ! D1    D(2,1,4,5)            159.6658         estimate D2E/DX2                !
 ! D2    D(2,1,4,6)             39.719          estimate D2E/DX2                !
 ! D3    D(2,1,4,7)            -77.505          estimate D2E/DX2                !
 ! D4    D(3,1,4,5)             39.6483         estimate D2E/DX2                !
 ! D5    D(3,1,4,6)            -80.2985         estimate D2E/DX2                !
 ! D6    D(3,1,4,7)            162.4776         estimate D2E/DX2                !
 ! D7    D(35,1,4,5)           -80.3307         estimate D2E/DX2                !
 ! D8    D(35,1,4,6)           159.7225         estimate D2E/DX2                !
 ! D9    D(35,1,4,7)            42.4986         estimate D2E/DX2                !
 ! D10   D(1,4,7,8)            155.0454         estimate D2E/DX2                !
 ! D11   D(1,4,7,9)             41.8151         estimate D2E/DX2                !
 ! D12   D(1,4,7,10)           -76.9487         estimate D2E/DX2                !
 ! D13   D(5,4,7,8)            -78.4653         estimate D2E/DX2                !
 ! D14   D(5,4,7,9)            168.3043         estimate D2E/DX2                !
 ! D15   D(5,4,7,10)            49.5406         estimate D2E/DX2                !
 ! D16   D(6,4,7,8)             37.1802         estimate D2E/DX2                !
 ! D17   D(6,4,7,9)            -76.0501         estimate D2E/DX2                !
 ! D18   D(6,4,7,10)           165.1861         estimate D2E/DX2                !
 ! D19   D(4,7,10,11)          159.4732         estimate D2E/DX2                !
 ! D20   D(4,7,10,12)           45.8297         estimate D2E/DX2                !
 ! D21   D(4,7,10,13)          -78.0779         estimate D2E/DX2                !
 ! D22   D(8,7,10,11)          -74.6675         estimate D2E/DX2                !
 ! D23   D(8,7,10,12)          171.689          estimate D2E/DX2                !
 ! D24   D(8,7,10,13)           47.7814         estimate D2E/DX2                !
 ! D25   D(9,7,10,11)           38.6284         estimate D2E/DX2                !
 ! D26   D(9,7,10,12)          -75.0151         estimate D2E/DX2                !
 ! D27   D(9,7,10,13)          161.0772         estimate D2E/DX2                !
 ! D28   D(7,10,13,14)         108.5744         estimate D2E/DX2                !
 ! D29   D(7,10,13,26)         -49.2585         estimate D2E/DX2                !
 ! D30   D(11,10,13,14)       -133.4715         estimate D2E/DX2                !
 ! D31   D(11,10,13,26)         68.6956         estimate D2E/DX2                !
 ! D32   D(12,10,13,14)        -17.9278         estimate D2E/DX2                !
 ! D33   D(12,10,13,26)       -175.7607         estimate D2E/DX2                !
 ! D34   D(10,13,14,15)         60.6763         estimate D2E/DX2                !
 ! D35   D(10,13,14,23)       -118.3145         estimate D2E/DX2                !
 ! D36   D(26,13,14,15)       -140.3086         estimate D2E/DX2                !
 ! D37   D(26,13,14,23)         40.7006         estimate D2E/DX2                !
 ! D38   D(10,13,26,25)        118.6283         estimate D2E/DX2                !
 ! D39   D(10,13,26,27)        -65.6106         estimate D2E/DX2                !
 ! D40   D(14,13,26,25)        -39.402          estimate D2E/DX2                !
 ! D41   D(14,13,26,27)        136.359          estimate D2E/DX2                !
 ! D42   D(13,14,15,16)          1.3392         estimate D2E/DX2                !
 ! D43   D(13,14,15,17)        179.9555         estimate D2E/DX2                !
 ! D44   D(23,14,15,16)       -179.6713         estimate D2E/DX2                !
 ! D45   D(23,14,15,17)         -1.055          estimate D2E/DX2                !
 ! D46   D(13,14,23,21)        179.567          estimate D2E/DX2                !
 ! D47   D(13,14,23,24)          2.8836         estimate D2E/DX2                !
 ! D48   D(15,14,23,21)          0.597          estimate D2E/DX2                !
 ! D49   D(15,14,23,24)       -176.0865         estimate D2E/DX2                !
 ! D50   D(14,15,17,18)       -175.862          estimate D2E/DX2                !
 ! D51   D(14,15,17,19)          4.5738         estimate D2E/DX2                !
 ! D52   D(16,15,17,18)          2.6721         estimate D2E/DX2                !
 ! D53   D(16,15,17,19)       -176.892          estimate D2E/DX2                !
 ! D54   D(15,17,19,20)        173.895          estimate D2E/DX2                !
 ! D55   D(15,17,19,21)         -7.6551         estimate D2E/DX2                !
 ! D56   D(18,17,19,20)         -5.6482         estimate D2E/DX2                !
 ! D57   D(18,17,19,21)        172.8017         estimate D2E/DX2                !
 ! D58   D(17,19,21,22)       -167.7279         estimate D2E/DX2                !
 ! D59   D(17,19,21,23)          7.2298         estimate D2E/DX2                !
 ! D60   D(20,19,21,22)         10.742          estimate D2E/DX2                !
 ! D61   D(20,19,21,23)       -174.3003         estimate D2E/DX2                !
 ! D62   D(19,21,23,14)         -3.696          estimate D2E/DX2                !
 ! D63   D(19,21,23,24)        173.0547         estimate D2E/DX2                !
 ! D64   D(22,21,23,14)        171.1854         estimate D2E/DX2                !
 ! D65   D(22,21,23,24)        -12.064          estimate D2E/DX2                !
 ! D66   D(14,23,24,25)        -36.726          estimate D2E/DX2                !
 ! D67   D(21,23,24,25)        146.5945         estimate D2E/DX2                !
 ! D68   D(23,24,25,26)         37.3077         estimate D2E/DX2                !
 ! D69   D(23,24,25,33)       -152.7958         estimate D2E/DX2                !
 ! D70   D(24,25,26,13)         -6.1417         estimate D2E/DX2                !
 ! D71   D(24,25,26,27)        178.1596         estimate D2E/DX2                !
 ! D72   D(33,25,26,13)       -175.9525         estimate D2E/DX2                !
 ! D73   D(33,25,26,27)          8.3487         estimate D2E/DX2                !
 ! D74   D(24,25,33,31)        178.7792         estimate D2E/DX2                !
 ! D75   D(24,25,33,34)         11.7377         estimate D2E/DX2                !
 ! D76   D(26,25,33,31)        -11.4499         estimate D2E/DX2                !
 ! D77   D(26,25,33,34)       -178.4914         estimate D2E/DX2                !
 ! D78   D(13,26,27,28)          7.1994         estimate D2E/DX2                !
 ! D79   D(13,26,27,29)       -177.078          estimate D2E/DX2                !
 ! D80   D(25,26,27,28)       -176.9275         estimate D2E/DX2                !
 ! D81   D(25,26,27,29)         -1.2049         estimate D2E/DX2                !
 ! D82   D(26,27,29,30)        179.3301         estimate D2E/DX2                !
 ! D83   D(26,27,29,31)         -2.6699         estimate D2E/DX2                !
 ! D84   D(28,27,29,30)         -5.2313         estimate D2E/DX2                !
 ! D85   D(28,27,29,31)        172.7688         estimate D2E/DX2                !
 ! D86   D(27,29,31,32)        170.4961         estimate D2E/DX2                !
 ! D87   D(27,29,31,33)         -0.4487         estimate D2E/DX2                !
 ! D88   D(30,29,31,32)        -11.5121         estimate D2E/DX2                !
 ! D89   D(30,29,31,33)        177.5431         estimate D2E/DX2                !
 ! D90   D(29,31,33,25)          7.4859         estimate D2E/DX2                !
 ! D91   D(29,31,33,34)        173.1076         estimate D2E/DX2                !
 ! D92   D(32,31,33,25)       -163.8467         estimate D2E/DX2                !
 ! D93   D(32,31,33,34)          1.7749         estimate D2E/DX2                !
 --------------------------------------------------------------------------------
 Trust Radius=3.00D-01 FncErr=1.00D-07 GrdErr=1.00D-06 EigMax=2.50D+02 EigMin=1.00D-04
 Number of steps in this run=    204 maximum allowed number of steps=    210.
 GradGradGradGradGradGradGradGradGradGradGradGradGradGradGradGradGradGrad

 Leave Link  103 at Sun Jul 18 13:49:19 2021, MaxMem=   104857600 cpu:               0.1 elap:               1.0
 (Enter /prod/apps/gaussian/g16b1/l202.exe)
                          Input orientation:                          
 ---------------------------------------------------------------------
 Center     Atomic      Atomic             Coordinates (Angstroms)
 Number     Number       Type             X           Y           Z
 ---------------------------------------------------------------------
      1          7           0       -0.087000    1.006000    3.720000
      2          1           0        0.177000    0.600000    4.595000
      3          1           0       -0.830000    1.659000    3.866000
      4          6           0       -0.538000   -0.053000    2.804000
      5          1           0       -1.160000    0.303000    1.979000
      6          1           0       -1.126000   -0.769000    3.385000
      7          6           0        0.636000   -0.836000    2.196000
      8          1           0        0.294000   -1.832000    1.908000
      9          1           0        1.387000   -1.030000    2.964000
     10          6           0        1.384000   -0.072000    1.038000
     11          1           0        2.352000   -0.577000    1.009000
     12          1           0        1.585000    0.969000    1.304000
     13          7           0        0.758000   -0.048000   -0.294000
     14          6           0        0.234000    1.123000   -0.720000
     15          6           0        1.061000    2.202000   -0.851000
     16          1           0        2.110000    2.032000   -0.619000
     17          6           0        0.596000    3.427000   -1.281000
     18         17           0        1.721000    4.676000   -1.513000
     19          6           0       -0.792000    3.595000   -1.501000
     20          1           0       -1.201000    4.572000   -1.744000
     21          6           0       -1.656000    2.476000   -1.437000
     22          1           0       -2.677000    2.563000   -1.798000
     23          6           0       -1.136000    1.232000   -1.001000
     24         16           0       -2.251000   -0.139000   -0.737000
     25          6           0       -1.084000   -1.349000   -1.241000
     26          6           0        0.299000   -1.176000   -0.894000
     27          6           0        1.213000   -2.136000   -1.251000
     28          1           0        2.238000   -1.986000   -0.922000
     29          6           0        0.773000   -3.314000   -1.944000
     30          1           0        1.500000   -4.067000   -2.235000
     31          6           0       -0.584000   -3.516000   -2.208000
     32          1           0       -0.933000   -4.315000   -2.858000
     33          6           0       -1.531000   -2.554000   -1.779000
     34          1           0       -2.589000   -2.571000   -2.030000
     35          1           0        0.699000    1.479000    3.321000
 ---------------------------------------------------------------------
                    Distance matrix (angstroms):
                    1          2          3          4          5
     1  N    0.000000
     2  H    1.000078   0.000000
     3  H    0.999887   1.633086   0.000000
     4  C    1.471033   2.036005   2.035694   0.000000
     5  H    2.162549   2.952835   2.346999   1.092815   0.000000
     6  H    2.083836   2.244119   2.492822   1.093600   1.768382
     7  C    2.497653   2.833369   3.341120   1.536564   2.137762
     8  H    3.388621   3.626056   4.157430   2.158676   2.584063
     9  H    2.624787   2.604066   3.599919   2.164660   3.038803
    10  C    3.243308   3.815846   3.986946   2.610211   2.738255
    11  H    3.975441   4.356070   4.825688   3.442194   3.748259
    12  H    2.938368   3.598514   3.587781   2.793137   2.904170
    13  N    4.235226   4.965862   4.768773   3.358161   2.994738
    14  C    4.453126   5.340974   4.738226   3.794409   3.146464
    15  C    4.862341   5.745152   5.110853   4.582669   4.067916
    16  H    4.970554   5.742204   5.375682   4.803755   4.520171
    17  C    5.598011   6.534131   5.625914   5.484850   4.844637
    18  Cl   6.642443   7.503691   6.674094   6.789920   6.294232
    19  C    5.870161   6.860773   5.705631   5.648491   4.804486
    20  H    6.619112   7.606483   6.332086   6.520314   5.664519
    21  C    5.587245   6.577560   5.428773   5.062790   4.078848
    22  H    6.291317   7.271116   6.025738   5.709394   4.655601
    23  C    4.841417   5.782613   4.895269   4.060401   3.121541
    24  S    5.085152   5.905212   5.141950   3.934520   2.960118
    25  C    5.581358   6.280734   5.932456   4.282494   3.619845
    26  C    5.118507   5.770458   5.654155   3.954352   3.545455
    27  C    6.022707   6.537179   6.690259   4.883433   4.691775
    28  H    5.992149   6.432139   6.754524   5.032469   5.020132
    29  C    7.175158   7.644157   7.813862   5.907313   5.675307
    30  H    7.982225   8.377357   8.685515   6.757008   6.627993
    31  C    7.472394   7.987577   7.983396   6.092178   5.696271
    32  H    8.502873   8.996473   8.995080   7.097810   6.691339
    33  C    6.708035   7.313881   7.078615   5.314597   4.735256
    34  H    7.219240   7.848352   7.466579   5.823614   5.135562
    35  H    1.000363   1.633463   1.633177   2.035800   2.576785
                    6          7          8          9         10
     6  H    0.000000
     7  C    2.126700   0.000000
     8  H    2.308224   1.091753   0.000000
     9  H    2.561353   1.091541   1.718426   0.000000
    10  C    3.506325   1.576123   2.245573   2.151104   0.000000
    11  H    4.216482   2.102548   2.572662   2.226760   1.092195
    12  H    3.834153   2.225823   3.142785   2.605917   1.093086
    13  N    4.195752   2.614561   2.871717   3.460423   1.471963
    14  C    4.720200   3.535865   3.954998   4.420031   2.416834
    15  C    5.617251   4.323688   4.947072   5.010621   2.973840
    16  H    5.860829   4.280459   4.961258   4.768277   2.774805
    17  C    6.507170   5.501300   6.157760   6.205687   4.271031
    18  Cl   7.857725   6.731720   7.489568   7.260408   5.400433
    19  C    6.559653   5.944809   6.500231   6.787849   4.962699
    20  H    7.405305   6.938633   7.522190   7.761792   5.999040
    21  C    5.836318   5.424140   5.792270   6.396928   4.675418
    22  H    6.353842   6.203322   6.471267   7.218198   5.610512
    23  C    4.820902   4.199692   4.460412   5.215688   3.494043
    24  S    4.318959   4.174095   4.042190   5.265579   4.045780
    25  C    4.662407   3.877440   3.471077   4.887702   3.593827
    26  C    4.528368   3.126862   2.877771   4.011137   2.475614
    27  C    5.369554   3.728906   3.303976   4.361162   3.086885
    28  H    5.598914   3.689286   3.436823   4.091349   2.869549
    29  C    6.203343   4.826889   4.154957   5.448130   4.447045
    30  H    7.025459   5.551542   4.859435   6.022104   5.165850
    31  C    6.254712   5.297737   4.533012   6.067505   5.125493
    32  H    7.182368   6.333097   5.512311   7.075967   6.208893
    33  C    5.478791   4.842317   4.176826   5.773504   4.753213
    34  H    5.891502   5.591952   4.936158   6.566833   5.607348
    35  H    2.896243   2.574649   3.622612   2.626000   2.843750
                   11         12         13         14         15
    11  H    0.000000
    12  H    1.750837   0.000000
    13  N    2.125673   2.066839   0.000000
    14  C    3.219529   2.438338   1.351774   0.000000
    15  C    3.584567   2.537497   2.337639   1.365771   0.000000
    16  H    3.084774   2.259098   2.501985   2.087069   1.087715
    17  C    4.935550   3.701636   3.616080   2.398787   1.379040
    18  Cl   5.861114   4.657879   4.972877   3.932407   2.644715
    19  C    5.795724   4.518189   4.138937   2.788086   2.407604
    20  H    6.834839   5.480302   5.223464   3.873423   3.395732
    21  C    5.600695   4.504244   3.674836   2.432447   2.792948
    22  H    6.559702   5.507076   4.569307   3.421930   3.872954
    23  C    4.413471   3.575757   2.392799   1.402762   2.406285
    24  S    4.942466   4.484221   3.042797   2.787142   4.057416
    25  C    4.179064   4.355882   2.445889   2.849447   4.166860
    26  C    2.862694   3.329568   1.357595   2.306491   3.463146
    27  C    2.972440   4.038246   2.341499   3.444050   4.359054
    28  H    2.393123   3.756795   2.518060   3.704416   4.350829
    29  C    4.324884   5.436261   3.659164   4.634185   5.630617
    30  H    4.840407   6.155732   4.524423   5.552844   6.434947
    31  C    5.254227   6.095402   4.182270   4.939999   6.102704
    32  H    6.302187   7.182146   5.257458   5.958589   7.104602
    33  C    5.172926   5.623689   3.704697   4.213910   5.495378
    34  H    6.133925   6.408544   4.536699   4.830224   6.123240
    35  H    3.507833   2.261280   3.924721   4.083215   4.249630
                   16         17         18         19         20
    16  H    0.000000
    17  C    2.162514   0.000000
    18  Cl   2.818030   1.696894   0.000000
    19  C    3.412110   1.415333   2.735667   0.000000
    20  H    4.322030   2.180505   2.932961   1.086673   0.000000
    21  C    3.879306   2.449539   4.031117   1.415187   2.166677
    22  H    4.958565   3.424371   4.887576   2.169437   2.493506
    23  C    3.364883   2.810027   4.503968   2.439694   3.422262
    24  S    4.872934   4.595400   6.289927   4.081070   4.930524
    25  C    4.692513   5.063020   6.651514   4.959435   5.943479
    26  C    3.694132   4.628778   6.054019   4.931650   6.001000
    27  C    4.310018   5.597192   6.835938   6.076750   7.146167
    28  H    4.031441   5.667946   6.708116   6.376810   7.450488
    29  C    5.667708   6.775838   8.057578   7.097870   8.131769
    30  H    6.338877   7.608375   8.775544   8.031081   9.064701
    31  C    6.368898   7.103308   8.538437   7.149086   8.124760
    32  H    7.386297   8.047567   9.470524   8.026795   8.960557
    33  C    5.969412   6.367456   7.932160   6.199484   7.133723
    34  H    6.727491   6.832366   8.447627   6.444269   7.282224
    35  H    4.221413   4.998371   5.884968   5.472862   6.231442
                   21         22         23         24         25
    21  C    0.000000
    22  H    1.086430   0.000000
    23  C    1.417050   2.186653   0.000000
    24  S    2.771687   2.933940   1.786774   0.000000
    25  C    3.872496   4.260474   2.592656   1.754994   0.000000
    26  C    4.177796   4.863529   2.805198   2.757266   1.436324
    27  C    5.434731   6.124697   4.113846   4.031315   2.428102
    28  H    5.944569   6.754110   4.663222   4.857649   3.397531
    29  C    6.299301   6.816373   5.019925   4.547752   2.793543
    30  H    7.308077   7.848261   6.045714   5.634109   3.879770
    31  C    6.135771   6.442281   4.930016   4.043125   2.425073
    32  H    6.975647   7.174400   5.853107   4.865670   3.381515
    33  C    5.043163   5.243793   3.885242   2.726974   1.393298
    34  H    5.166657   5.139993   4.199150   2.775017   2.093043
    35  H    5.401722   6.227085   4.701906   5.271412   5.655839
                   26         27         28         29         30
    26  C    0.000000
    27  C    1.372751   0.000000
    28  H    2.101572   1.086907   0.000000
    29  C    2.428625   1.435804   2.225824   0.000000
    30  H    3.405666   2.186181   2.568886   1.086379   0.000000
    31  C    2.825223   2.459565   3.458089   1.397122   2.155780
    32  H    3.902364   3.454824   4.384926   2.178952   2.523712
    33  C    2.455811   2.825428   3.906717   2.431716   3.418196
    34  H    3.402509   3.905287   4.986965   3.444196   4.358895
    35  H    4.997524   5.851120   5.690149   7.120291   7.891062
                   31         32         33         34         35
    31  C    0.000000
    32  H    1.087521   0.000000
    33  C    1.416437   2.150108   0.000000
    34  H    2.223676   2.543513   1.087499   0.000000
    35  H    7.560817   8.626349   6.873717   7.473061   0.000000
 Stoichiometry    C15H16ClN2S(1+)
 Framework group  C1[X(C15H16ClN2S)]
 Deg. of freedom    99
 Full point group                 C1      NOp   1
 Largest Abelian subgroup         C1      NOp   1
 Largest concise Abelian subgroup C1      NOp   1
                         Standard orientation:                         
 ---------------------------------------------------------------------
 Center     Atomic      Atomic             Coordinates (Angstroms)
 Number     Number       Type             X           Y           Z
 ---------------------------------------------------------------------
      1          7           0       -0.431475    4.082896    0.646283
      2          1           0       -0.066424    4.986845    0.423190
      3          1           0       -0.935644    4.130322    1.508453
      4          6           0        0.677166    3.125132    0.778736
      5          1           0        0.427341    2.226394    1.348036
      6          1           0        1.497593    3.633074    1.293375
      7          6           0        1.223151    2.674115   -0.584904
      8          1           0        2.260058    2.352595   -0.469270
      9          1           0        1.289279    3.531292   -1.257463
     10          6           0        0.317107    1.613373   -1.318440
     11          1           0        0.636633    1.709114   -2.358453
     12          1           0       -0.738688    1.895130   -1.291063
     13          7           0        0.386269    0.213443   -0.868898
     14          6           0       -0.676255   -0.282878   -0.196588
     15          6           0       -1.889904   -0.317025   -0.822063
     16          1           0       -1.910300    0.045445   -1.847404
     17          6           0       -3.016337   -0.810319   -0.197915
     18         17           0       -4.453065   -0.908614   -1.095468
     19          6           0       -2.931979   -1.203239    1.159164
     20          1           0       -3.821810   -1.502271    1.706558
     21          6           0       -1.673335   -1.239910    1.805091
     22          1           0       -1.578516   -1.726286    2.771931
     23          6           0       -0.538154   -0.733657    1.124574
     24         16           0        1.017204   -0.601511    1.994035
     25          6           0        1.985922   -0.947238    0.572042
     26          6           0        1.569272   -0.431324   -0.702032
     27          6           0        2.340696   -0.664574   -1.813312
     28          1           0        2.011638   -0.211102   -2.744682
     29          6           0        3.567899   -1.398885   -1.685666
     30          1           0        4.170970   -1.591473   -2.568522
     31          6           0        4.009650   -1.829000   -0.431949
     32          1           0        4.848353   -2.511924   -0.318401
     33          6           0        3.243431   -1.528454    0.720820
     34          1           0        3.449004   -1.909594    1.718380
     35          1           0       -1.046185    3.781966   -0.083305
 ---------------------------------------------------------------------
 Rotational constants (GHZ):           0.4134832           0.2303889           0.1985242
 Leave Link  202 at Sun Jul 18 13:49:19 2021, MaxMem=   104857600 cpu:               0.1 elap:               0.0
 (Enter /prod/apps/gaussian/g16b1/l301.exe)
 Standard basis: 6-31G(d) (6D, 7F)
 Ernie: Thresh=  0.10000D-02 Tol=  0.10000D-05 Strict=F.
 There are   325 symmetry adapted cartesian basis functions of A   symmetry.
 There are   325 symmetry adapted basis functions of A   symmetry.
   325 basis functions,   644 primitive gaussians,   325 cartesian basis functions
    76 alpha electrons       76 beta electrons
       nuclear repulsion energy      1684.5336395610 Hartrees.
 IExCor=  402 DFT=T Ex+Corr=B3LYP ExCW=0 ScaHFX=  0.200000
 ScaDFX=  0.800000  0.720000  1.000000  0.810000 ScalE2=  1.000000  1.000000
 IRadAn=      5 IRanWt=     -1 IRanGd=            0 ICorTp=0 IEmpDi=  4
 NAtoms=   35 NActive=   35 NUniq=   35 SFac= 1.00D+00 NAtFMM=   60 NAOKFM=F Big=F
 Integral buffers will be    131072 words long.
 Raffenetti 2 integral format.
 Two-electron integral symmetry is turned on.
 Using the following non-standard input for PCM:
 MSTModel=DFT cav MSTCharged
 --- end of non-standard input.
 MST model for solvation energy: B3LYP parametrization.
 MST cavity parameters:
 ISph   IAn     Re0     Alpha   Atom Type   QCorr
 ------------------------------------------------
   1      7     1.70     1.15      NH         T
   2      1     0.90     1.15      NH         T
   3      1     0.90     1.15      NH         T
   4      6     1.50     1.25      CH2        F
   5      1     1.20     1.25      CH2        F
   6      1     1.20     1.25      CH2        F
   7      6     1.50     1.25      CH2        F
   8      1     1.20     1.25      CH2        F
   9      1     1.20     1.25      CH2        F
  10      6     1.50     1.25      CH2        F
  11      1     1.20     1.25      CH2        F
  12      1     1.20     1.25      CH2        F
  13      7     1.40     1.25      N          F
  14      6     1.50     1.25      C          F
  15      6     1.50     1.25      CH         F
  16      1     1.20     1.25      CH         F
  17      6     1.50     1.25      C          F
  18     17     1.80     1.25      Cl         F
  19      6     1.50     1.25      CH         F
  20      1     1.20     1.25      CH         F
  21      6     1.50     1.25      CH         F
  22      1     1.20     1.25      CH         F
  23      6     1.50     1.25      C          F
  24     16     1.75     1.25      S          F
  25      6     1.50     1.25      C          F
  26      6     1.50     1.25      C          F
  27      6     1.50     1.25      CH         F
  28      1     1.20     1.25      CH         F
  29      6     1.50     1.25      CH         F
  30      1     1.20     1.25      CH         F
  31      6     1.50     1.25      CH         F
  32      1     1.20     1.25      CH         F
  33      6     1.50     1.25      CH         F
  34      1     1.20     1.25      CH         F
  35      1     0.90     1.15      NH         T
 ------------------------------------------------------------------------------
 Polarizable Continuum Model (PCM)
 =================================
 Model                : PCM.
 Atomic radii         : MST.
 Polarization charges : Total charges.
 Charge compensation  : None.
 Solution method      : On-the-fly selection.
 Cavity type          : Scaled VdW (van der Waals Surface) (Alpha=1.250).
 Cavity algorithm     : GePol (No added spheres)
                        Default sphere list used, NSphG=   35.
                        Lebedev-Laikov grids with approx.  5.0 points / Ang**2.
                        Smoothing algorithm: York/Karplus (Gamma=1.0000).
                        Polarization charges: spherical gaussians, with
                                              point-specific exponents (IZeta= 3).
                        Self-potential: point-specific (ISelfS= 7).
                        Self-field    : sphere-specific E.n sum rule (ISelfD= 2).
 1st derivatives      : Analytical E(r).r(x)/FMM algorithm (CHGder, D1EAlg=3).
                        Cavity 1st derivative terms included.
 Solvent              : Water, Eps=  78.355300 Eps(inf)=   1.777849
 ------------------------------------------------------------------------------
 GePol: Number of generator spheres                  =      35
 GePol: Total number of spheres                      =      35
 GePol: Number of exposed spheres                    =      35 (100.00%)
 GePol: Number of points                             =    2633
 GePol: Average weight of points                     =       0.13
 GePol: Minimum weight of points                     =   0.36D-11
 GePol: Maximum weight of points                     =    0.21948
 GePol: Number of points with low weight             =     176
 GePol: Fraction of low-weight points (<1% of avg)   =       6.68%
 GePol: Cavity surface area                          =    337.853 Ang**2
 GePol: Cavity volume                                =    340.383 Ang**3
 PCM non-electrostatic energy =         0.0017696983 Hartrees.
 Nuclear repulsion after PCM non-electrostatic terms =     1684.5354092593 Hartrees.
 Leave Link  301 at Sun Jul 18 13:49:19 2021, MaxMem=   104857600 cpu:               0.4 elap:               0.1
 (Enter /prod/apps/gaussian/g16b1/l302.exe)
 NPDir=0 NMtPBC=     1 NCelOv=     1 NCel=       1 NClECP=     1 NCelD=      1
         NCelK=      1 NCelE2=     1 NClLst=     1 CellRange=     0.0.
 One-electron integrals computed using PRISM.
 One-electron integral symmetry used in STVInt
 NBasis=   325 RedAO= T EigKep=  4.53D-04  NBF=   325
 NBsUse=   325 1.00D-06 EigRej= -1.00D+00 NBFU=   325
 Precomputing XC quadrature grid using
 IXCGrd= 4 IRadAn=           5 IRanWt=          -1 IRanGd=           0 AccXCQ= 0.00D+00.
 Generated NRdTot=       0 NPtTot=           0 NUsed=           0 NTot=          32
 NSgBfM=   323   323   323   323   323 MxSgAt=    35 MxSgA2=    35.
 Leave Link  302 at Sun Jul 18 13:49:19 2021, MaxMem=   104857600 cpu:               1.8 elap:               0.5
 (Enter /prod/apps/gaussian/g16b1/l303.exe)
 DipDrv:  MaxL=1.
 Leave Link  303 at Sun Jul 18 13:49:20 2021, MaxMem=   104857600 cpu:               0.2 elap:               0.1
 (Enter /prod/apps/gaussian/g16b1/l401.exe)
 ExpMin= 1.17D-01 ExpMax= 2.52D+04 ExpMxC= 3.78D+03 IAcc=3 IRadAn=         5 AccDes= 0.00D+00
 Harris functional with IExCor=  402 and IRadAn=       5 diagonalized for initial guess.
 HarFok:  IExCor=  402 AccDes= 0.00D+00 IRadAn=         5 IDoV= 1 UseB2=F ITyADJ=14
 ICtDFT=  3500011 ScaDFX=  1.000000  1.000000  1.000000  1.000000
 FoFCou: FMM=F IPFlag=           0 FMFlag=      100000 FMFlg1=           0
         NFxFlg=           0 DoJE=T BraDBF=F KetDBF=T FulRan=T
         wScrn=  0.000000 ICntrl=       500 IOpCl=  0 I1Cent=   200000004 NGrid=           0
         NMat0=    1 NMatS0=      1 NMatT0=    0 NMatD0=    1 NMtDS0=    0 NMtDT0=    0
 Petite list used in FoFCou.
 Harris En= -1548.74862474803    
 JPrj=0 DoOrth=F DoCkMO=F.
 Leave Link  401 at Sun Jul 18 13:49:22 2021, MaxMem=   104857600 cpu:              10.1 elap:               2.6
 (Enter /prod/apps/gaussian/g16b1/l502.exe)
 Integral symmetry usage will be decided dynamically.
 Closed shell SCF:
 Using DIIS extrapolation, IDIIS=  1040.
 NGot=   104857600 LenX=   104640764 LenY=   104534698
 Requested convergence on RMS density matrix=1.00D-08 within 128 cycles.
 Requested convergence on MAX density matrix=1.00D-06.
 Requested convergence on             energy=1.00D-06.
 No special actions if energy rises.
 Fock matrices will be formed incrementally for  20 cycles.

 Cycle   1  Pass 1  IDiag  1:
 FoFJK:  IHMeth= 1 ICntrl=       0 DoSepK=F KAlg= 0 I1Cent=           0 FoldK=F
 IRaf= 840000000 NMat=       1 IRICut=       1 DoRegI=T DoRafI=F ISym2E= 0 IDoP0=0 IntGTp=1.
 FoFCou: FMM=F IPFlag=           0 FMFlag=      100000 FMFlg1=           0
         NFxFlg=           0 DoJE=F BraDBF=F KetDBF=F FulRan=T
         wScrn=  0.000000 ICntrl=         0 IOpCl=  0 I1Cent=           0 NGrid=           0
         NMat0=    1 NMatS0=      1 NMatT0=    0 NMatD0=    1 NMtDS0=    0 NMtDT0=    0
 Symmetry not used in FoFCou.
 Inv3:  Mode=1 IEnd=    20798067.
 Iteration    1 A*A^-1 deviation from unit magnitude is 2.89D-15 for   1734.
 Iteration    1 A*A^-1 deviation from orthogonality  is 1.77D-15 for   1122    334.
 Iteration    1 A^-1*A deviation from unit magnitude is 3.33D-15 for    232.
 Iteration    1 A^-1*A deviation from orthogonality  is 1.67D-15 for   1860   1530.
 E= -1548.54679286570    
 DIIS: error= 2.72D-02 at cycle   1 NSaved=   1.
 NSaved= 1 IEnMin= 1 EnMin= -1548.54679286570     IErMin= 1 ErrMin= 2.72D-02
 ErrMax= 2.72D-02  0.00D+00 EMaxC= 1.00D-01 BMatC= 3.84D-01 BMatP= 3.84D-01
 IDIUse=3 WtCom= 7.28D-01 WtEn= 2.72D-01
 Coeff-Com:  0.100D+01
 Coeff-En:   0.100D+01
 Coeff:      0.100D+01
 Gap=     0.282 Goal=   None    Shift=    0.000
 GapD=    0.282 DampG=1.000 DampE=0.500 DampFc=0.5000 IDamp=-1.
 Damping current iteration by 5.00D-01
 RMSDP=4.66D-03 MaxDP=1.66D-01              OVMax= 1.97D-01

 Cycle   2  Pass 1  IDiag  1:
 RMSU=  2.30D-03    CP:  9.83D-01
 E= -1548.73015433349     Delta-E=       -0.183361467790 Rises=F Damp=T
 DIIS: error= 8.57D-03 at cycle   2 NSaved=   2.
 NSaved= 2 IEnMin= 2 EnMin= -1548.73015433349     IErMin= 2 ErrMin= 8.57D-03
 ErrMax= 8.57D-03  0.00D+00 EMaxC= 1.00D-01 BMatC= 2.48D-02 BMatP= 3.84D-01
 IDIUse=3 WtCom= 9.14D-01 WtEn= 8.57D-02
 Coeff-Com:  0.381D-01 0.962D+00
 Coeff-En:   0.920D-01 0.908D+00
 Coeff:      0.427D-01 0.957D+00
 Gap=     0.221 Goal=   None    Shift=    0.000
 RMSDP=1.21D-03 MaxDP=7.88D-02 DE=-1.83D-01 OVMax= 1.37D-01

 Cycle   3  Pass 1  IDiag  1:
 RMSU=  1.17D-03    CP:  9.75D-01  8.99D-01
 E= -1548.94382999603     Delta-E=       -0.213675662533 Rises=F Damp=F
 DIIS: error= 2.91D-03 at cycle   3 NSaved=   3.
 NSaved= 3 IEnMin= 3 EnMin= -1548.94382999603     IErMin= 3 ErrMin= 2.91D-03
 ErrMax= 2.91D-03  0.00D+00 EMaxC= 1.00D-01 BMatC= 8.69D-03 BMatP= 2.48D-02
 IDIUse=3 WtCom= 9.71D-01 WtEn= 2.91D-02
 Coeff-Com: -0.348D-01 0.342D+00 0.692D+00
 Coeff-En:   0.000D+00 0.000D+00 0.100D+01
 Coeff:     -0.338D-01 0.333D+00 0.701D+00
 Gap=     0.176 Goal=   None    Shift=    0.000
 RMSDP=5.86D-04 MaxDP=3.72D-02 DE=-2.14D-01 OVMax= 5.34D-02

 Cycle   4  Pass 1  IDiag  1:
 RMSU=  4.96D-04    CP:  9.77D-01  9.66D-01  7.70D-01
 E= -1548.94849049522     Delta-E=       -0.004660499192 Rises=F Damp=F
 DIIS: error= 2.20D-03 at cycle   4 NSaved=   4.
 NSaved= 4 IEnMin= 4 EnMin= -1548.94849049522     IErMin= 4 ErrMin= 2.20D-03
 ErrMax= 2.20D-03  0.00D+00 EMaxC= 1.00D-01 BMatC= 4.53D-03 BMatP= 8.69D-03
 IDIUse=3 WtCom= 9.78D-01 WtEn= 2.20D-02
 Coeff-Com: -0.231D-01 0.994D-01 0.445D+00 0.478D+00
 Coeff-En:   0.000D+00 0.000D+00 0.353D+00 0.647D+00
 Coeff:     -0.226D-01 0.972D-01 0.443D+00 0.482D+00
 Gap=     0.170 Goal=   None    Shift=    0.000
 RMSDP=3.02D-04 MaxDP=1.13D-02 DE=-4.66D-03 OVMax= 2.34D-02

 Cycle   5  Pass 1  IDiag  1:
 RMSU=  1.52D-04    CP:  9.76D-01  9.69D-01  8.26D-01  4.91D-01
 E= -1548.95318545961     Delta-E=       -0.004694964389 Rises=F Damp=F
 DIIS: error= 4.69D-04 at cycle   5 NSaved=   5.
 NSaved= 5 IEnMin= 5 EnMin= -1548.95318545961     IErMin= 5 ErrMin= 4.69D-04
 ErrMax= 4.69D-04  0.00D+00 EMaxC= 1.00D-01 BMatC= 2.48D-04 BMatP= 4.53D-03
 IDIUse=3 WtCom= 9.95D-01 WtEn= 4.69D-03
 Coeff-Com: -0.809D-02 0.209D-01 0.171D+00 0.257D+00 0.559D+00
 Coeff-En:   0.000D+00 0.000D+00 0.000D+00 0.000D+00 0.100D+01
 Coeff:     -0.805D-02 0.208D-01 0.170D+00 0.255D+00 0.562D+00
 Gap=     0.170 Goal=   None    Shift=    0.000
 RMSDP=7.43D-05 MaxDP=5.76D-03 DE=-4.69D-03 OVMax= 5.26D-03

 Cycle   6  Pass 1  IDiag  1:
 RMSU=  3.77D-05    CP:  9.76D-01  9.63D-01  8.46D-01  5.44D-01  6.58D-01
 E= -1548.95343946929     Delta-E=       -0.000254009680 Rises=F Damp=F
 DIIS: error= 1.24D-04 at cycle   6 NSaved=   6.
 NSaved= 6 IEnMin= 6 EnMin= -1548.95343946929     IErMin= 6 ErrMin= 1.24D-04
 ErrMax= 1.24D-04  0.00D+00 EMaxC= 1.00D-01 BMatC= 1.85D-05 BMatP= 2.48D-04
 IDIUse=3 WtCom= 9.99D-01 WtEn= 1.24D-03
 Coeff-Com: -0.256D-02 0.363D-02 0.595D-01 0.100D+00 0.292D+00 0.548D+00
 Coeff-En:   0.000D+00 0.000D+00 0.000D+00 0.000D+00 0.000D+00 0.100D+01
 Coeff:     -0.256D-02 0.363D-02 0.594D-01 0.100D+00 0.291D+00 0.548D+00
 Gap=     0.170 Goal=   None    Shift=    0.000
 RMSDP=1.70D-05 MaxDP=8.26D-04 DE=-2.54D-04 OVMax= 1.28D-03

 Cycle   7  Pass 1  IDiag  1:
 RMSU=  1.12D-05    CP:  9.76D-01  9.63D-01  8.47D-01  5.46D-01  6.95D-01
                    CP:  7.02D-01
 E= -1548.95345670644     Delta-E=       -0.000017237150 Rises=F Damp=F
 DIIS: error= 4.14D-05 at cycle   7 NSaved=   7.
 NSaved= 7 IEnMin= 7 EnMin= -1548.95345670644     IErMin= 7 ErrMin= 4.14D-05
 ErrMax= 4.14D-05  0.00D+00 EMaxC= 1.00D-01 BMatC= 1.65D-06 BMatP= 1.85D-05
 IDIUse=1 WtCom= 1.00D+00 WtEn= 0.00D+00
 Coeff-Com: -0.676D-03 0.136D-03 0.178D-01 0.310D-01 0.105D+00 0.291D+00
 Coeff-Com:  0.556D+00
 Coeff:     -0.676D-03 0.136D-03 0.178D-01 0.310D-01 0.105D+00 0.291D+00
 Coeff:      0.556D+00
 Gap=     0.170 Goal=   None    Shift=    0.000
 RMSDP=5.70D-06 MaxDP=3.26D-04 DE=-1.72D-05 OVMax= 4.75D-04

 Cycle   8  Pass 1  IDiag  1:
 RMSU=  3.76D-06    CP:  9.76D-01  9.64D-01  8.47D-01  5.49D-01  7.00D-01
                    CP:  7.47D-01  6.83D-01
 E= -1548.95345829559     Delta-E=       -0.000001589151 Rises=F Damp=F
 DIIS: error= 1.24D-05 at cycle   8 NSaved=   8.
 NSaved= 8 IEnMin= 8 EnMin= -1548.95345829559     IErMin= 8 ErrMin= 1.24D-05
 ErrMax= 1.24D-05  0.00D+00 EMaxC= 1.00D-01 BMatC= 1.70D-07 BMatP= 1.65D-06
 IDIUse=1 WtCom= 1.00D+00 WtEn= 0.00D+00
 Coeff-Com:  0.543D-04-0.527D-03 0.694D-03 0.744D-03 0.110D-01 0.708D-01
 Coeff-Com:  0.275D+00 0.642D+00
 Coeff:      0.543D-04-0.527D-03 0.694D-03 0.744D-03 0.110D-01 0.708D-01
 Coeff:      0.275D+00 0.642D+00
 Gap=     0.170 Goal=   None    Shift=    0.000
 RMSDP=1.99D-06 MaxDP=7.54D-05 DE=-1.59D-06 OVMax= 1.63D-04

 Cycle   9  Pass 1  IDiag  1:
 RMSU=  1.35D-06    CP:  9.76D-01  9.64D-01  8.47D-01  5.49D-01  7.03D-01
                    CP:  7.54D-01  7.76D-01  7.87D-01
 E= -1548.95345846625     Delta-E=       -0.000000170662 Rises=F Damp=F
 DIIS: error= 4.25D-06 at cycle   9 NSaved=   9.
 NSaved= 9 IEnMin= 9 EnMin= -1548.95345846625     IErMin= 9 ErrMin= 4.25D-06
 ErrMax= 4.25D-06  0.00D+00 EMaxC= 1.00D-01 BMatC= 2.56D-08 BMatP= 1.70D-07
 IDIUse=1 WtCom= 1.00D+00 WtEn= 0.00D+00
 Coeff-Com:  0.124D-03-0.320D-03-0.175D-02-0.369D-02-0.689D-02 0.274D-02
 Coeff-Com:  0.751D-01 0.342D+00 0.593D+00
 Coeff:      0.124D-03-0.320D-03-0.175D-02-0.369D-02-0.689D-02 0.274D-02
 Coeff:      0.751D-01 0.342D+00 0.593D+00
 Gap=     0.170 Goal=   None    Shift=    0.000
 RMSDP=7.06D-07 MaxDP=4.31D-05 DE=-1.71D-07 OVMax= 5.00D-05

 Cycle  10  Pass 1  IDiag  1:
 RMSU=  3.85D-07    CP:  9.76D-01  9.63D-01  8.47D-01  5.49D-01  7.03D-01
                    CP:  7.62D-01  7.83D-01  8.63D-01  7.74D-01
 E= -1548.95345849410     Delta-E=       -0.000000027845 Rises=F Damp=F
 DIIS: error= 8.33D-07 at cycle  10 NSaved=  10.
 NSaved=10 IEnMin=10 EnMin= -1548.95345849410     IErMin=10 ErrMin= 8.33D-07
 ErrMax= 8.33D-07  0.00D+00 EMaxC= 1.00D-01 BMatC= 1.14D-09 BMatP= 2.56D-08
 IDIUse=1 WtCom= 1.00D+00 WtEn= 0.00D+00
 Coeff-Com:  0.494D-04-0.964D-04-0.725D-03-0.160D-02-0.334D-02-0.314D-02
 Coeff-Com:  0.113D-01 0.100D+00 0.248D+00 0.650D+00
 Coeff:      0.494D-04-0.964D-04-0.725D-03-0.160D-02-0.334D-02-0.314D-02
 Coeff:      0.113D-01 0.100D+00 0.248D+00 0.650D+00
 Gap=     0.170 Goal=   None    Shift=    0.000
 RMSDP=1.68D-07 MaxDP=6.88D-06 DE=-2.78D-08 OVMax= 1.47D-05

 Cycle  11  Pass 1  IDiag  1:
 RMSU=  1.31D-07    CP:  9.76D-01  9.63D-01  8.47D-01  5.49D-01  7.04D-01
                    CP:  7.63D-01  7.87D-01  8.73D-01  8.03D-01  8.15D-01
 E= -1548.95345849520     Delta-E=       -0.000000001100 Rises=F Damp=F
 DIIS: error= 4.59D-07 at cycle  11 NSaved=  11.
 NSaved=11 IEnMin=11 EnMin= -1548.95345849520     IErMin=11 ErrMin= 4.59D-07
 ErrMax= 4.59D-07  0.00D+00 EMaxC= 1.00D-01 BMatC= 2.00D-10 BMatP= 1.14D-09
 IDIUse=1 WtCom= 1.00D+00 WtEn= 0.00D+00
 Coeff-Com:  0.104D-04-0.105D-04-0.144D-03-0.370D-03-0.786D-03-0.183D-02
 Coeff-Com: -0.411D-02 0.866D-02 0.545D-01 0.336D+00 0.608D+00
 Coeff:      0.104D-04-0.105D-04-0.144D-03-0.370D-03-0.786D-03-0.183D-02
 Coeff:     -0.411D-02 0.866D-02 0.545D-01 0.336D+00 0.608D+00
 Gap=     0.170 Goal=   None    Shift=    0.000
 RMSDP=7.17D-08 MaxDP=2.41D-06 DE=-1.10D-09 OVMax= 6.70D-06

 Cycle  12  Pass 1  IDiag  1:
 RMSU=  4.52D-08    CP:  9.76D-01  9.63D-01  8.47D-01  5.49D-01  7.04D-01
                    CP:  7.63D-01  7.87D-01  8.79D-01  8.16D-01  8.82D-01
                    CP:  7.17D-01
 E= -1548.95345849542     Delta-E=       -0.000000000228 Rises=F Damp=F
 DIIS: error= 1.16D-07 at cycle  12 NSaved=  12.
 NSaved=12 IEnMin=12 EnMin= -1548.95345849542     IErMin=12 ErrMin= 1.16D-07
 ErrMax= 1.16D-07  0.00D+00 EMaxC= 1.00D-01 BMatC= 2.18D-11 BMatP= 2.00D-10
 IDIUse=1 WtCom= 1.00D+00 WtEn= 0.00D+00
 Coeff-Com: -0.109D-06 0.544D-05 0.135D-04-0.532D-06 0.154D-04-0.504D-03
 Coeff-Com: -0.344D-02-0.702D-02-0.100D-02 0.867D-01 0.304D+00 0.621D+00
 Coeff:     -0.109D-06 0.544D-05 0.135D-04-0.532D-06 0.154D-04-0.504D-03
 Coeff:     -0.344D-02-0.702D-02-0.100D-02 0.867D-01 0.304D+00 0.621D+00
 Gap=     0.170 Goal=   None    Shift=    0.000
 RMSDP=2.45D-08 MaxDP=1.10D-06 DE=-2.28D-10 OVMax= 2.43D-06

 Cycle  13  Pass 1  IDiag  1:
 RMSU=  1.44D-08    CP:  9.76D-01  9.63D-01  8.47D-01  5.49D-01  7.04D-01
                    CP:  7.63D-01  7.87D-01  8.79D-01  8.21D-01  9.03D-01
                    CP:  7.89D-01  7.44D-01
 E= -1548.95345849543     Delta-E=       -0.000000000009 Rises=F Damp=F
 DIIS: error= 3.44D-08 at cycle  13 NSaved=  13.
 NSaved=13 IEnMin=13 EnMin= -1548.95345849543     IErMin=13 ErrMin= 3.44D-08
 ErrMax= 3.44D-08  0.00D+00 EMaxC= 1.00D-01 BMatC= 2.15D-12 BMatP= 2.18D-11
 IDIUse=1 WtCom= 1.00D+00 WtEn= 0.00D+00
 Coeff-Com: -0.127D-05 0.385D-05 0.241D-04 0.452D-04 0.101D-03-0.493D-04
 Coeff-Com: -0.138D-02-0.498D-02-0.766D-02 0.115D-02 0.783D-01 0.294D+00
 Coeff-Com:  0.640D+00
 Coeff:     -0.127D-05 0.385D-05 0.241D-04 0.452D-04 0.101D-03-0.493D-04
 Coeff:     -0.138D-02-0.498D-02-0.766D-02 0.115D-02 0.783D-01 0.294D+00
 Coeff:      0.640D+00
 Gap=     0.170 Goal=   None    Shift=    0.000
 RMSDP=7.62D-09 MaxDP=2.95D-07 DE=-9.09D-12 OVMax= 8.24D-07

 Error on total polarization charges =  0.01850
 SCF Done:  E(RB3LYP) =  -1548.95345850     A.U. after   13 cycles
            NFock= 13  Conv=0.76D-08     -V/T= 2.0059
 KE= 1.539868853112D+03 PE=-6.989670133915D+03 EE= 2.216312413048D+03
 Leave Link  502 at Sun Jul 18 13:50:45 2021, MaxMem=   104857600 cpu:             328.4 elap:              82.4
 (Enter /prod/apps/gaussian/g16b1/l601.exe)
 Copying SCF densities to generalized density rwf, IOpCl= 0 IROHF=0.

 **********************************************************************

            Population analysis using the SCF Density.

 **********************************************************************

 Orbital symmetries:
       Occupied  (A) (A) (A) (A) (A) (A) (A) (A) (A) (A) (A) (A)
                 (A) (A) (A) (A) (A) (A) (A) (A) (A) (A) (A) (A)
                 (A) (A) (A) (A) (A) (A) (A) (A) (A) (A) (A) (A)
                 (A) (A) (A) (A) (A) (A) (A) (A) (A) (A) (A) (A)
                 (A) (A) (A) (A) (A) (A) (A) (A) (A) (A) (A) (A)
                 (A) (A) (A) (A) (A) (A) (A) (A) (A) (A) (A) (A)
                 (A) (A) (A) (A)
       Virtual   (A) (A) (A) (A) (A) (A) (A) (A) (A) (A) (A) (A)
                 (A) (A) (A) (A) (A) (A) (A) (A) (A) (A) (A) (A)
                 (A) (A) (A) (A) (A) (A) (A) (A) (A) (A) (A) (A)
                 (A) (A) (A) (A) (A) (A) (A) (A) (A) (A) (A) (A)
                 (A) (A) (A) (A) (A) (A) (A) (A) (A) (A) (A) (A)
                 (A) (A) (A) (A) (A) (A) (A) (A) (A) (A) (A) (A)
                 (A) (A) (A) (A) (A) (A) (A) (A) (A) (A) (A) (A)
                 (A) (A) (A) (A) (A) (A) (A) (A) (A) (A) (A) (A)
                 (A) (A) (A) (A) (A) (A) (A) (A) (A) (A) (A) (A)
                 (A) (A) (A) (A) (A) (A) (A) (A) (A) (A) (A) (A)
                 (A) (A) (A) (A) (A) (A) (A) (A) (A) (A) (A) (A)
                 (A) (A) (A) (A) (A) (A) (A) (A) (A) (A) (A) (A)
                 (A) (A) (A) (A) (A) (A) (A) (A) (A) (A) (A) (A)
                 (A) (A) (A) (A) (A) (A) (A) (A) (A) (A) (A) (A)
                 (A) (A) (A) (A) (A) (A) (A) (A) (A) (A) (A) (A)
                 (A) (A) (A) (A) (A) (A) (A) (A) (A) (A) (A) (A)
                 (A) (A) (A) (A) (A) (A) (A) (A) (A) (A) (A) (A)
                 (A) (A) (A) (A) (A) (A) (A) (A) (A) (A) (A) (A)
                 (A) (A) (A) (A) (A) (A) (A) (A) (A) (A) (A) (A)
                 (A) (A) (A) (A) (A) (A) (A) (A) (A) (A) (A) (A)
                 (A) (A) (A) (A) (A) (A) (A) (A) (A)
 The electronic state is 1-A.
 Alpha  occ. eigenvalues -- -101.55952 -88.90256 -14.44982 -14.35663 -10.25595
 Alpha  occ. eigenvalues --  -10.24695 -10.23596 -10.23389 -10.23335 -10.22998
 Alpha  occ. eigenvalues --  -10.22710 -10.21098 -10.20712 -10.20456 -10.20125
 Alpha  occ. eigenvalues --  -10.19995 -10.19819 -10.19796 -10.19591  -9.47676
 Alpha  occ. eigenvalues --   -7.96317  -7.24053  -7.23110  -7.23062  -5.92798
 Alpha  occ. eigenvalues --   -5.92471  -5.91834  -1.01578  -0.99379  -0.90550
 Alpha  occ. eigenvalues --   -0.86235  -0.85324  -0.80261  -0.79690  -0.77259
 Alpha  occ. eigenvalues --   -0.74243  -0.74054  -0.71298  -0.67802  -0.64411
 Alpha  occ. eigenvalues --   -0.63607  -0.60921  -0.60292  -0.59521  -0.58442
 Alpha  occ. eigenvalues --   -0.56789  -0.54466  -0.52278  -0.50273  -0.48759
 Alpha  occ. eigenvalues --   -0.48646  -0.47297  -0.46628  -0.45722  -0.45098
 Alpha  occ. eigenvalues --   -0.44074  -0.43048  -0.42406  -0.41526  -0.40405
 Alpha  occ. eigenvalues --   -0.39428  -0.38641  -0.38081  -0.37287  -0.36858
 Alpha  occ. eigenvalues --   -0.36623  -0.35676  -0.34576  -0.33700  -0.32192
 Alpha  occ. eigenvalues --   -0.30394  -0.29129  -0.26229  -0.25008  -0.23108
 Alpha  occ. eigenvalues --   -0.19597
 Alpha virt. eigenvalues --   -0.02639  -0.02264  -0.01062  -0.00775   0.02150
 Alpha virt. eigenvalues --    0.04513   0.05201   0.08260   0.09842   0.10317
 Alpha virt. eigenvalues --    0.11321   0.11502   0.11936   0.12770   0.13761
 Alpha virt. eigenvalues --    0.13961   0.14253   0.14881   0.15316   0.15926
 Alpha virt. eigenvalues --    0.17329   0.17831   0.18131   0.18638   0.19049
 Alpha virt. eigenvalues --    0.20854   0.21910   0.22748   0.23744   0.24758
 Alpha virt. eigenvalues --    0.25686   0.26081   0.27786   0.27888   0.30425
 Alpha virt. eigenvalues --    0.31595   0.31948   0.32328   0.36091   0.37263
 Alpha virt. eigenvalues --    0.37792   0.39078   0.40335   0.41858   0.42378
 Alpha virt. eigenvalues --    0.43219   0.43529   0.46746   0.48593   0.49008
 Alpha virt. eigenvalues --    0.50043   0.51284   0.52308   0.53100   0.53728
 Alpha virt. eigenvalues --    0.53891   0.54098   0.54542   0.55435   0.56458
 Alpha virt. eigenvalues --    0.57340   0.57770   0.58984   0.59257   0.60035
 Alpha virt. eigenvalues --    0.60403   0.60575   0.61068   0.61323   0.62163
 Alpha virt. eigenvalues --    0.62618   0.64148   0.64779   0.65400   0.65760
 Alpha virt. eigenvalues --    0.66180   0.68426   0.68497   0.71078   0.72392
 Alpha virt. eigenvalues --    0.73108   0.75250   0.76121   0.76752   0.77210
 Alpha virt. eigenvalues --    0.81038   0.81129   0.82306   0.83222   0.83458
 Alpha virt. eigenvalues --    0.84074   0.84700   0.84867   0.85071   0.85376
 Alpha virt. eigenvalues --    0.85612   0.86317   0.86993   0.88090   0.88873
 Alpha virt. eigenvalues --    0.89553   0.90106   0.91120   0.91302   0.92126
 Alpha virt. eigenvalues --    0.93328   0.93781   0.94046   0.95026   0.95517
 Alpha virt. eigenvalues --    0.97108   0.98204   0.98607   1.00331   1.00956
 Alpha virt. eigenvalues --    1.02103   1.02894   1.04489   1.05274   1.06727
 Alpha virt. eigenvalues --    1.07458   1.08676   1.10280   1.12386   1.13488
 Alpha virt. eigenvalues --    1.15357   1.15787   1.17525   1.18923   1.20190
 Alpha virt. eigenvalues --    1.22323   1.24417   1.27690   1.29602   1.30058
 Alpha virt. eigenvalues --    1.32650   1.35510   1.35961   1.36864   1.40474
 Alpha virt. eigenvalues --    1.41460   1.42629   1.44237   1.46121   1.46957
 Alpha virt. eigenvalues --    1.48367   1.49659   1.51099   1.54075   1.55039
 Alpha virt. eigenvalues --    1.56727   1.57911   1.60254   1.63764   1.65126
 Alpha virt. eigenvalues --    1.70680   1.72247   1.74646   1.76644   1.77224
 Alpha virt. eigenvalues --    1.79099   1.79824   1.81403   1.81997   1.83433
 Alpha virt. eigenvalues --    1.84748   1.87241   1.90018   1.91438   1.93416
 Alpha virt. eigenvalues --    1.94241   1.95016   1.96109   1.97444   1.97849
 Alpha virt. eigenvalues --    1.98296   2.01359   2.04729   2.05689   2.06388
 Alpha virt. eigenvalues --    2.07525   2.10773   2.11729   2.12981   2.13265
 Alpha virt. eigenvalues --    2.13948   2.15158   2.17366   2.18693   2.21410
 Alpha virt. eigenvalues --    2.21728   2.23240   2.24725   2.27359   2.27980
 Alpha virt. eigenvalues --    2.28959   2.30895   2.32165   2.34459   2.36480
 Alpha virt. eigenvalues --    2.39660   2.41715   2.44977   2.47304   2.50056
 Alpha virt. eigenvalues --    2.53329   2.55567   2.57409   2.59286   2.59860
 Alpha virt. eigenvalues --    2.60279   2.62108   2.66664   2.67043   2.67652
 Alpha virt. eigenvalues --    2.69631   2.70972   2.71786   2.73493   2.74853
 Alpha virt. eigenvalues --    2.75766   2.78546   2.79489   2.84371   2.90855
 Alpha virt. eigenvalues --    2.98394   3.08727   3.26053   3.31952   3.37814
 Alpha virt. eigenvalues --    3.77134   3.95311   4.05029   4.07199   4.07695
 Alpha virt. eigenvalues --    4.09929   4.11994   4.16222   4.19817   4.26034
 Alpha virt. eigenvalues --    4.27990   4.33973   4.36042   4.39046   4.41867
 Alpha virt. eigenvalues --    4.46741   4.51547   4.68128   4.73240
          Condensed to atoms (all electrons):
               1          2          3          4          5          6
     1  N    6.676017   0.305344   0.306229   0.237123  -0.028764  -0.036292
     2  H    0.305344   0.267370  -0.009643  -0.017423   0.002805  -0.005006
     3  H    0.306229  -0.009643   0.266090  -0.018204  -0.002715  -0.000804
     4  C    0.237123  -0.017423  -0.018204   5.019658   0.377537   0.386665
     5  H   -0.028764   0.002805  -0.002715   0.377537   0.479067  -0.026995
     6  H   -0.036292  -0.005006  -0.000804   0.386665  -0.026995   0.502637
     7  C   -0.047668  -0.000839   0.003603   0.354970  -0.040180  -0.034029
     8  H    0.003316  -0.000041  -0.000107  -0.029991  -0.000602  -0.003994
     9  H   -0.003773   0.002411   0.000098  -0.040041   0.004673  -0.001709
    10  C   -0.003003  -0.000121  -0.000149  -0.038841  -0.007220   0.004053
    11  H    0.000095  -0.000003   0.000006   0.005275   0.000218  -0.000188
    12  H    0.001738   0.000035  -0.000119  -0.005665   0.000114   0.000057
    13  N    0.000104   0.000001   0.000006  -0.000715   0.004012  -0.000121
    14  C   -0.000062   0.000000  -0.000001   0.001701   0.000154   0.000003
    15  C   -0.000016   0.000000  -0.000000   0.000059  -0.000065   0.000000
    16  H   -0.000002   0.000000  -0.000000   0.000004   0.000008  -0.000000
    17  C    0.000000  -0.000000   0.000000  -0.000008  -0.000024   0.000000
    18  Cl   0.000000  -0.000000   0.000000   0.000000   0.000000  -0.000000
    19  C    0.000000   0.000000   0.000000   0.000003   0.000004  -0.000000
    20  H    0.000000  -0.000000  -0.000000  -0.000000   0.000000   0.000000
    21  C   -0.000000  -0.000000   0.000000  -0.000019   0.000023  -0.000000
    22  H   -0.000000   0.000000  -0.000000  -0.000000  -0.000003   0.000000
    23  C   -0.000025  -0.000000  -0.000002  -0.000658   0.000402   0.000035
    24  S    0.000194  -0.000004   0.000013  -0.005051   0.011707   0.000048
    25  C   -0.000000   0.000000   0.000000  -0.000044  -0.001076   0.000017
    26  C    0.000003   0.000000  -0.000000   0.000105  -0.000223  -0.000023
    27  C   -0.000000  -0.000000   0.000000   0.000080   0.000005  -0.000001
    28  H    0.000000   0.000000  -0.000000   0.000001  -0.000001  -0.000000
    29  C   -0.000000  -0.000000   0.000000  -0.000001   0.000001   0.000000
    30  H   -0.000000  -0.000000   0.000000   0.000000  -0.000000  -0.000000
    31  C    0.000000  -0.000000  -0.000000   0.000000  -0.000000  -0.000000
    32  H    0.000000  -0.000000   0.000000  -0.000000   0.000000  -0.000000
    33  C   -0.000000   0.000000  -0.000000  -0.000003   0.000003  -0.000001
    34  H   -0.000000   0.000000  -0.000000  -0.000000  -0.000000   0.000000
    35  H    0.299325  -0.010492  -0.010736  -0.023161  -0.000948   0.003986
               7          8          9         10         11         12
     1  N   -0.047668   0.003316  -0.003773  -0.003003   0.000095   0.001738
     2  H   -0.000839  -0.000041   0.002411  -0.000121  -0.000003   0.000035
     3  H    0.003603  -0.000107   0.000098  -0.000149   0.000006  -0.000119
     4  C    0.354970  -0.029991  -0.040041  -0.038841   0.005275  -0.005665
     5  H   -0.040180  -0.000602   0.004673  -0.007220   0.000218   0.000114
     6  H   -0.034029  -0.003994  -0.001709   0.004053  -0.000188   0.000057
     7  C    5.121415   0.376230   0.366539   0.344053  -0.056601  -0.032066
     8  H    0.376230   0.516386  -0.030014  -0.025990  -0.001927   0.003407
     9  H    0.366539  -0.030014   0.553379  -0.031333  -0.001872  -0.000176
    10  C    0.344053  -0.025990  -0.031333   4.950065   0.378773   0.373149
    11  H   -0.056601  -0.001927  -0.001872   0.378773   0.571599  -0.029842
    12  H   -0.032066   0.003407  -0.000176   0.373149  -0.029842   0.532840
    13  N   -0.050326  -0.006464   0.003577   0.300969  -0.042488  -0.038576
    14  C    0.000568  -0.000096  -0.000105  -0.039080   0.002494  -0.002021
    15  C    0.000423  -0.000002  -0.000020  -0.015037   0.000718   0.006178
    16  H    0.000125  -0.000000  -0.000001   0.001910  -0.000393   0.001187
    17  C    0.000013   0.000000  -0.000000   0.000111  -0.000022   0.000077
    18  Cl  -0.000001  -0.000000   0.000000  -0.000007   0.000001   0.000024
    19  C   -0.000001   0.000000   0.000000   0.000005   0.000000  -0.000019
    20  H   -0.000000   0.000000  -0.000000   0.000000   0.000000  -0.000000
    21  C   -0.000015  -0.000000   0.000000  -0.000075   0.000006  -0.000060
    22  H    0.000000   0.000000  -0.000000   0.000002  -0.000000   0.000000
    23  C    0.000606   0.000025  -0.000011   0.005856  -0.000355   0.000153
    24  S   -0.000339  -0.000246   0.000037   0.000562   0.000115  -0.000084
    25  C    0.000946   0.000926  -0.000013   0.003148  -0.000411  -0.000105
    26  C   -0.001575   0.006993   0.000067  -0.039570  -0.003005   0.004061
    27  C   -0.001058   0.001682  -0.000074  -0.006111   0.002492   0.000001
    28  H    0.000197   0.000050  -0.000025   0.001858   0.001842  -0.000118
    29  C   -0.000020   0.000016  -0.000003   0.000104  -0.000138   0.000003
    30  H   -0.000001  -0.000001   0.000000  -0.000001   0.000004  -0.000000
    31  C    0.000012  -0.000038   0.000000  -0.000009   0.000007  -0.000000
    32  H    0.000000   0.000000   0.000000  -0.000000  -0.000000   0.000000
    33  C   -0.000017  -0.000043   0.000001  -0.000085   0.000004   0.000004
    34  H   -0.000001   0.000001  -0.000000   0.000003  -0.000000  -0.000000
    35  H   -0.003567   0.000067  -0.000083   0.004905  -0.000520   0.004886
              13         14         15         16         17         18
     1  N    0.000104  -0.000062  -0.000016  -0.000002   0.000000   0.000000
     2  H    0.000001   0.000000   0.000000   0.000000  -0.000000  -0.000000
     3  H    0.000006  -0.000001  -0.000000  -0.000000   0.000000   0.000000
     4  C   -0.000715   0.001701   0.000059   0.000004  -0.000008   0.000000
     5  H    0.004012   0.000154  -0.000065   0.000008  -0.000024   0.000000
     6  H   -0.000121   0.000003   0.000000  -0.000000   0.000000  -0.000000
     7  C   -0.050326   0.000568   0.000423   0.000125   0.000013  -0.000001
     8  H   -0.006464  -0.000096  -0.000002  -0.000000   0.000000  -0.000000
     9  H    0.003577  -0.000105  -0.000020  -0.000001  -0.000000   0.000000
    10  C    0.300969  -0.039080  -0.015037   0.001910   0.000111  -0.000007
    11  H   -0.042488   0.002494   0.000718  -0.000393  -0.000022   0.000001
    12  H   -0.038576  -0.002021   0.006178   0.001187   0.000077   0.000024
    13  N    7.118251   0.309530  -0.074519  -0.009689   0.007618  -0.000204
    14  C    0.309530   4.588331   0.509276  -0.031995  -0.005243   0.005271
    15  C   -0.074519   0.509276   5.116724   0.351988   0.486066  -0.073811
    16  H   -0.009689  -0.031995   0.351988   0.547557  -0.046564  -0.001549
    17  C    0.007618  -0.005243   0.486066  -0.046564   5.001416   0.224205
    18  Cl  -0.000204   0.005271  -0.073811  -0.001549   0.224205  16.919129
    19  C    0.000444  -0.032862  -0.039564   0.004230   0.516681  -0.066946
    20  H    0.000001   0.000590   0.004234  -0.000149  -0.042740   0.000506
    21  C    0.006263  -0.003130  -0.047136   0.000121  -0.019707   0.004146
    22  H   -0.000143   0.002370   0.000810   0.000015   0.003388  -0.000143
    23  C   -0.092100   0.489126  -0.075608   0.007572  -0.036314   0.000491
    24  S    0.002795  -0.059947   0.006460  -0.000278   0.000333   0.000013
    25  C   -0.081377  -0.018717   0.000881  -0.000019   0.000012   0.000000
    26  C    0.283652  -0.031288   0.006320   0.000071  -0.000283   0.000004
    27  C   -0.081153   0.004601  -0.000397   0.000049  -0.000007  -0.000000
    28  H   -0.008801   0.000237   0.000078   0.000044   0.000001  -0.000000
    29  C    0.006832  -0.000213  -0.000007   0.000001   0.000000  -0.000000
    30  H   -0.000146   0.000001  -0.000000  -0.000000   0.000000  -0.000000
    31  C    0.000246  -0.000053  -0.000000   0.000000   0.000000  -0.000000
    32  H    0.000003   0.000001   0.000000  -0.000000  -0.000000   0.000000
    33  C    0.005732   0.000947   0.000005  -0.000000  -0.000001   0.000000
    34  H   -0.000154  -0.000008  -0.000000   0.000000   0.000000  -0.000000
    35  H   -0.000182   0.000041   0.000037  -0.000007   0.000002  -0.000000
              19         20         21         22         23         24
     1  N    0.000000   0.000000  -0.000000  -0.000000  -0.000025   0.000194
     2  H    0.000000  -0.000000  -0.000000   0.000000  -0.000000  -0.000004
     3  H    0.000000  -0.000000   0.000000  -0.000000  -0.000002   0.000013
     4  C    0.000003  -0.000000  -0.000019  -0.000000  -0.000658  -0.005051
     5  H    0.000004   0.000000   0.000023  -0.000003   0.000402   0.011707
     6  H   -0.000000   0.000000  -0.000000   0.000000   0.000035   0.000048
     7  C   -0.000001  -0.000000  -0.000015   0.000000   0.000606  -0.000339
     8  H    0.000000   0.000000  -0.000000   0.000000   0.000025  -0.000246
     9  H    0.000000  -0.000000   0.000000  -0.000000  -0.000011   0.000037
    10  C    0.000005   0.000000  -0.000075   0.000002   0.005856   0.000562
    11  H    0.000000   0.000000   0.000006  -0.000000  -0.000355   0.000115
    12  H   -0.000019  -0.000000  -0.000060   0.000000   0.000153  -0.000084
    13  N    0.000444   0.000001   0.006263  -0.000143  -0.092100   0.002795
    14  C   -0.032862   0.000590  -0.003130   0.002370   0.489126  -0.059947
    15  C   -0.039564   0.004234  -0.047136   0.000810  -0.075608   0.006460
    16  H    0.004230  -0.000149   0.000121   0.000015   0.007572  -0.000278
    17  C    0.516681  -0.042740  -0.019707   0.003388  -0.036314   0.000333
    18  Cl  -0.066946   0.000506   0.004146  -0.000143   0.000491   0.000013
    19  C    4.972277   0.363803   0.504178  -0.034056  -0.040467   0.004183
    20  H    0.363803   0.540641  -0.034500  -0.004548   0.004399  -0.000152
    21  C    0.504178  -0.034500   4.986158   0.360242   0.479613  -0.050496
    22  H   -0.034056  -0.004548   0.360242   0.530468  -0.035455   0.000612
    23  C   -0.040467   0.004399   0.479613  -0.035455   5.218677   0.231432
    24  S    0.004183  -0.000152  -0.050496   0.000612   0.231432  15.582114
    25  C   -0.000090   0.000000   0.000161   0.000058  -0.002630   0.230741
    26  C   -0.000070   0.000001   0.001033  -0.000001  -0.021474  -0.065028
    27  C   -0.000001   0.000000   0.000020  -0.000000   0.000824   0.007878
    28  H    0.000000   0.000000   0.000000   0.000000  -0.000036  -0.000240
    29  C    0.000000  -0.000000  -0.000001   0.000000   0.000037  -0.000183
    30  H   -0.000000  -0.000000   0.000000  -0.000000   0.000000   0.000017
    31  C   -0.000000   0.000000   0.000002   0.000000  -0.000171   0.005874
    32  H    0.000000  -0.000000  -0.000000  -0.000000   0.000001  -0.000199
    33  C    0.000001  -0.000000  -0.000082  -0.000002   0.001343  -0.060670
    34  H    0.000000  -0.000000  -0.000004   0.000002   0.000062  -0.001010
[...]
     35          1           0       -0.857810    3.026881    1.397064
 ---------------------------------------------------------------------
 Rotational constants (GHZ):           0.4191148           0.2267037           0.1852248
 Leave Link  202 at Sun Jul 18 14:58:51 2021, MaxMem=   262144000 cpu:               0.1 elap:               0.0
 (Enter /prod/apps/gaussian/g16b1/l301.exe)
 Standard basis: Aug-CC-pVDZ (5D, 7F)
 Ernie: Thresh=  0.10000D-02 Tol=  0.10000D-05 Strict=F.
 Ernie:  54 primitive shells out of 643 were deleted.
 There are   627 symmetry adapted cartesian basis functions of A   symmetry.
 There are   589 symmetry adapted basis functions of A   symmetry.
   589 basis functions,  1069 primitive gaussians,   627 cartesian basis functions
    76 alpha electrons       76 beta electrons
       nuclear repulsion energy      1668.5300547255 Hartrees.
 IExCor=    0 DFT=F Ex=HF Corr=None ExCW=0 ScaHFX=  1.000000
 ScaDFX=  1.000000  1.000000  1.000000  1.000000 ScalE2=  1.000000  1.000000
 IRadAn=      5 IRanWt=     -1 IRanGd=            0 ICorTp=0 IEmpDi=  4
 NAtoms=   35 NActive=   35 NUniq=   35 SFac= 1.00D+00 NAtFMM=   60 NAOKFM=F Big=F
 Integral buffers will be    131072 words long.
 Raffenetti 1 integral format.
 Two-electron integral symmetry is turned on.
 Leave Link  301 at Sun Jul 18 14:58:51 2021, MaxMem=   262144000 cpu:               0.3 elap:               0.1
 (Enter /prod/apps/gaussian/g16b1/l302.exe)
 NPDir=0 NMtPBC=     1 NCelOv=     1 NCel=       1 NClECP=     1 NCelD=      1
         NCelK=      1 NCelE2=     1 NClLst=     1 CellRange=     0.0.
 One-electron integrals computed using PRISM.
 One-electron integral symmetry used in STVInt
 NBasis=   589 RedAO= T EigKep=  1.30D-06  NBF=   589
 NBsUse=   588 1.00D-06 EigRej=  7.37D-07 NBFU=   588
 Leave Link  302 at Sun Jul 18 14:58:51 2021, MaxMem=   262144000 cpu:               1.9 elap:               0.5
 (Enter /prod/apps/gaussian/g16b1/l303.exe)
 DipDrv:  MaxL=1.
 Leave Link  303 at Sun Jul 18 14:58:52 2021, MaxMem=   262144000 cpu:               0.4 elap:               0.1
 (Enter /prod/apps/gaussian/g16b1/l401.exe)
 ExpMin= 2.97D-02 ExpMax= 1.28D+05 ExpMxC= 1.24D+03 IAcc=3 IRadAn=         5 AccDes= 0.00D+00
 Harris functional with IExCor=  205 and IRadAn=       5 diagonalized for initial guess.
 HarFok:  IExCor=  205 AccDes= 0.00D+00 IRadAn=         5 IDoV= 1 UseB2=F ITyADJ=14
 ICtDFT=  3500011 ScaDFX=  1.000000  1.000000  1.000000  1.000000
 FoFCou: FMM=F IPFlag=           0 FMFlag=      100000 FMFlg1=           0
         NFxFlg=           0 DoJE=T BraDBF=F KetDBF=T FulRan=T
         wScrn=  0.000000 ICntrl=       500 IOpCl=  0 I1Cent=   200000004 NGrid=           0
         NMat0=    1 NMatS0=      1 NMatT0=    0 NMatD0=    1 NMtDS0=    0 NMtDT0=    0
 Petite list used in FoFCou.
 Harris En= -1543.28623140600    
 JPrj=0 DoOrth=F DoCkMO=F.
 Leave Link  401 at Sun Jul 18 14:58:56 2021, MaxMem=   262144000 cpu:              16.8 elap:               4.2
 (Enter /prod/apps/gaussian/g16b1/l502.exe)
 Integral symmetry usage will be decided dynamically.
 Closed shell SCF:
 Using DIIS extrapolation, IDIIS=  1040.
 NGot=   262144000 LenX=   261348123 LenY=   260954367
 Requested convergence on RMS density matrix=1.00D-08 within 128 cycles.
 Requested convergence on MAX density matrix=1.00D-06.
 Requested convergence on             energy=1.00D-06.
 No special actions if energy rises.
 Fock matrices will be formed incrementally for  20 cycles.

 Cycle   1  Pass 1  IDiag  1:
 FoFJK:  IHMeth= 1 ICntrl=       0 DoSepK=F KAlg= 0 I1Cent=           0 FoldK=F
 IRaf= 950000000 NMat=       1 IRICut=       1 DoRegI=T DoRafI=F ISym2E= 0 IDoP0=0 IntGTp=1.
 FoFCou: FMM=F IPFlag=           0 FMFlag=      100000 FMFlg1=           0
         NFxFlg=           0 DoJE=F BraDBF=F KetDBF=F FulRan=T
         wScrn=  0.000000 ICntrl=         0 IOpCl=  0 I1Cent=           0 NGrid=           0
         NMat0=    1 NMatS0=      1 NMatT0=    0 NMatD0=    1 NMtDS0=    0 NMtDT0=    0
 Symmetry not used in FoFCou.
 E= -1542.39598663052    
 DIIS: error= 1.67D-02 at cycle   1 NSaved=   1.
 NSaved= 1 IEnMin= 1 EnMin= -1542.39598663052     IErMin= 1 ErrMin= 1.67D-02
 ErrMax= 1.67D-02  0.00D+00 EMaxC= 1.00D-01 BMatC= 9.08D-01 BMatP= 9.08D-01
 IDIUse=3 WtCom= 8.33D-01 WtEn= 1.67D-01
 Coeff-Com:  0.100D+01
 Coeff-En:   0.100D+01
 Coeff:      0.100D+01
 Gap=     0.526 Goal=   None    Shift=    0.000
 GapD=    0.526 DampG=2.000 DampE=0.500 DampFc=1.0000 IDamp=-1.
 RMSDP=5.51D-02 MaxDP=3.15D+00              OVMax= 1.97D-01

 Cycle   2  Pass 1  IDiag  1:
 RMSU=  2.92D-02    CP:  5.65D-01
 E= -1542.96311882279     Delta-E=       -0.567132192276 Rises=F Damp=F
 DIIS: error= 1.25D-02 at cycle   2 NSaved=   2.
 NSaved= 2 IEnMin= 2 EnMin= -1542.96311882279     IErMin= 2 ErrMin= 1.25D-02
 ErrMax= 1.25D-02  0.00D+00 EMaxC= 1.00D-01 BMatC= 1.56D-01 BMatP= 9.08D-01
 IDIUse=3 WtCom= 8.75D-01 WtEn= 1.25D-01
 Coeff-Com:  0.236D+00 0.764D+00
 Coeff-En:   0.000D+00 0.100D+01
 Coeff:      0.206D+00 0.794D+00
 Gap=     0.308 Goal=   None    Shift=    0.000
 RMSDP=7.33D-03 MaxDP=5.55D-01 DE=-5.67D-01 OVMax= 7.41D-02

 Cycle   3  Pass 1  IDiag  1:
 RMSU=  7.24D-03    CP:  5.62D-01  9.64D-01
 E= -1543.10869497951     Delta-E=       -0.145576156715 Rises=F Damp=F
 DIIS: error= 2.97D-03 at cycle   3 NSaved=   3.
 NSaved= 3 IEnMin= 3 EnMin= -1543.10869497951     IErMin= 3 ErrMin= 2.97D-03
 ErrMax= 2.97D-03  0.00D+00 EMaxC= 1.00D-01 BMatC= 1.59D-02 BMatP= 1.56D-01
 IDIUse=3 WtCom= 9.70D-01 WtEn= 2.97D-02
 Coeff-Com: -0.187D-01 0.205D+00 0.814D+00
 Coeff-En:   0.000D+00 0.000D+00 0.100D+01
 Coeff:     -0.181D-01 0.199D+00 0.819D+00
 Gap=     0.284 Goal=   None    Shift=    0.000
 RMSDP=2.16D-03 MaxDP=1.37D-01 DE=-1.46D-01 OVMax= 4.63D-02

 Cycle   4  Pass 1  IDiag  1:
 RMSU=  1.57D-03    CP:  5.54D-01  9.87D-01  8.59D-01
 E= -1543.12551439519     Delta-E=       -0.016819415680 Rises=F Damp=F
 DIIS: error= 7.75D-04 at cycle   4 NSaved=   4.
 NSaved= 4 IEnMin= 4 EnMin= -1543.12551439519     IErMin= 4 ErrMin= 7.75D-04
 ErrMax= 7.75D-04  0.00D+00 EMaxC= 1.00D-01 BMatC= 1.56D-03 BMatP= 1.59D-02
 IDIUse=3 WtCom= 9.92D-01 WtEn= 7.75D-03
 Coeff-Com: -0.167D-01 0.348D-01 0.296D+00 0.686D+00
 Coeff-En:   0.000D+00 0.000D+00 0.000D+00 0.100D+01
 Coeff:     -0.166D-01 0.346D-01 0.294D+00 0.688D+00
 Gap=     0.274 Goal=   None    Shift=    0.000
 RMSDP=5.99D-04 MaxDP=7.18D-02 DE=-1.68D-02 OVMax= 9.55D-03

 Cycle   5  Pass 1  IDiag  1:
 RMSU=  5.05D-04    CP:  5.51D-01  9.87D-01  8.61D-01  9.33D-01
 E= -1543.12722421443     Delta-E=       -0.001709819245 Rises=F Damp=F
 DIIS: error= 2.45D-04 at cycle   5 NSaved=   5.
 NSaved= 5 IEnMin= 5 EnMin= -1543.12722421443     IErMin= 5 ErrMin= 2.45D-04
 ErrMax= 2.45D-04  0.00D+00 EMaxC= 1.00D-01 BMatC= 1.04D-04 BMatP= 1.56D-03
 IDIUse=3 WtCom= 9.98D-01 WtEn= 2.45D-03
 Coeff-Com: -0.372D-03-0.212D-01-0.489D-01 0.105D+00 0.965D+00
 Coeff-En:   0.000D+00 0.000D+00 0.000D+00 0.000D+00 0.100D+01
 Coeff:     -0.371D-03-0.211D-01-0.488D-01 0.105D+00 0.965D+00
 Gap=     0.277 Goal=   None    Shift=    0.000
 RMSDP=2.80D-04 MaxDP=2.28D-02 DE=-1.71D-03 OVMax= 8.03D-03

 Cycle   6  Pass 1  IDiag  1:
 RMSU=  1.50D-04    CP:  5.51D-01  9.89D-01  8.80D-01  1.05D+00  9.71D-01
 E= -1543.12746035912     Delta-E=       -0.000236144691 Rises=F Damp=F
 DIIS: error= 9.33D-05 at cycle   6 NSaved=   6.
 NSaved= 6 IEnMin= 6 EnMin= -1543.12746035912     IErMin= 6 ErrMin= 9.33D-05
 ErrMax= 9.33D-05  0.00D+00 EMaxC= 1.00D-01 BMatC= 1.79D-05 BMatP= 1.04D-04
 IDIUse=1 WtCom= 1.00D+00 WtEn= 0.00D+00
 Coeff-Com:  0.164D-02-0.892D-02-0.385D-01-0.658D-01 0.209D+00 0.902D+00
 Coeff:      0.164D-02-0.892D-02-0.385D-01-0.658D-01 0.209D+00 0.902D+00
 Gap=     0.277 Goal=   None    Shift=    0.000
 RMSDP=8.83D-05 MaxDP=4.17D-03 DE=-2.36D-04 OVMax= 2.70D-03

 Cycle   7  Pass 1  IDiag  1:
 RMSU=  6.16D-05    CP:  5.51D-01  9.89D-01  8.80D-01  1.06D+00  1.08D+00
                    CP:  1.11D+00
 E= -1543.12749957475     Delta-E=       -0.000039215626 Rises=F Damp=F
 DIIS: error= 3.45D-05 at cycle   7 NSaved=   7.
 NSaved= 7 IEnMin= 7 EnMin= -1543.12749957475     IErMin= 7 ErrMin= 3.45D-05
 ErrMax= 3.45D-05  0.00D+00 EMaxC= 1.00D-01 BMatC= 2.23D-06 BMatP= 1.79D-05
 IDIUse=1 WtCom= 1.00D+00 WtEn= 0.00D+00
 Coeff-Com:  0.281D-03 0.100D-02 0.133D-02-0.289D-01-0.804D-01 0.941D-01
 Coeff-Com:  0.101D+01
 Coeff:      0.281D-03 0.100D-02 0.133D-02-0.289D-01-0.804D-01 0.941D-01
 Coeff:      0.101D+01
 Gap=     0.277 Goal=   None    Shift=    0.000
 RMSDP=4.20D-05 MaxDP=2.33D-03 DE=-3.92D-05 OVMax= 1.66D-03

 Cycle   8  Pass 1  IDiag  1:
 RMSU=  2.36D-05    CP:  5.51D-01  9.89D-01  8.81D-01  1.07D+00  1.10D+00
                    CP:  1.25D+00  1.26D+00
 E= -1543.12750729054     Delta-E=       -0.000007715787 Rises=F Damp=F
 DIIS: error= 2.60D-05 at cycle   8 NSaved=   8.
 NSaved= 8 IEnMin= 8 EnMin= -1543.12750729054     IErMin= 8 ErrMin= 2.60D-05
 ErrMax= 2.60D-05  0.00D+00 EMaxC= 1.00D-01 BMatC= 4.30D-07 BMatP= 2.23D-06
 IDIUse=1 WtCom= 1.00D+00 WtEn= 0.00D+00
 Coeff-Com: -0.274D-03 0.138D-02 0.690D-02 0.124D-01-0.176D-01-0.184D+00
 Coeff-Com: -0.587D-01 0.124D+01
 Coeff:     -0.274D-03 0.138D-02 0.690D-02 0.124D-01-0.176D-01-0.184D+00
 Coeff:     -0.587D-01 0.124D+01
 Gap=     0.277 Goal=   None    Shift=    0.000
 RMSDP=2.09D-05 MaxDP=1.02D-03 DE=-7.72D-06 OVMax= 9.49D-04

 Cycle   9  Pass 1  IDiag  1:
 RMSU=  1.06D-05    CP:  5.51D-01  9.89D-01  8.81D-01  1.07D+00  1.11D+00
                    CP:  1.29D+00  1.48D+00  1.33D+00
 E= -1543.12750936343     Delta-E=       -0.000002072889 Rises=F Damp=F
 DIIS: error= 8.51D-06 at cycle   9 NSaved=   9.
 NSaved= 9 IEnMin= 9 EnMin= -1543.12750936343     IErMin= 9 ErrMin= 8.51D-06
 ErrMax= 8.51D-06  0.00D+00 EMaxC= 1.00D-01 BMatC= 8.12D-08 BMatP= 4.30D-07
 IDIUse=1 WtCom= 1.00D+00 WtEn= 0.00D+00
 Coeff-Com: -0.805D-04 0.348D-04 0.798D-03 0.613D-02 0.105D-01-0.432D-01
 Coeff-Com: -0.155D+00 0.169D+00 0.101D+01
 Coeff:     -0.805D-04 0.348D-04 0.798D-03 0.613D-02 0.105D-01-0.432D-01
 Coeff:     -0.155D+00 0.169D+00 0.101D+01
 Gap=     0.277 Goal=   None    Shift=    0.000
 RMSDP=8.23D-06 MaxDP=3.84D-04 DE=-2.07D-06 OVMax= 3.60D-04

 Cycle  10  Pass 1  IDiag  1:
 RMSU=  4.59D-06    CP:  5.51D-01  9.89D-01  8.82D-01  1.07D+00  1.11D+00
                    CP:  1.29D+00  1.54D+00  1.52D+00  1.25D+00
 E= -1543.12750976359     Delta-E=       -0.000000400167 Rises=F Damp=F
 DIIS: error= 6.94D-06 at cycle  10 NSaved=  10.
 NSaved=10 IEnMin=10 EnMin= -1543.12750976359     IErMin=10 ErrMin= 6.94D-06
 ErrMax= 6.94D-06  0.00D+00 EMaxC= 1.00D-01 BMatC= 1.95D-08 BMatP= 8.12D-08
 IDIUse=1 WtCom= 1.00D+00 WtEn= 0.00D+00
 Coeff-Com:  0.702D-04-0.374D-03-0.184D-02-0.307D-02 0.426D-02 0.475D-01
 Coeff-Com:  0.228D-01-0.317D+00-0.991D-01 0.135D+01
 Coeff:      0.702D-04-0.374D-03-0.184D-02-0.307D-02 0.426D-02 0.475D-01
 Coeff:      0.228D-01-0.317D+00-0.991D-01 0.135D+01
 Gap=     0.277 Goal=   None    Shift=    0.000
 RMSDP=5.41D-06 MaxDP=2.04D-04 DE=-4.00D-07 OVMax= 2.42D-04

 Cycle  11  Pass 1  IDiag  1:
 RMSU=  2.48D-06    CP:  5.51D-01  9.89D-01  8.82D-01  1.07D+00  1.11D+00
                    CP:  1.30D+00  1.56D+00  1.61D+00  1.57D+00  1.46D+00
 E= -1543.12750989677     Delta-E=       -0.000000133177 Rises=F Damp=F
 DIIS: error= 1.32D-06 at cycle  11 NSaved=  11.
 NSaved=11 IEnMin=11 EnMin= -1543.12750989677     IErMin=11 ErrMin= 1.32D-06
 ErrMax= 1.32D-06  0.00D+00 EMaxC= 1.00D-01 BMatC= 3.61D-09 BMatP= 1.95D-08
 IDIUse=1 WtCom= 1.00D+00 WtEn= 0.00D+00
 Coeff-Com:  0.257D-04-0.668D-04-0.434D-03-0.144D-02-0.173D-02 0.143D-01
 Coeff-Com:  0.337D-01-0.704D-01-0.243D+00 0.217D+00 0.105D+01
 Coeff:      0.257D-04-0.668D-04-0.434D-03-0.144D-02-0.173D-02 0.143D-01
 Coeff:      0.337D-01-0.704D-01-0.243D+00 0.217D+00 0.105D+01
 Gap=     0.277 Goal=   None    Shift=    0.000
 RMSDP=2.30D-06 MaxDP=1.31D-04 DE=-1.33D-07 OVMax= 8.59D-05

 Cycle  12  Pass 1  IDiag  1:
 RMSU=  9.25D-07    CP:  5.51D-01  9.89D-01  8.82D-01  1.07D+00  1.11D+00
                    CP:  1.30D+00  1.57D+00  1.63D+00  1.66D+00  1.74D+00
                    CP:  1.28D+00
 E= -1543.12750991467     Delta-E=       -0.000000017902 Rises=F Damp=F
 DIIS: error= 6.38D-07 at cycle  12 NSaved=  12.
 NSaved=12 IEnMin=12 EnMin= -1543.12750991467     IErMin=12 ErrMin= 6.38D-07
 ErrMax= 6.38D-07  0.00D+00 EMaxC= 1.00D-01 BMatC= 5.36D-10 BMatP= 3.61D-09
 IDIUse=1 WtCom= 1.00D+00 WtEn= 0.00D+00
 Coeff-Com: -0.431D-05 0.392D-04 0.171D-03 0.241D-03-0.105D-02-0.420D-02
 Coeff-Com:  0.370D-02 0.374D-01-0.450D-01-0.161D+00 0.206D+00 0.963D+00
 Coeff:     -0.431D-05 0.392D-04 0.171D-03 0.241D-03-0.105D-02-0.420D-02
 Coeff:      0.370D-02 0.374D-01-0.450D-01-0.161D+00 0.206D+00 0.963D+00
 Gap=     0.277 Goal=   None    Shift=    0.000
 RMSDP=7.27D-07 MaxDP=5.17D-05 DE=-1.79D-08 OVMax= 2.61D-05

 Cycle  13  Pass 1  IDiag  1:
 RMSU=  3.88D-07    CP:  5.51D-01  9.89D-01  8.82D-01  1.07D+00  1.11D+00
                    CP:  1.30D+00  1.57D+00  1.64D+00  1.68D+00  1.80D+00
                    CP:  1.44D+00  1.20D+00
 E= -1543.12750991646     Delta-E=       -0.000000001785 Rises=F Damp=F
 DIIS: error= 2.01D-07 at cycle  13 NSaved=  13.
 NSaved=13 IEnMin=13 EnMin= -1543.12750991646     IErMin=13 ErrMin= 2.01D-07
 ErrMax= 2.01D-07  0.00D+00 EMaxC= 1.00D-01 BMatC= 6.82D-11 BMatP= 5.36D-10
 IDIUse=1 WtCom= 1.00D+00 WtEn= 0.00D+00
 Coeff-Com: -0.455D-05 0.154D-04 0.866D-04 0.296D-03 0.621D-04-0.275D-02
 Coeff-Com: -0.522D-02 0.158D-01 0.296D-01-0.451D-01-0.137D+00 0.109D+00
 Coeff-Com:  0.104D+01
 Coeff:     -0.455D-05 0.154D-04 0.866D-04 0.296D-03 0.621D-04-0.275D-02
 Coeff:     -0.522D-02 0.158D-01 0.296D-01-0.451D-01-0.137D+00 0.109D+00
 Coeff:      0.104D+01
 Gap=     0.277 Goal=   None    Shift=    0.000
 RMSDP=2.63D-07 MaxDP=1.71D-05 DE=-1.79D-09 OVMax= 8.32D-06

 Cycle  14  Pass 1  IDiag  1:
 RMSU=  1.47D-07    CP:  5.51D-01  9.89D-01  8.82D-01  1.07D+00  1.11D+00
                    CP:  1.30D+00  1.57D+00  1.64D+00  1.68D+00  1.81D+00
                    CP:  1.47D+00  1.29D+00  1.25D+00
 E= -1543.12750991672     Delta-E=       -0.000000000267 Rises=F Damp=F
 DIIS: error= 1.17D-07 at cycle  14 NSaved=  14.
 NSaved=14 IEnMin=14 EnMin= -1543.12750991672     IErMin=14 ErrMin= 1.17D-07
 ErrMax= 1.17D-07  0.00D+00 EMaxC= 1.00D-01 BMatC= 1.01D-11 BMatP= 6.82D-11
 IDIUse=1 WtCom= 1.00D+00 WtEn= 0.00D+00
 Coeff-Com:  0.101D-05-0.647D-05-0.316D-04-0.548D-04 0.876D-04 0.910D-03
 Coeff-Com:  0.137D-03-0.627D-02 0.177D-02 0.269D-01-0.134D-01-0.129D+00
 Coeff-Com: -0.123D+00 0.124D+01
 Coeff:      0.101D-05-0.647D-05-0.316D-04-0.548D-04 0.876D-04 0.910D-03
 Coeff:      0.137D-03-0.627D-02 0.177D-02 0.269D-01-0.134D-01-0.129D+00
 Coeff:     -0.123D+00 0.124D+01
 Gap=     0.277 Goal=   None    Shift=    0.000
 RMSDP=1.08D-07 MaxDP=4.12D-06 DE=-2.67D-10 OVMax= 4.25D-06

 Cycle  15  Pass 1  IDiag  1:
 RMSU=  6.89D-08    CP:  5.51D-01  9.89D-01  8.82D-01  1.07D+00  1.11D+00
                    CP:  1.30D+00  1.57D+00  1.64D+00  1.68D+00  1.81D+00
                    CP:  1.47D+00  1.32D+00  1.42D+00  1.26D+00
 E= -1543.12750991676     Delta-E=       -0.000000000031 Rises=F Damp=F
 DIIS: error= 5.66D-08 at cycle  15 NSaved=  15.
 NSaved=15 IEnMin=15 EnMin= -1543.12750991676     IErMin=15 ErrMin= 5.66D-08
 ErrMax= 5.66D-08  0.00D+00 EMaxC= 1.00D-01 BMatC= 2.24D-12 BMatP= 1.01D-11
 IDIUse=1 WtCom= 1.00D+00 WtEn= 0.00D+00
 Coeff-Com:  0.752D-06-0.236D-05-0.135D-04-0.498D-04-0.267D-04 0.456D-03
 Coeff-Com:  0.971D-03-0.250D-02-0.634D-02 0.664D-02 0.274D-01-0.864D-02
 Coeff-Com: -0.211D+00-0.520D-01 0.125D+01
 Coeff:      0.752D-06-0.236D-05-0.135D-04-0.498D-04-0.267D-04 0.456D-03
 Coeff:      0.971D-03-0.250D-02-0.634D-02 0.664D-02 0.274D-01-0.864D-02
 Coeff:     -0.211D+00-0.520D-01 0.125D+01
 Gap=     0.277 Goal=   None    Shift=    0.000
 RMSDP=5.89D-08 MaxDP=3.17D-06 DE=-3.09D-11 OVMax= 2.43D-06

 Cycle  16  Pass 1  IDiag  1:
 RMSU=  2.62D-08    CP:  5.51D-01  9.89D-01  8.82D-01  1.07D+00  1.11D+00
                    CP:  1.30D+00  1.57D+00  1.64D+00  1.68D+00  1.81D+00
                    CP:  1.47D+00  1.32D+00  1.47D+00  1.41D+00  1.50D+00
 E= -1543.12750991675     Delta-E=        0.000000000001 Rises=F Damp=F
 DIIS: error= 2.73D-08 at cycle  16 NSaved=  16.
 NSaved=16 IEnMin=15 EnMin= -1543.12750991676     IErMin=16 ErrMin= 2.73D-08
 ErrMax= 2.73D-08  0.00D+00 EMaxC= 1.00D-01 BMatC= 3.50D-13 BMatP= 2.24D-12
 IDIUse=1 WtCom= 1.00D+00 WtEn= 0.00D+00
 Coeff-Com: -0.310D-06 0.173D-05 0.893D-05 0.181D-04-0.168D-04-0.265D-03
 Coeff-Com: -0.121D-03 0.177D-02 0.285D-03-0.673D-02 0.179D-03 0.313D-01
 Coeff-Com:  0.469D-01-0.251D+00-0.159D+00 0.134D+01
 Coeff:     -0.310D-06 0.173D-05 0.893D-05 0.181D-04-0.168D-04-0.265D-03
 Coeff:     -0.121D-03 0.177D-02 0.285D-03-0.673D-02 0.179D-03 0.313D-01
 Coeff:      0.469D-01-0.251D+00-0.159D+00 0.134D+01
 Gap=     0.277 Goal=   None    Shift=    0.000
 RMSDP=2.77D-08 MaxDP=1.59D-06 DE= 9.09D-13 OVMax= 1.13D-06

 Cycle  17  Pass 1  IDiag  1:
 RMSU=  1.09D-08    CP:  5.51D-01  9.89D-01  8.82D-01  1.07D+00  1.11D+00
                    CP:  1.30D+00  1.57D+00  1.64D+00  1.68D+00  1.82D+00
                    CP:  1.47D+00  1.32D+00  1.48D+00  1.41D+00  1.75D+00
                    CP:  1.46D+00
 E= -1543.12750991674     Delta-E=        0.000000000015 Rises=F Damp=F
 DIIS: error= 4.15D-09 at cycle  17 NSaved=  17.
 NSaved=17 IEnMin=15 EnMin= -1543.12750991676     IErMin=17 ErrMin= 4.15D-09
 ErrMax= 4.15D-09  0.00D+00 EMaxC= 1.00D-01 BMatC= 3.66D-14 BMatP= 3.50D-13
 IDIUse=1 WtCom= 1.00D+00 WtEn= 0.00D+00
 Coeff-Com: -0.112D-06 0.437D-06 0.251D-05 0.742D-05 0.267D-05-0.851D-04
 Coeff-Com: -0.127D-03 0.473D-03 0.803D-03-0.157D-02-0.320D-02 0.430D-02
 Coeff-Com:  0.297D-01-0.207D-01-0.163D+00 0.138D+00 0.101D+01
 Coeff:     -0.112D-06 0.437D-06 0.251D-05 0.742D-05 0.267D-05-0.851D-04
 Coeff:     -0.127D-03 0.473D-03 0.803D-03-0.157D-02-0.320D-02 0.430D-02
 Coeff:      0.297D-01-0.207D-01-0.163D+00 0.138D+00 0.101D+01
 Gap=     0.277 Goal=   None    Shift=    0.000
 RMSDP=6.60D-09 MaxDP=2.51D-07 DE= 1.46D-11 OVMax= 2.45D-07

 SCF Done:  E(RHF) =  -1543.12750992     A.U. after   17 cycles
            NFock= 17  Conv=0.66D-08     -V/T= 2.0005
 KE= 1.542371423343D+03 PE=-6.957311971156D+03 EE= 2.203282983171D+03
 Leave Link  502 at Sun Jul 18 15:17:25 2021, MaxMem=   262144000 cpu:            4426.3 elap:            1109.3
 (Enter /prod/apps/gaussian/g16b1/l801.exe)
 ExpMin= 2.97D-02 ExpMax= 1.28D+05 ExpMxC= 1.24D+03 IAcc=3 IRadAn=         5 AccDes= 0.00D+00
 HarFok:  IExCor=  205 AccDes= 0.00D+00 IRadAn=         5 IDoV=-2 UseB2=F ITyADJ=14
 ICtDFT= 12500011 ScaDFX=  1.000000  1.000000  1.000000  1.000000
 GSVD:  LWork=        -945 too small for GESVD, short by        4050 words or        4050 for optimal perf.
 Largest valence mixing into a core orbital is  3.28D-04
 Largest core mixing into a valence orbital is  8.69D-05
 Range of M.O.s used for correlation:    28   588
 NBasis=   589 NAE=    76 NBE=    76 NFC=    27 NFV=     0
 NROrb=    561 NOA=    49 NOB=    49 NVA=   512 NVB=   512

 **** Warning!!: The largest alpha MO coefficient is  0.96111383D+02

 Leave Link  801 at Sun Jul 18 15:17:25 2021, MaxMem=   262144000 cpu:               1.0 elap:               0.3
 (Enter /prod/apps/gaussian/g16b1/l906.exe)
 FulOut=F Deriv=F AODrv=F NAtomX=    35
   MMem=           3  MDisk=          49 MDiskD=          49
  W3Min=    15730176 MinDsk=    16236966 NBas6D=         627
 NBas2D=      197721    NTT=      196878    LW2=     2000000
    MDV=   259612280 MDiskM=        5706 NBas2p=      184718
 Disk-based method using OVN memory for 49 occupieds at a time.
 Estimated scratch disk usage= 14161701888 words.
 IMap=   1   2   3   4   5   6   7   8   9  10  11  12  13  14  15  16  17  18  19  20
 IMap=  21  22  23  24  25  26  27  28  29  30  31  32  33  34  35  36  37  38  39  40
 IMap=  41  42  43  44  45  46  47  48  49
 Actual    scratch disk usage= 13938971136 words.
 JobTyp=1 Pass  1:  I=   1 to  49 NPSUse=  4 ParTrn=T ParDer=T DoDerP=F.
