 Entering Gaussian System, Link 0=g16
 Initial command:
 /prod/apps/gaussian/g16b1/l1.exe "/tmp/ubator02/1839661/Gau-189652.inp" -scrdir="/tmp/ubator02/1839661/"
 Entering Link 1 = /prod/apps/gaussian/g16b1/l1.exe PID=    189653.
  
 Copyright (c) 1988-2017, Gaussian, Inc.  All Rights Reserved.
  
 This is part of the Gaussian(R) 16 program.  It is based on
 the Gaussian(R) 09 system (copyright 2009, Gaussian, Inc.),
 the Gaussian(R) 03 system (copyright 2003, Gaussian, Inc.),
 the Gaussian(R) 98 system (copyright 1998, Gaussian, Inc.),
 the Gaussian(R) 94 system (copyright 1995, Gaussian, Inc.),
 the Gaussian 92(TM) system (copyright 1992, Gaussian, Inc.),
 the Gaussian 90(TM) system (copyright 1990, Gaussian, Inc.),
 the Gaussian 88(TM) system (copyright 1988, Gaussian, Inc.),
 the Gaussian 86(TM) system (copyright 1986, Carnegie Mellon
 University), and the Gaussian 82(TM) system (copyright 1983,
 Carnegie Mellon University). Gaussian is a federally registered
 trademark of Gaussian, Inc.
  
 This software contains proprietary and confidential information,
 including trade secrets, belonging to Gaussian, Inc.
  
 This software is provided under written license and may be
 used, copied, transmitted, or stored only in accord with that
 written license.
  
 The following legend is applicable only to US Government
 contracts under FAR:
  
                    RESTRICTED RIGHTS LEGEND
  
 Use, reproduction and disclosure by the US Government is
 subject to restrictions as set forth in subparagraphs (a)
 and (c) of the Commercial Computer Software - Restricted
 Rights clause in FAR 52.227-19.
  
 Gaussian, Inc.
 340 Quinnipiac St., Bldg. 40, Wallingford CT 06492
  
  
 ---------------------------------------------------------------
 Warning -- This program may not be used in any manner that
 competes with the business of Gaussian, Inc. or will provide
 assistance to any competitor of Gaussian, Inc.  The licensee
 of this program is prohibited from giving any competitor of
 Gaussian, Inc. access to this program.  By using this program,
 the user acknowledges that Gaussian, Inc. is engaged in the
 business of creating and licensing software in the field of
 computational chemistry and represents and warrants to the
 licensee that it is not a competitor of Gaussian, Inc. and that
 it will not use this program in any manner prohibited above.
 ---------------------------------------------------------------
  

 Cite this work as:
 Gaussian 16, Revision B.01,
 M. J. Frisch, G. W. Trucks, H. B. Schlegel, G. E. Scuseria, 
 M. A. Robb, J. R. Cheeseman, G. Scalmani, V. Barone, 
 G. A. Petersson, H. Nakatsuji, X. Li, M. Caricato, A. V. Marenich, 
 J. Bloino, B. G. Janesko, R. Gomperts, B. Mennucci, H. P. Hratchian, 
 J. V. Ortiz, A. F. Izmaylov, J. L. Sonnenberg, D. Williams-Young, 
 F. Ding, F. Lipparini, F. Egidi, J. Goings, B. Peng, A. Petrone, 
 T. Henderson, D. Ranasinghe, V. G. Zakrzewski, J. Gao, N. Rega, 
 G. Zheng, W. Liang, M. Hada, M. Ehara, K. Toyota, R. Fukuda, 
 J. Hasegawa, M. Ishida, T. Nakajima, Y. Honda, O. Kitao, H. Nakai, 
 T. Vreven, K. Throssell, J. A. Montgomery, Jr., J. E. Peralta, 
 F. Ogliaro, M. J. Bearpark, J. J. Heyd, E. N. Brothers, K. N. Kudin, 
 V. N. Staroverov, T. A. Keith, R. Kobayashi, J. Normand, 
 K. Raghavachari, A. P. Rendell, J. C. Burant, S. S. Iyengar, 
 J. Tomasi, M. Cossi, J. M. Millam, M. Klene, C. Adamo, R. Cammi, 
 J. W. Ochterski, R. L. Martin, K. Morokuma, O. Farkas, 
 J. B. Foresman, and D. J. Fox, Gaussian, Inc., Wallingford CT, 2016.
 
 ******************************************
 Gaussian 16:  ES64L-G16RevB.01 20-Dec-2017
                18-Jul-2021 
 ******************************************
 %mem=800MB
 %nproc=4
 Will use up to    4 processors via shared memory.
 %chk=SET_328_BBB321_conf1.geo_165_210_060.chk
 -----------------------------------------------------------
 #p b3lyp/6-31G(d) opt freq scrf=(iefpcm,read,solvent=water)
 -----------------------------------------------------------
 1/18=20,19=15,26=3,38=1,40=2/1,3;
 2/9=110,12=2,17=6,18=5,40=1/2;
 3/5=1,6=6,7=1,11=2,25=1,30=1,70=2203,71=1,72=1,74=-5/1,2,3;
 4//1;
 5/5=2,38=5,53=1/2;
 6/7=2,8=2,9=2,10=2,28=1/1;
 7//1,2,3,16;
 1/18=20,19=15,26=3/3(2);
 2/9=110/2;
 99//99;
 2/9=110/2;
 3/5=1,6=6,7=1,11=2,25=1,30=1,70=2205,71=1,72=1,74=-5/1,2,3;
 4/5=5,16=3,69=1/1;
 5/5=2,38=5,53=1/2;
 7//1,2,3,16;
 1/18=20,19=15,26=3/3(-5);
 2/9=110/2;
 6/7=2,8=2,9=2,10=2,19=2,28=1/1;
 99/9=1/99;
 Leave Link    1 at Sun Jul 18 15:19:26 2021, MaxMem=   104857600 cpu:               0.1 elap:               0.0
 (Enter /prod/apps/gaussian/g16b1/l101.exe)
 ---------------------------------------------
 SET_328_BBB321_conf1.geo_165_210_060 geometry
 ---------------------------------------------
 Symbolic Z-matrix:
 Charge =  1 Multiplicity = 1
 C                     1.11     -5.212     2.624 
 H                     1.201    -5.654     1.63 
 H                     0.349    -5.604     3.302 
 H                     2.067    -5.344     3.133 
 C                     0.995    -3.782     2.34 
 O                     1.94     -3.052     2.279 
 N                    -0.226    -3.391     1.957 
 H                    -0.939    -4.104     1.941 
 C                    -0.632    -2.096     1.574 
 C                    -1.698    -1.544     2.312 
 C                    -2.243    -0.329     1.887 
 C                    -1.619     0.37      0.789 
 H                    -2.171     1.236     0.432 
 H                    -3.014     0.221     2.421 
 H                    -2.253    -2.024     3.115 
 C                    -0.041    -1.445     0.491 
 H                     0.74     -1.922    -0.096 
 C                    -0.507    -0.158     0.1 
 C                     0.011     0.541    -1.06 
 N                     0.089     1.91     -1.243 
 C                     0.415    -0.181    -2.159 
 H                     0.364    -1.226    -2.442 
 S                     1.043     0.841    -3.422 
 C                     0.611     2.278    -2.438 
 N                     0.779     3.507    -2.977 
 C                     0.17      4.455    -2.3 
 N                     0.924     5.256    -1.619 
 H                     0.33      6.016    -1.307 
 H                     1.369     4.652    -0.936 
 N                     0.08      5.376    -3.13 
 H                     1.066     5.551    -3.291 
 H                    -0.312     4.857    -3.907 
 H                     1.312     3.677    -3.806 
 
 ITRead=  0  0  0  0  0  0  0  0  0  0  0  0  0  0  0  0  0  0  0  0
 ITRead=  0  0  0  0  0  0  0  0  0  0  0  0  0
 MicOpt= -1 -1 -1 -1 -1 -1 -1 -1 -1 -1 -1 -1 -1 -1 -1 -1 -1 -1 -1 -1
 MicOpt= -1 -1 -1 -1 -1 -1 -1 -1 -1 -1 -1 -1 -1
 NAtoms=     33 NQM=       33 NQMF=       0 NMMI=      0 NMMIF=      0
                NMic=       0 NMicF=      0.
                    Isotopes and Nuclear Properties:
 (Nuclear quadrupole moments (NQMom) in fm**2, nuclear magnetic moments (NMagM)
  in nuclear magnetons)

  Atom         1           2           3           4           5           6           7           8           9          10
 IAtWgt=          12           1           1           1          12          16          14           1          12          12
 AtmWgt=  12.0000000   1.0078250   1.0078250   1.0078250  12.0000000  15.9949146  14.0030740   1.0078250  12.0000000  12.0000000
 NucSpn=           0           1           1           1           0           0           2           1           0           0
 AtZEff=  -0.0000000  -0.0000000  -0.0000000  -0.0000000  -0.0000000  -0.0000000  -0.0000000  -0.0000000  -0.0000000  -0.0000000
 NQMom=    0.0000000   0.0000000   0.0000000   0.0000000   0.0000000   0.0000000   2.0440000   0.0000000   0.0000000   0.0000000
 NMagM=    0.0000000   2.7928460   2.7928460   2.7928460   0.0000000   0.0000000   0.4037610   2.7928460   0.0000000   0.0000000
 AtZNuc=   6.0000000   1.0000000   1.0000000   1.0000000   6.0000000   8.0000000   7.0000000   1.0000000   6.0000000   6.0000000

  Atom        11          12          13          14          15          16          17          18          19          20
 IAtWgt=          12          12           1           1           1          12           1          12          12          14
 AtmWgt=  12.0000000  12.0000000   1.0078250   1.0078250   1.0078250  12.0000000   1.0078250  12.0000000  12.0000000  14.0030740
 NucSpn=           0           0           1           1           1           0           1           0           0           2
 AtZEff=  -0.0000000  -0.0000000  -0.0000000  -0.0000000  -0.0000000  -0.0000000  -0.0000000  -0.0000000  -0.0000000  -0.0000000
 NQMom=    0.0000000   0.0000000   0.0000000   0.0000000   0.0000000   0.0000000   0.0000000   0.0000000   0.0000000   2.0440000
 NMagM=    0.0000000   0.0000000   2.7928460   2.7928460   2.7928460   0.0000000   2.7928460   0.0000000   0.0000000   0.4037610
 AtZNuc=   6.0000000   6.0000000   1.0000000   1.0000000   1.0000000   6.0000000   1.0000000   6.0000000   6.0000000   7.0000000

  Atom        21          22          23          24          25          26          27          28          29          30
 IAtWgt=          12           1          32          12          14          12          14           1           1          14
 AtmWgt=  12.0000000   1.0078250  31.9720718  12.0000000  14.0030740  12.0000000  14.0030740   1.0078250   1.0078250  14.0030740
 NucSpn=           0           1           0           0           2           0           2           1           1           2
 AtZEff=  -0.0000000  -0.0000000  -0.0000000  -0.0000000  -0.0000000  -0.0000000  -0.0000000  -0.0000000  -0.0000000  -0.0000000
 NQMom=    0.0000000   0.0000000   0.0000000   0.0000000   2.0440000   0.0000000   2.0440000   0.0000000   0.0000000   2.0440000
 NMagM=    0.0000000   2.7928460   0.0000000   0.0000000   0.4037610   0.0000000   0.4037610   2.7928460   2.7928460   0.4037610
 AtZNuc=   6.0000000   1.0000000  16.0000000   6.0000000   7.0000000   6.0000000   7.0000000   1.0000000   1.0000000   7.0000000

  Atom        31          32          33
 IAtWgt=           1           1           1
 AtmWgt=   1.0078250   1.0078250   1.0078250
 NucSpn=           1           1           1
 AtZEff=  -0.0000000  -0.0000000  -0.0000000
 NQMom=    0.0000000   0.0000000   0.0000000
 NMagM=    2.7928460   2.7928460   2.7928460
 AtZNuc=   1.0000000   1.0000000   1.0000000
 Leave Link  101 at Sun Jul 18 15:19:26 2021, MaxMem=   104857600 cpu:               0.5 elap:               0.1
 (Enter /prod/apps/gaussian/g16b1/l103.exe)

 GradGradGradGradGradGradGradGradGradGradGradGradGradGradGradGradGradGrad
 Berny optimization.
 Initialization pass.
                           ----------------------------
                           !    Initial Parameters    !
                           ! (Angstroms and Degrees)  !
 --------------------------                            --------------------------
 ! Name  Definition              Value          Derivative Info.                !
 --------------------------------------------------------------------------------
 ! R1    R(1,2)                  1.0916         estimate D2E/DX2                !
 ! R2    R(1,3)                  1.092          estimate D2E/DX2                !
 ! R3    R(1,4)                  1.0919         estimate D2E/DX2                !
 ! R4    R(1,5)                  1.4625         estimate D2E/DX2                !
 ! R5    R(5,6)                  1.1957         estimate D2E/DX2                !
 ! R6    R(5,7)                  1.3381         estimate D2E/DX2                !
 ! R7    R(7,8)                  1.0085         estimate D2E/DX2                !
 ! R8    R(7,9)                  1.4102         estimate D2E/DX2                !
 ! R9    R(9,10)                 1.4092         estimate D2E/DX2                !
 ! R10   R(9,16)                 1.395          estimate D2E/DX2                !
 ! R11   R(10,11)                1.3978         estimate D2E/DX2                !
 ! R12   R(10,15)                1.0878         estimate D2E/DX2                !
 ! R13   R(11,12)                1.4435         estimate D2E/DX2                !
 ! R14   R(11,14)                1.0872         estimate D2E/DX2                !
 ! R15   R(12,13)                1.0872         estimate D2E/DX2                !
 ! R16   R(12,18)                1.4107         estimate D2E/DX2                !
 ! R17   R(16,17)                1.0872         estimate D2E/DX2                !
 ! R18   R(16,18)                1.4235         estimate D2E/DX2                !
 ! R19   R(18,19)                1.45           estimate D2E/DX2                !
 ! R20   R(19,20)                1.3834         estimate D2E/DX2                !
 ! R21   R(19,21)                1.3756         estimate D2E/DX2                !
 ! R22   R(20,24)                1.355          estimate D2E/DX2                !
 ! R23   R(21,22)                1.0838         estimate D2E/DX2                !
 ! R24   R(21,23)                1.7418         estimate D2E/DX2                !
 ! R25   R(23,24)                1.7944         estimate D2E/DX2                !
 ! R26   R(24,25)                1.3525         estimate D2E/DX2                !
 ! R27   R(25,26)                1.3145         estimate D2E/DX2                !
 ! R28   R(25,33)                1.0001         estimate D2E/DX2                !
 ! R29   R(26,27)                1.2938         estimate D2E/DX2                !
 ! R30   R(26,30)                1.2431         estimate D2E/DX2                !
 ! R31   R(27,28)                1.0138         estimate D2E/DX2                !
 ! R32   R(27,29)                1.0146         estimate D2E/DX2                !
 ! R33   R(30,31)                1.0143         estimate D2E/DX2                !
 ! R34   R(30,32)                1.0133         estimate D2E/DX2                !
 ! A1    A(2,1,3)              118.5607         estimate D2E/DX2                !
 ! A2    A(2,1,4)              107.6043         estimate D2E/DX2                !
 ! A3    A(2,1,5)              103.0405         estimate D2E/DX2                !
 ! A4    A(3,1,4)              106.1379         estimate D2E/DX2                !
 ! A5    A(3,1,5)              114.6313         estimate D2E/DX2                !
 ! A6    A(4,1,5)              106.1194         estimate D2E/DX2                !
 ! A7    A(1,5,6)              123.007          estimate D2E/DX2                !
 ! A8    A(1,5,7)              114.3977         estimate D2E/DX2                !
 ! A9    A(6,5,7)              121.8835         estimate D2E/DX2                !
 ! A10   A(5,7,8)              116.3021         estimate D2E/DX2                !
 ! A11   A(5,7,9)              127.5038         estimate D2E/DX2                !
 ! A12   A(8,7,9)              116.194          estimate D2E/DX2                !
 ! A13   A(7,9,10)             115.8039         estimate D2E/DX2                !
 ! A14   A(7,9,16)             121.161          estimate D2E/DX2                !
 ! A15   A(10,9,16)            122.9754         estimate D2E/DX2                !
 ! A16   A(9,10,11)            118.4381         estimate D2E/DX2                !
 ! A17   A(9,10,15)            126.8507         estimate D2E/DX2                !
 ! A18   A(11,10,15)           114.147          estimate D2E/DX2                !
 ! A19   A(10,11,12)           118.9241         estimate D2E/DX2                !
 ! A20   A(10,11,14)           124.5317         estimate D2E/DX2                !
 ! A21   A(12,11,14)           115.7975         estimate D2E/DX2                !
 ! A22   A(11,12,13)           114.5824         estimate D2E/DX2                !
 ! A23   A(11,12,18)           122.0755         estimate D2E/DX2                !
 ! A24   A(13,12,18)           122.5445         estimate D2E/DX2                !
 ! A25   A(9,16,17)            121.2484         estimate D2E/DX2                !
 ! A26   A(9,16,18)            119.7668         estimate D2E/DX2                !
 ! A27   A(17,16,18)           118.9152         estimate D2E/DX2                !
 ! A28   A(12,18,16)           117.5344         estimate D2E/DX2                !
 ! A29   A(12,18,19)           119.4654         estimate D2E/DX2                !
 ! A30   A(16,18,19)           122.5901         estimate D2E/DX2                !
 ! A31   A(18,19,20)           127.0869         estimate D2E/DX2                !
 ! A32   A(18,19,21)           119.4084         estimate D2E/DX2                !
 ! A33   A(20,19,21)           113.4007         estimate D2E/DX2                !
 ! A34   A(19,20,24)           114.0266         estimate D2E/DX2                !
 ! A35   A(19,21,22)           134.4939         estimate D2E/DX2                !
 ! A36   A(19,21,23)           112.1618         estimate D2E/DX2                !
 ! A37   A(22,21,23)           113.1627         estimate D2E/DX2                !
 ! A38   A(21,23,24)            89.1664         estimate D2E/DX2                !
 ! A39   A(20,24,23)           111.0316         estimate D2E/DX2                !
 ! A40   A(20,24,25)           130.2506         estimate D2E/DX2                !
 ! A41   A(23,24,25)           118.6376         estimate D2E/DX2                !
 ! A42   A(24,25,26)           113.1129         estimate D2E/DX2                !
 ! A43   A(24,25,33)           123.436          estimate D2E/DX2                !
 ! A44   A(26,25,33)           123.4511         estimate D2E/DX2                !
 ! A45   A(25,26,27)           116.5888         estimate D2E/DX2                !
 ! A46   A(25,26,30)           102.9436         estimate D2E/DX2                !
 ! A47   A(27,26,30)            86.2698         estimate D2E/DX2                !
 ! A48   A(26,27,28)           106.5379         estimate D2E/DX2                !
 ! A49   A(26,27,29)           103.9684         estimate D2E/DX2                !
 ! A50   A(28,27,29)           119.7428         estimate D2E/DX2                !
 ! A51   A(26,30,31)            99.4065         estimate D2E/DX2                !
 ! A52   A(26,30,32)            99.2371         estimate D2E/DX2                !
 ! A53   A(31,30,32)           110.0433         estimate D2E/DX2                !
 ! D1    D(2,1,5,6)            -90.838          estimate D2E/DX2                !
 ! D2    D(2,1,5,7)             79.6463         estimate D2E/DX2                !
 ! D3    D(3,1,5,6)            138.9166         estimate D2E/DX2                !
 ! D4    D(3,1,5,7)            -50.5991         estimate D2E/DX2                !
 ! D5    D(4,1,5,6)             22.122          estimate D2E/DX2                !
 ! D6    D(4,1,5,7)           -167.3937         estimate D2E/DX2                !
 ! D7    D(1,5,7,8)              2.4287         estimate D2E/DX2                !
 ! D8    D(1,5,7,9)           -177.6367         estimate D2E/DX2                !
 ! D9    D(6,5,7,8)            173.032          estimate D2E/DX2                !
 ! D10   D(6,5,7,9)             -7.0335         estimate D2E/DX2                !
 ! D11   D(5,7,9,10)          -123.0826         estimate D2E/DX2                !
 ! D12   D(5,7,9,16)            59.6475         estimate D2E/DX2                !
 ! D13   D(8,7,9,10)            56.852          estimate D2E/DX2                !
 ! D14   D(8,7,9,16)          -120.4179         estimate D2E/DX2                !
 ! D15   D(7,9,10,11)         -173.0145         estimate D2E/DX2                !
 ! D16   D(7,9,10,15)           -2.1712         estimate D2E/DX2                !
 ! D17   D(16,9,10,11)           4.2007         estimate D2E/DX2                !
 ! D18   D(16,9,10,15)         175.044          estimate D2E/DX2                !
 ! D19   D(7,9,16,17)            0.7873         estimate D2E/DX2                !
 ! D20   D(7,9,16,18)          177.7199         estimate D2E/DX2                !
 ! D21   D(10,9,16,17)        -176.2827         estimate D2E/DX2                !
 ! D22   D(10,9,16,18)           0.6499         estimate D2E/DX2                !
 ! D23   D(9,10,11,12)          -5.558          estimate D2E/DX2                !
 ! D24   D(9,10,11,14)        -175.224          estimate D2E/DX2                !
 ! D25   D(15,10,11,12)       -177.5362         estimate D2E/DX2                !
 ! D26   D(15,10,11,14)         12.7979         estimate D2E/DX2                !
 ! D27   D(10,11,12,13)        172.391          estimate D2E/DX2                !
 ! D28   D(10,11,12,18)          2.381          estimate D2E/DX2                !
 ! D29   D(14,11,12,13)        -17.0562         estimate D2E/DX2                !
 ! D30   D(14,11,12,18)        172.9337         estimate D2E/DX2                !
 ! D31   D(11,12,18,16)          2.3876         estimate D2E/DX2                !
 ! D32   D(11,12,18,19)        175.2304         estimate D2E/DX2                !
 ! D33   D(13,12,18,16)       -166.8266         estimate D2E/DX2                !
 ! D34   D(13,12,18,19)          6.0162         estimate D2E/DX2                !
 ! D35   D(9,16,18,12)          -3.8642         estimate D2E/DX2                !
 ! D36   D(9,16,18,19)        -176.4669         estimate D2E/DX2                !
 ! D37   D(17,16,18,12)        173.14           estimate D2E/DX2                !
 ! D38   D(17,16,18,19)          0.5373         estimate D2E/DX2                !
 ! D39   D(12,18,19,20)         36.5476         estimate D2E/DX2                !
 ! D40   D(12,18,19,21)       -139.4857         estimate D2E/DX2                !
 ! D41   D(16,18,19,20)       -150.9871         estimate D2E/DX2                !
 ! D42   D(16,18,19,21)         32.9796         estimate D2E/DX2                !
 ! D43   D(18,19,20,24)       -179.4648         estimate D2E/DX2                !
 ! D44   D(21,19,20,24)         -3.2298         estimate D2E/DX2                !
 ! D45   D(18,19,21,22)          6.9467         estimate D2E/DX2                !
 ! D46   D(18,19,21,23)       -178.4358         estimate D2E/DX2                !
 ! D47   D(20,19,21,22)       -169.606          estimate D2E/DX2                !
 ! D48   D(20,19,21,23)          5.0115         estimate D2E/DX2                !
 ! D49   D(19,20,24,23)          0.0125         estimate D2E/DX2                !
 ! D50   D(19,20,24,25)        176.6478         estimate D2E/DX2                !
 ! D51   D(19,21,23,24)         -4.1084         estimate D2E/DX2                !
 ! D52   D(22,21,23,24)        171.7179         estimate D2E/DX2                !
 ! D53   D(21,23,24,20)          2.3242         estimate D2E/DX2                !
 ! D54   D(21,23,24,25)       -174.7503         estimate D2E/DX2                !
 ! D55   D(20,24,25,26)        -10.3825         estimate D2E/DX2                !
 ! D56   D(20,24,25,33)        169.6266         estimate D2E/DX2                !
 ! D57   D(23,24,25,26)        166.039          estimate D2E/DX2                !
 ! D58   D(23,24,25,33)        -13.952          estimate D2E/DX2                !
 ! D59   D(24,25,26,27)        107.6605         estimate D2E/DX2                !
 ! D60   D(24,25,26,30)       -160.0249         estimate D2E/DX2                !
 ! D61   D(33,25,26,27)        -72.3485         estimate D2E/DX2                !
 ! D62   D(33,25,26,30)         19.9661         estimate D2E/DX2                !
 ! D63   D(25,26,27,28)        169.6097         estimate D2E/DX2                !
 ! D64   D(25,26,27,29)        -63.0068         estimate D2E/DX2                !
 ! D65   D(30,26,27,28)         66.9957         estimate D2E/DX2                !
 ! D66   D(30,26,27,29)       -165.6208         estimate D2E/DX2                !
 ! D67   D(25,26,30,31)        -62.4768         estimate D2E/DX2                !
 ! D68   D(25,26,30,32)         49.7892         estimate D2E/DX2                !
 ! D69   D(27,26,30,31)         53.9622         estimate D2E/DX2                !
 ! D70   D(27,26,30,32)        166.2282         estimate D2E/DX2                !
 --------------------------------------------------------------------------------
 Trust Radius=3.00D-01 FncErr=1.00D-07 GrdErr=1.00D-06 EigMax=2.50D+02 EigMin=1.00D-04
 Number of steps in this run=    167 maximum allowed number of steps=    198.
 GradGradGradGradGradGradGradGradGradGradGradGradGradGradGradGradGradGrad

 Leave Link  103 at Sun Jul 18 15:19:26 2021, MaxMem=   104857600 cpu:               0.1 elap:               0.0
 (Enter /prod/apps/gaussian/g16b1/l202.exe)
                          Input orientation:                          
 ---------------------------------------------------------------------
 Center     Atomic      Atomic             Coordinates (Angstroms)
 Number     Number       Type             X           Y           Z
 ---------------------------------------------------------------------
      1          6           0        1.110000   -5.212000    2.624000
      2          1           0        1.201000   -5.654000    1.630000
      3          1           0        0.349000   -5.604000    3.302000
      4          1           0        2.067000   -5.344000    3.133000
      5          6           0        0.995000   -3.782000    2.340000
      6          8           0        1.940000   -3.052000    2.279000
      7          7           0       -0.226000   -3.391000    1.957000
      8          1           0       -0.939000   -4.104000    1.941000
      9          6           0       -0.632000   -2.096000    1.574000
     10          6           0       -1.698000   -1.544000    2.312000
     11          6           0       -2.243000   -0.329000    1.887000
     12          6           0       -1.619000    0.370000    0.789000
     13          1           0       -2.171000    1.236000    0.432000
     14          1           0       -3.014000    0.221000    2.421000
     15          1           0       -2.253000   -2.024000    3.115000
     16          6           0       -0.041000   -1.445000    0.491000
     17          1           0        0.740000   -1.922000   -0.096000
     18          6           0       -0.507000   -0.158000    0.100000
     19          6           0        0.011000    0.541000   -1.060000
     20          7           0        0.089000    1.910000   -1.243000
     21          6           0        0.415000   -0.181000   -2.159000
     22          1           0        0.364000   -1.226000   -2.442000
     23         16           0        1.043000    0.841000   -3.422000
     24          6           0        0.611000    2.278000   -2.438000
     25          7           0        0.779000    3.507000   -2.977000
     26          6           0        0.170000    4.455000   -2.300000
     27          7           0        0.924000    5.256000   -1.619000
     28          1           0        0.330000    6.016000   -1.307000
     29          1           0        1.369000    4.652000   -0.936000
     30          7           0        0.080000    5.376000   -3.130000
     31          1           0        1.066000    5.551000   -3.291000
     32          1           0       -0.312000    4.857000   -3.907000
     33          1           0        1.312000    3.677000   -3.806000
 ---------------------------------------------------------------------
                    Distance matrix (angstroms):
                    1          2          3          4          5
     1  C    0.000000
     2  H    1.091641   0.000000
     3  H    1.092002   1.877229   0.000000
     4  H    1.091950   1.762119   1.745762   0.000000
     5  C    1.462457   2.012690   2.159269   2.053747   0.000000
     6  O    2.339557   2.781677   3.176557   2.449226   1.195678
     7  N    2.354958   2.695260   2.652738   3.233425   1.338062
     8  H    2.427458   2.660605   2.400264   3.463308   2.000810
     9  C    3.721091   4.002798   4.031676   4.501620   2.465052
    10  C    4.629949   5.075571   4.653376   5.411956   3.501668
    11  C    5.969042   6.346874   6.045355   6.728955   4.755319
    12  C    6.478687   6.704346   6.773247   7.192408   5.145649
    13  H    7.559532   7.763871   7.834086   8.279640   6.232523
    14  H    6.823934   7.273756   6.783550   7.569196   5.665920
    15  H    4.659849   5.226111   4.429647   5.448406   3.773684
    16  C    4.479373   4.533825   5.034988   5.160042   3.154943
    17  H    4.284787   4.137562   5.025575   4.888502   3.075503
    18  C    5.876068   5.955181   6.375300   6.535990   4.517409
    19  C    6.919297   6.857859   7.543362   7.512763   5.587180
    20  N    8.168171   8.167299   8.785489   8.699562   6.786574
    21  C    6.976466   6.702839   7.696480   7.575681   5.791770
    22  H    6.489150   6.073626   7.222233   7.137139   5.458830
    23  S    8.555549   8.229987   9.339799   9.070327   7.387495
    24  C    9.053891   8.933832   9.754085   9.552532   7.726600
    25  N   10.368304  10.262868  11.073439  10.831955   9.024781
    26  C   10.889457  10.894941  11.515117  11.363824   9.489910
    27  N   11.296755  11.386871  11.936769  11.672530   9.867328
    28  H   11.921793  12.065385  12.500706  12.319918  10.475860
    29  H   10.489956  10.621969  11.143903  10.814989   9.055629
    30  N   12.094427  12.065452  12.728055  12.573454  10.706404
    31  H   12.281341  12.238729  12.977510  12.687427  10.900371
    32  H   12.085562  11.976170  12.721601  12.620683  10.740837
    33  H   10.972695  10.799536  11.729791  11.406059   9.670082
                    6          7          8          9         10
     6  O    0.000000
     7  N    2.215888   0.000000
     8  H    3.083762   1.008461   0.000000
     9  C    2.833045   1.410160   2.064219   0.000000
    10  C    3.938299   2.388350   2.695797   1.409150   0.000000
    11  C    5.006584   3.667292   3.994240   2.411551   1.397811
    12  C    5.157195   4.177295   4.669709   2.769756   2.447277
    13  H    6.220826   5.245739   5.684233   3.843814   3.389178
    14  H    5.939260   4.586369   4.820959   3.429260   2.204305
    15  H    4.397378   2.705251   2.726036   2.237746   1.087766
    16  C    3.115085   2.443419   3.158985   1.394981   2.464040
    17  H    2.890938   2.702948   3.424841   2.168308   3.447491
    18  C    4.371623   3.738944   4.375708   2.438062   2.869220
    19  C    5.270637   4.961762   5.611107   3.782218   4.317209
    20  N    6.360199   6.199986   6.882066   4.950087   5.268919
    21  C    5.501283   5.258939   5.833802   4.324202   5.129559
    22  H    5.301499   4.938272   5.402905   4.228140   5.191674
    23  S    6.961427   6.960878   7.559307   6.032546   6.788230
    24  C    7.240527   7.221783   7.893546   6.064080   6.519330
    25  N    8.484924   8.540304   9.223100   7.355007   7.721506
    26  C    8.969682   8.935244   9.616259   7.652887   7.794098
    27  N    9.233067   9.427666  10.185969   8.165065   8.280558
    28  H    9.883325   9.972687  10.703937   8.661995   8.623430
    29  H    8.367430   8.695017   9.501133   7.472590   7.638482
    30  N   10.185679  10.140586  10.799250   8.858067   8.981261
    31  H   10.285931  10.448451  11.163014   9.221065   9.453694
    32  H   10.290305  10.120444  10.718757   8.859344   9.031598
    33  H    9.094012   9.248472   9.931715   8.127181   8.587716
                   11         12         13         14         15
    11  C    0.000000
    12  C    1.443461   0.000000
    13  H    2.138091   1.087248   0.000000
    14  H    1.087243   2.152127   2.386838   0.000000
    15  H    2.093110   3.397568   4.222892   2.469976   0.000000
    16  C    2.836032   2.423451   3.424637   3.916527   3.480454
    17  H    3.920233   3.406078   4.327317   5.002025   4.390783
    18  C    2.497260   1.410691   2.195986   3.437402   3.952303
    19  C    3.810804   2.470818   2.733169   4.622811   5.397735
    20  N    4.499805   3.068858   2.892663   5.089816   6.320877
    21  C    4.843241   3.623736   3.925375   5.735507   6.191119
    22  H    5.132378   4.113255   4.554947   6.095364   6.194009
    23  S    6.352336   5.004059   5.033799   7.140329   7.861565
    24  C    5.800637   4.361983   4.130640   6.401699   7.585876
    25  N    6.892451   5.456549   5.047893   7.370417   8.769119
    26  C    6.800014   5.424912   4.827636   7.095946   8.784680
    27  N    7.315337   6.011515   5.472296   7.561790   9.246755
    28  H    7.555196   6.330018   5.668115   7.659135   9.532448
    29  H    6.769508   5.499027   5.106083   7.079117   8.608046
    30  N    7.944410   6.580669   5.907152   8.182937   9.960066
    31  H    8.505032   7.120280   6.554245   8.813753  10.461034
    32  H    8.012103   6.625242   5.949323   8.296800  10.021184
    33  H    7.816413   6.375032   6.004200   8.332691   9.649397
                   16         17         18         19         20
    16  C    0.000000
    17  H    1.087225   0.000000
    18  C    1.423519   2.169129   0.000000
    19  C    2.520417   2.743557   1.450009   0.000000
    20  N    3.778847   4.052608   2.536827   1.383378   0.000000
    21  C    2.971217   2.718947   2.440019   1.375609   2.305995
    22  H    2.968918   2.475784   2.891544   2.270864   3.368638
    23  S    4.659659   4.334542   3.975548   2.595008   2.607857
    24  C    4.781723   4.810572   3.691269   2.296966   1.354966
    25  N    6.100961   6.146196   4.955194   3.614121   2.456271
    26  C    6.530253   6.771163   5.243863   4.108805   2.756961
    27  N    7.091313   7.340100   5.857825   4.835005   3.469051
    28  H    7.683552   8.040303   6.387370   5.489845   4.113565
    29  H    6.418554   6.657230   5.265812   4.331266   3.041581
    30  N    7.723492   7.931050   6.434487   5.259932   3.946392
    31  H    8.029507   8.133882   6.823921   5.584844   4.290188
    32  H    7.689672   7.847628   6.422172   5.180501   3.992807
    33  H    6.821268   6.740926   5.768260   4.366648   3.344695
                   21         22         23         24         25
    21  C    0.000000
    22  H    1.083843   0.000000
    23  S    1.741849   2.386196   0.000000
    24  C    2.482527   3.512697   1.794394   0.000000
    25  N    3.795124   4.781186   2.715746   1.352474   0.000000
    26  C    4.644610   5.686085   3.883556   2.225501   1.314501
    27  N    5.487408   6.557992   4.770450   3.104386   2.219052
    28  H    6.255872   7.330481   5.635798   3.915452   3.047225
    29  H    5.075799   6.150524   4.561819   2.909715   2.413463
    30  N    5.651134   6.643825   4.645305   3.218451   2.001292
    31  H    5.878865   6.865955   4.711878   3.412794   2.087798
    32  H    5.381958   6.293337   4.266088   3.108236   1.969183
    33  H    4.289683   5.176737   2.874494   2.078467   1.000115
                   26         27         28         29         30
    26  C    0.000000
    27  N    1.293784   0.000000
    28  H    1.856979   1.013795   0.000000
    29  H    1.826720   1.014559   1.754326   0.000000
    30  N    1.243077   1.734894   1.948186   2.645625   0.000000
    31  H    1.728037   1.703753   2.166605   2.538904   1.014269
    32  H    1.725218   2.630939   2.918124   3.419741   1.013289
    33  H    2.043889   2.725207   3.560933   3.031629   2.204858
                   31         32         33
    31  H    0.000000
    32  H    1.661318   0.000000
    33  H    1.958984   2.009969   0.000000
 Stoichiometry    C12H14N5OS(1+)
 Framework group  C1[X(C12H14N5OS)]
 Deg. of freedom    93
 Full point group                 C1      NOp   1
 Largest Abelian subgroup         C1      NOp   1
 Largest concise Abelian subgroup C1      NOp   1
                         Standard orientation:                         
 ---------------------------------------------------------------------
 Center     Atomic      Atomic             Coordinates (Angstroms)
 Number     Number       Type             X           Y           Z
 ---------------------------------------------------------------------
      1          6           0       -6.180395   -1.200134    0.526931
      2          1           0       -5.982697   -2.062012   -0.113197
      3          1           0       -6.914556   -0.462183    0.196924
      4          1           0       -6.539348   -1.577108    1.486826
      5          6           0       -4.844046   -0.660998    0.776496
      6          8           0       -4.170889   -0.993491    1.707063
      7          7           0       -4.352144    0.081313   -0.222213
      8          1           0       -4.959106    0.222188   -1.015147
      9          6           0       -3.082660    0.691077   -0.293970
     10          6           0       -3.082604    2.086033   -0.493473
     11          6           0       -1.860849    2.725848   -0.721128
     12          6           0       -0.642070    1.958708   -0.622876
     13          1           0        0.252945    2.489163   -0.938591
     14          1           0       -1.736437    3.802026   -0.813110
     15          1           0       -3.951924    2.725712   -0.628854
     16          6           0       -1.913217   -0.066634   -0.228810
     17          1           0       -1.947143   -1.149156   -0.133655
     18          6           0       -0.648123    0.574083   -0.353014
     19          6           0        0.601504   -0.161236   -0.369286
     20          7           0        1.838000    0.285566    0.061039
     21          6           0        0.638961   -1.417174   -0.929211
     22          1           0       -0.066752   -2.021266   -1.487562
     23         16           0        2.217471   -2.143636   -0.808386
     24          6           0        2.834120   -0.621050   -0.086358
     25          7           0        4.158721   -0.512466    0.164294
     26          6           0        4.537527    0.721643    0.412075
     27          7           0        4.844575    0.998033    1.638129
     28          1           0        5.274054    1.916307    1.628083
     29          1           0        3.978439    0.852996    2.146167
     30          7           0        5.761674    0.685244    0.199049
     31          1           0        6.034316    0.017857    0.912494
     32          1           0        5.755304    0.238301   -0.710322
     33          1           0        4.785824   -1.291544    0.161261
 ---------------------------------------------------------------------
 Rotational constants (GHZ):           0.7721958           0.1374643           0.1262864
 Leave Link  202 at Sun Jul 18 15:19:26 2021, MaxMem=   104857600 cpu:               0.0 elap:               0.0
 (Enter /prod/apps/gaussian/g16b1/l301.exe)
 Standard basis: 6-31G(d) (6D, 7F)
 Ernie: Thresh=  0.10000D-02 Tol=  0.10000D-05 Strict=F.
 There are   317 symmetry adapted cartesian basis functions of A   symmetry.
 There are   317 symmetry adapted basis functions of A   symmetry.
   317 basis functions,   612 primitive gaussians,   317 cartesian basis functions
    72 alpha electrons       72 beta electrons
       nuclear repulsion energy      1459.4401644634 Hartrees.
 IExCor=  402 DFT=T Ex+Corr=B3LYP ExCW=0 ScaHFX=  0.200000
 ScaDFX=  0.800000  0.720000  1.000000  0.810000 ScalE2=  1.000000  1.000000
 IRadAn=      5 IRanWt=     -1 IRanGd=            0 ICorTp=0 IEmpDi=  4
 NAtoms=   33 NActive=   33 NUniq=   33 SFac= 1.00D+00 NAtFMM=   60 NAOKFM=F Big=F
 Integral buffers will be    131072 words long.
 Raffenetti 2 integral format.
 Two-electron integral symmetry is turned on.
 Using the following non-standard input for PCM:
 MSTModel=DFT cav MSTCharged
 --- end of non-standard input.
 MST model for solvation energy: B3LYP parametrization.
 MST cavity parameters:
 ISph   IAn     Re0     Alpha   Atom Type   QCorr
 ------------------------------------------------
   1      6     1.50     1.25      CH3        F
   2      1     1.20     1.25      CH3        F
   3      1     1.20     1.25      CH3        F
   4      1     1.20     1.25      CH3        F
   5      6     1.50     1.25      C          F
   6      8     1.40     1.25      O          F
   7      7     1.50     1.25      NH         F
   8      1     0.90     1.25      NH         F
   9      6     1.50     1.25      C          F
  10      6     1.50     1.25      CH         F
  11      6     1.50     1.25      CH         F
  12      6     1.50     1.25      CH         F
  13      1     1.20     1.25      CH         F
  14      1     1.20     1.25      CH         F
  15      1     1.20     1.25      CH         F
  16      6     1.50     1.25      CH         F
  17      1     1.20     1.25      CH         F
  18      6     1.50     1.25      C          F
  19      6     1.50     1.25      C          F
  20      7     1.40     1.25      N          F
  21      6     1.50     1.25      CH         F
  22      1     1.20     1.25      CH         F
  23     16     1.75     1.25      S          F
  24      6     1.50     1.25      C          F
  25      7     1.50     1.15      NH         T
  26      6     1.50     1.15      C          T
  27      7     1.55     1.15      NH         T
  28      1     0.90     1.15      NH         T
  29      1     0.90     1.15      NH         T
  30      7     1.55     1.15      NH         T
  31      1     0.90     1.15      NH         T
  32      1     0.90     1.15      NH         T
  33      1     0.90     1.15      NH         T
 ------------------------------------------------------------------------------
 Polarizable Continuum Model (PCM)
 =================================
 Model                : PCM.
 Atomic radii         : MST.
 Polarization charges : Total charges.
 Charge compensation  : None.
 Solution method      : On-the-fly selection.
 Cavity type          : Scaled VdW (van der Waals Surface) (Alpha=1.250).
 Cavity algorithm     : GePol (No added spheres)
                        Default sphere list used, NSphG=   33.
                        Lebedev-Laikov grids with approx.  5.0 points / Ang**2.
                        Smoothing algorithm: York/Karplus (Gamma=1.0000).
                        Polarization charges: spherical gaussians, with
                                              point-specific exponents (IZeta= 3).
                        Self-potential: point-specific (ISelfS= 7).
                        Self-field    : sphere-specific E.n sum rule (ISelfD= 2).
 1st derivatives      : Analytical E(r).r(x)/FMM algorithm (CHGder, D1EAlg=3).
                        Cavity 1st derivative terms included.
 Solvent              : Water, Eps=  78.355300 Eps(inf)=   1.777849
 ------------------------------------------------------------------------------
 GePol: Number of generator spheres                  =      33
 GePol: Total number of spheres                      =      33
 GePol: Number of exposed spheres                    =      33 (100.00%)
 GePol: Number of points                             =    2522
 GePol: Average weight of points                     =       0.13
 GePol: Minimum weight of points                     =   0.15D-09
 GePol: Maximum weight of points                     =    0.22001
 GePol: Number of points with low weight             =     174
 GePol: Fraction of low-weight points (<1% of avg)   =       6.90%
 GePol: Cavity surface area                          =    318.508 Ang**2
 GePol: Cavity volume                                =    294.908 Ang**3
 PCM non-electrostatic energy =         0.0016765864 Hartrees.
 Nuclear repulsion after PCM non-electrostatic terms =     1459.4418410499 Hartrees.
 Leave Link  301 at Sun Jul 18 15:19:26 2021, MaxMem=   104857600 cpu:               0.3 elap:               0.1
 (Enter /prod/apps/gaussian/g16b1/l302.exe)
 NPDir=0 NMtPBC=     1 NCelOv=     1 NCel=       1 NClECP=     1 NCelD=      1
         NCelK=      1 NCelE2=     1 NClLst=     1 CellRange=     0.0.
 One-electron integrals computed using PRISM.
 One-electron integral symmetry used in STVInt
 NBasis=   317 RedAO= T EigKep=  5.53D-04  NBF=   317
 NBsUse=   317 1.00D-06 EigRej= -1.00D+00 NBFU=   317
 Precomputing XC quadrature grid using
 IXCGrd= 4 IRadAn=           5 IRanWt=          -1 IRanGd=           0 AccXCQ= 0.00D+00.
 Generated NRdTot=       0 NPtTot=           0 NUsed=           0 NTot=          32
 NSgBfM=   312   312   312   312   312 MxSgAt=    33 MxSgA2=    33.
 Leave Link  302 at Sun Jul 18 15:19:27 2021, MaxMem=   104857600 cpu:               1.5 elap:               0.4
 (Enter /prod/apps/gaussian/g16b1/l303.exe)
 DipDrv:  MaxL=1.
 Leave Link  303 at Sun Jul 18 15:19:27 2021, MaxMem=   104857600 cpu:               0.1 elap:               0.1
 (Enter /prod/apps/gaussian/g16b1/l401.exe)
 ExpMin= 1.17D-01 ExpMax= 2.19D+04 ExpMxC= 3.30D+03 IAcc=3 IRadAn=         5 AccDes= 0.00D+00
 Harris functional with IExCor=  402 and IRadAn=       5 diagonalized for initial guess.
 HarFok:  IExCor=  402 AccDes= 0.00D+00 IRadAn=         5 IDoV= 1 UseB2=F ITyADJ=14
 ICtDFT=  3500011 ScaDFX=  1.000000  1.000000  1.000000  1.000000
 FoFCou: FMM=F IPFlag=           0 FMFlag=      100000 FMFlg1=           0
         NFxFlg=           0 DoJE=T BraDBF=F KetDBF=T FulRan=T
         wScrn=  0.000000 ICntrl=       500 IOpCl=  0 I1Cent=   200000004 NGrid=           0
         NMat0=    1 NMatS0=      1 NMatT0=    0 NMatD0=    1 NMtDS0=    0 NMtDT0=    0
 Petite list used in FoFCou.
 Harris En= -1212.30515192023    
 JPrj=0 DoOrth=F DoCkMO=F.
 Leave Link  401 at Sun Jul 18 15:19:28 2021, MaxMem=   104857600 cpu:               6.8 elap:               1.7
 (Enter /prod/apps/gaussian/g16b1/l502.exe)
 Integral symmetry usage will be decided dynamically.
 Closed shell SCF:
 Using DIIS extrapolation, IDIIS=  1040.
 NGot=   104857600 LenX=   104651207 LenY=   104550277
 Requested convergence on RMS density matrix=1.00D-08 within 128 cycles.
 Requested convergence on MAX density matrix=1.00D-06.
 Requested convergence on             energy=1.00D-06.
 No special actions if energy rises.
 Fock matrices will be formed incrementally for  20 cycles.

 Cycle   1  Pass 1  IDiag  1:
 FoFJK:  IHMeth= 1 ICntrl=       0 DoSepK=F KAlg= 0 I1Cent=           0 FoldK=F
 IRaf= 710000000 NMat=       1 IRICut=       1 DoRegI=T DoRafI=F ISym2E= 0 IDoP0=0 IntGTp=1.
 FoFCou: FMM=F IPFlag=           0 FMFlag=      100000 FMFlg1=           0
         NFxFlg=           0 DoJE=F BraDBF=F KetDBF=F FulRan=T
         wScrn=  0.000000 ICntrl=         0 IOpCl=  0 I1Cent=           0 NGrid=           0
         NMat0=    1 NMatS0=      1 NMatT0=    0 NMatD0=    1 NMtDS0=    0 NMtDT0=    0
 Symmetry not used in FoFCou.
 Inv3:  Mode=1 IEnd=    19081452.
 Iteration    1 A*A^-1 deviation from unit magnitude is 3.33D-15 for   1308.
 Iteration    1 A*A^-1 deviation from orthogonality  is 3.11D-15 for   2390    877.
 Iteration    1 A^-1*A deviation from unit magnitude is 3.55D-15 for   1664.
 Iteration    1 A^-1*A deviation from orthogonality  is 1.61D-11 for   2319   2277.
 E= -1211.97990822229    
 DIIS: error= 2.56D-02 at cycle   1 NSaved=   1.
 NSaved= 1 IEnMin= 1 EnMin= -1211.97990822229     IErMin= 1 ErrMin= 2.56D-02
 ErrMax= 2.56D-02  0.00D+00 EMaxC= 1.00D-01 BMatC= 5.08D-01 BMatP= 5.08D-01
 IDIUse=3 WtCom= 7.44D-01 WtEn= 2.56D-01
 Coeff-Com:  0.100D+01
 Coeff-En:   0.100D+01
 Coeff:      0.100D+01
 Gap=     0.075 Goal=   None    Shift=    0.000
 GapD=    0.075 DampG=0.500 DampE=0.500 DampFc=0.2500 IDamp=-1.
 Damping current iteration by 2.50D-01
 RMSDP=6.65D-03 MaxDP=3.18D-01              OVMax= 8.65D-01

 Cycle   2  Pass 1  IDiag  1:
 RMSU=  1.65D-03    CP:  9.89D-01
 E= -1212.09288335975     Delta-E=       -0.112975137460 Rises=F Damp=T
 DIIS: error= 1.13D-02 at cycle   2 NSaved=   2.
 NSaved= 2 IEnMin= 2 EnMin= -1212.09288335975     IErMin= 2 ErrMin= 1.13D-02
 ErrMax= 1.13D-02  0.00D+00 EMaxC= 1.00D-01 BMatC= 1.15D-01 BMatP= 5.08D-01
 IDIUse=3 WtCom= 8.87D-01 WtEn= 1.13D-01
 Coeff-Com: -0.397D+00 0.140D+01
 Coeff-En:   0.139D+00 0.861D+00
 Coeff:     -0.336D+00 0.134D+01
 Gap=    -0.229 Goal=   None    Shift=    0.000
 RMSDP=2.58D-03 MaxDP=9.72D-02 DE=-1.13D-01 OVMax= 6.71D-01

 Cycle   3  Pass 1  IDiag  1:
 RMSU=  2.55D-03    CP:  9.71D-01  1.00D+00
 E= -1212.19733643217     Delta-E=       -0.104453072418 Rises=F Damp=F
 DIIS: error= 3.83D-02 at cycle   3 NSaved=   3.
 NSaved= 3 IEnMin= 3 EnMin= -1212.19733643217     IErMin= 2 ErrMin= 1.13D-02
 ErrMax= 3.83D-02  0.00D+00 EMaxC= 1.00D-01 BMatC= 2.87D-01 BMatP= 1.15D-01
 IDIUse=2 WtCom= 0.00D+00 WtEn= 1.00D+00
 Coeff-En:   0.000D+00 0.359D+00 0.641D+00
 Coeff:      0.000D+00 0.359D+00 0.641D+00
 Gap=     0.046 Goal=   None    Shift=    0.000
 RMSDP=5.03D-03 MaxDP=3.45D-01 DE=-1.04D-01 OVMax= 9.13D-01

 Cycle   4  Pass 1  IDiag  1:
 RMSU=  2.20D-03    CP:  9.64D-01  2.63D+00 -4.28D-01
 E= -1210.89964353469     Delta-E=        1.297692897478 Rises=F Damp=F
 DIIS: error= 8.53D-02 at cycle   4 NSaved=   4.
 NSaved= 4 IEnMin= 3 EnMin= -1212.19733643217     IErMin= 2 ErrMin= 1.13D-02
 ErrMax= 8.53D-02  0.00D+00 EMaxC= 1.00D-01 BMatC= 1.05D+00 BMatP= 1.15D-01
 IDIUse=2 WtCom= 0.00D+00 WtEn= 1.00D+00
 EnCoef did     1 forward-backward iterations
 Coeff-En:   0.258D-01 0.000D+00 0.765D+00 0.209D+00
 Coeff:      0.258D-01 0.000D+00 0.765D+00 0.209D+00
 Gap=    -0.060 Goal=   None    Shift=    0.000
 RMSDP=4.55D-03 MaxDP=2.47D-01 DE= 1.30D+00 OVMax= 9.70D-01

 Cycle   5  Pass 1  IDiag  1:
 RMSU=  1.65D-03    CP:  9.81D-01  7.34D-01  3.54D-01  6.93D-02
 E= -1212.40338482856     Delta-E=       -1.503741293876 Rises=F Damp=F
 DIIS: error= 1.01D-02 at cycle   5 NSaved=   5.
 NSaved= 5 IEnMin= 5 EnMin= -1212.40338482856     IErMin= 5 ErrMin= 1.01D-02
 ErrMax= 1.01D-02  0.00D+00 EMaxC= 1.00D-01 BMatC= 5.48D-02 BMatP= 1.15D-01
 IDIUse=3 WtCom= 8.99D-01 WtEn= 1.01D-01
 Coeff-Com: -0.210D+00 0.443D+00 0.312D+00 0.166D-01 0.439D+00
 Coeff-En:   0.000D+00 0.000D+00 0.127D+00 0.000D+00 0.873D+00
 Coeff:     -0.189D+00 0.399D+00 0.293D+00 0.149D-01 0.483D+00
 Gap=     0.067 Goal=   None    Shift=    0.000
 RMSDP=9.72D-04 MaxDP=3.92D-02 DE=-1.50D+00 OVMax= 6.33D-02

 Cycle   6  Pass 1  IDiag  1:
 RMSU=  5.57D-04    CP:  9.78D-01  8.11D-01  5.70D-01  4.92D-02  6.64D-01
 E= -1212.43703087454     Delta-E=       -0.033646045980 Rises=F Damp=F
 DIIS: error= 7.42D-03 at cycle   6 NSaved=   6.
 NSaved= 6 IEnMin= 6 EnMin= -1212.43703087454     IErMin= 6 ErrMin= 7.42D-03
 ErrMax= 7.42D-03  0.00D+00 EMaxC= 1.00D-01 BMatC= 1.54D-02 BMatP= 5.48D-02
 IDIUse=3 WtCom= 9.26D-01 WtEn= 7.42D-02
 Coeff-Com: -0.148D+00 0.214D+00 0.642D-01-0.755D-02 0.331D+00 0.546D+00
 Coeff-En:   0.000D+00 0.000D+00 0.000D+00 0.000D+00 0.224D+00 0.776D+00
 Coeff:     -0.137D+00 0.198D+00 0.595D-01-0.699D-02 0.323D+00 0.563D+00
 Gap=     0.066 Goal=   None    Shift=    0.000
 RMSDP=4.07D-04 MaxDP=1.96D-02 DE=-3.36D-02 OVMax= 3.24D-02

 Cycle   7  Pass 1  IDiag  1:
 RMSU=  1.71D-04    CP:  9.79D-01  8.65D-01  5.14D-01  2.14D-02  8.38D-01
                    CP:  7.32D-01
 E= -1212.45030110049     Delta-E=       -0.013270225944 Rises=F Damp=F
 DIIS: error= 1.47D-03 at cycle   7 NSaved=   7.
 NSaved= 7 IEnMin= 7 EnMin= -1212.45030110049     IErMin= 7 ErrMin= 1.47D-03
 ErrMax= 1.47D-03  0.00D+00 EMaxC= 1.00D-01 BMatC= 6.70D-04 BMatP= 1.54D-02
 IDIUse=3 WtCom= 9.85D-01 WtEn= 1.47D-02
 Coeff-Com: -0.486D-01 0.626D-01-0.207D-01-0.677D-03 0.871D-01 0.279D+00
 Coeff-Com:  0.641D+00
 Coeff-En:   0.000D+00 0.000D+00 0.000D+00 0.000D+00 0.000D+00 0.000D+00
 Coeff-En:   0.100D+01
 Coeff:     -0.479D-01 0.617D-01-0.204D-01-0.667D-03 0.858D-01 0.275D+00
 Coeff:      0.646D+00
 Gap=     0.067 Goal=   None    Shift=    0.000
 RMSDP=1.04D-04 MaxDP=4.63D-03 DE=-1.33D-02 OVMax= 6.87D-03

 Cycle   8  Pass 1  IDiag  1:
 RMSU=  6.72D-05    CP:  9.79D-01  8.51D-01  5.03D-01  2.85D-02  8.58D-01
                    CP:  8.22D-01  8.17D-01
 E= -1212.45085502128     Delta-E=       -0.000553920788 Rises=F Damp=F
 DIIS: error= 3.01D-04 at cycle   8 NSaved=   8.
 NSaved= 8 IEnMin= 8 EnMin= -1212.45085502128     IErMin= 8 ErrMin= 3.01D-04
 ErrMax= 3.01D-04  0.00D+00 EMaxC= 1.00D-01 BMatC= 1.11D-04 BMatP= 6.70D-04
 IDIUse=3 WtCom= 9.97D-01 WtEn= 3.01D-03
 Coeff-Com: -0.613D-02 0.728D-02-0.277D-01 0.101D-02-0.140D-01 0.640D-01
 Coeff-Com:  0.398D+00 0.577D+00
 Coeff-En:   0.000D+00 0.000D+00 0.000D+00 0.000D+00 0.000D+00 0.000D+00
 Coeff-En:   0.000D+00 0.100D+01
 Coeff:     -0.611D-02 0.726D-02-0.276D-01 0.101D-02-0.140D-01 0.638D-01
 Coeff:      0.397D+00 0.578D+00
 Gap=     0.067 Goal=   None    Shift=    0.000
 RMSDP=4.86D-05 MaxDP=2.09D-03 DE=-5.54D-04 OVMax= 6.21D-03

 Cycle   9  Pass 1  IDiag  1:
 RMSU=  2.77D-05    CP:  9.79D-01  8.55D-01  4.96D-01  2.70D-02  8.70D-01
                    CP:  8.50D-01  9.32D-01  7.63D-01
 E= -1212.45096885576     Delta-E=       -0.000113834481 Rises=F Damp=F
 DIIS: error= 1.30D-04 at cycle   9 NSaved=   9.
 NSaved= 9 IEnMin= 9 EnMin= -1212.45096885576     IErMin= 9 ErrMin= 1.30D-04
 ErrMax= 1.30D-04  0.00D+00 EMaxC= 1.00D-01 BMatC= 7.78D-06 BMatP= 1.11D-04
 IDIUse=3 WtCom= 9.99D-01 WtEn= 1.30D-03
 Coeff-Com:  0.144D-02-0.176D-02-0.105D-01 0.456D-03-0.150D-01-0.153D-02
 Coeff-Com:  0.105D+00 0.279D+00 0.643D+00
 Coeff-En:   0.000D+00 0.000D+00 0.000D+00 0.000D+00 0.000D+00 0.000D+00
 Coeff-En:   0.000D+00 0.000D+00 0.100D+01
 Coeff:      0.144D-02-0.176D-02-0.105D-01 0.455D-03-0.150D-01-0.153D-02
 Coeff:      0.104D+00 0.279D+00 0.643D+00
 Gap=     0.068 Goal=   None    Shift=    0.000
 RMSDP=1.41D-05 MaxDP=8.32D-04 DE=-1.14D-04 OVMax= 7.85D-04

 Cycle  10  Pass 1  IDiag  1:
 RMSU=  1.06D-05    CP:  9.79D-01  8.55D-01  4.96D-01  2.63D-02  8.71D-01
                    CP:  8.56D-01  9.48D-01  8.40D-01  7.89D-01
 E= -1212.45097567108     Delta-E=       -0.000006815317 Rises=F Damp=F
 DIIS: error= 2.98D-05 at cycle  10 NSaved=  10.
 NSaved=10 IEnMin=10 EnMin= -1212.45097567108     IErMin=10 ErrMin= 2.98D-05
 ErrMax= 2.98D-05  0.00D+00 EMaxC= 1.00D-01 BMatC= 8.70D-07 BMatP= 7.78D-06
 IDIUse=1 WtCom= 1.00D+00 WtEn= 0.00D+00
 Coeff-Com:  0.166D-03 0.223D-03-0.532D-03 0.459D-04-0.216D-02-0.447D-02
 Coeff-Com: -0.330D-03 0.567D-01 0.290D+00 0.661D+00
 Coeff:      0.166D-03 0.223D-03-0.532D-03 0.459D-04-0.216D-02-0.447D-02
 Coeff:     -0.330D-03 0.567D-01 0.290D+00 0.661D+00
 Gap=     0.067 Goal=   None    Shift=    0.000
 RMSDP=6.41D-06 MaxDP=1.72D-04 DE=-6.82D-06 OVMax= 1.10D-03

 Cycle  11  Pass 1  IDiag  1:
 RMSU=  4.28D-06    CP:  9.79D-01  8.56D-01  4.96D-01  2.63D-02  8.71D-01
                    CP:  8.56D-01  9.47D-01  8.48D-01  9.30D-01  7.58D-01
 E= -1212.45097666025     Delta-E=       -0.000000989173 Rises=F Damp=F
 DIIS: error= 1.88D-05 at cycle  11 NSaved=  11.
 NSaved=11 IEnMin=11 EnMin= -1212.45097666025     IErMin=11 ErrMin= 1.88D-05
 ErrMax= 1.88D-05  0.00D+00 EMaxC= 1.00D-01 BMatC= 1.55D-07 BMatP= 8.70D-07
 IDIUse=1 WtCom= 1.00D+00 WtEn= 0.00D+00
 Coeff-Com:  0.256D-03-0.228D-03 0.566D-03 0.170D-05-0.141D-06-0.253D-02
 Coeff-Com: -0.806D-02 0.539D-02 0.680D-01 0.353D+00 0.584D+00
 Coeff:      0.256D-03-0.228D-03 0.566D-03 0.170D-05-0.141D-06-0.253D-02
 Coeff:     -0.806D-02 0.539D-02 0.680D-01 0.353D+00 0.584D+00
 Gap=     0.067 Goal=   None    Shift=    0.000
 RMSDP=1.60D-06 MaxDP=6.72D-05 DE=-9.89D-07 OVMax= 1.46D-04

 Cycle  12  Pass 1  IDiag  1:
 RMSU=  1.10D-06    CP:  9.79D-01  8.56D-01  4.96D-01  2.64D-02  8.71D-01
                    CP:  8.56D-01  9.47D-01  8.56D-01  9.52D-01  8.33D-01
                    CP:  9.66D-01
 E= -1212.45097680029     Delta-E=       -0.000000140039 Rises=F Damp=F
 DIIS: error= 6.08D-06 at cycle  12 NSaved=  12.
 NSaved=12 IEnMin=12 EnMin= -1212.45097680029     IErMin=12 ErrMin= 6.08D-06
 ErrMax= 6.08D-06  0.00D+00 EMaxC= 1.00D-01 BMatC= 2.47D-08 BMatP= 1.55D-07
 IDIUse=1 WtCom= 1.00D+00 WtEn= 0.00D+00
 Coeff-Com:  0.121D-03-0.179D-03 0.409D-03-0.286D-05 0.427D-03-0.340D-03
 Coeff-Com: -0.235D-02-0.416D-02-0.183D-01 0.102D+00 0.244D+00 0.678D+00
 Coeff:      0.121D-03-0.179D-03 0.409D-03-0.286D-05 0.427D-03-0.340D-03
 Coeff:     -0.235D-02-0.416D-02-0.183D-01 0.102D+00 0.244D+00 0.678D+00
 Gap=     0.067 Goal=   None    Shift=    0.000
 RMSDP=8.77D-07 MaxDP=2.62D-05 DE=-1.40D-07 OVMax= 1.29D-04

 Cycle  13  Pass 1  IDiag  1:
 RMSU=  4.89D-07    CP:  9.79D-01  8.56D-01  4.96D-01  2.63D-02  8.71D-01
                    CP:  8.56D-01  9.48D-01  8.59D-01  9.62D-01  8.70D-01
                    CP:  1.08D+00  9.61D-01
 E= -1212.45097682321     Delta-E=       -0.000000022921 Rises=F Damp=F
 DIIS: error= 3.74D-06 at cycle  13 NSaved=  13.
 NSaved=13 IEnMin=13 EnMin= -1212.45097682321     IErMin=13 ErrMin= 3.74D-06
 ErrMax= 3.74D-06  0.00D+00 EMaxC= 1.00D-01 BMatC= 7.65D-09 BMatP= 2.47D-08
 IDIUse=1 WtCom= 1.00D+00 WtEn= 0.00D+00
 Coeff-Com:  0.117D-04-0.193D-04 0.177D-03-0.790D-05 0.258D-03 0.302D-03
 Coeff-Com:  0.566D-03-0.271D-02-0.250D-01 0.969D-03-0.876D-04 0.396D+00
 Coeff-Com:  0.630D+00
 Coeff:      0.117D-04-0.193D-04 0.177D-03-0.790D-05 0.258D-03 0.302D-03
 Coeff:      0.566D-03-0.271D-02-0.250D-01 0.969D-03-0.876D-04 0.396D+00
 Coeff:      0.630D+00
 Gap=     0.067 Goal=   None    Shift=    0.000
 RMSDP=4.21D-07 MaxDP=1.65D-05 DE=-2.29D-08 OVMax= 3.71D-05

 Cycle  14  Pass 1  IDiag  1:
 RMSU=  1.71D-07    CP:  9.79D-01  8.56D-01  4.96D-01  2.63D-02  8.71D-01
                    CP:  8.56D-01  9.48D-01  8.60D-01  9.66D-01  8.89D-01
                    CP:  1.12D+00  1.10D+00  8.64D-01
 E= -1212.45097683080     Delta-E=       -0.000000007590 Rises=F Damp=F
 DIIS: error= 1.46D-06 at cycle  14 NSaved=  14.
 NSaved=14 IEnMin=14 EnMin= -1212.45097683080     IErMin=14 ErrMin= 1.46D-06
 ErrMax= 1.46D-06  0.00D+00 EMaxC= 1.00D-01 BMatC= 7.96D-10 BMatP= 7.65D-09
 IDIUse=1 WtCom= 1.00D+00 WtEn= 0.00D+00
 Coeff-Com:  0.119D-04-0.182D-04 0.227D-05-0.608D-06 0.340D-05 0.190D-03
 Coeff-Com:  0.107D-02-0.125D-03-0.998D-02-0.172D-01-0.566D-01 0.853D-01
 Coeff-Com:  0.294D+00 0.703D+00
 Coeff:      0.119D-04-0.182D-04 0.227D-05-0.608D-06 0.340D-05 0.190D-03
 Coeff:      0.107D-02-0.125D-03-0.998D-02-0.172D-01-0.566D-01 0.853D-01
 Coeff:      0.294D+00 0.703D+00
 Gap=     0.067 Goal=   None    Shift=    0.000
 RMSDP=1.92D-07 MaxDP=6.92D-06 DE=-7.59D-09 OVMax= 2.96D-05

 Cycle  15  Pass 1  IDiag  1:
 RMSU=  6.35D-08    CP:  9.79D-01  8.56D-01  4.96D-01  2.63D-02  8.71D-01
                    CP:  8.56D-01  9.48D-01  8.60D-01  9.69D-01  8.93D-01
                    CP:  1.14D+00  1.17D+00  9.88D-01  8.15D-01
 E= -1212.45097683164     Delta-E=       -0.000000000843 Rises=F Damp=F
 DIIS: error= 3.99D-07 at cycle  15 NSaved=  15.
 NSaved=15 IEnMin=15 EnMin= -1212.45097683164     IErMin=15 ErrMin= 3.99D-07
 ErrMax= 3.99D-07  0.00D+00 EMaxC= 1.00D-01 BMatC= 1.01D-10 BMatP= 7.96D-10
 IDIUse=1 WtCom= 1.00D+00 WtEn= 0.00D+00
 Coeff-Com:  0.676D-05-0.108D-04-0.127D-04-0.144D-06-0.194D-04 0.699D-04
 Coeff-Com:  0.512D-03 0.171D-03-0.311D-02-0.960D-02-0.301D-01 0.831D-02
 Coeff-Com:  0.756D-01 0.385D+00 0.573D+00
 Coeff:      0.676D-05-0.108D-04-0.127D-04-0.144D-06-0.194D-04 0.699D-04
 Coeff:      0.512D-03 0.171D-03-0.311D-02-0.960D-02-0.301D-01 0.831D-02
 Coeff:      0.756D-01 0.385D+00 0.573D+00
 Gap=     0.067 Goal=   None    Shift=    0.000
 RMSDP=4.66D-08 MaxDP=1.87D-06 DE=-8.43D-10 OVMax= 3.83D-06

 Cycle  16  Pass 1  IDiag  1:
 RMSU=  2.68D-08    CP:  9.79D-01  8.56D-01  4.96D-01  2.63D-02  8.71D-01
                    CP:  8.56D-01  9.48D-01  8.60D-01  9.69D-01  8.95D-01
                    CP:  1.14D+00  1.18D+00  1.00D+00  9.09D-01  7.72D-01
 E= -1212.45097683174     Delta-E=       -0.000000000099 Rises=F Damp=F
 DIIS: error= 1.17D-07 at cycle  16 NSaved=  16.
 NSaved=16 IEnMin=16 EnMin= -1212.45097683174     IErMin=16 ErrMin= 1.17D-07
 ErrMax= 1.17D-07  0.00D+00 EMaxC= 1.00D-01 BMatC= 8.76D-12 BMatP= 1.01D-10
 IDIUse=1 WtCom= 1.00D+00 WtEn= 0.00D+00
 Coeff-Com:  0.383D-06-0.143D-06-0.408D-05-0.166D-06-0.688D-05 0.965D-05
 Coeff-Com:  0.118D-03 0.148D-03-0.101D-03-0.169D-02-0.544D-02-0.440D-02
 Coeff-Com: -0.785D-02 0.102D+00 0.275D+00 0.642D+00
 Coeff:      0.383D-06-0.143D-06-0.408D-05-0.166D-06-0.688D-05 0.965D-05
 Coeff:      0.118D-03 0.148D-03-0.101D-03-0.169D-02-0.544D-02-0.440D-02
 Coeff:     -0.785D-02 0.102D+00 0.275D+00 0.642D+00
 Gap=     0.067 Goal=   None    Shift=    0.000
 RMSDP=1.39D-08 MaxDP=4.63D-07 DE=-9.87D-11 OVMax= 1.35D-06

 Cycle  17  Pass 1  IDiag  1:
 RMSU=  6.96D-09    CP:  9.79D-01  8.56D-01  4.96D-01  2.63D-02  8.71D-01
                    CP:  8.56D-01  9.48D-01  8.60D-01  9.69D-01  8.95D-01
                    CP:  1.15D+00  1.18D+00  1.00D+00  9.24D-01  8.64D-01
                    CP:  7.71D-01
 E= -1212.45097683175     Delta-E=       -0.000000000008 Rises=F Damp=F
 DIIS: error= 3.15D-08 at cycle  17 NSaved=  17.
 NSaved=17 IEnMin=17 EnMin= -1212.45097683175     IErMin=17 ErrMin= 3.15D-08
 ErrMax= 3.15D-08  0.00D+00 EMaxC= 1.00D-01 BMatC= 1.08D-12 BMatP= 8.76D-12
 IDIUse=1 WtCom= 1.00D+00 WtEn= 0.00D+00
 Coeff-Com: -0.649D-06 0.108D-05-0.166D-05-0.655D-07-0.234D-05-0.143D-05
 Coeff-Com:  0.156D-04 0.688D-04 0.258D-03-0.168D-03-0.122D-03-0.405D-02
 Coeff-Com: -0.150D-01 0.184D-01 0.931D-01 0.357D+00 0.551D+00
 Coeff:     -0.649D-06 0.108D-05-0.166D-05-0.655D-07-0.234D-05-0.143D-05
 Coeff:      0.156D-04 0.688D-04 0.258D-03-0.168D-03-0.122D-03-0.405D-02
 Coeff:     -0.150D-01 0.184D-01 0.931D-01 0.357D+00 0.551D+00
 Gap=     0.067 Goal=   None    Shift=    0.000
 RMSDP=5.03D-09 MaxDP=1.72D-07 DE=-7.73D-12 OVMax= 4.78D-07

 Error on total polarization charges =  0.02622
 SCF Done:  E(RB3LYP) =  -1212.45097683     A.U. after   17 cycles
            NFock= 17  Conv=0.50D-08     -V/T= 2.0060
 KE= 1.205236450580D+03 PE=-5.740890577770D+03 EE= 1.863761309309D+03
 Leave Link  502 at Sun Jul 18 15:20:37 2021, MaxMem=   104857600 cpu:             276.1 elap:              69.1
 (Enter /prod/apps/gaussian/g16b1/l601.exe)
 Copying SCF densities to generalized density rwf, IOpCl= 0 IROHF=0.

 **********************************************************************

            Population analysis using the SCF Density.

 **********************************************************************

 Orbital symmetries:
       Occupied  (A) (A) (A) (A) (A) (A) (A) (A) (A) (A) (A) (A)
                 (A) (A) (A) (A) (A) (A) (A) (A) (A) (A) (A) (A)
                 (A) (A) (A) (A) (A) (A) (A) (A) (A) (A) (A) (A)
                 (A) (A) (A) (A) (A) (A) (A) (A) (A) (A) (A) (A)
                 (A) (A) (A) (A) (A) (A) (A) (A) (A) (A) (A) (A)
                 (A) (A) (A) (A) (A) (A) (A) (A) (A) (A) (A) (A)
       Virtual   (A) (A) (A) (A) (A) (A) (A) (A) (A) (A) (A) (A)
                 (A) (A) (A) (A) (A) (A) (A) (A) (A) (A) (A) (A)
                 (A) (A) (A) (A) (A) (A) (A) (A) (A) (A) (A) (A)
                 (A) (A) (A) (A) (A) (A) (A) (A) (A) (A) (A) (A)
                 (A) (A) (A) (A) (A) (A) (A) (A) (A) (A) (A) (A)
                 (A) (A) (A) (A) (A) (A) (A) (A) (A) (A) (A) (A)
                 (A) (A) (A) (A) (A) (A) (A) (A) (A) (A) (A) (A)
                 (A) (A) (A) (A) (A) (A) (A) (A) (A) (A) (A) (A)
                 (A) (A) (A) (A) (A) (A) (A) (A) (A) (A) (A) (A)
                 (A) (A) (A) (A) (A) (A) (A) (A) (A) (A) (A) (A)
                 (A) (A) (A) (A) (A) (A) (A) (A) (A) (A) (A) (A)
                 (A) (A) (A) (A) (A) (A) (A) (A) (A) (A) (A) (A)
                 (A) (A) (A) (A) (A) (A) (A) (A) (A) (A) (A) (A)
                 (A) (A) (A) (A) (A) (A) (A) (A) (A) (A) (A) (A)
                 (A) (A) (A) (A) (A) (A) (A) (A) (A) (A) (A) (A)
                 (A) (A) (A) (A) (A) (A) (A) (A) (A) (A) (A) (A)
                 (A) (A) (A) (A) (A) (A) (A) (A) (A) (A) (A) (A)
                 (A) (A) (A) (A) (A) (A) (A) (A) (A) (A) (A) (A)
                 (A) (A) (A) (A) (A) (A) (A) (A) (A) (A) (A) (A)
                 (A) (A) (A) (A) (A) (A) (A) (A) (A) (A) (A) (A)
                 (A) (A) (A) (A) (A)
 The electronic state is 1-A.
 Alpha  occ. eigenvalues --  -88.92669 -19.11088 -14.42579 -14.37694 -14.35866
 Alpha  occ. eigenvalues --  -14.35514 -14.35389 -10.32197 -10.31483 -10.28126
 Alpha  occ. eigenvalues --  -10.24834 -10.24020 -10.22873 -10.21800 -10.20579
 Alpha  occ. eigenvalues --  -10.20175 -10.20126 -10.20099 -10.17983  -7.98789
 Alpha  occ. eigenvalues --   -5.95176  -5.94821  -5.94502  -1.15005  -1.05296
 Alpha  occ. eigenvalues --   -1.00996  -0.95166  -0.93821  -0.89795  -0.85546
 Alpha  occ. eigenvalues --   -0.80755  -0.79038  -0.76386  -0.73432  -0.72232
 Alpha  occ. eigenvalues --   -0.68176  -0.65038  -0.63357  -0.61886  -0.61491
 Alpha  occ. eigenvalues --   -0.59849  -0.57415  -0.56885  -0.54137  -0.53220
 Alpha  occ. eigenvalues --   -0.52420  -0.49370  -0.48031  -0.47491  -0.46307
 Alpha  occ. eigenvalues --   -0.45477  -0.44728  -0.43624  -0.43395  -0.41230
 Alpha  occ. eigenvalues --   -0.40964  -0.39216  -0.39049  -0.37845  -0.37273
 Alpha  occ. eigenvalues --   -0.36425  -0.35439  -0.35330  -0.33549  -0.30849
 Alpha  occ. eigenvalues --   -0.29893  -0.29259  -0.28224  -0.26802  -0.25480
 Alpha  occ. eigenvalues --   -0.23822  -0.22119
 Alpha virt. eigenvalues --   -0.15370  -0.04570  -0.02022  -0.01492   0.00363
 Alpha virt. eigenvalues --    0.03893   0.05498   0.08533   0.09322   0.10079
 Alpha virt. eigenvalues --    0.10871   0.12213   0.12520   0.13581   0.13906
 Alpha virt. eigenvalues --    0.15026   0.15180   0.15420   0.16352   0.17128
 Alpha virt. eigenvalues --    0.18215   0.18904   0.19418   0.19726   0.21644
 Alpha virt. eigenvalues --    0.24001   0.24747   0.26137   0.27286   0.28095
 Alpha virt. eigenvalues --    0.29355   0.29628   0.30496   0.32311   0.33942
 Alpha virt. eigenvalues --    0.34550   0.35579   0.36668   0.37806   0.39399
 Alpha virt. eigenvalues --    0.40812   0.41690   0.43051   0.44395   0.49475
 Alpha virt. eigenvalues --    0.49806   0.50855   0.51573   0.51880   0.53439
 Alpha virt. eigenvalues --    0.53908   0.54331   0.55495   0.55932   0.56616
 Alpha virt. eigenvalues --    0.57240   0.57529   0.58445   0.58629   0.59115
 Alpha virt. eigenvalues --    0.59554   0.60637   0.61171   0.62494   0.64319
 Alpha virt. eigenvalues --    0.65202   0.66036   0.68567   0.69152   0.70395
 Alpha virt. eigenvalues --    0.71249   0.71712   0.72756   0.74941   0.75077
 Alpha virt. eigenvalues --    0.76504   0.77097   0.77533   0.78874   0.80061
 Alpha virt. eigenvalues --    0.80562   0.81717   0.82438   0.82687   0.82881
 Alpha virt. eigenvalues --    0.83498   0.84517   0.84830   0.85483   0.85651
 Alpha virt. eigenvalues --    0.87123   0.87854   0.88252   0.88751   0.89372
 Alpha virt. eigenvalues --    0.90191   0.90480   0.91937   0.92770   0.93156
 Alpha virt. eigenvalues --    0.93877   0.94456   0.95223   0.96487   0.97361
 Alpha virt. eigenvalues --    0.98022   0.99174   0.99804   1.00121   1.02140
 Alpha virt. eigenvalues --    1.03120   1.05006   1.05815   1.07875   1.10089
 Alpha virt. eigenvalues --    1.11383   1.12292   1.13909   1.15197   1.16843
 Alpha virt. eigenvalues --    1.19392   1.22145   1.23667   1.25148   1.28191
 Alpha virt. eigenvalues --    1.30721   1.31053   1.32043   1.34610   1.35683
 Alpha virt. eigenvalues --    1.37148   1.39793   1.40254   1.41348   1.43966
 Alpha virt. eigenvalues --    1.45786   1.46490   1.50116   1.51391   1.51936
 Alpha virt. eigenvalues --    1.52840   1.55267   1.58929   1.60908   1.65265
 Alpha virt. eigenvalues --    1.67757   1.68383   1.69036   1.73788   1.74793
 Alpha virt. eigenvalues --    1.75485   1.78715   1.79522   1.80634   1.81572
 Alpha virt. eigenvalues --    1.82572   1.83576   1.85952   1.86849   1.87019
 Alpha virt. eigenvalues --    1.89242   1.90294   1.91461   1.92229   1.93307
 Alpha virt. eigenvalues --    1.94400   1.96562   1.99076   2.00357   2.04232
 Alpha virt. eigenvalues --    2.05556   2.06922   2.08919   2.10438   2.13742
 Alpha virt. eigenvalues --    2.14251   2.14974   2.16038   2.16801   2.17910
 Alpha virt. eigenvalues --    2.18821   2.21687   2.22893   2.24152   2.26593
 Alpha virt. eigenvalues --    2.27005   2.28244   2.28717   2.30715   2.34442
 Alpha virt. eigenvalues --    2.35129   2.37702   2.39625   2.41445   2.44173
 Alpha virt. eigenvalues --    2.45853   2.48464   2.49797   2.51512   2.51521
 Alpha virt. eigenvalues --    2.55693   2.56874   2.59299   2.59688   2.62978
 Alpha virt. eigenvalues --    2.65659   2.67371   2.69247   2.70431   2.72566
 Alpha virt. eigenvalues --    2.73081   2.74037   2.76046   2.79643   2.80313
 Alpha virt. eigenvalues --    2.85123   2.86000   2.94026   2.96750   2.97752
 Alpha virt. eigenvalues --    3.02843   3.04879   3.12879   3.20258   3.25383
 Alpha virt. eigenvalues --    3.38133   3.82543   3.88333   3.92657   4.00067
 Alpha virt. eigenvalues --    4.05813   4.06836   4.08898   4.11361   4.12644
 Alpha virt. eigenvalues --    4.14740   4.19084   4.23043   4.28838   4.31986
 Alpha virt. eigenvalues --    4.35319   4.44605   4.50670   4.54031   4.73940
          Condensed to atoms (all electrons):
               1          2          3          4          5          6
     1  C    5.350515   0.361078   0.344502   0.352153   0.358345  -0.096328
     2  H    0.361078   0.502381  -0.014397  -0.020415  -0.026469  -0.000521
     3  H    0.344502  -0.014397   0.520568  -0.026112  -0.014984   0.003241
     4  H    0.352153  -0.020415  -0.026112   0.536276  -0.026670   0.004487
     5  C    0.358345  -0.026469  -0.014984  -0.026670   4.268466   0.646003
     6  O   -0.096328  -0.000521   0.003241   0.004487   0.646003   8.106782
     7  N   -0.139494  -0.000833   0.003092   0.006835   0.265019  -0.120860
     8  H    0.000591   0.000323   0.001177  -0.000092  -0.020236   0.003565
     9  C    0.007260  -0.000086  -0.000337  -0.000129  -0.015798   0.006113
    10  C   -0.000448  -0.000004   0.000049   0.000006   0.001062  -0.000524
    11  C    0.000002   0.000000   0.000000  -0.000000   0.000051  -0.000003
    12  C    0.000001  -0.000000  -0.000000  -0.000000   0.000004   0.000004
    13  H    0.000000  -0.000000  -0.000000  -0.000000  -0.000000   0.000000
    14  H   -0.000000   0.000000  -0.000000   0.000000  -0.000000   0.000000
    15  H   -0.000040   0.000000   0.000009   0.000000   0.000230  -0.000004
    16  C    0.000342  -0.000009  -0.000014   0.000001  -0.001610   0.004357
    17  H   -0.000076  -0.000021  -0.000000   0.000006   0.002621   0.002125
    18  C    0.000002  -0.000001   0.000000  -0.000000   0.000106   0.000052
    19  C   -0.000000   0.000000   0.000000   0.000000  -0.000009  -0.000009
    20  N    0.000000   0.000000  -0.000000  -0.000000   0.000000  -0.000000
    21  C    0.000000  -0.000000  -0.000000  -0.000000  -0.000000   0.000002
    22  H   -0.000000   0.000000   0.000000   0.000000  -0.000001  -0.000000
    23  S    0.000000  -0.000000  -0.000000  -0.000000   0.000000   0.000000
    24  C   -0.000000   0.000000   0.000000   0.000000  -0.000000  -0.000000
    25  N   -0.000000   0.000000   0.000000   0.000000  -0.000000  -0.000000
    26  C   -0.000000   0.000000   0.000000   0.000000  -0.000000  -0.000000
    27  N    0.000000  -0.000000  -0.000000  -0.000000  -0.000000   0.000000
    28  H    0.000000  -0.000000   0.000000  -0.000000  -0.000000   0.000000
    29  H    0.000000  -0.000000  -0.000000   0.000000   0.000000   0.000000
    30  N   -0.000000   0.000000   0.000000   0.000000  -0.000000  -0.000000
    31  H   -0.000000   0.000000   0.000000   0.000000  -0.000000  -0.000000
    32  H   -0.000000   0.000000   0.000000   0.000000   0.000000  -0.000000
    33  H   -0.000000   0.000000   0.000000   0.000000  -0.000000  -0.000000
               7          8          9         10         11         12
     1  C   -0.139494   0.000591   0.007260  -0.000448   0.000002   0.000001
     2  H   -0.000833   0.000323  -0.000086  -0.000004   0.000000  -0.000000
     3  H    0.003092   0.001177  -0.000337   0.000049   0.000000  -0.000000
     4  H    0.006835  -0.000092  -0.000129   0.000006  -0.000000  -0.000000
     5  C    0.265019  -0.020236  -0.015798   0.001062   0.000051   0.000004
     6  O   -0.120860   0.003565   0.006113  -0.000524  -0.000003   0.000004
     7  N    7.265379   0.302139   0.200268  -0.060408   0.005578   0.000697
     8  H    0.302139   0.343954  -0.020268  -0.003189  -0.000050   0.000030
     9  C    0.200268  -0.020268   4.623136   0.522504  -0.015625  -0.039316
    10  C   -0.060408  -0.003189   0.522504   4.994762   0.503857  -0.042783
    11  C    0.005578  -0.000050  -0.015625   0.503857   4.939393   0.488551
    12  C    0.000697   0.000030  -0.039316  -0.042783   0.488551   5.069047
    13  H    0.000004  -0.000000   0.000356   0.005226  -0.041818   0.362413
    14  H   -0.000127  -0.000002   0.003103  -0.032978   0.358848  -0.037084
    15  H   -0.003750   0.001673  -0.039204   0.361557  -0.041555   0.004844
    16  C   -0.048139   0.002916   0.527434  -0.060560  -0.038768  -0.065578
    17  H   -0.006533   0.000042  -0.032826   0.005040  -0.000194   0.006162
    18  C    0.003091  -0.000036  -0.006647  -0.033179  -0.010254   0.492803
    19  C   -0.000143   0.000003   0.005088   0.000562   0.005903  -0.055505
    20  N    0.000000  -0.000000  -0.000059  -0.000009   0.000324  -0.001936
    21  C   -0.000006  -0.000000   0.000514   0.000002  -0.000178   0.007399
    22  H   -0.000003  -0.000000   0.000061   0.000002  -0.000006  -0.000114
    23  S   -0.000000   0.000000  -0.000001  -0.000001   0.000012   0.000035
    24  C   -0.000000   0.000000   0.000000   0.000000  -0.000004  -0.000193
    25  N   -0.000000  -0.000000  -0.000000   0.000000  -0.000000  -0.000008
    26  C    0.000000  -0.000000  -0.000000  -0.000000   0.000000   0.000009
    27  N   -0.000000   0.000000   0.000000   0.000000  -0.000000  -0.000001
    28  H   -0.000000   0.000000   0.000000   0.000000   0.000000  -0.000000
    29  H   -0.000000   0.000000   0.000000   0.000000   0.000000   0.000001
    30  N    0.000000  -0.000000   0.000000  -0.000000   0.000000   0.000000
    31  H    0.000000  -0.000000  -0.000000  -0.000000   0.000000   0.000000
    32  H    0.000000   0.000000  -0.000000  -0.000000   0.000000  -0.000000
    33  H   -0.000000   0.000000  -0.000000   0.000000  -0.000000  -0.000000
              13         14         15         16         17         18
     1  C    0.000000  -0.000000  -0.000040   0.000342  -0.000076   0.000002
     2  H   -0.000000   0.000000   0.000000  -0.000009  -0.000021  -0.000001
     3  H   -0.000000  -0.000000   0.000009  -0.000014  -0.000000   0.000000
     4  H   -0.000000   0.000000   0.000000   0.000001   0.000006  -0.000000
     5  C   -0.000000  -0.000000   0.000230  -0.001610   0.002621   0.000106
     6  O    0.000000   0.000000  -0.000004   0.004357   0.002125   0.000052
     7  N    0.000004  -0.000127  -0.003750  -0.048139  -0.006533   0.003091
     8  H   -0.000000  -0.000002   0.001673   0.002916   0.000042  -0.000036
     9  C    0.000356   0.003103  -0.039204   0.527434  -0.032826  -0.006647
    10  C    0.005226  -0.032978   0.361557  -0.060560   0.005040  -0.033179
    11  C   -0.041818   0.358848  -0.041555  -0.038768  -0.000194  -0.010254
    12  C    0.362413  -0.037084   0.004844  -0.065578   0.006162   0.492803
    13  H    0.566688  -0.004676  -0.000201   0.004791  -0.000126  -0.044525
    14  H   -0.004676   0.550376  -0.004542   0.000823   0.000012   0.003125
    15  H   -0.000201  -0.004542   0.551152   0.003904  -0.000092   0.000373
    16  C    0.004791   0.000823   0.003904   5.049885   0.348427   0.504333
    17  H   -0.000126   0.000012  -0.000092   0.348427   0.549698  -0.039401
    18  C   -0.044525   0.003125   0.000373   0.504333  -0.039401   4.806794
    19  C   -0.008626  -0.000175   0.000008  -0.038837  -0.009415   0.348928
    20  N    0.005273  -0.000001  -0.000000   0.002861  -0.000045  -0.058050
    21  C    0.000321   0.000002  -0.000000  -0.015872   0.008343  -0.060580
    22  H   -0.000012   0.000000  -0.000000   0.002127   0.001538  -0.005296
    23  S    0.000024  -0.000000   0.000000   0.000348  -0.000178   0.004938
    24  C   -0.000101  -0.000000  -0.000000   0.000024  -0.000019   0.006817
    25  N   -0.000007   0.000000  -0.000000   0.000001  -0.000000  -0.000125
    26  C    0.000023  -0.000000  -0.000000  -0.000000  -0.000000  -0.000012
    27  N    0.000000   0.000000   0.000000   0.000000   0.000000   0.000001
    28  H    0.000000   0.000000   0.000000   0.000000   0.000000  -0.000000
    29  H    0.000001   0.000000  -0.000000  -0.000000   0.000000  -0.000005
    30  N    0.000000  -0.000000  -0.000000  -0.000000   0.000000  -0.000000
    31  H    0.000000  -0.000000  -0.000000  -0.000000  -0.000000   0.000000
    32  H   -0.000000   0.000000  -0.000000  -0.000000  -0.000000   0.000000
    33  H   -0.000000  -0.000000   0.000000  -0.000000  -0.000000   0.000002
              19         20         21         22         23         24
     1  C   -0.000000   0.000000   0.000000  -0.000000   0.000000  -0.000000
     2  H    0.000000   0.000000  -0.000000   0.000000  -0.000000   0.000000
     3  H    0.000000  -0.000000  -0.000000   0.000000  -0.000000   0.000000
     4  H    0.000000  -0.000000  -0.000000   0.000000  -0.000000   0.000000
     5  C   -0.000009   0.000000  -0.000000  -0.000001   0.000000  -0.000000
     6  O   -0.000009  -0.000000   0.000002  -0.000000   0.000000  -0.000000
     7  N   -0.000143   0.000000  -0.000006  -0.000003  -0.000000  -0.000000
     8  H    0.000003  -0.000000  -0.000000  -0.000000   0.000000   0.000000
     9  C    0.005088  -0.000059   0.000514   0.000061  -0.000001   0.000000
    10  C    0.000562  -0.000009   0.000002   0.000002  -0.000001   0.000000
    11  C    0.005903   0.000324  -0.000178  -0.000006   0.000012  -0.000004
    12  C   -0.055505  -0.001936   0.007399  -0.000114   0.000035  -0.000193
    13  H   -0.008626   0.005273   0.000321  -0.000012   0.000024  -0.000101
    14  H   -0.000175  -0.000001   0.000002   0.000000  -0.000000  -0.000000
    15  H    0.000008  -0.000000  -0.000000  -0.000000   0.000000  -0.000000
    16  C   -0.038837   0.002861  -0.015872   0.002127   0.000348   0.000024
    17  H   -0.009415  -0.000045   0.008343   0.001538  -0.000178  -0.000019
    18  C    0.348928  -0.058050  -0.060580  -0.005296   0.004938   0.006817
    19  C    4.673079   0.394100   0.515457  -0.009552  -0.060236  -0.047452
    20  N    0.394100   6.991528  -0.094312   0.004367  -0.083544   0.435178
    21  C    0.515457  -0.094312   5.430831   0.349676   0.299085  -0.049597
    22  H   -0.009552   0.004367   0.349676   0.466898  -0.034588   0.002143
    23  S   -0.060236  -0.083544   0.299085  -0.034588  15.366406   0.298701
    24  C   -0.047452   0.435178  -0.049597   0.002143   0.298701   4.847535
    25  N    0.001063  -0.052806   0.002524  -0.000025  -0.066181   0.241399
    26  C    0.000658   0.012825   0.000143  -0.000001   0.006427  -0.069338
    27  N    0.000024  -0.001918  -0.000002   0.000000  -0.000041  -0.001833
    28  H    0.000003   0.000038  -0.000000   0.000000   0.000011  -0.000083
    29  H    0.000045   0.002599   0.000008  -0.000000   0.000061   0.001031
    30  N   -0.000014   0.000952   0.000008  -0.000000  -0.000767   0.017659
    31  H    0.000003   0.000024   0.000000  -0.000000   0.000069   0.000040
    32  H   -0.000006  -0.000069   0.000007  -0.000000  -0.000128  -0.000189
    33  H   -0.000005   0.001493  -0.000003  -0.000001   0.000229  -0.019025
              25         26         27         28         29         30
     1  C   -0.000000  -0.000000   0.000000   0.000000   0.000000  -0.000000
     2  H    0.000000   0.000000  -0.000000  -0.000000  -0.000000   0.000000
     3  H    0.000000   0.000000  -0.000000   0.000000  -0.000000   0.000000
     4  H    0.000000   0.000000  -0.000000  -0.000000   0.000000   0.000000
     5  C   -0.000000  -0.000000  -0.000000  -0.000000   0.000000  -0.000000
     6  O   -0.000000  -0.000000   0.000000   0.000000   0.000000  -0.000000
     7  N   -0.000000   0.000000  -0.000000  -0.000000  -0.000000   0.000000
     8  H   -0.000000  -0.000000   0.000000   0.000000   0.000000  -0.000000
     9  C   -0.000000  -0.000000   0.000000   0.000000   0.000000   0.000000
    10  C    0.000000  -0.000000   0.000000   0.000000   0.000000  -0.000000
[...]
 Two-electron integral symmetry is turned on.
 Leave Link  301 at Sun Jul 18 16:26:34 2021, MaxMem=   262144000 cpu:               0.2 elap:               0.1
 (Enter /prod/apps/gaussian/g16b1/l302.exe)
 NPDir=0 NMtPBC=     1 NCelOv=     1 NCel=       1 NClECP=     1 NCelD=      1
         NCelK=      1 NCelE2=     1 NClLst=     1 CellRange=     0.0.
 One-electron integrals computed using PRISM.
 One-electron integral symmetry used in STVInt
 NBasis=   567 RedAO= T EigKep=  1.37D-06  NBF=   567
 NBsUse=   566 1.00D-06 EigRej=  9.67D-07 NBFU=   566
 Leave Link  302 at Sun Jul 18 16:26:34 2021, MaxMem=   262144000 cpu:               1.7 elap:               0.4
 (Enter /prod/apps/gaussian/g16b1/l303.exe)
 DipDrv:  MaxL=1.
 Leave Link  303 at Sun Jul 18 16:26:34 2021, MaxMem=   262144000 cpu:               0.4 elap:               0.1
 (Enter /prod/apps/gaussian/g16b1/l401.exe)
 ExpMin= 2.97D-02 ExpMax= 1.11D+05 ExpMxC= 1.07D+03 IAcc=3 IRadAn=         5 AccDes= 0.00D+00
 Harris functional with IExCor=  205 and IRadAn=       5 diagonalized for initial guess.
 HarFok:  IExCor=  205 AccDes= 0.00D+00 IRadAn=         5 IDoV= 1 UseB2=F ITyADJ=14
 ICtDFT=  3500011 ScaDFX=  1.000000  1.000000  1.000000  1.000000
 FoFCou: FMM=F IPFlag=           0 FMFlag=      100000 FMFlg1=           0
         NFxFlg=           0 DoJE=T BraDBF=F KetDBF=T FulRan=T
         wScrn=  0.000000 ICntrl=       500 IOpCl=  0 I1Cent=   200000004 NGrid=           0
         NMat0=    1 NMatS0=      1 NMatT0=    0 NMatD0=    1 NMtDS0=    0 NMtDT0=    0
 Petite list used in FoFCou.
 Harris En= -1207.68381978014    
 JPrj=0 DoOrth=F DoCkMO=F.
 Leave Link  401 at Sun Jul 18 16:26:38 2021, MaxMem=   262144000 cpu:              13.4 elap:               3.4
 (Enter /prod/apps/gaussian/g16b1/l502.exe)
 Integral symmetry usage will be decided dynamically.
 Closed shell SCF:
 Using DIIS extrapolation, IDIIS=  1040.
 NGot=   262144000 LenX=   261402691 LenY=   261036061
 Requested convergence on RMS density matrix=1.00D-08 within 128 cycles.
 Requested convergence on MAX density matrix=1.00D-06.
 Requested convergence on             energy=1.00D-06.
 No special actions if energy rises.
 Fock matrices will be formed incrementally for  20 cycles.

 Cycle   1  Pass 1  IDiag  1:
 FoFJK:  IHMeth= 1 ICntrl=       0 DoSepK=F KAlg= 0 I1Cent=           0 FoldK=F
 IRaf= 880000000 NMat=       1 IRICut=       1 DoRegI=T DoRafI=F ISym2E= 0 IDoP0=0 IntGTp=1.
 FoFCou: FMM=F IPFlag=           0 FMFlag=      100000 FMFlg1=           0
         NFxFlg=           0 DoJE=F BraDBF=F KetDBF=F FulRan=T
         wScrn=  0.000000 ICntrl=         0 IOpCl=  0 I1Cent=           0 NGrid=           0
         NMat0=    1 NMatS0=      1 NMatT0=    0 NMatD0=    1 NMtDS0=    0 NMtDT0=    0
 Symmetry not used in FoFCou.
 E= -1206.43203471437    
 DIIS: error= 1.63D-02 at cycle   1 NSaved=   1.
 NSaved= 1 IEnMin= 1 EnMin= -1206.43203471437     IErMin= 1 ErrMin= 1.63D-02
 ErrMax= 1.63D-02  0.00D+00 EMaxC= 1.00D-01 BMatC= 9.55D-01 BMatP= 9.55D-01
 IDIUse=3 WtCom= 8.37D-01 WtEn= 1.63D-01
 Coeff-Com:  0.100D+01
 Coeff-En:   0.100D+01
 Coeff:      0.100D+01
 Gap=     0.543 Goal=   None    Shift=    0.000
 GapD=    0.543 DampG=2.000 DampE=0.500 DampFc=1.0000 IDamp=-1.
 RMSDP=7.10D-02 MaxDP=6.18D+00              OVMax= 2.21D-01

 Cycle   2  Pass 1  IDiag  1:
 RMSU=  2.82D-02    CP:  5.07D-01
 E= -1206.96723519562     Delta-E=       -0.535200481243 Rises=F Damp=F
 DIIS: error= 9.81D-03 at cycle   2 NSaved=   2.
 NSaved= 2 IEnMin= 2 EnMin= -1206.96723519562     IErMin= 2 ErrMin= 9.81D-03
 ErrMax= 9.81D-03  0.00D+00 EMaxC= 1.00D-01 BMatC= 1.91D-01 BMatP= 9.55D-01
 IDIUse=3 WtCom= 9.02D-01 WtEn= 9.81D-02
 Coeff-Com:  0.258D+00 0.742D+00
 Coeff-En:   0.000D+00 0.100D+01
 Coeff:      0.233D+00 0.767D+00
 Gap=     0.343 Goal=   None    Shift=    0.000
 RMSDP=7.51D-03 MaxDP=5.93D-01 DE=-5.35D-01 OVMax= 1.16D-01

 Cycle   3  Pass 1  IDiag  1:
 RMSU=  6.03D-03    CP:  5.08D-01  8.41D-01
 E= -1207.13194558701     Delta-E=       -0.164710391394 Rises=F Damp=F
 DIIS: error= 3.41D-03 at cycle   3 NSaved=   3.
 NSaved= 3 IEnMin= 3 EnMin= -1207.13194558701     IErMin= 3 ErrMin= 3.41D-03
 ErrMax= 3.41D-03  0.00D+00 EMaxC= 1.00D-01 BMatC= 2.55D-02 BMatP= 1.91D-01
 IDIUse=3 WtCom= 9.66D-01 WtEn= 3.41D-02
 Coeff-Com: -0.541D-02 0.239D+00 0.766D+00
 Coeff-En:   0.000D+00 0.000D+00 0.100D+01
 Coeff:     -0.522D-02 0.231D+00 0.774D+00
 Gap=     0.309 Goal=   None    Shift=    0.000
 RMSDP=2.32D-03 MaxDP=1.53D-01 DE=-1.65D-01 OVMax= 4.99D-02

 Cycle   4  Pass 1  IDiag  1:
 RMSU=  1.52D-03    CP:  5.01D-01  8.80D-01  8.50D-01
 E= -1207.15642573609     Delta-E=       -0.024480149083 Rises=F Damp=F
 DIIS: error= 1.15D-03 at cycle   4 NSaved=   4.
 NSaved= 4 IEnMin= 4 EnMin= -1207.15642573609     IErMin= 4 ErrMin= 1.15D-03
 ErrMax= 1.15D-03  0.00D+00 EMaxC= 1.00D-01 BMatC= 2.39D-03 BMatP= 2.55D-02
 IDIUse=3 WtCom= 9.89D-01 WtEn= 1.15D-02
 Coeff-Com: -0.195D-01 0.305D-01 0.278D+00 0.711D+00
 Coeff-En:   0.000D+00 0.000D+00 0.000D+00 0.100D+01
 Coeff:     -0.193D-01 0.302D-01 0.275D+00 0.715D+00
 Gap=     0.300 Goal=   None    Shift=    0.000
 RMSDP=6.91D-04 MaxDP=6.71D-02 DE=-2.45D-02 OVMax= 1.27D-02

 Cycle   5  Pass 1  IDiag  1:
 RMSU=  5.69D-04    CP:  4.99D-01  8.84D-01  8.80D-01  8.78D-01
 E= -1207.15911111661     Delta-E=       -0.002685380521 Rises=F Damp=F
 DIIS: error= 2.80D-04 at cycle   5 NSaved=   5.
 NSaved= 5 IEnMin= 5 EnMin= -1207.15911111661     IErMin= 5 ErrMin= 2.80D-04
 ErrMax= 2.80D-04  0.00D+00 EMaxC= 1.00D-01 BMatC= 1.09D-04 BMatP= 2.39D-03
 IDIUse=3 WtCom= 9.97D-01 WtEn= 2.80D-03
 Coeff-Com:  0.731D-03-0.195D-01-0.664D-01-0.129D-01 0.110D+01
 Coeff-En:   0.000D+00 0.000D+00 0.000D+00 0.000D+00 0.100D+01
 Coeff:      0.729D-03-0.195D-01-0.662D-01-0.128D-01 0.110D+01
 Gap=     0.300 Goal=   None    Shift=    0.000
 RMSDP=3.34D-04 MaxDP=4.52D-02 DE=-2.69D-03 OVMax= 5.97D-03

 Cycle   6  Pass 1  IDiag  1:
 RMSU=  1.99D-04    CP:  4.99D-01  8.85D-01  9.05D-01  9.94D-01  1.16D+00
 E= -1207.15944247324     Delta-E=       -0.000331356627 Rises=F Damp=F
 DIIS: error= 1.25D-04 at cycle   6 NSaved=   6.
 NSaved= 6 IEnMin= 6 EnMin= -1207.15944247324     IErMin= 6 ErrMin= 1.25D-04
 ErrMax= 1.25D-04  0.00D+00 EMaxC= 1.00D-01 BMatC= 2.23D-05 BMatP= 1.09D-04
 IDIUse=3 WtCom= 9.99D-01 WtEn= 1.25D-03
 Coeff-Com:  0.250D-02-0.808D-02-0.466D-01-0.949D-01 0.213D+00 0.934D+00
 Coeff-En:   0.000D+00 0.000D+00 0.000D+00 0.000D+00 0.000D+00 0.100D+01
 Coeff:      0.250D-02-0.807D-02-0.466D-01-0.948D-01 0.213D+00 0.934D+00
 Gap=     0.301 Goal=   None    Shift=    0.000
 RMSDP=1.35D-04 MaxDP=2.06D-02 DE=-3.31D-04 OVMax= 2.94D-03

 Cycle   7  Pass 1  IDiag  1:
 RMSU=  5.68D-05    CP:  5.00D-01  8.85D-01  9.13D-01  1.02D+00  1.31D+00
                    CP:  1.23D+00
 E= -1207.15950934461     Delta-E=       -0.000066871367 Rises=F Damp=F
 DIIS: error= 5.24D-05 at cycle   7 NSaved=   7.
 NSaved= 7 IEnMin= 7 EnMin= -1207.15950934461     IErMin= 7 ErrMin= 5.24D-05
 ErrMax= 5.24D-05  0.00D+00 EMaxC= 1.00D-01 BMatC= 3.90D-06 BMatP= 2.23D-05
 IDIUse=1 WtCom= 1.00D+00 WtEn= 0.00D+00
 Coeff-Com:  0.887D-04 0.183D-02 0.666D-02-0.755D-02-0.150D+00 0.909D-01
 Coeff-Com:  0.106D+01
 Coeff:      0.887D-04 0.183D-02 0.666D-02-0.755D-02-0.150D+00 0.909D-01
 Coeff:      0.106D+01
 Gap=     0.301 Goal=   None    Shift=    0.000
 RMSDP=7.62D-05 MaxDP=1.04D-02 DE=-6.69D-05 OVMax= 1.73D-03

 Cycle   8  Pass 1  IDiag  1:
 RMSU=  2.72D-05    CP:  5.00D-01  8.85D-01  9.16D-01  1.03D+00  1.36D+00
                    CP:  1.48D+00  1.32D+00
 E= -1207.15952456150     Delta-E=       -0.000015216890 Rises=F Damp=F
 DIIS: error= 2.77D-05 at cycle   8 NSaved=   8.
 NSaved= 8 IEnMin= 8 EnMin= -1207.15952456150     IErMin= 8 ErrMin= 2.77D-05
 ErrMax= 2.77D-05  0.00D+00 EMaxC= 1.00D-01 BMatC= 8.03D-07 BMatP= 3.90D-06
 IDIUse=1 WtCom= 1.00D+00 WtEn= 0.00D+00
 Coeff-Com: -0.483D-03 0.203D-02 0.111D-01 0.178D-01-0.686D-01-0.181D+00
 Coeff-Com:  0.183D+00 0.104D+01
 Coeff:     -0.483D-03 0.203D-02 0.111D-01 0.178D-01-0.686D-01-0.181D+00
 Coeff:      0.183D+00 0.104D+01
 Gap=     0.301 Goal=   None    Shift=    0.000
 RMSDP=3.74D-05 MaxDP=4.40D-03 DE=-1.52D-05 OVMax= 8.82D-04

 Cycle   9  Pass 1  IDiag  1:
 RMSU=  9.49D-06    CP:  5.00D-01  8.85D-01  9.18D-01  1.03D+00  1.39D+00
                    CP:  1.59D+00  1.57D+00  1.35D+00
 E= -1207.15952788074     Delta-E=       -0.000003319245 Rises=F Damp=F
 DIIS: error= 1.07D-05 at cycle   9 NSaved=   9.
 NSaved= 9 IEnMin= 9 EnMin= -1207.15952788074     IErMin= 9 ErrMin= 1.07D-05
 ErrMax= 1.07D-05  0.00D+00 EMaxC= 1.00D-01 BMatC= 1.14D-07 BMatP= 8.03D-07
 IDIUse=1 WtCom= 1.00D+00 WtEn= 0.00D+00
 Coeff-Com: -0.664D-04-0.882D-04 0.109D-03 0.382D-02 0.170D-01-0.340D-01
 Coeff-Com: -0.137D+00 0.711D-01 0.108D+01
 Coeff:     -0.664D-04-0.882D-04 0.109D-03 0.382D-02 0.170D-01-0.340D-01
 Coeff:     -0.137D+00 0.711D-01 0.108D+01
 Gap=     0.301 Goal=   None    Shift=    0.000
 RMSDP=1.24D-05 MaxDP=6.90D-04 DE=-3.32D-06 OVMax= 4.07D-04

 Cycle  10  Pass 1  IDiag  1:
 RMSU=  4.35D-06    CP:  5.00D-01  8.85D-01  9.18D-01  1.04D+00  1.40D+00
                    CP:  1.62D+00  1.65D+00  1.54D+00  1.46D+00
 E= -1207.15952840840     Delta-E=       -0.000000527656 Rises=F Damp=F
 DIIS: error= 6.60D-06 at cycle  10 NSaved=  10.
 NSaved=10 IEnMin=10 EnMin= -1207.15952840840     IErMin=10 ErrMin= 6.60D-06
 ErrMax= 6.60D-06  0.00D+00 EMaxC= 1.00D-01 BMatC= 2.20D-08 BMatP= 1.14D-07
 IDIUse=1 WtCom= 1.00D+00 WtEn= 0.00D+00
 Coeff-Com:  0.759D-04-0.359D-03-0.192D-02-0.252D-02 0.102D-01 0.293D-01
 Coeff-Com: -0.221D-01-0.187D+00-0.220D-01 0.120D+01
 Coeff:      0.759D-04-0.359D-03-0.192D-02-0.252D-02 0.102D-01 0.293D-01
 Coeff:     -0.221D-01-0.187D+00-0.220D-01 0.120D+01
 Gap=     0.301 Goal=   None    Shift=    0.000
 RMSDP=5.70D-06 MaxDP=3.05D-04 DE=-5.28D-07 OVMax= 1.89D-04

 Cycle  11  Pass 1  IDiag  1:
 RMSU=  2.25D-06    CP:  5.00D-01  8.85D-01  9.18D-01  1.04D+00  1.40D+00
                    CP:  1.63D+00  1.68D+00  1.61D+00  1.71D+00  1.52D+00
 E= -1207.15952851864     Delta-E=       -0.000000110244 Rises=F Damp=F
 DIIS: error= 2.71D-06 at cycle  11 NSaved=  11.
 NSaved=11 IEnMin=11 EnMin= -1207.15952851864     IErMin=11 ErrMin= 2.71D-06
 ErrMax= 2.71D-06  0.00D+00 EMaxC= 1.00D-01 BMatC= 5.05D-09 BMatP= 2.20D-08
 IDIUse=1 WtCom= 1.00D+00 WtEn= 0.00D+00
 Coeff-Com:  0.274D-04-0.694D-04-0.434D-03-0.997D-03-0.133D-02 0.114D-01
 Coeff-Com:  0.251D-01-0.489D-01-0.218D+00 0.242D+00 0.991D+00
 Coeff:      0.274D-04-0.694D-04-0.434D-03-0.997D-03-0.133D-02 0.114D-01
 Coeff:      0.251D-01-0.489D-01-0.218D+00 0.242D+00 0.991D+00
 Gap=     0.301 Goal=   None    Shift=    0.000
 RMSDP=2.60D-06 MaxDP=2.41D-04 DE=-1.10D-07 OVMax= 8.20D-05

 Cycle  12  Pass 1  IDiag  1:
 RMSU=  9.86D-07    CP:  5.00D-01  8.85D-01  9.18D-01  1.04D+00  1.40D+00
                    CP:  1.63D+00  1.70D+00  1.62D+00  1.80D+00  1.87D+00
                    CP:  1.32D+00
 E= -1207.15952853810     Delta-E=       -0.000000019455 Rises=F Damp=F
 DIIS: error= 1.19D-06 at cycle  12 NSaved=  12.
 NSaved=12 IEnMin=12 EnMin= -1207.15952853810     IErMin=12 ErrMin= 1.19D-06
 ErrMax= 1.19D-06  0.00D+00 EMaxC= 1.00D-01 BMatC= 8.35D-10 BMatP= 5.05D-09
 IDIUse=1 WtCom= 1.00D+00 WtEn= 0.00D+00
 Coeff-Com: -0.146D-04 0.677D-04 0.358D-03 0.652D-03-0.173D-02-0.723D-02
 Coeff-Com:  0.289D-02 0.397D-01 0.133D-01-0.244D+00-0.712D-01 0.127D+01
 Coeff:     -0.146D-04 0.677D-04 0.358D-03 0.652D-03-0.173D-02-0.723D-02
 Coeff:      0.289D-02 0.397D-01 0.133D-01-0.244D+00-0.712D-01 0.127D+01
 Gap=     0.301 Goal=   None    Shift=    0.000
 RMSDP=1.51D-06 MaxDP=1.04D-04 DE=-1.95D-08 OVMax= 4.12D-05

 Cycle  13  Pass 1  IDiag  1:
 RMSU=  4.54D-07    CP:  5.00D-01  8.85D-01  9.18D-01  1.04D+00  1.40D+00
                    CP:  1.63D+00  1.70D+00  1.62D+00  1.83D+00  2.03D+00
                    CP:  1.63D+00  1.40D+00
 E= -1207.15952854276     Delta-E=       -0.000000004664 Rises=F Damp=F
 DIIS: error= 4.61D-07 at cycle  13 NSaved=  13.
 NSaved=13 IEnMin=13 EnMin= -1207.15952854276     IErMin=13 ErrMin= 4.61D-07
 ErrMax= 4.61D-07  0.00D+00 EMaxC= 1.00D-01 BMatC= 1.51D-10 BMatP= 8.35D-10
 IDIUse=1 WtCom= 1.00D+00 WtEn= 0.00D+00
 Coeff-Com: -0.553D-05 0.172D-04 0.883D-04 0.219D-03 0.173D-03-0.262D-02
 Coeff-Com: -0.361D-02 0.107D-01 0.381D-01-0.526D-01-0.174D+00 0.631D-01
 Coeff-Com:  0.112D+01
 Coeff:     -0.553D-05 0.172D-04 0.883D-04 0.219D-03 0.173D-03-0.262D-02
 Coeff:     -0.361D-02 0.107D-01 0.381D-01-0.526D-01-0.174D+00 0.631D-01
 Coeff:      0.112D+01
 Gap=     0.301 Goal=   None    Shift=    0.000
 RMSDP=5.71D-07 MaxDP=5.45D-05 DE=-4.66D-09 OVMax= 1.75D-05

 Cycle  14  Pass 1  IDiag  1:
 RMSU=  1.56D-07    CP:  5.00D-01  8.85D-01  9.18D-01  1.04D+00  1.40D+00
                    CP:  1.63D+00  1.70D+00  1.62D+00  1.84D+00  2.10D+00
                    CP:  1.71D+00  1.61D+00  1.33D+00
 E= -1207.15952854350     Delta-E=       -0.000000000736 Rises=F Damp=F
 DIIS: error= 2.17D-07 at cycle  14 NSaved=  14.
 NSaved=14 IEnMin=14 EnMin= -1207.15952854350     IErMin=14 ErrMin= 2.17D-07
 ErrMax= 2.17D-07  0.00D+00 EMaxC= 1.00D-01 BMatC= 2.56D-11 BMatP= 1.51D-10
 IDIUse=1 WtCom= 1.00D+00 WtEn= 0.00D+00
 Coeff-Com:  0.241D-05-0.116D-04-0.672D-04-0.111D-03 0.440D-03 0.115D-02
 Coeff-Com: -0.917D-03-0.760D-02 0.133D-02 0.451D-01 0.435D-02-0.265D+00
 Coeff-Com:  0.979D-01 0.112D+01
 Coeff:      0.241D-05-0.116D-04-0.672D-04-0.111D-03 0.440D-03 0.115D-02
 Coeff:     -0.917D-03-0.760D-02 0.133D-02 0.451D-01 0.435D-02-0.265D+00
 Coeff:      0.979D-01 0.112D+01
 Gap=     0.301 Goal=   None    Shift=    0.000
 RMSDP=2.83D-07 MaxDP=3.35D-05 DE=-7.36D-10 OVMax= 6.90D-06

 Cycle  15  Pass 1  IDiag  1:
 RMSU=  6.48D-08    CP:  5.00D-01  8.85D-01  9.18D-01  1.04D+00  1.40D+00
                    CP:  1.63D+00  1.71D+00  1.62D+00  1.85D+00  2.13D+00
                    CP:  1.75D+00  1.67D+00  1.53D+00  1.34D+00
 E= -1207.15952854365     Delta-E=       -0.000000000150 Rises=F Damp=F
 DIIS: error= 5.80D-08 at cycle  15 NSaved=  15.
 NSaved=15 IEnMin=15 EnMin= -1207.15952854365     IErMin=15 ErrMin= 5.80D-08
 ErrMax= 5.80D-08  0.00D+00 EMaxC= 1.00D-01 BMatC= 2.84D-12 BMatP= 2.56D-11
 IDIUse=1 WtCom= 1.00D+00 WtEn= 0.00D+00
 Coeff-Com:  0.633D-06-0.192D-05-0.101D-04-0.296D-04-0.225D-04 0.263D-03
 Coeff-Com:  0.511D-03-0.115D-02-0.447D-02 0.384D-02 0.243D-01-0.611D-02
 Coeff-Com: -0.136D+00-0.384D-01 0.116D+01
 Coeff:      0.633D-06-0.192D-05-0.101D-04-0.296D-04-0.225D-04 0.263D-03
 Coeff:      0.511D-03-0.115D-02-0.447D-02 0.384D-02 0.243D-01-0.611D-02
 Coeff:     -0.136D+00-0.384D-01 0.116D+01
 Gap=     0.301 Goal=   None    Shift=    0.000
 RMSDP=8.54D-08 MaxDP=1.11D-05 DE=-1.50D-10 OVMax= 2.40D-06

 Cycle  16  Pass 1  IDiag  1:
 RMSU=  2.14D-08    CP:  5.00D-01  8.85D-01  9.18D-01  1.04D+00  1.40D+00
                    CP:  1.63D+00  1.71D+00  1.62D+00  1.85D+00  2.14D+00
                    CP:  1.76D+00  1.68D+00  1.56D+00  1.49D+00  1.29D+00
 E= -1207.15952854363     Delta-E=        0.000000000021 Rises=F Damp=F
 DIIS: error= 3.55D-08 at cycle  16 NSaved=  16.
 NSaved=16 IEnMin=15 EnMin= -1207.15952854365     IErMin=16 ErrMin= 3.55D-08
 ErrMax= 3.55D-08  0.00D+00 EMaxC= 1.00D-01 BMatC= 4.72D-13 BMatP= 2.84D-12
 IDIUse=1 WtCom= 1.00D+00 WtEn= 0.00D+00
 Coeff-Com: -0.274D-06 0.138D-05 0.887D-05 0.121D-04-0.599D-04-0.145D-03
 Coeff-Com:  0.193D-03 0.945D-03-0.704D-03-0.613D-02 0.340D-02 0.340D-01
 Coeff-Com: -0.232D-01-0.162D+00 0.128D+00 0.103D+01
 Coeff:     -0.274D-06 0.138D-05 0.887D-05 0.121D-04-0.599D-04-0.145D-03
 Coeff:      0.193D-03 0.945D-03-0.704D-03-0.613D-02 0.340D-02 0.340D-01
 Coeff:     -0.232D-01-0.162D+00 0.128D+00 0.103D+01
 Gap=     0.301 Goal=   None    Shift=    0.000
 RMSDP=2.51D-08 MaxDP=2.89D-06 DE= 2.14D-11 OVMax= 6.93D-07

 Cycle  17  Pass 1  IDiag  1:
 RMSU=  9.47D-09    CP:  5.00D-01  8.85D-01  9.18D-01  1.04D+00  1.40D+00
                    CP:  1.63D+00  1.71D+00  1.62D+00  1.85D+00  2.14D+00
                    CP:  1.76D+00  1.68D+00  1.57D+00  1.51D+00  1.36D+00
                    CP:  1.27D+00
 E= -1207.15952854363     Delta-E=       -0.000000000007 Rises=F Damp=F
 DIIS: error= 1.23D-08 at cycle  17 NSaved=  17.
 NSaved=17 IEnMin=15 EnMin= -1207.15952854365     IErMin=17 ErrMin= 1.23D-08
 ErrMax= 1.23D-08  0.00D+00 EMaxC= 1.00D-01 BMatC= 9.51D-14 BMatP= 4.72D-13
 IDIUse=1 WtCom= 1.00D+00 WtEn= 0.00D+00
 Coeff-Com: -0.142D-06 0.449D-06 0.302D-05 0.666D-05-0.301D-06-0.672D-04
 Coeff-Com: -0.722D-04 0.327D-03 0.801D-03-0.136D-02-0.372D-02 0.304D-02
 Coeff-Com:  0.260D-01-0.123D-01-0.197D+00 0.939D-01 0.109D+01
 Coeff:     -0.142D-06 0.449D-06 0.302D-05 0.666D-05-0.301D-06-0.672D-04
 Coeff:     -0.722D-04 0.327D-03 0.801D-03-0.136D-02-0.372D-02 0.304D-02
 Coeff:      0.260D-01-0.123D-01-0.197D+00 0.939D-01 0.109D+01
 Gap=     0.301 Goal=   None    Shift=    0.000
 RMSDP=1.04D-08 MaxDP=8.17D-07 DE=-7.28D-12 OVMax= 3.10D-07

 Cycle  18  Pass 1  IDiag  1:
 RMSU=  4.16D-09    CP:  5.00D-01  8.85D-01  9.18D-01  1.04D+00  1.40D+00
                    CP:  1.63D+00  1.71D+00  1.62D+00  1.85D+00  2.14D+00
                    CP:  1.76D+00  1.68D+00  1.57D+00  1.52D+00  1.37D+00
                    CP:  1.49D+00  1.37D+00
 E= -1207.15952854361     Delta-E=        0.000000000021 Rises=F Damp=F
 DIIS: error= 7.09D-09 at cycle  18 NSaved=  18.
 NSaved=18 IEnMin=15 EnMin= -1207.15952854365     IErMin=18 ErrMin= 7.09D-09
 ErrMax= 7.09D-09  0.00D+00 EMaxC= 1.00D-01 BMatC= 1.71D-14 BMatP= 9.51D-14
 IDIUse=1 WtCom= 1.00D+00 WtEn= 0.00D+00
 Coeff-Com:  0.213D-07-0.173D-06-0.846D-06-0.884D-06 0.916D-05 0.112D-04
 Coeff-Com: -0.451D-04-0.994D-04 0.208D-03 0.689D-03-0.101D-02-0.540D-02
 Coeff-Com:  0.903D-02 0.216D-01-0.547D-01-0.143D+00 0.151D+00 0.102D+01
 Coeff:      0.213D-07-0.173D-06-0.846D-06-0.884D-06 0.916D-05 0.112D-04
 Coeff:     -0.451D-04-0.994D-04 0.208D-03 0.689D-03-0.101D-02-0.540D-02
 Coeff:      0.903D-02 0.216D-01-0.547D-01-0.143D+00 0.151D+00 0.102D+01
 Gap=     0.301 Goal=   None    Shift=    0.000
 RMSDP=5.62D-09 MaxDP=3.42D-07 DE= 2.14D-11 OVMax= 1.62D-07

 SCF Done:  E(RHF) =  -1207.15952854     A.U. after   18 cycles
            NFock= 18  Conv=0.56D-08     -V/T= 2.0010
 KE= 1.205976409715D+03 PE=-5.733792633994D+03 EE= 1.864152916605D+03
 Leave Link  502 at Sun Jul 18 16:39:45 2021, MaxMem=   262144000 cpu:            3148.2 elap:             787.3
 (Enter /prod/apps/gaussian/g16b1/l801.exe)
 ExpMin= 2.97D-02 ExpMax= 1.11D+05 ExpMxC= 1.07D+03 IAcc=3 IRadAn=         5 AccDes= 0.00D+00
 HarFok:  IExCor=  205 AccDes= 0.00D+00 IRadAn=         5 IDoV=-2 UseB2=F ITyADJ=14
 ICtDFT= 12500011 ScaDFX=  1.000000  1.000000  1.000000  1.000000
 GSVD:  LWork=        -713 too small for GESVD, short by        2990 words or        2990 for optimal perf.
 Largest valence mixing into a core orbital is  3.28D-04
 Largest core mixing into a valence orbital is  8.86D-05
 Range of M.O.s used for correlation:    24   566
 NBasis=   567 NAE=    72 NBE=    72 NFC=    23 NFV=     0
 NROrb=    543 NOA=    49 NOB=    49 NVA=   494 NVB=   494

 **** Warning!!: The largest alpha MO coefficient is  0.18235490D+03

 Leave Link  801 at Sun Jul 18 16:39:45 2021, MaxMem=   262144000 cpu:               0.9 elap:               0.3
 (Enter /prod/apps/gaussian/g16b1/l906.exe)
 FulOut=F Deriv=F AODrv=F NAtomX=    33
   MMem=           4  MDisk=          49 MDiskD=          49
  W3Min=    14644630 MinDsk=    15119279 NBas6D=         605
 NBas2D=      184143    NTT=      183315    LW2=     2000000
    MDV=   260002676 MDiskM=        5922 NBas2p=      156529
 Disk-based method using OVN memory for 49 occupieds at a time.
 Estimated scratch disk usage= 11626265774 words.
 IMap=   1   2   3   4   5   6   7   8   9  10  11  12  13  14  15  16  17  18  19  20
 IMap=  21  22  23  24  25  26  27  28  29  30  31  32  33  34  35  36  37  38  39  40
 IMap=  41  42  43  44  45  46  47  48  49
 Actual    scratch disk usage= 11396547758 words.
 JobTyp=1 Pass  1:  I=   1 to  49 NPSUse=  4 ParTrn=T ParDer=T DoDerP=F.
