 Entering Gaussian System, Link 0=g16
 Initial command:
 /prod/apps/gaussian/g16b1/l1.exe "/tmp/ubator02/1839580/Gau-224400.inp" -scrdir="/tmp/ubator02/1839580/"
 Entering Link 1 = /prod/apps/gaussian/g16b1/l1.exe PID=    224406.
  
 Copyright (c) 1988-2017, Gaussian, Inc.  All Rights Reserved.
  
 This is part of the Gaussian(R) 16 program.  It is based on
 the Gaussian(R) 09 system (copyright 2009, Gaussian, Inc.),
 the Gaussian(R) 03 system (copyright 2003, Gaussian, Inc.),
 the Gaussian(R) 98 system (copyright 1998, Gaussian, Inc.),
 the Gaussian(R) 94 system (copyright 1995, Gaussian, Inc.),
 the Gaussian 92(TM) system (copyright 1992, Gaussian, Inc.),
 the Gaussian 90(TM) system (copyright 1990, Gaussian, Inc.),
 the Gaussian 88(TM) system (copyright 1988, Gaussian, Inc.),
 the Gaussian 86(TM) system (copyright 1986, Carnegie Mellon
 University), and the Gaussian 82(TM) system (copyright 1983,
 Carnegie Mellon University). Gaussian is a federally registered
 trademark of Gaussian, Inc.
  
 This software contains proprietary and confidential information,
 including trade secrets, belonging to Gaussian, Inc.
  
 This software is provided under written license and may be
 used, copied, transmitted, or stored only in accord with that
 written license.
  
 The following legend is applicable only to US Government
 contracts under FAR:
  
                    RESTRICTED RIGHTS LEGEND
  
 Use, reproduction and disclosure by the US Government is
 subject to restrictions as set forth in subparagraphs (a)
 and (c) of the Commercial Computer Software - Restricted
 Rights clause in FAR 52.227-19.
  
 Gaussian, Inc.
 340 Quinnipiac St., Bldg. 40, Wallingford CT 06492
  
  
 ---------------------------------------------------------------
 Warning -- This program may not be used in any manner that
 competes with the business of Gaussian, Inc. or will provide
 assistance to any competitor of Gaussian, Inc.  The licensee
 of this program is prohibited from giving any competitor of
 Gaussian, Inc. access to this program.  By using this program,
 the user acknowledges that Gaussian, Inc. is engaged in the
 business of creating and licensing software in the field of
 computational chemistry and represents and warrants to the
 licensee that it is not a competitor of Gaussian, Inc. and that
 it will not use this program in any manner prohibited above.
 ---------------------------------------------------------------
  

 Cite this work as:
 Gaussian 16, Revision B.01,
 M. J. Frisch, G. W. Trucks, H. B. Schlegel, G. E. Scuseria, 
 M. A. Robb, J. R. Cheeseman, G. Scalmani, V. Barone, 
 G. A. Petersson, H. Nakatsuji, X. Li, M. Caricato, A. V. Marenich, 
 J. Bloino, B. G. Janesko, R. Gomperts, B. Mennucci, H. P. Hratchian, 
 J. V. Ortiz, A. F. Izmaylov, J. L. Sonnenberg, D. Williams-Young, 
 F. Ding, F. Lipparini, F. Egidi, J. Goings, B. Peng, A. Petrone, 
 T. Henderson, D. Ranasinghe, V. G. Zakrzewski, J. Gao, N. Rega, 
 G. Zheng, W. Liang, M. Hada, M. Ehara, K. Toyota, R. Fukuda, 
 J. Hasegawa, M. Ishida, T. Nakajima, Y. Honda, O. Kitao, H. Nakai, 
 T. Vreven, K. Throssell, J. A. Montgomery, Jr., J. E. Peralta, 
 F. Ogliaro, M. J. Bearpark, J. J. Heyd, E. N. Brothers, K. N. Kudin, 
 V. N. Staroverov, T. A. Keith, R. Kobayashi, J. Normand, 
 K. Raghavachari, A. P. Rendell, J. C. Burant, S. S. Iyengar, 
 J. Tomasi, M. Cossi, J. M. Millam, M. Klene, C. Adamo, R. Cammi, 
 J. W. Ochterski, R. L. Martin, K. Morokuma, O. Farkas, 
 J. B. Foresman, and D. J. Fox, Gaussian, Inc., Wallingford CT, 2016.
 
 ******************************************
 Gaussian 16:  ES64L-G16RevB.01 20-Dec-2017
                18-Jul-2021 
 ******************************************
 %mem=800MB
 %nproc=4
 Will use up to    4 processors via shared memory.
 %chk=SET_328_BBB292_conf1.geo_255_060_105.chk
 -----------------------------------------------------------
 #p b3lyp/6-31G(d) opt freq scrf=(iefpcm,read,solvent=water)
 -----------------------------------------------------------
 1/18=20,19=15,26=3,38=1,40=2/1,3;
 2/9=110,12=2,17=6,18=5,40=1/2;
 3/5=1,6=6,7=1,11=2,25=1,30=1,70=2203,71=1,72=1,74=-5/1,2,3;
 4//1;
 5/5=2,38=5,53=1/2;
 6/7=2,8=2,9=2,10=2,28=1/1;
 7//1,2,3,16;
 1/18=20,19=15,26=3/3(2);
 2/9=110/2;
 99//99;
 2/9=110/2;
 3/5=1,6=6,7=1,11=2,25=1,30=1,70=2205,71=1,72=1,74=-5/1,2,3;
 4/5=5,16=3,69=1/1;
 5/5=2,38=5,53=1/2;
 7//1,2,3,16;
 1/18=20,19=15,26=3/3(-5);
 2/9=110/2;
 6/7=2,8=2,9=2,10=2,19=2,28=1/1;
 99/9=1/99;
 Leave Link    1 at Sun Jul 18 13:46:45 2021, MaxMem=   104857600 cpu:               0.1 elap:               0.0
 (Enter /prod/apps/gaussian/g16b1/l101.exe)
 ---------------------------------------------
 SET_328_BBB292_conf1.geo_255_060_105 geometry
 ---------------------------------------------
 Symbolic Z-matrix:
 Charge =  1 Multiplicity = 1
 N                    -1.704     3.077    -0.775 
 H                    -1.344     3.996    -0.937 
 H                    -2.323     3.095     0.011 
 C                    -0.515     2.092    -0.483 
 C                     0.44      1.821    -1.688 
 O                    -0.212     2.386    -2.654 
 H                    -0.96      2.669    -2.098 
 O                     1.624     1.818    -1.649 
 H                     0.103     2.347     0.382 
 C                    -1.245     0.874    -0.12 
 H                    -1.965     0.576    -0.885 
 H                    -1.841     1.044     0.779 
 C                    -0.327    -0.32      0.296 
 C                    -0.103    -1.396    -0.571 
 H                    -0.549    -1.415    -1.562 
 C                     0.704    -2.408    -0.199 
 O                     1.033    -3.298    -1.187 
 H                     1.33     -4.089    -0.703 
 C                     1.199    -2.526     1.071 
 O                     1.961    -3.599     1.438 
 H                     1.681    -3.762     2.356 
 C                     1.042    -1.501     1.988 
 H                     1.475    -1.584     2.982 
 C                     0.27     -0.403     1.622 
 H                     0.121     0.361     2.38 
 H                    -2.202     2.767    -1.585 
 
 ITRead=  0  0  0  0  0  0  0  0  0  0  0  0  0  0  0  0  0  0  0  0
 ITRead=  0  0  0  0  0  0
 MicOpt= -1 -1 -1 -1 -1 -1 -1 -1 -1 -1 -1 -1 -1 -1 -1 -1 -1 -1 -1 -1
 MicOpt= -1 -1 -1 -1 -1 -1
 NAtoms=     26 NQM=       26 NQMF=       0 NMMI=      0 NMMIF=      0
                NMic=       0 NMicF=      0.
                    Isotopes and Nuclear Properties:
 (Nuclear quadrupole moments (NQMom) in fm**2, nuclear magnetic moments (NMagM)
  in nuclear magnetons)

  Atom         1           2           3           4           5           6           7           8           9          10
 IAtWgt=          14           1           1          12          12          16           1          16           1          12
 AtmWgt=  14.0030740   1.0078250   1.0078250  12.0000000  12.0000000  15.9949146   1.0078250  15.9949146   1.0078250  12.0000000
 NucSpn=           2           1           1           0           0           0           1           0           1           0
 AtZEff=  -0.0000000  -0.0000000  -0.0000000  -0.0000000  -0.0000000  -0.0000000  -0.0000000  -0.0000000  -0.0000000  -0.0000000
 NQMom=    2.0440000   0.0000000   0.0000000   0.0000000   0.0000000   0.0000000   0.0000000   0.0000000   0.0000000   0.0000000
 NMagM=    0.4037610   2.7928460   2.7928460   0.0000000   0.0000000   0.0000000   2.7928460   0.0000000   2.7928460   0.0000000
 AtZNuc=   7.0000000   1.0000000   1.0000000   6.0000000   6.0000000   8.0000000   1.0000000   8.0000000   1.0000000   6.0000000

  Atom        11          12          13          14          15          16          17          18          19          20
 IAtWgt=           1           1          12          12           1          12          16           1          12          16
 AtmWgt=   1.0078250   1.0078250  12.0000000  12.0000000   1.0078250  12.0000000  15.9949146   1.0078250  12.0000000  15.9949146
 NucSpn=           1           1           0           0           1           0           0           1           0           0
 AtZEff=  -0.0000000  -0.0000000  -0.0000000  -0.0000000  -0.0000000  -0.0000000  -0.0000000  -0.0000000  -0.0000000  -0.0000000
 NQMom=    0.0000000   0.0000000   0.0000000   0.0000000   0.0000000   0.0000000   0.0000000   0.0000000   0.0000000   0.0000000
 NMagM=    2.7928460   2.7928460   0.0000000   0.0000000   2.7928460   0.0000000   0.0000000   2.7928460   0.0000000   0.0000000
 AtZNuc=   1.0000000   1.0000000   6.0000000   6.0000000   1.0000000   6.0000000   8.0000000   1.0000000   6.0000000   8.0000000

  Atom        21          22          23          24          25          26
 IAtWgt=           1          12           1          12           1           1
 AtmWgt=   1.0078250  12.0000000   1.0078250  12.0000000   1.0078250   1.0078250
 NucSpn=           1           0           1           0           1           1
 AtZEff=  -0.0000000  -0.0000000  -0.0000000  -0.0000000  -0.0000000  -0.0000000
 NQMom=    0.0000000   0.0000000   0.0000000   0.0000000   0.0000000   0.0000000
 NMagM=    2.7928460   0.0000000   2.7928460   0.0000000   2.7928460   2.7928460
 AtZNuc=   1.0000000   6.0000000   1.0000000   6.0000000   1.0000000   1.0000000
 Leave Link  101 at Sun Jul 18 13:46:45 2021, MaxMem=   104857600 cpu:               0.5 elap:               0.1
 (Enter /prod/apps/gaussian/g16b1/l103.exe)

 GradGradGradGradGradGradGradGradGradGradGradGradGradGradGradGradGradGrad
 Berny optimization.
 Initialization pass.
                           ----------------------------
                           !    Initial Parameters    !
                           ! (Angstroms and Degrees)  !
 --------------------------                            --------------------------
 ! Name  Definition              Value          Derivative Info.                !
 --------------------------------------------------------------------------------
 ! R1    R(1,2)                  1.0002         estimate D2E/DX2                !
 ! R2    R(1,3)                  1.0006         estimate D2E/DX2                !
 ! R3    R(1,4)                  1.5714         estimate D2E/DX2                !
 ! R4    R(1,26)                 1.0001         estimate D2E/DX2                !
 ! R5    R(4,5)                  1.5612         estimate D2E/DX2                !
 ! R6    R(4,9)                  1.0932         estimate D2E/DX2                !
 ! R7    R(4,10)                 1.4657         estimate D2E/DX2                !
 ! R8    R(5,6)                  1.2952         estimate D2E/DX2                !
 ! R9    R(5,8)                  1.1846         estimate D2E/DX2                !
 ! R10   R(6,7)                  0.974          estimate D2E/DX2                !
 ! R11   R(10,11)                1.092          estimate D2E/DX2                !
 ! R12   R(10,12)                1.0919         estimate D2E/DX2                !
 ! R13   R(10,13)                1.5625         estimate D2E/DX2                !
 ! R14   R(13,14)                1.3999         estimate D2E/DX2                !
 ! R15   R(13,24)                1.4566         estimate D2E/DX2                !
 ! R16   R(14,15)                1.0869         estimate D2E/DX2                !
 ! R17   R(14,16)                1.3468         estimate D2E/DX2                !
 ! R18   R(16,17)                1.3698         estimate D2E/DX2                !
 ! R19   R(16,19)                1.3682         estimate D2E/DX2                !
 ! R20   R(17,18)                0.9737         estimate D2E/DX2                !
 ! R21   R(19,20)                1.3663         estimate D2E/DX2                !
 ! R22   R(19,22)                1.3843         estimate D2E/DX2                !
 ! R23   R(20,21)                0.9735         estimate D2E/DX2                !
 ! R24   R(22,23)                1.0874         estimate D2E/DX2                !
 ! R25   R(22,24)                1.3912         estimate D2E/DX2                !
 ! R26   R(24,25)                1.0865         estimate D2E/DX2                !
 ! A1    A(2,1,3)              109.4722         estimate D2E/DX2                !
 ! A2    A(2,1,4)              109.4937         estimate D2E/DX2                !
 ! A3    A(2,1,26)             109.4418         estimate D2E/DX2                !
 ! A4    A(3,1,4)              109.4744         estimate D2E/DX2                !
 ! A5    A(3,1,26)             109.4953         estimate D2E/DX2                !
 ! A6    A(4,1,26)             109.4499         estimate D2E/DX2                !
 ! A7    A(1,4,5)              115.3551         estimate D2E/DX2                !
 ! A8    A(1,4,9)              115.3758         estimate D2E/DX2                !
 ! A9    A(1,4,10)             100.9569         estimate D2E/DX2                !
 ! A10   A(5,4,9)              107.7815         estimate D2E/DX2                !
 ! A11   A(5,4,10)             110.5833         estimate D2E/DX2                !
 ! A12   A(9,4,10)             106.226          estimate D2E/DX2                !
 ! A13   A(4,5,6)              101.0699         estimate D2E/DX2                !
 ! A14   A(4,5,8)              125.9011         estimate D2E/DX2                !
 ! A15   A(6,5,8)              121.9237         estimate D2E/DX2                !
 ! A16   A(5,6,7)               95.0248         estimate D2E/DX2                !
 ! A17   A(4,10,11)            112.4376         estimate D2E/DX2                !
 ! A18   A(4,10,12)            110.2663         estimate D2E/DX2                !
 ! A19   A(4,10,13)            114.101          estimate D2E/DX2                !
 ! A20   A(11,10,12)           105.0331         estimate D2E/DX2                !
 ! A21   A(11,10,13)           111.4298         estimate D2E/DX2                !
 ! A22   A(12,10,13)           102.7356         estimate D2E/DX2                !
 ! A23   A(10,13,14)           121.0966         estimate D2E/DX2                !
 ! A24   A(10,13,24)           121.7844         estimate D2E/DX2                !
 ! A25   A(14,13,24)           117.029          estimate D2E/DX2                !
 ! A26   A(13,14,15)           120.8285         estimate D2E/DX2                !
 ! A27   A(13,14,16)           120.1583         estimate D2E/DX2                !
 ! A28   A(15,14,16)           118.9857         estimate D2E/DX2                !
 ! A29   A(14,16,17)           115.6519         estimate D2E/DX2                !
 ! A30   A(14,16,19)           122.548          estimate D2E/DX2                !
 ! A31   A(17,16,19)           121.7742         estimate D2E/DX2                !
 ! A32   A(16,17,18)           104.0364         estimate D2E/DX2                !
 ! A33   A(16,19,20)           121.2563         estimate D2E/DX2                !
 ! A34   A(16,19,22)           120.6655         estimate D2E/DX2                !
 ! A35   A(20,19,22)           117.8297         estimate D2E/DX2                !
 ! A36   A(19,20,21)           102.9668         estimate D2E/DX2                !
 ! A37   A(19,22,23)           120.2566         estimate D2E/DX2                !
 ! A38   A(19,22,24)           118.2331         estimate D2E/DX2                !
 ! A39   A(23,22,24)           121.4454         estimate D2E/DX2                !
 ! A40   A(13,24,22)           120.7907         estimate D2E/DX2                !
 ! A41   A(13,24,25)           122.605          estimate D2E/DX2                !
 ! A42   A(22,24,25)           116.5853         estimate D2E/DX2                !
 ! D1    D(2,1,4,5)            -67.3113         estimate D2E/DX2                !
 ! D2    D(2,1,4,9)             59.4724         estimate D2E/DX2                !
 ! D3    D(2,1,4,10)           173.4787         estimate D2E/DX2                !
 ! D4    D(3,1,4,5)            172.6718         estimate D2E/DX2                !
 ! D5    D(3,1,4,9)            -60.5445         estimate D2E/DX2                !
 ! D6    D(3,1,4,10)            53.4618         estimate D2E/DX2                !
 ! D7    D(26,1,4,5)            52.6534         estimate D2E/DX2                !
 ! D8    D(26,1,4,9)           179.4371         estimate D2E/DX2                !
 ! D9    D(26,1,4,10)          -66.5566         estimate D2E/DX2                !
 ! D10   D(1,4,5,6)             -9.3093         estimate D2E/DX2                !
 ! D11   D(1,4,5,8)            134.4761         estimate D2E/DX2                !
 ! D12   D(9,4,5,6)           -139.8511         estimate D2E/DX2                !
 ! D13   D(9,4,5,8)              3.9342         estimate D2E/DX2                !
 ! D14   D(10,4,5,6)           104.4338         estimate D2E/DX2                !
 ! D15   D(10,4,5,8)          -111.7808         estimate D2E/DX2                !
 ! D16   D(1,4,10,11)           54.2193         estimate D2E/DX2                !
 ! D17   D(1,4,10,12)          -62.628          estimate D2E/DX2                !
 ! D18   D(1,4,10,13)         -177.6281         estimate D2E/DX2                !
 ! D19   D(5,4,10,11)          -68.371          estimate D2E/DX2                !
 ! D20   D(5,4,10,12)          174.7817         estimate D2E/DX2                !
 ! D21   D(5,4,10,13)           59.7816         estimate D2E/DX2                !
 ! D22   D(9,4,10,11)          174.9472         estimate D2E/DX2                !
 ! D23   D(9,4,10,12)           58.0999         estimate D2E/DX2                !
 ! D24   D(9,4,10,13)          -56.9002         estimate D2E/DX2                !
 ! D25   D(4,5,6,7)             -0.5919         estimate D2E/DX2                !
 ! D26   D(8,5,6,7)           -146.2689         estimate D2E/DX2                !
 ! D27   D(4,10,13,14)        -104.4283         estimate D2E/DX2                !
 ! D28   D(4,10,13,24)          79.1241         estimate D2E/DX2                !
 ! D29   D(11,10,13,14)         24.2362         estimate D2E/DX2                !
 ! D30   D(11,10,13,24)       -152.2114         estimate D2E/DX2                !
 ! D31   D(12,10,13,14)        136.222          estimate D2E/DX2                !
 ! D32   D(12,10,13,24)        -40.2256         estimate D2E/DX2                !
 ! D33   D(10,13,14,15)          1.1669         estimate D2E/DX2                !
 ! D34   D(10,13,14,16)        179.2404         estimate D2E/DX2                !
 ! D35   D(24,13,14,15)        177.7772         estimate D2E/DX2                !
 ! D36   D(24,13,14,16)         -4.1494         estimate D2E/DX2                !
 ! D37   D(10,13,24,22)        177.4897         estimate D2E/DX2                !
 ! D38   D(10,13,24,25)         -0.8715         estimate D2E/DX2                !
 ! D39   D(14,13,24,22)          0.9045         estimate D2E/DX2                !
 ! D40   D(14,13,24,25)       -177.4568         estimate D2E/DX2                !
 ! D41   D(13,14,16,17)       -169.7718         estimate D2E/DX2                !
 ! D42   D(13,14,16,19)          8.4062         estimate D2E/DX2                !
 ! D43   D(15,14,16,17)          8.337          estimate D2E/DX2                !
 ! D44   D(15,14,16,19)       -173.485          estimate D2E/DX2                !
 ! D45   D(14,16,17,18)       -160.7217         estimate D2E/DX2                !
 ! D46   D(19,16,17,18)         21.0849         estimate D2E/DX2                !
 ! D47   D(14,16,19,20)        176.6781         estimate D2E/DX2                !
 ! D48   D(14,16,19,22)         -9.1737         estimate D2E/DX2                !
 ! D49   D(17,16,19,20)         -5.254          estimate D2E/DX2                !
 ! D50   D(17,16,19,22)        168.8943         estimate D2E/DX2                !
 ! D51   D(16,19,20,21)       -143.4578         estimate D2E/DX2                !
 ! D52   D(22,19,20,21)         42.2334         estimate D2E/DX2                !
 ! D53   D(16,19,22,23)       -177.364          estimate D2E/DX2                !
 ! D54   D(16,19,22,24)          5.5248         estimate D2E/DX2                !
 ! D55   D(20,19,22,23)         -3.02           estimate D2E/DX2                !
 ! D56   D(20,19,22,24)        179.8688         estimate D2E/DX2                !
 ! D57   D(19,22,24,13)         -1.5964         estimate D2E/DX2                !
 ! D58   D(19,22,24,25)        176.86           estimate D2E/DX2                !
 ! D59   D(23,22,24,13)       -178.6716         estimate D2E/DX2                !
 ! D60   D(23,22,24,25)         -0.2153         estimate D2E/DX2                !
 --------------------------------------------------------------------------------
 Trust Radius=3.00D-01 FncErr=1.00D-07 GrdErr=1.00D-06 EigMax=2.50D+02 EigMin=1.00D-04
 Number of steps in this run=    138 maximum allowed number of steps=    156.
 GradGradGradGradGradGradGradGradGradGradGradGradGradGradGradGradGradGrad

 Leave Link  103 at Sun Jul 18 13:46:45 2021, MaxMem=   104857600 cpu:               0.1 elap:               0.0
 (Enter /prod/apps/gaussian/g16b1/l202.exe)
                          Input orientation:                          
 ---------------------------------------------------------------------
 Center     Atomic      Atomic             Coordinates (Angstroms)
 Number     Number       Type             X           Y           Z
 ---------------------------------------------------------------------
      1          7           0       -1.704000    3.077000   -0.775000
      2          1           0       -1.344000    3.996000   -0.937000
      3          1           0       -2.323000    3.095000    0.011000
      4          6           0       -0.515000    2.092000   -0.483000
      5          6           0        0.440000    1.821000   -1.688000
      6          8           0       -0.212000    2.386000   -2.654000
      7          1           0       -0.960000    2.669000   -2.098000
      8          8           0        1.624000    1.818000   -1.649000
      9          1           0        0.103000    2.347000    0.382000
     10          6           0       -1.245000    0.874000   -0.120000
     11          1           0       -1.965000    0.576000   -0.885000
     12          1           0       -1.841000    1.044000    0.779000
     13          6           0       -0.327000   -0.320000    0.296000
     14          6           0       -0.103000   -1.396000   -0.571000
     15          1           0       -0.549000   -1.415000   -1.562000
     16          6           0        0.704000   -2.408000   -0.199000
     17          8           0        1.033000   -3.298000   -1.187000
     18          1           0        1.330000   -4.089000   -0.703000
     19          6           0        1.199000   -2.526000    1.071000
     20          8           0        1.961000   -3.599000    1.438000
     21          1           0        1.681000   -3.762000    2.356000
     22          6           0        1.042000   -1.501000    1.988000
     23          1           0        1.475000   -1.584000    2.982000
     24          6           0        0.270000   -0.403000    1.622000
     25          1           0        0.121000    0.361000    2.380000
     26          1           0       -2.202000    2.767000   -1.585000
 ---------------------------------------------------------------------
                    Distance matrix (angstroms):
                    1          2          3          4          5
     1  N    0.000000
     2  H    1.000202   0.000000
     3  H    1.000640   1.633691   0.000000
     4  C    1.571372   2.125694   2.125773   0.000000
     5  C    2.647233   2.911577   3.484802   1.561247   0.000000
     6  O    2.496835   2.611822   3.472928   2.211670   1.295178
     7  H    1.571728   1.804524   2.546984   1.771773   1.687366
     8  O    3.663952   3.749620   4.468237   2.451521   1.184646
     9  H    2.266451   2.559838   2.565662   1.093240   2.162208
    10  C    2.343697   3.228649   2.472263   1.465672   2.488907
    11  H    2.516987   3.476312   2.697469   2.135968   2.824687
    12  H    2.562572   3.450503   2.242487   2.109318   3.448591
    13  C    3.818740   4.602438   3.965787   2.541639   3.018017
    14  C    4.755265   5.545061   5.043432   3.513351   3.448424
    15  H    4.704408   5.504686   5.095243   3.669393   3.386103
    16  C    6.017929   6.763887   6.284094   4.670826   4.491242
    17  O    6.949931   7.675615   7.319043   5.651904   5.177529
    18  H    7.782152   8.518935   8.090986   6.454238   6.057262
    19  C    6.574856   7.282541   6.717420   5.165137   5.204284
    20  O    7.930862   8.616709   8.074566   6.496791   6.439077
    21  H    8.248231   8.954387   8.279462   6.866706   7.004563
    22  C    6.011054   6.668255   6.029508   4.630307   4.991098
    23  H    6.778349   7.378463   6.718980   5.429484   5.871469
    24  C    4.663977   5.338977   4.642733   3.357421   3.991388
    25  H    4.545471   5.134388   4.365782   3.405529   4.333819
    26  H    1.000102   1.632945   1.633842   2.125088   2.808147
                    6          7          8          9         10
     6  O    0.000000
     7  H    0.974027   0.000000
     8  O    2.168766   2.757328   0.000000
     9  H    3.052547   2.717361   2.591957   0.000000
    10  C    3.126402   2.686212   3.385283   2.058844   0.000000
    11  H    3.078712   2.619550   3.873910   3.003057   1.091984
    12  H    4.029900   3.419637   4.301219   2.373722   1.091933
    13  C    4.004767   3.881500   3.487187   2.702811   1.562503
    14  C    4.319062   4.426105   3.804525   3.867906   2.580788
    15  H    3.969085   4.139477   3.896381   4.284493   2.793439
    16  C    5.463380   5.670187   4.561576   4.827917   3.817901
    17  O    6.000831   6.356655   5.170704   5.932342   4.871689
    18  H    6.936122   7.270536   5.989491   6.641148   5.621555
    19  C    6.324104   6.456924   5.142894   5.042030   4.353345
    20  O    7.568792   7.766812   6.243959   6.318403   5.719574
    21  H    8.153616   8.256558   6.868746   6.611100   6.015359
    22  C    6.182997   6.171896   4.958049   4.274115   3.913395
    23  H    7.097279   7.058586   5.748214   4.908681   4.802350
    24  C    5.127867   4.978803   4.179186   3.021256   2.638279
    25  H    5.436237   5.152466   4.540341   2.817184   2.894672
    26  H    2.290856   1.347344   3.942458   3.059169   2.577891
                   11         12         13         14         15
    11  H    0.000000
    12  H    1.733002   0.000000
    13  C    2.209213   2.094273   0.000000
    14  C    2.730279   3.285840   1.399872   0.000000
    15  H    2.535245   3.632661   2.168057   1.086903   0.000000
    16  C    4.061824   4.398842   2.380699   1.346765   2.100911
    17  O    4.907859   5.565788   3.594075   2.299469   2.487778
    18  H    5.714226   6.212830   4.236627   3.053385   3.379171
    19  C    4.843474   4.698060   2.792085   2.380812   3.350002
    20  O    6.183885   6.037130   4.158239   3.626208   4.479950
    21  H    6.528066   6.163526   4.485870   4.165086   5.082522
    22  C    4.648667   4.031178   2.476244   2.805447   3.891167
    23  H    5.608288   4.770267   3.472679   3.892202   4.977256
    24  C    3.498387   2.694583   1.456562   2.436068   3.439878
    25  H    3.880444   2.622810   2.237749   3.441748   4.375207
    26  H    2.312282   2.947464   4.072267   4.771223   4.496895
                   16         17         18         19         20
    16  C    0.000000
    17  O    1.369849   0.000000
    18  H    1.863237   0.973728   0.000000
    19  C    1.368155   2.392092   2.367954   0.000000
    20  O    2.382918   2.800430   2.285201   1.366258   0.000000
    21  H    3.052191   3.631535   3.096387   1.846956   0.973495
    22  C    2.391623   3.648276   3.744619   1.384255   2.355560
    23  H    3.375230   4.529208   4.458169   2.148362   2.584639
    24  C    2.743068   4.105323   4.485066   2.381968   3.620463
    25  H    3.828641   5.190714   5.546987   3.348184   4.467053
    26  H    6.094789   6.885336   7.762582   6.829128   8.185051
                   21         22         23         24         25
    21  H    0.000000
    22  C    2.378206   0.000000
    23  H    2.275521   1.087389   0.000000
    24  C    3.716525   1.391238   2.167115   0.000000
    25  H    4.408322   2.113989   2.445147   1.086490   0.000000
    26  H    8.557863   6.442491   7.301303   5.142425   5.187137
                   26
    26  H    0.000000
 Stoichiometry    C9H12NO4(1+)
 Framework group  C1[X(C9H12NO4)]
 Deg. of freedom    72
 Full point group                 C1      NOp   1
 Largest Abelian subgroup         C1      NOp   1
 Largest concise Abelian subgroup C1      NOp   1
                         Standard orientation:                         
 ---------------------------------------------------------------------
 Center     Atomic      Atomic             Coordinates (Angstroms)
 Number     Number       Type             X           Y           Z
 ---------------------------------------------------------------------
      1          7           0       -3.647220   -0.975965   -0.540840
      2          1           0       -4.403435   -0.928213    0.112049
      3          1           0       -3.576065   -1.906688   -0.901357
      4          6           0       -2.305981   -0.589841    0.181099
      5          6           0       -2.198559    0.898321    0.640799
      6          8           0       -3.242133    1.410852    0.070054
      7          1           0       -3.526363    0.579495   -0.350407
      8          8           0       -1.814664    1.273126    1.696987
      9          1           0       -2.031919   -1.222062    1.029840
     10          6           0       -1.329539   -0.874959   -0.874108
     11          1           0       -1.561824   -0.358173   -1.807599
     12          1           0       -1.345158   -1.937106   -1.126922
     13          6           0        0.155941   -0.644079   -0.448128
     14          6           0        0.866424    0.480816   -0.883405
     15          1           0        0.392881    1.229292   -1.513405
     16          6           0        2.141344    0.668916   -0.492285
     17          8           0        2.677422    1.894529   -0.787203
     18          1           0        3.638974    1.751020   -0.732715
     19          6           0        2.849974   -0.282130    0.189772
     20          8           0        4.162946   -0.090222    0.515253
     21          1           0        4.545778   -0.979317    0.412090
     22          6           0        2.223009   -1.416763    0.675248
     23          1           0        2.783530   -2.147642    1.253216
     24          6           0        0.885244   -1.619117    0.351242
     25          1           0        0.434457   -2.543405    0.701876
     26          1           0       -3.816015   -0.338714   -1.292920
 ---------------------------------------------------------------------
 Rotational constants (GHZ):           1.3959364           0.3618272           0.3301246
 Leave Link  202 at Sun Jul 18 13:46:45 2021, MaxMem=   104857600 cpu:               0.0 elap:               0.0
 (Enter /prod/apps/gaussian/g16b1/l301.exe)
 Standard basis: 6-31G(d) (6D, 7F)
 Ernie: Thresh=  0.10000D-02 Tol=  0.10000D-05 Strict=F.
 There are   234 symmetry adapted cartesian basis functions of A   symmetry.
 There are   234 symmetry adapted basis functions of A   symmetry.
   234 basis functions,   440 primitive gaussians,   234 cartesian basis functions
    52 alpha electrons       52 beta electrons
       nuclear repulsion energy       910.1637771570 Hartrees.
 IExCor=  402 DFT=T Ex+Corr=B3LYP ExCW=0 ScaHFX=  0.200000
 ScaDFX=  0.800000  0.720000  1.000000  0.810000 ScalE2=  1.000000  1.000000
 IRadAn=      5 IRanWt=     -1 IRanGd=            0 ICorTp=0 IEmpDi=  4
 NAtoms=   26 NActive=   26 NUniq=   26 SFac= 1.00D+00 NAtFMM=   60 NAOKFM=F Big=F
 Integral buffers will be    131072 words long.
 Raffenetti 2 integral format.
 Two-electron integral symmetry is turned on.
 Using the following non-standard input for PCM:
 MSTModel=DFT cav MSTCharged
 --- end of non-standard input.
 MST model for solvation energy: B3LYP parametrization.
 MST cavity parameters:
 ISph   IAn     Re0     Alpha   Atom Type   QCorr
 ------------------------------------------------
   1      7     1.70     1.15      NH         T
   2      1     0.90     1.15      NH         T
   3      1     0.90     1.15      NH         T
   4      6     1.50     1.25      CH         F
   5      6     1.50     1.25      C          F
   6      8     1.45     1.25      OH         F
   7      1     0.90     1.25      OH         F
   8      8     1.40     1.25      O          F
   9      1     1.20     1.25      CH         F
  10      6     1.50     1.25      CH2        F
  11      1     1.20     1.25      CH2        F
  12      1     1.20     1.25      CH2        F
  13      6     1.50     1.25      C          F
  14      6     1.50     1.25      CH         F
  15      1     1.20     1.25      CH         F
  16      6     1.50     1.25      C          F
  17      8     1.45     1.25      OH         F
  18      1     0.90     1.25      OH         F
  19      6     1.50     1.25      C          F
  20      8     1.45     1.25      OH         F
  21      1     0.90     1.25      OH         F
  22      6     1.50     1.25      CH         F
  23      1     1.20     1.25      CH         F
  24      6     1.50     1.25      CH         F
  25      1     1.20     1.25      CH         F
  26      1     0.90     1.15      NH         T
 ------------------------------------------------------------------------------
 Polarizable Continuum Model (PCM)
 =================================
 Model                : PCM.
 Atomic radii         : MST.
 Polarization charges : Total charges.
 Charge compensation  : None.
 Solution method      : On-the-fly selection.
 Cavity type          : Scaled VdW (van der Waals Surface) (Alpha=1.250).
 Cavity algorithm     : GePol (No added spheres)
                        Default sphere list used, NSphG=   26.
                        Lebedev-Laikov grids with approx.  5.0 points / Ang**2.
                        Smoothing algorithm: York/Karplus (Gamma=1.0000).
                        Polarization charges: spherical gaussians, with
                                              point-specific exponents (IZeta= 3).
                        Self-potential: point-specific (ISelfS= 7).
                        Self-field    : sphere-specific E.n sum rule (ISelfD= 2).
 1st derivatives      : Analytical E(r).r(x)/FMM algorithm (CHGder, D1EAlg=3).
                        Cavity 1st derivative terms included.
 Solvent              : Water, Eps=  78.355300 Eps(inf)=   1.777849
 ------------------------------------------------------------------------------
 GePol: Number of generator spheres                  =      26
 GePol: Total number of spheres                      =      26
 GePol: Number of exposed spheres                    =      26 (100.00%)
 GePol: Number of points                             =    1955
 GePol: Average weight of points                     =       0.12
 GePol: Minimum weight of points                     =   0.47D-10
 GePol: Maximum weight of points                     =    0.22001
 GePol: Number of points with low weight             =     122
 GePol: Fraction of low-weight points (<1% of avg)   =       6.24%
 GePol: Cavity surface area                          =    239.849 Ang**2
 GePol: Cavity volume                                =    221.354 Ang**3
 PCM non-electrostatic energy =        -0.0001536343 Hartrees.
 Nuclear repulsion after PCM non-electrostatic terms =      910.1636235227 Hartrees.
 Leave Link  301 at Sun Jul 18 13:46:45 2021, MaxMem=   104857600 cpu:               0.4 elap:               0.1
 (Enter /prod/apps/gaussian/g16b1/l302.exe)
 NPDir=0 NMtPBC=     1 NCelOv=     1 NCel=       1 NClECP=     1 NCelD=      1
         NCelK=      1 NCelE2=     1 NClLst=     1 CellRange=     0.0.
 One-electron integrals computed using PRISM.
 One-electron integral symmetry used in STVInt
 NBasis=   234 RedAO= T EigKep=  4.18D-04  NBF=   234
 NBsUse=   234 1.00D-06 EigRej= -1.00D+00 NBFU=   234
 Precomputing XC quadrature grid using
 IXCGrd= 4 IRadAn=           5 IRanWt=          -1 IRanGd=           0 AccXCQ= 0.00D+00.
 Generated NRdTot=       0 NPtTot=           0 NUsed=           0 NTot=          32
 NSgBfM=   233   233   233   233   233 MxSgAt=    26 MxSgA2=    26.
 Leave Link  302 at Sun Jul 18 13:46:45 2021, MaxMem=   104857600 cpu:               1.2 elap:               0.3
 (Enter /prod/apps/gaussian/g16b1/l303.exe)
 DipDrv:  MaxL=1.
 Leave Link  303 at Sun Jul 18 13:46:46 2021, MaxMem=   104857600 cpu:               0.1 elap:               0.1
 (Enter /prod/apps/gaussian/g16b1/l401.exe)
 ExpMin= 1.61D-01 ExpMax= 5.48D+03 ExpMxC= 8.25D+02 IAcc=3 IRadAn=         5 AccDes= 0.00D+00
 Harris functional with IExCor=  402 and IRadAn=       5 diagonalized for initial guess.
 HarFok:  IExCor=  402 AccDes= 0.00D+00 IRadAn=         5 IDoV= 1 UseB2=F ITyADJ=14
 ICtDFT=  3500011 ScaDFX=  1.000000  1.000000  1.000000  1.000000
 FoFCou: FMM=F IPFlag=           0 FMFlag=      100000 FMFlg1=           0
         NFxFlg=           0 DoJE=T BraDBF=F KetDBF=T FulRan=T
         wScrn=  0.000000 ICntrl=       500 IOpCl=  0 I1Cent=   200000004 NGrid=           0
         NMat0=    1 NMatS0=      1 NMatT0=    0 NMatD0=    1 NMtDS0=    0 NMtDT0=    0
 Petite list used in FoFCou.
 Harris En= -705.527965027929    
 JPrj=0 DoOrth=F DoCkMO=F.
 Leave Link  401 at Sun Jul 18 13:46:47 2021, MaxMem=   104857600 cpu:               6.4 elap:               1.6
 (Enter /prod/apps/gaussian/g16b1/l502.exe)
 Integral symmetry usage will be decided dynamically.
 Closed shell SCF:
 Using DIIS extrapolation, IDIIS=  1040.
 NGot=   104857600 LenX=   104743994 LenY=   104688797
 Requested convergence on RMS density matrix=1.00D-08 within 128 cycles.
 Requested convergence on MAX density matrix=1.00D-06.
 Requested convergence on             energy=1.00D-06.
 No special actions if energy rises.
 Fock matrices will be formed incrementally for  20 cycles.

 Cycle   1  Pass 1  IDiag  1:
 FoFJK:  IHMeth= 1 ICntrl=       0 DoSepK=F KAlg= 0 I1Cent=           0 FoldK=F
 IRaf= 860000000 NMat=       1 IRICut=       1 DoRegI=T DoRafI=F ISym2E= 0 IDoP0=0 IntGTp=1.
 FoFCou: FMM=F IPFlag=           0 FMFlag=      100000 FMFlg1=           0
         NFxFlg=           0 DoJE=F BraDBF=F KetDBF=F FulRan=T
         wScrn=  0.000000 ICntrl=         0 IOpCl=  0 I1Cent=           0 NGrid=           0
         NMat0=    1 NMatS0=      1 NMatT0=    0 NMatD0=    1 NMtDS0=    0 NMtDT0=    0
 Symmetry not used in FoFCou.
 Inv3:  Mode=1 IEnd=    11466075.
 Iteration    1 A*A^-1 deviation from unit magnitude is 3.55D-15 for   1275.
 Iteration    1 A*A^-1 deviation from orthogonality  is 2.16D-15 for   1917     41.
 Iteration    1 A^-1*A deviation from unit magnitude is 3.11D-15 for   1275.
 Iteration    1 A^-1*A deviation from orthogonality  is 1.71D-14 for   1422   1419.
 E= -705.279621439309    
 DIIS: error= 2.55D-02 at cycle   1 NSaved=   1.
 NSaved= 1 IEnMin= 1 EnMin= -705.279621439309     IErMin= 1 ErrMin= 2.55D-02
 ErrMax= 2.55D-02  0.00D+00 EMaxC= 1.00D-01 BMatC= 3.59D-01 BMatP= 3.59D-01
 IDIUse=3 WtCom= 7.45D-01 WtEn= 2.55D-01
 Coeff-Com:  0.100D+01
 Coeff-En:   0.100D+01
 Coeff:      0.100D+01
 Gap=     0.223 Goal=   None    Shift=    0.000
 GapD=    0.223 DampG=1.000 DampE=0.500 DampFc=0.5000 IDamp=-1.
 Damping current iteration by 5.00D-01
 RMSDP=5.19D-03 MaxDP=1.78D-01              OVMax= 2.05D-01

 Cycle   2  Pass 1  IDiag  1:
 RMSU=  2.57D-03    CP:  9.84D-01
 E= -705.396369737348     Delta-E=       -0.116748298039 Rises=F Damp=T
 DIIS: error= 9.94D-03 at cycle   2 NSaved=   2.
 NSaved= 2 IEnMin= 2 EnMin= -705.396369737348     IErMin= 2 ErrMin= 9.94D-03
 ErrMax= 9.94D-03  0.00D+00 EMaxC= 1.00D-01 BMatC= 3.52D-02 BMatP= 3.59D-01
 IDIUse=3 WtCom= 9.01D-01 WtEn= 9.94D-02
 Coeff-Com:  0.137D+00 0.863D+00
 Coeff-En:   0.209D+00 0.791D+00
 Coeff:      0.144D+00 0.856D+00
 Gap=     0.150 Goal=   None    Shift=    0.000
 RMSDP=1.39D-03 MaxDP=5.53D-02 DE=-1.17D-01 OVMax= 1.70D-01

 Cycle   3  Pass 1  IDiag  1:
 RMSU=  1.34D-03    CP:  9.77D-01  8.81D-01
 E= -705.553872135920     Delta-E=       -0.157502398572 Rises=F Damp=F
 DIIS: error= 1.22D-02 at cycle   3 NSaved=   3.
 NSaved= 3 IEnMin= 3 EnMin= -705.553872135920     IErMin= 2 ErrMin= 9.94D-03
 ErrMax= 1.22D-02  0.00D+00 EMaxC= 1.00D-01 BMatC= 3.56D-02 BMatP= 3.52D-02
 IDIUse=3 WtCom= 8.78D-01 WtEn= 1.22D-01
 Coeff-Com:  0.200D-01 0.499D+00 0.481D+00
 Coeff-En:   0.000D+00 0.000D+00 0.100D+01
 Coeff:      0.176D-01 0.438D+00 0.544D+00
 Gap=     0.165 Goal=   None    Shift=    0.000
 RMSDP=9.04D-04 MaxDP=4.99D-02 DE=-1.58D-01 OVMax= 8.59D-02

 Cycle   4  Pass 1  IDiag  1:
 RMSU=  5.91D-04    CP:  9.80D-01  9.25D-01  5.01D-01
 E= -705.576815041417     Delta-E=       -0.022942905496 Rises=F Damp=F
 DIIS: error= 5.77D-03 at cycle   4 NSaved=   4.
 NSaved= 4 IEnMin= 4 EnMin= -705.576815041417     IErMin= 4 ErrMin= 5.77D-03
 ErrMax= 5.77D-03  0.00D+00 EMaxC= 1.00D-01 BMatC= 7.62D-03 BMatP= 3.52D-02
 IDIUse=3 WtCom= 9.42D-01 WtEn= 5.77D-02
 Coeff-Com: -0.182D-02 0.110D+00 0.329D+00 0.562D+00
 Coeff-En:   0.000D+00 0.000D+00 0.191D+00 0.809D+00
 Coeff:     -0.171D-02 0.104D+00 0.321D+00 0.576D+00
 Gap=     0.165 Goal=   None    Shift=    0.000
 RMSDP=3.41D-04 MaxDP=1.88D-02 DE=-2.29D-02 OVMax= 3.62D-02

 Cycle   5  Pass 1  IDiag  1:
 RMSU=  1.74D-04    CP:  9.80D-01  8.96D-01  6.44D-01  6.47D-01
 E= -705.582020145277     Delta-E=       -0.005205103861 Rises=F Damp=F
 DIIS: error= 1.26D-03 at cycle   5 NSaved=   5.
 NSaved= 5 IEnMin= 5 EnMin= -705.582020145277     IErMin= 5 ErrMin= 1.26D-03
 ErrMax= 1.26D-03  0.00D+00 EMaxC= 1.00D-01 BMatC= 6.95D-04 BMatP= 7.62D-03
 IDIUse=3 WtCom= 9.87D-01 WtEn= 1.26D-02
 Coeff-Com: -0.190D-02 0.125D-01 0.140D+00 0.353D+00 0.496D+00
 Coeff-En:   0.000D+00 0.000D+00 0.000D+00 0.314D-01 0.969D+00
 Coeff:     -0.188D-02 0.124D-01 0.139D+00 0.349D+00 0.502D+00
 Gap=     0.165 Goal=   None    Shift=    0.000
 RMSDP=9.95D-05 MaxDP=4.60D-03 DE=-5.21D-03 OVMax= 8.20D-03

 Cycle   6  Pass 1  IDiag  1:
 RMSU=  4.47D-05    CP:  9.79D-01  9.05D-01  6.44D-01  6.87D-01  5.24D-01
 E= -705.582558820249     Delta-E=       -0.000538674972 Rises=F Damp=F
 DIIS: error= 1.44D-04 at cycle   6 NSaved=   6.
 NSaved= 6 IEnMin= 6 EnMin= -705.582558820249     IErMin= 6 ErrMin= 1.44D-04
 ErrMax= 1.44D-04  0.00D+00 EMaxC= 1.00D-01 BMatC= 1.04D-05 BMatP= 6.95D-04
 IDIUse=3 WtCom= 9.99D-01 WtEn= 1.44D-03
 Coeff-Com: -0.693D-03-0.748D-03 0.332D-01 0.957D-01 0.192D+00 0.680D+00
 Coeff-En:   0.000D+00 0.000D+00 0.000D+00 0.000D+00 0.000D+00 0.100D+01
 Coeff:     -0.692D-03-0.747D-03 0.332D-01 0.955D-01 0.192D+00 0.681D+00
 Gap=     0.166 Goal=   None    Shift=    0.000
 RMSDP=1.43D-05 MaxDP=4.42D-04 DE=-5.39D-04 OVMax= 5.90D-04

 Cycle   7  Pass 1  IDiag  1:
 RMSU=  1.01D-05    CP:  9.79D-01  9.05D-01  6.44D-01  6.90D-01  5.54D-01
                    CP:  8.11D-01
 E= -705.582566409984     Delta-E=       -0.000007589734 Rises=F Damp=F
 DIIS: error= 3.47D-05 at cycle   7 NSaved=   7.
 NSaved= 7 IEnMin= 7 EnMin= -705.582566409984     IErMin= 7 ErrMin= 3.47D-05
 ErrMax= 3.47D-05  0.00D+00 EMaxC= 1.00D-01 BMatC= 1.09D-06 BMatP= 1.04D-05
 IDIUse=1 WtCom= 1.00D+00 WtEn= 0.00D+00
 Coeff-Com: -0.247D-03-0.817D-03 0.959D-02 0.292D-01 0.721D-01 0.338D+00
 Coeff-Com:  0.552D+00
 Coeff:     -0.247D-03-0.817D-03 0.959D-02 0.292D-01 0.721D-01 0.338D+00
 Coeff:      0.552D+00
 Gap=     0.166 Goal=   None    Shift=    0.000
 RMSDP=5.09D-06 MaxDP=1.77D-04 DE=-7.59D-06 OVMax= 3.04D-04

 Cycle   8  Pass 1  IDiag  1:
 RMSU=  2.66D-06    CP:  9.79D-01  9.05D-01  6.44D-01  6.91D-01  5.58D-01
                    CP:  8.13D-01  5.98D-01
 E= -705.582567392572     Delta-E=       -0.000000982589 Rises=F Damp=F
 DIIS: error= 1.04D-05 at cycle   8 NSaved=   8.
 NSaved= 8 IEnMin= 8 EnMin= -705.582567392572     IErMin= 8 ErrMin= 1.04D-05
 ErrMax= 1.04D-05  0.00D+00 EMaxC= 1.00D-01 BMatC= 5.97D-08 BMatP= 1.09D-06
 IDIUse=1 WtCom= 1.00D+00 WtEn= 0.00D+00
 Coeff-Com: -0.291D-04-0.272D-03 0.887D-03 0.279D-02 0.121D-01 0.692D-01
 Coeff-Com:  0.223D+00 0.692D+00
 Coeff:     -0.291D-04-0.272D-03 0.887D-03 0.279D-02 0.121D-01 0.692D-01
 Coeff:      0.223D+00 0.692D+00
 Gap=     0.166 Goal=   None    Shift=    0.000
 RMSDP=1.39D-06 MaxDP=5.61D-05 DE=-9.83D-07 OVMax= 9.65D-05

 Cycle   9  Pass 1  IDiag  1:
 RMSU=  9.82D-07    CP:  9.79D-01  9.05D-01  6.44D-01  6.91D-01  5.60D-01
                    CP:  8.20D-01  6.59D-01  8.00D-01
 E= -705.582567439347     Delta-E=       -0.000000046775 Rises=F Damp=F
 DIIS: error= 3.83D-06 at cycle   9 NSaved=   9.
 NSaved= 9 IEnMin= 9 EnMin= -705.582567439347     IErMin= 9 ErrMin= 3.83D-06
 ErrMax= 3.83D-06  0.00D+00 EMaxC= 1.00D-01 BMatC= 1.06D-08 BMatP= 5.97D-08
 IDIUse=1 WtCom= 1.00D+00 WtEn= 0.00D+00
 Coeff-Com:  0.453D-05-0.735D-04-0.281D-03-0.924D-03 0.695D-03 0.896D-02
 Coeff-Com:  0.781D-01 0.376D+00 0.537D+00
 Coeff:      0.453D-05-0.735D-04-0.281D-03-0.924D-03 0.695D-03 0.896D-02
 Coeff:      0.781D-01 0.376D+00 0.537D+00
 Gap=     0.166 Goal=   None    Shift=    0.000
 RMSDP=5.67D-07 MaxDP=2.06D-05 DE=-4.68D-08 OVMax= 4.63D-05

 Cycle  10  Pass 1  IDiag  1:
 RMSU=  3.19D-07    CP:  9.79D-01  9.05D-01  6.44D-01  6.91D-01  5.60D-01
                    CP:  8.21D-01  6.60D-01  8.56D-01  5.63D-01
 E= -705.582567449400     Delta-E=       -0.000000010053 Rises=F Damp=F
 DIIS: error= 1.21D-06 at cycle  10 NSaved=  10.
 NSaved=10 IEnMin=10 EnMin= -705.582567449400     IErMin=10 ErrMin= 1.21D-06
 ErrMax= 1.21D-06  0.00D+00 EMaxC= 1.00D-01 BMatC= 8.38D-10 BMatP= 1.06D-08
 IDIUse=1 WtCom= 1.00D+00 WtEn= 0.00D+00
 Coeff-Com:  0.535D-05-0.141D-04-0.220D-03-0.717D-03-0.745D-03-0.201D-02
 Coeff-Com:  0.190D-01 0.117D+00 0.274D+00 0.593D+00
 Coeff:      0.535D-05-0.141D-04-0.220D-03-0.717D-03-0.745D-03-0.201D-02
 Coeff:      0.190D-01 0.117D+00 0.274D+00 0.593D+00
 Gap=     0.166 Goal=   None    Shift=    0.000
 RMSDP=1.62D-07 MaxDP=5.50D-06 DE=-1.01D-08 OVMax= 1.63D-05

 Cycle  11  Pass 1  IDiag  1:
 RMSU=  8.75D-08    CP:  9.79D-01  9.05D-01  6.44D-01  6.91D-01  5.60D-01
                    CP:  8.21D-01  6.62D-01  8.65D-01  6.56D-01  7.09D-01
 E= -705.582567450274     Delta-E=       -0.000000000874 Rises=F Damp=F
 DIIS: error= 2.47D-07 at cycle  11 NSaved=  11.
 NSaved=11 IEnMin=11 EnMin= -705.582567450274     IErMin=11 ErrMin= 2.47D-07
 ErrMax= 2.47D-07  0.00D+00 EMaxC= 1.00D-01 BMatC= 5.36D-11 BMatP= 8.38D-10
 IDIUse=1 WtCom= 1.00D+00 WtEn= 0.00D+00
 Coeff-Com:  0.197D-05 0.450D-06-0.769D-04-0.246D-03-0.422D-03-0.185D-02
 Coeff-Com:  0.162D-02 0.163D-01 0.739D-01 0.264D+00 0.646D+00
 Coeff:      0.197D-05 0.450D-06-0.769D-04-0.246D-03-0.422D-03-0.185D-02
 Coeff:      0.162D-02 0.163D-01 0.739D-01 0.264D+00 0.646D+00
 Gap=     0.166 Goal=   None    Shift=    0.000
 RMSDP=3.97D-08 MaxDP=1.39D-06 DE=-8.74D-10 OVMax= 2.26D-06

 Cycle  12  Pass 1  IDiag  1:
 RMSU=  2.72D-08    CP:  9.79D-01  9.05D-01  6.44D-01  6.91D-01  5.60D-01
                    CP:  8.21D-01  6.63D-01  8.67D-01  6.60D-01  7.62D-01
                    CP:  7.94D-01
 E= -705.582567450331     Delta-E=       -0.000000000057 Rises=F Damp=F
 DIIS: error= 6.10D-08 at cycle  12 NSaved=  12.
 NSaved=12 IEnMin=12 EnMin= -705.582567450331     IErMin=12 ErrMin= 6.10D-08
 ErrMax= 6.10D-08  0.00D+00 EMaxC= 1.00D-01 BMatC= 4.31D-12 BMatP= 5.36D-11
 IDIUse=1 WtCom= 1.00D+00 WtEn= 0.00D+00
 Coeff-Com:  0.223D-06 0.143D-05-0.705D-05-0.209D-04-0.887D-04-0.534D-03
 Coeff-Com: -0.119D-02-0.624D-02 0.127D-02 0.470D-01 0.261D+00 0.699D+00
 Coeff:      0.223D-06 0.143D-05-0.705D-05-0.209D-04-0.887D-04-0.534D-03
 Coeff:     -0.119D-02-0.624D-02 0.127D-02 0.470D-01 0.261D+00 0.699D+00
 Gap=     0.166 Goal=   None    Shift=    0.000
 RMSDP=1.26D-08 MaxDP=3.60D-07 DE=-5.66D-11 OVMax= 7.65D-07

 Cycle  13  Pass 1  IDiag  1:
 RMSU=  9.27D-09    CP:  9.79D-01  9.05D-01  6.44D-01  6.91D-01  5.60D-01
                    CP:  8.21D-01  6.63D-01  8.67D-01  6.63D-01  7.74D-01
                    CP:  8.50D-01  8.80D-01
 E= -705.582567450327     Delta-E=        0.000000000003 Rises=F Damp=F
 DIIS: error= 2.56D-08 at cycle  13 NSaved=  13.
 NSaved=13 IEnMin=12 EnMin= -705.582567450331     IErMin=13 ErrMin= 2.56D-08
 ErrMax= 2.56D-08  0.00D+00 EMaxC= 1.00D-01 BMatC= 6.31D-13 BMatP= 4.31D-12
 IDIUse=1 WtCom= 1.00D+00 WtEn= 0.00D+00
 Coeff-Com: -0.569D-07 0.549D-06 0.404D-05 0.137D-04-0.126D-05-0.748D-04
 Coeff-Com: -0.693D-03-0.462D-02-0.671D-02-0.409D-02 0.603D-01 0.339D+00
 Coeff-Com:  0.616D+00
 Coeff:     -0.569D-07 0.549D-06 0.404D-05 0.137D-04-0.126D-05-0.748D-04
 Coeff:     -0.693D-03-0.462D-02-0.671D-02-0.409D-02 0.603D-01 0.339D+00
 Coeff:      0.616D+00
 Gap=     0.166 Goal=   None    Shift=    0.000
 RMSDP=4.19D-09 MaxDP=1.03D-07 DE= 3.41D-12 OVMax= 2.92D-07

 Error on total polarization charges =  0.01177
 SCF Done:  E(RB3LYP) =  -705.582567450     A.U. after   13 cycles
            NFock= 13  Conv=0.42D-08     -V/T= 2.0080
 KE= 6.999550646532D+02 PE=-3.452340978977D+03 EE= 1.136639723350D+03
 Leave Link  502 at Sun Jul 18 13:47:29 2021, MaxMem=   104857600 cpu:             166.3 elap:              41.6
 (Enter /prod/apps/gaussian/g16b1/l601.exe)
 Copying SCF densities to generalized density rwf, IOpCl= 0 IROHF=0.

 **********************************************************************

            Population analysis using the SCF Density.

 **********************************************************************

 Orbital symmetries:
       Occupied  (A) (A) (A) (A) (A) (A) (A) (A) (A) (A) (A) (A)
                 (A) (A) (A) (A) (A) (A) (A) (A) (A) (A) (A) (A)
                 (A) (A) (A) (A) (A) (A) (A) (A) (A) (A) (A) (A)
                 (A) (A) (A) (A) (A) (A) (A) (A) (A) (A) (A) (A)
                 (A) (A) (A) (A)
       Virtual   (A) (A) (A) (A) (A) (A) (A) (A) (A) (A) (A) (A)
                 (A) (A) (A) (A) (A) (A) (A) (A) (A) (A) (A) (A)
                 (A) (A) (A) (A) (A) (A) (A) (A) (A) (A) (A) (A)
                 (A) (A) (A) (A) (A) (A) (A) (A) (A) (A) (A) (A)
                 (A) (A) (A) (A) (A) (A) (A) (A) (A) (A) (A) (A)
                 (A) (A) (A) (A) (A) (A) (A) (A) (A) (A) (A) (A)
                 (A) (A) (A) (A) (A) (A) (A) (A) (A) (A) (A) (A)
                 (A) (A) (A) (A) (A) (A) (A) (A) (A) (A) (A) (A)
                 (A) (A) (A) (A) (A) (A) (A) (A) (A) (A) (A) (A)
                 (A) (A) (A) (A) (A) (A) (A) (A) (A) (A) (A) (A)
                 (A) (A) (A) (A) (A) (A) (A) (A) (A) (A) (A) (A)
                 (A) (A) (A) (A) (A) (A) (A) (A) (A) (A) (A) (A)
                 (A) (A) (A) (A) (A) (A) (A) (A) (A) (A) (A) (A)
                 (A) (A) (A) (A) (A) (A) (A) (A) (A) (A) (A) (A)
                 (A) (A) (A) (A) (A) (A) (A) (A) (A) (A) (A) (A)
                 (A) (A)
 The electronic state is 1-A.
 Alpha  occ. eigenvalues --  -19.21601 -19.17601 -19.17200 -19.16883 -14.48167
 Alpha  occ. eigenvalues --  -10.35207 -10.28790 -10.24354 -10.24118 -10.21582
 Alpha  occ. eigenvalues --  -10.21356 -10.19650 -10.19250 -10.18855  -1.17077
 Alpha  occ. eigenvalues --   -1.07120  -1.07106  -1.04604  -1.03478  -0.86347
 Alpha  occ. eigenvalues --   -0.82814  -0.75580  -0.73904  -0.68603  -0.66988
 Alpha  occ. eigenvalues --   -0.63380  -0.61617  -0.61181  -0.59107  -0.56067
 Alpha  occ. eigenvalues --   -0.54504  -0.53144  -0.51748  -0.49769  -0.48063
 Alpha  occ. eigenvalues --   -0.47867  -0.46432  -0.44753  -0.43486  -0.42767
 Alpha  occ. eigenvalues --   -0.41901  -0.40395  -0.39056  -0.38102  -0.36108
 Alpha  occ. eigenvalues --   -0.35698  -0.34254  -0.33584  -0.32321  -0.30096
 Alpha  occ. eigenvalues --   -0.24829  -0.21665
 Alpha virt. eigenvalues --   -0.05095  -0.00636   0.00431   0.03640   0.06628
 Alpha virt. eigenvalues --    0.07906   0.08691   0.09885   0.11014   0.12871
 Alpha virt. eigenvalues --    0.13378   0.14686   0.15262   0.17097   0.17354
 Alpha virt. eigenvalues --    0.18711   0.19399   0.20756   0.23090   0.23708
 Alpha virt. eigenvalues --    0.24887   0.27616   0.31036   0.33794   0.34383
 Alpha virt. eigenvalues --    0.35294   0.35607   0.37721   0.45972   0.47972
 Alpha virt. eigenvalues --    0.49556   0.51578   0.52246   0.52945   0.54310
 Alpha virt. eigenvalues --    0.56663   0.58407   0.58932   0.60240   0.60304
 Alpha virt. eigenvalues --    0.61927   0.62669   0.63017   0.63971   0.64384
 Alpha virt. eigenvalues --    0.65021   0.67344   0.67489   0.68871   0.71466
 Alpha virt. eigenvalues --    0.74565   0.74902   0.76649   0.77007   0.78315
 Alpha virt. eigenvalues --    0.79492   0.81112   0.81945   0.83437   0.84539
 Alpha virt. eigenvalues --    0.85339   0.86098   0.87267   0.87814   0.88773
 Alpha virt. eigenvalues --    0.89393   0.90234   0.92254   0.92984   0.94374
 Alpha virt. eigenvalues --    0.95967   0.97613   0.98032   0.99751   1.01781
 Alpha virt. eigenvalues --    1.02187   1.02453   1.04699   1.05902   1.08107
 Alpha virt. eigenvalues --    1.10807   1.12153   1.15267   1.16887   1.19280
 Alpha virt. eigenvalues --    1.20577   1.24257   1.27583   1.29609   1.31250
 Alpha virt. eigenvalues --    1.32547   1.35888   1.39654   1.41874   1.42874
 Alpha virt. eigenvalues --    1.43161   1.45132   1.48849   1.49025   1.49689
 Alpha virt. eigenvalues --    1.54193   1.57212   1.59272   1.63024   1.66947
 Alpha virt. eigenvalues --    1.68602   1.70884   1.72575   1.75290   1.75830
 Alpha virt. eigenvalues --    1.77272   1.79261   1.80153   1.80742   1.83122
 Alpha virt. eigenvalues --    1.84679   1.85680   1.88232   1.88565   1.90373
 Alpha virt. eigenvalues --    1.92075   1.93569   1.96287   1.97859   2.00518
 Alpha virt. eigenvalues --    2.02222   2.04888   2.06031   2.06572   2.10780
 Alpha virt. eigenvalues --    2.11828   2.14843   2.21543   2.23857   2.25420
 Alpha virt. eigenvalues --    2.29186   2.29785   2.30174   2.31533   2.32268
 Alpha virt. eigenvalues --    2.33183   2.35056   2.39167   2.41845   2.44068
 Alpha virt. eigenvalues --    2.44135   2.46198   2.52106   2.56554   2.59100
 Alpha virt. eigenvalues --    2.60297   2.62138   2.63795   2.66086   2.70402
 Alpha virt. eigenvalues --    2.72455   2.74686   2.78228   2.82050   2.83498
 Alpha virt. eigenvalues --    2.87936   2.90027   2.93190   2.99956   3.00708
 Alpha virt. eigenvalues --    3.05557   3.23764   3.43485   3.77177   3.82771
 Alpha virt. eigenvalues --    3.99425   4.03881   4.07325   4.14031   4.15895
 Alpha virt. eigenvalues --    4.19992   4.27145   4.37118   4.42574   4.55069
 Alpha virt. eigenvalues --    4.58329   4.86557
          Condensed to atoms (all electrons):
               1          2          3          4          5          6
     1  N    6.915312   0.290406   0.284761   0.180842  -0.025262  -0.041325
     2  H    0.290406   0.244344  -0.005997  -0.017500   0.000973   0.002804
     3  H    0.284761  -0.005997   0.232094  -0.008014   0.000668   0.000864
     4  C    0.180842  -0.017500  -0.008014   5.402337   0.355902  -0.118109
     5  C   -0.025262   0.000973   0.000668   0.355902   4.252687   0.305852
     6  O   -0.041325   0.002804   0.000864  -0.118109   0.305852   8.212269
     7  H    0.017278  -0.002001   0.001028  -0.008608  -0.051544   0.238139
     8  O    0.000653  -0.000028  -0.000039  -0.065062   0.587815  -0.089071
     9  H   -0.016596  -0.001666  -0.000902   0.360882  -0.031650   0.003798
    10  C   -0.077016   0.004919  -0.000751   0.276147  -0.044772   0.001759
    11  H   -0.003773   0.000058  -0.000512  -0.040669  -0.006327   0.001787
    12  H   -0.005171  -0.000031   0.005079  -0.037230   0.004171  -0.000256
    13  C    0.002952  -0.000056   0.000006  -0.043811   0.005936  -0.000050
    14  C   -0.000041   0.000000  -0.000000  -0.003833   0.005087   0.000062
    15  H   -0.000027   0.000001  -0.000001   0.000113   0.000565   0.000020
    16  C    0.000002  -0.000000  -0.000000  -0.000223  -0.000209   0.000004
    17  O   -0.000000   0.000000   0.000000   0.000001  -0.000002  -0.000000
    18  H    0.000000  -0.000000  -0.000000  -0.000000  -0.000000   0.000000
    19  C   -0.000000   0.000000  -0.000000   0.000023  -0.000011   0.000000
    20  O   -0.000000  -0.000000  -0.000000   0.000000   0.000000  -0.000000
    21  H   -0.000000   0.000000  -0.000000   0.000000  -0.000000  -0.000000
    22  C    0.000001  -0.000000   0.000000   0.000056  -0.000048  -0.000000
    23  H   -0.000000   0.000000  -0.000000  -0.000001  -0.000000  -0.000000
    24  C    0.000005   0.000002   0.000001  -0.002319  -0.000241  -0.000006
    25  H   -0.000046   0.000002   0.000005   0.000078   0.000098  -0.000000
    26  H    0.271487  -0.011350  -0.005914  -0.017222  -0.001103   0.001484
               7          8          9         10         11         12
     1  N    0.017278   0.000653  -0.016596  -0.077016  -0.003773  -0.005171
     2  H   -0.002001  -0.000028  -0.001666   0.004919   0.000058  -0.000031
     3  H    0.001028  -0.000039  -0.000902  -0.000751  -0.000512   0.005079
     4  C   -0.008608  -0.065062   0.360882   0.276147  -0.040669  -0.037230
     5  C   -0.051544   0.587815  -0.031650  -0.044772  -0.006327   0.004171
     6  O    0.238139  -0.089071   0.003798   0.001759   0.001787  -0.000256
     7  H    0.341051   0.005250   0.000825  -0.001662  -0.000053   0.000059
     8  O    0.005250   8.000129   0.003844   0.000653   0.000101  -0.000142
     9  H    0.000825   0.003844   0.452235  -0.036835   0.005390  -0.007885
    10  C   -0.001662   0.000653  -0.036835   5.254940   0.368339   0.366337
    11  H   -0.000053   0.000101   0.005390   0.368339   0.519336  -0.032187
    12  H    0.000059  -0.000142  -0.007885   0.366337  -0.032187   0.532614
    13  C    0.000086  -0.000097   0.000333   0.345874  -0.020996  -0.029539
    14  C    0.000028  -0.000680   0.000265  -0.043411  -0.002034   0.001681
    15  H    0.000009  -0.000026   0.000013  -0.008343   0.003691   0.000101
    16  C   -0.000001  -0.000038   0.000014   0.005755   0.000243  -0.000138
    17  O    0.000000   0.000000   0.000000  -0.000078  -0.000003   0.000001
    18  H   -0.000000  -0.000000  -0.000000   0.000006   0.000000  -0.000000
    19  C   -0.000000   0.000008  -0.000009   0.000681  -0.000004  -0.000003
    20  O    0.000000  -0.000000  -0.000000   0.000001  -0.000000  -0.000000
    21  H   -0.000000   0.000000  -0.000000   0.000000  -0.000000  -0.000000
    22  C    0.000000  -0.000002  -0.000122   0.004682  -0.000091   0.000133
    23  H   -0.000000  -0.000000   0.000004  -0.000129   0.000002  -0.000003
    24  C   -0.000003  -0.000127   0.003549  -0.052371   0.002364  -0.002180
    25  H    0.000000  -0.000007   0.000973  -0.005359  -0.000021   0.002979
    26  H    0.015073   0.000102   0.002234  -0.000658   0.004924  -0.000372
              13         14         15         16         17         18
     1  N    0.002952  -0.000041  -0.000027   0.000002  -0.000000   0.000000
     2  H   -0.000056   0.000000   0.000001  -0.000000   0.000000  -0.000000
     3  H    0.000006  -0.000000  -0.000001  -0.000000   0.000000  -0.000000
     4  C   -0.043811  -0.003833   0.000113  -0.000223   0.000001  -0.000000
     5  C    0.005936   0.005087   0.000565  -0.000209  -0.000002  -0.000000
     6  O   -0.000050   0.000062   0.000020   0.000004  -0.000000   0.000000
     7  H    0.000086   0.000028   0.000009  -0.000001   0.000000  -0.000000
     8  O   -0.000097  -0.000680  -0.000026  -0.000038   0.000000  -0.000000
     9  H    0.000333   0.000265   0.000013   0.000014   0.000000  -0.000000
    10  C    0.345874  -0.043411  -0.008343   0.005755  -0.000078   0.000006
    11  H   -0.020996  -0.002034   0.003691   0.000243  -0.000003   0.000000
    12  H   -0.029539   0.001681   0.000101  -0.000138   0.000001  -0.000000
    13  C    4.745748   0.529011  -0.042111  -0.016866   0.003173  -0.000024
    14  C    0.529011   5.060311   0.343484   0.538485  -0.058238   0.005474
    15  H   -0.042111   0.343484   0.568789  -0.034859  -0.001027  -0.000297
    16  C   -0.016866   0.538485  -0.034859   4.594334   0.287572  -0.032326
    17  O    0.003173  -0.058238  -0.001027   0.287572   8.274122   0.244007
    18  H   -0.000024   0.005474  -0.000297  -0.032326   0.244007   0.327478
    19  C   -0.036211  -0.065961   0.008257   0.451969  -0.066505  -0.011600
    20  O    0.000246   0.003885  -0.000062  -0.054104  -0.007384   0.019195
    21  H    0.000039  -0.000259   0.000007   0.004166  -0.000020  -0.000396
    22  C   -0.021114  -0.046553  -0.000224  -0.029121   0.005459   0.001253
    23  H    0.002954   0.000688   0.000014   0.003933  -0.000048  -0.000003
    24  C    0.515656  -0.033536   0.005369  -0.045108   0.000211  -0.000189
    25  H   -0.040219   0.004309  -0.000126   0.000710   0.000002  -0.000000
    26  H   -0.000088   0.000008   0.000005   0.000000  -0.000000   0.000000
              19         20         21         22         23         24
     1  N   -0.000000  -0.000000  -0.000000   0.000001  -0.000000   0.000005
     2  H    0.000000  -0.000000   0.000000  -0.000000   0.000000   0.000002
     3  H   -0.000000  -0.000000  -0.000000   0.000000  -0.000000   0.000001
     4  C    0.000023   0.000000   0.000000   0.000056  -0.000001  -0.002319
     5  C   -0.000011   0.000000  -0.000000  -0.000048  -0.000000  -0.000241
     6  O    0.000000  -0.000000  -0.000000  -0.000000  -0.000000  -0.000006
     7  H   -0.000000   0.000000  -0.000000   0.000000  -0.000000  -0.000003
     8  O    0.000008  -0.000000   0.000000  -0.000002  -0.000000  -0.000127
     9  H   -0.000009  -0.000000  -0.000000  -0.000122   0.000004   0.003549
    10  C    0.000681   0.000001   0.000000   0.004682  -0.000129  -0.052371
    11  H   -0.000004  -0.000000  -0.000000  -0.000091   0.000002   0.002364
    12  H   -0.000003  -0.000000  -0.000000   0.000133  -0.000003  -0.002180
    13  C   -0.036211   0.000246   0.000039  -0.021114   0.002954   0.515656
    14  C   -0.065961   0.003885  -0.000259  -0.046553   0.000688  -0.033536
    15  H    0.008257  -0.000062   0.000007  -0.000224   0.000014   0.005369
    16  C    0.451969  -0.054104   0.004166  -0.029121   0.003933  -0.045108
    17  O   -0.066505  -0.007384  -0.000020   0.005459  -0.000048   0.000211
    18  H   -0.011600   0.019195  -0.000396   0.001253  -0.000003  -0.000189
    19  C    4.782705   0.249885  -0.025760   0.467527  -0.036809  -0.016416
    20  O    0.249885   8.288559   0.251511  -0.065107  -0.004314   0.005725
    21  H   -0.025760   0.251511   0.304338  -0.005721   0.004534   0.000197
    22  C    0.467527  -0.065107  -0.005721   5.100194   0.354508   0.462888
    23  H   -0.036809  -0.004314   0.004534   0.354508   0.544438  -0.031397
    24  C   -0.016416   0.005725   0.000197   0.462888  -0.031397   5.044459
    25  H    0.003643  -0.000083  -0.000016  -0.035763  -0.005143   0.355824
    26  H    0.000000   0.000000   0.000000  -0.000000   0.000000   0.000000
              25         26
     1  N   -0.000046   0.271487
     2  H    0.000002  -0.011350
     3  H    0.000005  -0.005914
     4  C    0.000078  -0.017222
     5  C    0.000098  -0.001103
     6  O   -0.000000   0.001484
     7  H    0.000000   0.015073
     8  O   -0.000007   0.000102
     9  H    0.000973   0.002234
    10  C   -0.005359  -0.000658
    11  H   -0.000021   0.004924
    12  H    0.002979  -0.000372
    13  C   -0.040219  -0.000088
    14  C    0.004309   0.000008
    15  H   -0.000126   0.000005
    16  C    0.000710   0.000000
    17  O    0.000002  -0.000000
    18  H   -0.000000   0.000000
    19  C    0.003643   0.000000
    20  O   -0.000083   0.000000
    21  H   -0.000016   0.000000
    22  C   -0.035763  -0.000000
    23  H   -0.005143   0.000000
    24  C    0.355824   0.000000
    25  H    0.568167  -0.000000
    26  H   -0.000000   0.249303
 Mulliken charges:
               1
     1  N   -0.794441
     2  H    0.495121
     3  H    0.497624
     4  C   -0.213779
     5  C    0.641416
     6  O   -0.520026
     7  H    0.445046
     8  O   -0.443236
     9  H    0.261307
    10  C   -0.358706
    11  H    0.200433
    12  H    0.201981
    13  C    0.099167
    14  C   -0.238233
    15  H    0.156665
    16  C    0.325806
    17  O   -0.681245
    18  H    0.447422
    19  C    0.294590
    20  O   -0.687953
    21  H    0.467380
    22  C   -0.192834
    23  H    0.166771
    24  C   -0.212356
    25  H    0.149994
    26  H    0.492086
 Sum of Mulliken charges =   1.00000
 Mulliken charges with hydrogens summed into heavy atoms:
               1
     1  N    0.690390
     4  C    0.047528
     5  C    0.641416
     6  O   -0.074980
     8  O   -0.443236
    10  C    0.043708
    13  C    0.099167
    14  C   -0.081568
    16  C    0.325806
    17  O   -0.233823
    19  C    0.294590
    20  O   -0.220573
    22  C   -0.026063
    24  C   -0.062361
 Electronic spatial extent (au):  <R**2>=           3312.3845
 Charge=              1.0000 electrons
 Dipole moment (field-independent basis, Debye):
    X=            -15.0330    Y=            -10.7349    Z=             -5.6468  Tot=             19.3162
 Quadrupole moment (field-independent basis, Debye-Ang):
   XX=              6.8302   YY=            -73.0725   ZZ=            -79.4687
   XY=             16.0665   XZ=             15.0279   YZ=             -3.7784
 Traceless Quadrupole moment (field-independent basis, Debye-Ang):
   XX=             55.4005   YY=            -24.5022   ZZ=            -30.8983
   XY=             16.0665   XZ=             15.0279   YZ=             -3.7784
 Octapole moment (field-independent basis, Debye-Ang**2):
  XXX=           -205.7050  YYY=            -29.7562  ZZZ=            -14.1067  XYY=            -10.6423
  XXY=           -113.1295  XXZ=            -54.2371  XZZ=            -19.8780  YZZ=             -8.7604
  YYZ=             -1.7478  XYZ=            -10.0468
 Hexadecapole moment (field-independent basis, Debye-Ang**3):
 XXXX=          -1434.6554 YYYY=           -645.1578 ZZZZ=           -354.1463 XXXY=            206.7819
 XXXZ=            126.9911 YYYX=             62.3061 YYYZ=              0.8483 ZZZX=             39.2149
 ZZZY=             -7.1825 XXYY=           -472.6825 XXZZ=           -503.0727 YYZZ=           -168.4417
 XXYZ=            -15.9490 YYXZ=             45.0442 ZZXY=             23.9284
 N-N= 9.101636235227D+02 E-N=-3.452340976618D+03  KE= 6.999550646532D+02
 No NMR shielding tensors so no spin-rotation constants.
 Leave Link  601 at Sun Jul 18 13:47:29 2021, MaxMem=   104857600 cpu:               0.5 elap:               0.1
 (Enter /prod/apps/gaussian/g16b1/l701.exe)
 ... and contract with generalized density number  0.
 Compute integral first derivatives.
 D1PCM: PCM CHGder 1st derivatives, ID1Alg=3 FixD1E=F DoIter=F DoCFld=F I1PDM=0.
 GePol: Maximum number of non-zero 1st derivatives   =     281
 Leave Link  701 at Sun Jul 18 13:47:30 2021, MaxMem=   104857600 cpu:               5.8 elap:               1.5
 (Enter /prod/apps/gaussian/g16b1/l702.exe)
 L702 exits ... SP integral derivatives will be done elsewhere.
 Leave Link  702 at Sun Jul 18 13:47:30 2021, MaxMem=   104857600 cpu:               0.1 elap:               0.0
 (Enter /prod/apps/gaussian/g16b1/l703.exe)
 Integral derivatives from FoFJK, PRISM(SPDF).
 Compute integral first derivatives, UseDBF=F ICtDFT=           0.
 Calling FoFJK, ICntrl=      2127 FMM=F ISym2X=0 I1Cent= 0 IOpClX= 0 NMat=1 NMatS=1 NMatT=0.
 FoFJK:  IHMeth= 1 ICntrl=    2127 DoSepK=F KAlg= 0 I1Cent=           0 FoldK=F
 IRaf=         0 NMat=       1 IRICut=       1 DoRegI=T DoRafI=F ISym2E= 0 IDoP0=0 IntGTp=1.
 FoFCou: FMM=F IPFlag=           0 FMFlag=      100000 FMFlg1=         800
         NFxFlg=           0 DoJE=F BraDBF=F KetDBF=F FulRan=T
         wScrn=  0.000000 ICntrl=      2127 IOpCl=  0 I1Cent=           0 NGrid=           0
         NMat0=    1 NMatS0=      1 NMatT0=    0 NMatD0=    1 NMtDS0=    0 NMtDT0=    0
 Symmetry not used in FoFCou.
 Leave Link  703 at Sun Jul 18 13:47:39 2021, MaxMem=   104857600 cpu:              35.8 elap:               9.0
 (Enter /prod/apps/gaussian/g16b1/l716.exe)
 Dipole        =-5.91445264D+00-4.22344729D+00-2.22161620D+00
 ***** Axes restored to original set *****
 -------------------------------------------------------------------
 Center     Atomic                   Forces (Hartrees/Bohr)
 Number     Number              X              Y              Z
 -------------------------------------------------------------------
      1        7           0.057439801   -0.010093455    0.025916399
      2        1           0.005087179    0.037269281   -0.002735265
      3        1          -0.020615701    0.000708331    0.025073495
      4        6           0.009101812   -0.034789416    0.039890361
      5        6          -0.011428933    0.082491030    0.038933912
      6        8          -0.024139442    0.000832887   -0.059114498
      7        1           0.007264040    0.000091962   -0.072084423
      8        8           0.045211716   -0.042613550    0.006434899
      9        1          -0.007256855    0.019556412   -0.004466708
     10        6          -0.008479703   -0.062007507    0.038444249
     11        1           0.003463980   -0.005288812   -0.003304954
     12        1          -0.004061906    0.006244318    0.000466464
     13        6           0.002365442    0.004910731    0.022714492
     14        6          -0.025167466    0.049678997   -0.003848998
     15        1           0.002495836    0.000569664    0.000293058
     16        6           0.015053056   -0.032188609   -0.027150369
     17        8          -0.000986726   -0.012014705    0.010604627
     18        1           0.004764649   -0.007471603   -0.005865104
     19        6           0.021424456    0.004465024    0.026692134
     20        8          -0.003519350   -0.012692606   -0.004932702
     21        1           0.008407971   -0.008266965    0.001174537
     22        6          -0.017824818    0.012806643   -0.004910879
     23        1          -0.000783707    0.001202192   -0.002208011
     24        6          -0.014501279    0.008884246   -0.023169743
     25        1          -0.003041214    0.004029869   -0.005727059
     26        1          -0.040272836   -0.006314360   -0.017119912
 -------------------------------------------------------------------
 Cartesian Forces:  Max     0.082491030 RMS     0.024804495
 Leave Link  716 at Sun Jul 18 13:47:39 2021, MaxMem=   104857600 cpu:               0.1 elap:               0.0
 (Enter /prod/apps/gaussian/g16b1/l103.exe)

 GradGradGradGradGradGradGradGradGradGradGradGradGradGradGradGradGradGrad
 Berny optimization.
 FormGI is forming the generalized inverse of G from B-inverse, IUseBI=4.
 Internal  Forces:  Max     0.200219743 RMS     0.029698866
 Search for a local minimum.
 Step number   1 out of a maximum of  138
 All quantities printed in internal units (Hartrees-Bohrs-Radians)
 RMS Force = .29699D-01 SwitMx=.10000D-02 MixMth= 1
 Mixed Optimization -- RFO/linear search
 Second derivative matrix not updated -- first step.
 ITU=  0
     Eigenvalues ---    0.00230   0.00230   0.00230   0.01136   0.01220
     Eigenvalues ---    0.01672   0.01823   0.02091   0.02138   0.02253
     Eigenvalues ---    0.02285   0.02383   0.02419   0.02474   0.02524
     Eigenvalues ---    0.02627   0.03078   0.03988   0.04035   0.05038
     Eigenvalues ---    0.05676   0.05713   0.05717   0.06120   0.09770
     Eigenvalues ---    0.13127   0.14753   0.15978   0.15991   0.15995
     Eigenvalues ---    0.16000   0.16000   0.16000   0.16000   0.16000
     Eigenvalues ---    0.16000   0.18156   0.21817   0.21898   0.22330
     Eigenvalues ---    0.23396   0.24487   0.24879   0.24950   0.24990
     Eigenvalues ---    0.25000   0.25911   0.26615   0.26717   0.34441
     Eigenvalues ---    0.34584   0.34590   0.35116   0.35173   0.35221
     Eigenvalues ---    0.36263   0.36355   0.43056   0.45645   0.47439
     Eigenvalues ---    0.47576   0.47653   0.47670   0.50023   0.51006
     Eigenvalues ---    0.51702   0.52562   0.52622   0.52669   0.54352
     Eigenvalues ---    0.68550   1.12933
 RFO step:  Lambda=-2.35690688D-01 EMin= 2.30000000D-03
 Linear search not attempted -- first point.
 Maximum step size (   0.300) exceeded in Quadratic search.
    -- Step size scaled by   0.474
 Iteration  1 RMS(Cart)=  0.09541484 RMS(Int)=  0.00991090
 Iteration  2 RMS(Cart)=  0.01993775 RMS(Int)=  0.00054668
 Iteration  3 RMS(Cart)=  0.00052828 RMS(Int)=  0.00046817
 Iteration  4 RMS(Cart)=  0.00000064 RMS(Int)=  0.00046817
 ITry= 1 IFail=0 DXMaxC= 8.90D-01 DCOld= 1.00D+10 DXMaxT= 3.00D-01 DXLimC= 3.00D+00 Rises=F
 Variable       Old X    -DE/DX   Delta X   Delta X   Delta X     New X
                                 (Linear)    (Quad)   (Total)
    R1        1.89011   0.03651   0.00000   0.02429   0.02429   1.91440
    R2        1.89094   0.03248   0.00000   0.02164   0.02164   1.91257
    R3        2.96946   0.00651   0.00000   0.00624   0.00624   2.97570
    R4        1.88992   0.03587   0.00000   0.02386   0.02386   1.91378
    R5        2.95033   0.06942   0.00000   0.06542   0.06542   3.01575
    R6        2.06592  -0.00307   0.00000  -0.00250  -0.00250   2.06342
    R7        2.76972   0.05407   0.00000   0.04282   0.04282   2.81254
    R8        2.44753   0.10674   0.00000   0.05491   0.05491   2.50244
    R9        2.23866   0.04551   0.00000   0.01580   0.01580   2.25445
   R10        1.84064  -0.04668   0.00000  -0.02906  -0.02906   1.81159
   R11        2.06355   0.00148   0.00000   0.00120   0.00120   2.06476
   R12        2.06345   0.00358   0.00000   0.00291   0.00291   2.06637
   R13        2.95270  -0.02160   0.00000  -0.02039  -0.02039   2.93231
   R14        2.64537  -0.00022   0.00000  -0.00030  -0.00032   2.64506
   R15        2.75250  -0.03904   0.00000  -0.03178  -0.03181   2.72069
   R16        2.05395  -0.00129   0.00000  -0.00104  -0.00104   2.05291
   R17        2.54502   0.04979   0.00000   0.03071   0.03073   2.57575
   R18        2.58864   0.01018   0.00000   0.00647   0.00647   2.59511
   R19        2.58544   0.02234   0.00000   0.01530   0.01534   2.60078
   R20        1.84008   0.00459   0.00000   0.00285   0.00285   1.84293
   R21        2.58185   0.01819   0.00000   0.01145   0.01145   2.59330
   R22        2.61586   0.01799   0.00000   0.01209   0.01211   2.62797
   R23        1.83964   0.00005   0.00000   0.00003   0.00003   1.83967
   R24        2.05487  -0.00243   0.00000  -0.00196  -0.00196   2.05290
   R25        2.62906   0.00534   0.00000   0.00254   0.00252   2.63158
   R26        2.05317  -0.00076   0.00000  -0.00061  -0.00061   2.05256
    A1        1.91065  -0.00505   0.00000  -0.00755  -0.00750   1.90315
    A2        1.91103   0.00951   0.00000   0.01230   0.01209   1.92312
    A3        1.91012  -0.00739   0.00000  -0.00553  -0.00596   1.90415
    A4        1.91069  -0.00830   0.00000  -0.01160  -0.01151   1.89918
    A5        1.91105  -0.01377   0.00000  -0.01831  -0.01819   1.89286
    A6        1.91026   0.02501   0.00000   0.03070   0.03053   1.94079
    A7        2.01333   0.04117   0.00000   0.05337   0.05357   2.06690
    A8        2.01369  -0.02720   0.00000  -0.03905  -0.03880   1.97488
    A9        1.76203   0.00035   0.00000   0.00469   0.00443   1.76647
   A10        1.88114  -0.01236   0.00000  -0.01789  -0.01752   1.86362
   A11        1.93004  -0.01367   0.00000  -0.01256  -0.01320   1.91685
   A12        1.85399   0.01042   0.00000   0.01041   0.01030   1.86430
   A13        1.76400   0.20022   0.00000   0.20618   0.20347   1.96747
   A14        2.19739  -0.07508   0.00000  -0.06427  -0.06728   2.13011
   A15        2.12797  -0.07561   0.00000  -0.06013  -0.06290   2.06507
   A16        1.65850   0.10020   0.00000   0.12000   0.12000   1.77850
   A17        1.96241   0.00353   0.00000   0.00318   0.00315   1.96555
   A18        1.92451  -0.00242   0.00000  -0.00273  -0.00272   1.92179
   A19        1.99144  -0.00505   0.00000  -0.00551  -0.00553   1.98591
   A20        1.83317   0.00042   0.00000   0.00137   0.00139   1.83456
   A21        1.94482  -0.00399   0.00000  -0.00640  -0.00641   1.93841
   A22        1.79307   0.00832   0.00000   0.01136   0.01137   1.80445
   A23        2.11353  -0.00142   0.00000  -0.00029  -0.00026   2.11327
   A24        2.12554  -0.00884   0.00000  -0.00752  -0.00749   2.11805
   A25        2.04254   0.01031   0.00000   0.00790   0.00785   2.05039
   A26        2.10886  -0.00093   0.00000  -0.00150  -0.00151   2.10735
   A27        2.09716   0.00313   0.00000   0.00456   0.00456   2.10172
   A28        2.07669  -0.00218   0.00000  -0.00300  -0.00300   2.07369
   A29        2.01851   0.02029   0.00000   0.01827   0.01824   2.03675
   A30        2.13887  -0.01734   0.00000  -0.01381  -0.01376   2.12510
   A31        2.12536  -0.00294   0.00000  -0.00441  -0.00444   2.12092
   A32        1.81578   0.01733   0.00000   0.02075   0.02075   1.83653
   A33        2.11632  -0.01705   0.00000  -0.01757  -0.01760   2.09873
   A34        2.10601  -0.01151   0.00000  -0.00925  -0.00920   2.09681
   A35        2.05652   0.02871   0.00000   0.02709   0.02707   2.08358
   A36        1.79711   0.02170   0.00000   0.02599   0.02599   1.82310
   A37        2.09887  -0.00550   0.00000  -0.00487  -0.00487   2.09400
   A38        2.06356   0.01273   0.00000   0.01183   0.01183   2.07539
   A39        2.11962  -0.00718   0.00000  -0.00687  -0.00687   2.11275
   A40        2.10820   0.00299   0.00000  -0.00056  -0.00061   2.10758
   A41        2.13986  -0.00916   0.00000  -0.00889  -0.00887   2.13099
   A42        2.03480   0.00619   0.00000   0.00949   0.00951   2.04431
    D1       -1.17480  -0.00046   0.00000   0.00440   0.00456  -1.17024
    D2        1.03799  -0.00524   0.00000  -0.00809  -0.00832   1.02967
    D3        3.02778  -0.00419   0.00000  -0.00944  -0.00976   3.01801
    D4        3.01369   0.00499   0.00000   0.01322   0.01349   3.02718
    D5       -1.05670   0.00021   0.00000   0.00072   0.00060  -1.05610
    D6        0.93308   0.00126   0.00000  -0.00063  -0.00084   0.93225
    D7        0.91897   0.01162   0.00000   0.02394   0.02438   0.94336
    D8        3.13177   0.00684   0.00000   0.01145   0.01150  -3.13992
    D9       -1.16163   0.00789   0.00000   0.01010   0.01006  -1.15157
   D10       -0.16248  -0.04227   0.00000  -0.07649  -0.07656  -0.23904
   D11        2.34705   0.02084   0.00000   0.03775   0.03790   2.38495
   D12       -2.44086  -0.02764   0.00000  -0.05062  -0.05070  -2.49156
   D13        0.06867   0.03547   0.00000   0.06361   0.06376   0.13242
   D14        1.82271  -0.02569   0.00000  -0.04610  -0.04628   1.77643
   D15       -1.95094   0.03742   0.00000   0.06813   0.06817  -1.88277
   D16        0.94630   0.02515   0.00000   0.03614   0.03608   0.98239
   D17       -1.09307   0.02401   0.00000   0.03423   0.03416  -1.05890
   D18       -3.10020   0.01828   0.00000   0.02517   0.02510  -3.07510
   D19       -1.19330  -0.01667   0.00000  -0.02290  -0.02284  -1.21614
   D20        3.05052  -0.01781   0.00000  -0.02482  -0.02475   3.02576
   D21        1.04339  -0.02353   0.00000  -0.03388  -0.03382   1.00957
   D22        3.05340  -0.00088   0.00000  -0.00113  -0.00112   3.05229
   D23        1.01403  -0.00202   0.00000  -0.00304  -0.00303   1.01100
   D24       -0.99310  -0.00775   0.00000  -0.01210  -0.01210  -1.00520
   D25       -0.01033   0.01763   0.00000   0.03358   0.03466   0.02432
   D26       -2.55287  -0.03627   0.00000  -0.06673  -0.06781  -2.62068
   D27       -1.82262   0.00183   0.00000   0.00393   0.00391  -1.81871
   D28        1.38098   0.00050   0.00000   0.00178   0.00176   1.38274
   D29        0.42300  -0.00114   0.00000  -0.00206  -0.00205   0.42096
   D30       -2.65659  -0.00246   0.00000  -0.00422  -0.00419  -2.66078
   D31        2.37752   0.00201   0.00000   0.00278   0.00277   2.38030
[...]
     10          6           0       -1.325098   -0.865342   -1.012479
     11          1           0       -1.549225   -0.206068   -1.856489
     12          1           0       -1.486781   -1.891624   -1.356857
     13          6           0        0.114409   -0.687889   -0.577807
     14          6           0        0.793126    0.510921   -0.838768
     15          1           0        0.304977    1.323969   -1.365985
     16          6           0        2.113326    0.682524   -0.433958
     17          8           0        2.755733    1.853659   -0.703732
     18          1           0        3.664219    1.790739   -0.355214
     19          6           0        2.778487   -0.355316    0.245812
     20          8           0        4.072417   -0.086253    0.594559
     21          1           0        4.467007   -0.854406    1.047893
     22          6           0        2.109956   -1.548078    0.506292
     23          1           0        2.625561   -2.350128    1.023619
     24          6           0        0.785461   -1.712729    0.094674
     25          1           0        0.281414   -2.651881    0.296775
     26          1           0       -4.030442   -0.407787   -1.129866
 ---------------------------------------------------------------------
 Rotational constants (GHZ):           1.2976431           0.3772428           0.3386265
 Leave Link  202 at Sun Jul 18 14:08:47 2021, MaxMem=   262144000 cpu:               0.1 elap:               0.0
 (Enter /prod/apps/gaussian/g16b1/l301.exe)
 Standard basis: Aug-CC-pVDZ (5D, 7F)
 Ernie: Thresh=  0.10000D-02 Tol=  0.10000D-05 Strict=F.
 Ernie:  28 primitive shells out of 434 were deleted.
 There are   458 symmetry adapted cartesian basis functions of A   symmetry.
 There are   430 symmetry adapted basis functions of A   symmetry.
   430 basis functions,   734 primitive gaussians,   458 cartesian basis functions
    52 alpha electrons       52 beta electrons
       nuclear repulsion energy       904.7407255874 Hartrees.
 IExCor=    0 DFT=F Ex=HF Corr=None ExCW=0 ScaHFX=  1.000000
 ScaDFX=  1.000000  1.000000  1.000000  1.000000 ScalE2=  1.000000  1.000000
 IRadAn=      5 IRanWt=     -1 IRanGd=            0 ICorTp=0 IEmpDi=  4
 NAtoms=   26 NActive=   26 NUniq=   26 SFac= 1.00D+00 NAtFMM=   60 NAOKFM=F Big=F
 Integral buffers will be    131072 words long.
 Raffenetti 1 integral format.
 Two-electron integral symmetry is turned on.
 Leave Link  301 at Sun Jul 18 14:08:48 2021, MaxMem=   262144000 cpu:               0.3 elap:               0.1
 (Enter /prod/apps/gaussian/g16b1/l302.exe)
 NPDir=0 NMtPBC=     1 NCelOv=     1 NCel=       1 NClECP=     1 NCelD=      1
         NCelK=      1 NCelE2=     1 NClLst=     1 CellRange=     0.0.
 One-electron integrals computed using PRISM.
 One-electron integral symmetry used in STVInt
 NBasis=   430 RedAO= T EigKep=  1.62D-06  NBF=   430
 NBsUse=   430 1.00D-06 EigRej= -1.00D+00 NBFU=   430
 Leave Link  302 at Sun Jul 18 14:08:48 2021, MaxMem=   262144000 cpu:               1.2 elap:               0.3
 (Enter /prod/apps/gaussian/g16b1/l303.exe)
 DipDrv:  MaxL=1.
 Leave Link  303 at Sun Jul 18 14:08:48 2021, MaxMem=   262144000 cpu:               0.3 elap:               0.1
 (Enter /prod/apps/gaussian/g16b1/l401.exe)
 ExpMin= 2.97D-02 ExpMax= 1.17D+04 ExpMxC= 4.01D+02 IAcc=3 IRadAn=         5 AccDes= 0.00D+00
 Harris functional with IExCor=  205 and IRadAn=       5 diagonalized for initial guess.
 HarFok:  IExCor=  205 AccDes= 0.00D+00 IRadAn=         5 IDoV= 1 UseB2=F ITyADJ=14
 ICtDFT=  3500011 ScaDFX=  1.000000  1.000000  1.000000  1.000000
 FoFCou: FMM=F IPFlag=           0 FMFlag=      100000 FMFlg1=           0
         NFxFlg=           0 DoJE=T BraDBF=F KetDBF=T FulRan=T
         wScrn=  0.000000 ICntrl=       500 IOpCl=  0 I1Cent=   200000004 NGrid=           0
         NMat0=    1 NMatS0=      1 NMatT0=    0 NMatD0=    1 NMtDS0=    0 NMtDT0=    0
 Petite list used in FoFCou.
 Harris En= -702.290591580932    
 JPrj=0 DoOrth=F DoCkMO=F.
 Leave Link  401 at Sun Jul 18 14:08:50 2021, MaxMem=   262144000 cpu:               8.9 elap:               2.2
 (Enter /prod/apps/gaussian/g16b1/l502.exe)
 Integral symmetry usage will be decided dynamically.
 Closed shell SCF:
 Using DIIS extrapolation, IDIIS=  1040.
 NGot=   262144000 LenX=   261717388 LenY=   261507166
 Requested convergence on RMS density matrix=1.00D-08 within 128 cycles.
 Requested convergence on MAX density matrix=1.00D-06.
 Requested convergence on             energy=1.00D-06.
 No special actions if energy rises.
 Fock matrices will be formed incrementally for  20 cycles.

 Cycle   1  Pass 1  IDiag  1:
 FoFJK:  IHMeth= 1 ICntrl=       0 DoSepK=F KAlg= 0 I1Cent=           0 FoldK=F
 IRaf= 950000000 NMat=       1 IRICut=       1 DoRegI=T DoRafI=F ISym2E= 0 IDoP0=0 IntGTp=1.
 FoFCou: FMM=F IPFlag=           0 FMFlag=      100000 FMFlg1=           0
         NFxFlg=           0 DoJE=F BraDBF=F KetDBF=F FulRan=T
         wScrn=  0.000000 ICntrl=         0 IOpCl=  0 I1Cent=           0 NGrid=           0
         NMat0=    1 NMatS0=      1 NMatT0=    0 NMatD0=    1 NMtDS0=    0 NMtDT0=    0
 Symmetry not used in FoFCou.
 E= -701.084361309483    
 DIIS: error= 1.50D-02 at cycle   1 NSaved=   1.
 NSaved= 1 IEnMin= 1 EnMin= -701.084361309483     IErMin= 1 ErrMin= 1.50D-02
 ErrMax= 1.50D-02  0.00D+00 EMaxC= 1.00D-01 BMatC= 6.76D-01 BMatP= 6.76D-01
 IDIUse=3 WtCom= 8.50D-01 WtEn= 1.50D-01
 Coeff-Com:  0.100D+01
 Coeff-En:   0.100D+01
 Coeff:      0.100D+01
 Gap=     0.452 Goal=   None    Shift=    0.000
 GapD=    0.452 DampG=2.000 DampE=0.500 DampFc=1.0000 IDamp=-1.
 RMSDP=4.63D-02 MaxDP=2.77D+00              OVMax= 1.52D-01

 Cycle   2  Pass 1  IDiag  1:
 RMSU=  1.87D-02    CP:  5.41D-01
 E= -701.466243975070     Delta-E=       -0.381882665587 Rises=F Damp=F
 DIIS: error= 6.84D-03 at cycle   2 NSaved=   2.
 NSaved= 2 IEnMin= 2 EnMin= -701.466243975070     IErMin= 2 ErrMin= 6.84D-03
 ErrMax= 6.84D-03  0.00D+00 EMaxC= 1.00D-01 BMatC= 1.12D-01 BMatP= 6.76D-01
 IDIUse=3 WtCom= 9.32D-01 WtEn= 6.84D-02
 Coeff-Com:  0.233D+00 0.767D+00
 Coeff-En:   0.000D+00 0.100D+01
 Coeff:      0.217D+00 0.783D+00
 Gap=     0.305 Goal=   None    Shift=    0.000
 RMSDP=4.66D-03 MaxDP=2.61D-01 DE=-3.82D-01 OVMax= 5.74D-02

 Cycle   3  Pass 1  IDiag  1:
 RMSU=  3.97D-03    CP:  5.26D-01  8.91D-01
 E= -701.551864959952     Delta-E=       -0.085620984882 Rises=F Damp=F
 DIIS: error= 3.10D-03 at cycle   3 NSaved=   3.
 NSaved= 3 IEnMin= 3 EnMin= -701.551864959952     IErMin= 3 ErrMin= 3.10D-03
 ErrMax= 3.10D-03  0.00D+00 EMaxC= 1.00D-01 BMatC= 1.29D-02 BMatP= 1.12D-01
 IDIUse=3 WtCom= 9.69D-01 WtEn= 3.10D-02
 Coeff-Com: -0.144D-01 0.217D+00 0.797D+00
 Coeff-En:   0.000D+00 0.000D+00 0.100D+01
 Coeff:     -0.140D-01 0.211D+00 0.803D+00
 Gap=     0.295 Goal=   None    Shift=    0.000
 RMSDP=1.19D-03 MaxDP=7.14D-02 DE=-8.56D-02 OVMax= 3.68D-02

 Cycle   4  Pass 1  IDiag  1:
 RMSU=  7.94D-04    CP:  5.19D-01  9.12D-01  9.12D-01
 E= -701.561905560136     Delta-E=       -0.010040600184 Rises=F Damp=F
 DIIS: error= 8.62D-04 at cycle   4 NSaved=   4.
 NSaved= 4 IEnMin= 4 EnMin= -701.561905560136     IErMin= 4 ErrMin= 8.62D-04
 ErrMax= 8.62D-04  0.00D+00 EMaxC= 1.00D-01 BMatC= 9.45D-04 BMatP= 1.29D-02
 IDIUse=3 WtCom= 9.91D-01 WtEn= 8.62D-03
 Coeff-Com: -0.163D-01 0.251D-01 0.251D+00 0.740D+00
 Coeff-En:   0.000D+00 0.000D+00 0.000D+00 0.100D+01
 Coeff:     -0.162D-01 0.249D-01 0.249D+00 0.742D+00
 Gap=     0.289 Goal=   None    Shift=    0.000
 RMSDP=3.92D-04 MaxDP=3.44D-02 DE=-1.00D-02 OVMax= 6.89D-03

 Cycle   5  Pass 1  IDiag  1:
 RMSU=  2.92D-04    CP:  5.16D-01  9.15D-01  9.00D-01  9.91D-01
 E= -701.562814450958     Delta-E=       -0.000908890821 Rises=F Damp=F
 DIIS: error= 1.78D-04 at cycle   5 NSaved=   5.
 NSaved= 5 IEnMin= 5 EnMin= -701.562814450958     IErMin= 5 ErrMin= 1.78D-04
 ErrMax= 1.78D-04  0.00D+00 EMaxC= 1.00D-01 BMatC= 4.98D-05 BMatP= 9.45D-04
 IDIUse=3 WtCom= 9.98D-01 WtEn= 1.78D-03
 Coeff-Com:  0.184D-02-0.190D-01-0.789D-01-0.354D-01 0.113D+01
 Coeff-En:   0.000D+00 0.000D+00 0.000D+00 0.000D+00 0.100D+01
 Coeff:      0.183D-02-0.189D-01-0.788D-01-0.354D-01 0.113D+01
 Gap=     0.291 Goal=   None    Shift=    0.000
 RMSDP=1.37D-04 MaxDP=8.99D-03 DE=-9.09D-04 OVMax= 5.41D-03

 Cycle   6  Pass 1  IDiag  1:
 RMSU=  8.11D-05    CP:  5.15D-01  9.13D-01  9.11D-01  1.05D+00  1.17D+00
 E= -701.562939084931     Delta-E=       -0.000124633973 Rises=F Damp=F
 DIIS: error= 8.70D-05 at cycle   6 NSaved=   6.
 NSaved= 6 IEnMin= 6 EnMin= -701.562939084931     IErMin= 6 ErrMin= 8.70D-05
 ErrMax= 8.70D-05  0.00D+00 EMaxC= 1.00D-01 BMatC= 1.15D-05 BMatP= 4.98D-05
 IDIUse=1 WtCom= 1.00D+00 WtEn= 0.00D+00
 Coeff-Com:  0.209D-02-0.810D-02-0.439D-01-0.971D-01 0.284D+00 0.863D+00
 Coeff:      0.209D-02-0.810D-02-0.439D-01-0.971D-01 0.284D+00 0.863D+00
 Gap=     0.291 Goal=   None    Shift=    0.000
 RMSDP=4.71D-05 MaxDP=3.47D-03 DE=-1.25D-04 OVMax= 1.36D-03

 Cycle   7  Pass 1  IDiag  1:
 RMSU=  2.95D-05    CP:  5.15D-01  9.13D-01  9.12D-01  1.08D+00  1.21D+00
                    CP:  1.16D+00
 E= -701.562959397501     Delta-E=       -0.000020312571 Rises=F Damp=F
 DIIS: error= 3.19D-05 at cycle   7 NSaved=   7.
 NSaved= 7 IEnMin= 7 EnMin= -701.562959397501     IErMin= 7 ErrMin= 3.19D-05
 ErrMax= 3.19D-05  0.00D+00 EMaxC= 1.00D-01 BMatC= 1.61D-06 BMatP= 1.15D-05
 IDIUse=1 WtCom= 1.00D+00 WtEn= 0.00D+00
 Coeff-Com: -0.126D-03 0.212D-02 0.124D-01-0.691D-02-0.149D+00 0.553D-02
 Coeff-Com:  0.114D+01
 Coeff:     -0.126D-03 0.212D-02 0.124D-01-0.691D-02-0.149D+00 0.553D-02
 Coeff:      0.114D+01
 Gap=     0.292 Goal=   None    Shift=    0.000
 RMSDP=2.46D-05 MaxDP=1.63D-03 DE=-2.03D-05 OVMax= 1.22D-03

 Cycle   8  Pass 1  IDiag  1:
 RMSU=  1.52D-05    CP:  5.15D-01  9.12D-01  9.13D-01  1.08D+00  1.26D+00
                    CP:  1.26D+00  1.21D+00
 E= -701.562964316800     Delta-E=       -0.000004919299 Rises=F Damp=F
 DIIS: error= 1.93D-05 at cycle   8 NSaved=   8.
 NSaved= 8 IEnMin= 8 EnMin= -701.562964316800     IErMin= 8 ErrMin= 1.93D-05
 ErrMax= 1.93D-05  0.00D+00 EMaxC= 1.00D-01 BMatC= 3.01D-07 BMatP= 1.61D-06
 IDIUse=1 WtCom= 1.00D+00 WtEn= 0.00D+00
 Coeff-Com: -0.333D-03 0.129D-02 0.849D-02 0.121D-01-0.425D-01-0.159D+00
 Coeff-Com:  0.592D-01 0.112D+01
 Coeff:     -0.333D-03 0.129D-02 0.849D-02 0.121D-01-0.425D-01-0.159D+00
 Coeff:      0.592D-01 0.112D+01
 Gap=     0.292 Goal=   None    Shift=    0.000
 RMSDP=1.12D-05 MaxDP=5.50D-04 DE=-4.92D-06 OVMax= 4.97D-04

 Cycle   9  Pass 1  IDiag  1:
 RMSU=  7.57D-06    CP:  5.15D-01  9.12D-01  9.14D-01  1.08D+00  1.26D+00
                    CP:  1.30D+00  1.39D+00  1.24D+00
 E= -701.562965231169     Delta-E=       -0.000000914369 Rises=F Damp=F
 DIIS: error= 4.63D-06 at cycle   9 NSaved=   9.
 NSaved= 9 IEnMin= 9 EnMin= -701.562965231169     IErMin= 9 ErrMin= 4.63D-06
 ErrMax= 4.63D-06  0.00D+00 EMaxC= 1.00D-01 BMatC= 4.46D-08 BMatP= 3.01D-07
 IDIUse=1 WtCom= 1.00D+00 WtEn= 0.00D+00
 Coeff-Com: -0.359D-04-0.815D-04-0.187D-03 0.189D-02 0.166D-01-0.329D-01
 Coeff-Com: -0.151D+00 0.201D+00 0.965D+00
 Coeff:     -0.359D-04-0.815D-04-0.187D-03 0.189D-02 0.166D-01-0.329D-01
 Coeff:     -0.151D+00 0.201D+00 0.965D+00
 Gap=     0.292 Goal=   None    Shift=    0.000
 RMSDP=4.74D-06 MaxDP=2.19D-04 DE=-9.14D-07 OVMax= 1.67D-04

 Cycle  10  Pass 1  IDiag  1:
 RMSU=  2.30D-06    CP:  5.15D-01  9.12D-01  9.14D-01  1.08D+00  1.26D+00
                    CP:  1.31D+00  1.42D+00  1.41D+00  1.20D+00
 E= -701.562965368937     Delta-E=       -0.000000137768 Rises=F Damp=F
 DIIS: error= 2.78D-06 at cycle  10 NSaved=  10.
 NSaved=10 IEnMin=10 EnMin= -701.562965368937     IErMin=10 ErrMin= 2.78D-06
 ErrMax= 2.78D-06  0.00D+00 EMaxC= 1.00D-01 BMatC= 8.28D-09 BMatP= 4.46D-08
 IDIUse=1 WtCom= 1.00D+00 WtEn= 0.00D+00
 Coeff-Com:  0.569D-04-0.278D-03-0.161D-02-0.226D-02 0.114D-01 0.237D-01
 Coeff-Com: -0.294D-01-0.188D+00 0.104D+00 0.108D+01
 Coeff:      0.569D-04-0.278D-03-0.161D-02-0.226D-02 0.114D-01 0.237D-01
 Coeff:     -0.294D-01-0.188D+00 0.104D+00 0.108D+01
 Gap=     0.292 Goal=   None    Shift=    0.000
 RMSDP=2.21D-06 MaxDP=1.26D-04 DE=-1.38D-07 OVMax= 9.54D-05

 Cycle  11  Pass 1  IDiag  1:
 RMSU=  9.70D-07    CP:  5.15D-01  9.12D-01  9.14D-01  1.08D+00  1.27D+00
                    CP:  1.32D+00  1.44D+00  1.44D+00  1.36D+00  1.45D+00
 E= -701.562965399206     Delta-E=       -0.000000030269 Rises=F Damp=F
 DIIS: error= 9.05D-07 at cycle  11 NSaved=  11.
 NSaved=11 IEnMin=11 EnMin= -701.562965399206     IErMin=11 ErrMin= 9.05D-07
 ErrMax= 9.05D-07  0.00D+00 EMaxC= 1.00D-01 BMatC= 1.15D-09 BMatP= 8.28D-09
 IDIUse=1 WtCom= 1.00D+00 WtEn= 0.00D+00
 Coeff-Com:  0.104D-04-0.136D-04-0.798D-04-0.478D-03-0.194D-02 0.645D-02
 Coeff-Com:  0.249D-01-0.426D-01-0.160D+00 0.399D-01 0.113D+01
 Coeff:      0.104D-04-0.136D-04-0.798D-04-0.478D-03-0.194D-02 0.645D-02
 Coeff:      0.249D-01-0.426D-01-0.160D+00 0.399D-01 0.113D+01
 Gap=     0.292 Goal=   None    Shift=    0.000
 RMSDP=1.16D-06 MaxDP=7.00D-05 DE=-3.03D-08 OVMax= 4.75D-05

 Cycle  12  Pass 1  IDiag  1:
 RMSU=  4.58D-07    CP:  5.15D-01  9.12D-01  9.14D-01  1.08D+00  1.27D+00
                    CP:  1.32D+00  1.45D+00  1.46D+00  1.42D+00  1.68D+00
                    CP:  1.41D+00
 E= -701.562965404672     Delta-E=       -0.000000005466 Rises=F Damp=F
 DIIS: error= 4.16D-07 at cycle  12 NSaved=  12.
 NSaved=12 IEnMin=12 EnMin= -701.562965404672     IErMin=12 ErrMin= 4.16D-07
 ErrMax= 4.16D-07  0.00D+00 EMaxC= 1.00D-01 BMatC= 2.02D-10 BMatP= 1.15D-09
 IDIUse=1 WtCom= 1.00D+00 WtEn= 0.00D+00
 Coeff-Com: -0.800D-05 0.372D-04 0.217D-03 0.427D-03-0.144D-02-0.402D-02
 Coeff-Com:  0.902D-03 0.341D-01-0.197D-02-0.174D+00-0.675D-01 0.121D+01
 Coeff:     -0.800D-05 0.372D-04 0.217D-03 0.427D-03-0.144D-02-0.402D-02
 Coeff:      0.902D-03 0.341D-01-0.197D-02-0.174D+00-0.675D-01 0.121D+01
 Gap=     0.292 Goal=   None    Shift=    0.000
 RMSDP=4.90D-07 MaxDP=2.79D-05 DE=-5.47D-09 OVMax= 2.04D-05

 Cycle  13  Pass 1  IDiag  1:
 RMSU=  1.60D-07    CP:  5.15D-01  9.12D-01  9.14D-01  1.08D+00  1.27D+00
                    CP:  1.32D+00  1.45D+00  1.47D+00  1.43D+00  1.79D+00
                    CP:  1.58D+00  1.38D+00
 E= -701.562965405693     Delta-E=       -0.000000001021 Rises=F Damp=F
 DIIS: error= 1.85D-07 at cycle  13 NSaved=  13.
 NSaved=13 IEnMin=13 EnMin= -701.562965405693     IErMin=13 ErrMin= 1.85D-07
 ErrMax= 1.85D-07  0.00D+00 EMaxC= 1.00D-01 BMatC= 3.94D-11 BMatP= 2.02D-10
 IDIUse=1 WtCom= 1.00D+00 WtEn= 0.00D+00
 Coeff-Com: -0.169D-05 0.202D-05-0.276D-05 0.107D-03 0.394D-03-0.977D-03
 Coeff-Com: -0.525D-02 0.713D-02 0.298D-01 0.261D-02-0.202D+00-0.117D+00
 Coeff-Com:  0.128D+01
 Coeff:     -0.169D-05 0.202D-05-0.276D-05 0.107D-03 0.394D-03-0.977D-03
 Coeff:     -0.525D-02 0.713D-02 0.298D-01 0.261D-02-0.202D+00-0.117D+00
 Coeff:      0.128D+01
 Gap=     0.292 Goal=   None    Shift=    0.000
 RMSDP=2.30D-07 MaxDP=9.22D-06 DE=-1.02D-09 OVMax= 9.66D-06

 Cycle  14  Pass 1  IDiag  1:
 RMSU=  8.43D-08    CP:  5.15D-01  9.12D-01  9.14D-01  1.08D+00  1.27D+00
                    CP:  1.32D+00  1.46D+00  1.47D+00  1.44D+00  1.83D+00
                    CP:  1.62D+00  1.54D+00  1.40D+00
 E= -701.562965405908     Delta-E=       -0.000000000215 Rises=F Damp=F
 DIIS: error= 6.15D-08 at cycle  14 NSaved=  14.
 NSaved=14 IEnMin=14 EnMin= -701.562965405908     IErMin=14 ErrMin= 6.15D-08
 ErrMax= 6.15D-08  0.00D+00 EMaxC= 1.00D-01 BMatC= 5.16D-12 BMatP= 3.94D-11
 IDIUse=1 WtCom= 1.00D+00 WtEn= 0.00D+00
 Coeff-Com:  0.116D-05-0.509D-05-0.356D-04-0.512D-04 0.192D-03 0.634D-03
 Coeff-Com:  0.221D-04-0.510D-02-0.118D-02 0.259D-01 0.213D-01-0.177D+00
 Coeff-Com: -0.783D-01 0.121D+01
 Coeff:      0.116D-05-0.509D-05-0.356D-04-0.512D-04 0.192D-03 0.634D-03
 Coeff:      0.221D-04-0.510D-02-0.118D-02 0.259D-01 0.213D-01-0.177D+00
 Coeff:     -0.783D-01 0.121D+01
 Gap=     0.292 Goal=   None    Shift=    0.000
 RMSDP=7.48D-08 MaxDP=3.24D-06 DE=-2.15D-10 OVMax= 3.49D-06

 Cycle  15  Pass 1  IDiag  1:
 RMSU=  2.76D-08    CP:  5.15D-01  9.12D-01  9.14D-01  1.08D+00  1.27D+00
                    CP:  1.32D+00  1.46D+00  1.47D+00  1.45D+00  1.84D+00
                    CP:  1.63D+00  1.55D+00  1.53D+00  1.31D+00
 E= -701.562965405919     Delta-E=       -0.000000000011 Rises=F Damp=F
 DIIS: error= 2.04D-08 at cycle  15 NSaved=  15.
 NSaved=15 IEnMin=15 EnMin= -701.562965405919     IErMin=15 ErrMin= 2.04D-08
 ErrMax= 2.04D-08  0.00D+00 EMaxC= 1.00D-01 BMatC= 8.23D-13 BMatP= 5.16D-12
 IDIUse=1 WtCom= 1.00D+00 WtEn= 0.00D+00
 Coeff-Com:  0.444D-06-0.117D-05-0.742D-05-0.215D-04-0.207D-04 0.250D-03
 Coeff-Com:  0.731D-03-0.197D-02-0.443D-02 0.473D-02 0.324D-01-0.210D-01
 Coeff-Com: -0.204D+00 0.265D+00 0.928D+00
 Coeff:      0.444D-06-0.117D-05-0.742D-05-0.215D-04-0.207D-04 0.250D-03
 Coeff:      0.731D-03-0.197D-02-0.443D-02 0.473D-02 0.324D-01-0.210D-01
 Coeff:     -0.204D+00 0.265D+00 0.928D+00
 Gap=     0.292 Goal=   None    Shift=    0.000
 RMSDP=2.41D-08 MaxDP=8.45D-07 DE=-1.07D-11 OVMax= 8.97D-07

 Cycle  16  Pass 1  IDiag  1:
 RMSU=  1.05D-08    CP:  5.15D-01  9.12D-01  9.14D-01  1.08D+00  1.27D+00
                    CP:  1.32D+00  1.46D+00  1.47D+00  1.45D+00  1.84D+00
                    CP:  1.63D+00  1.56D+00  1.55D+00  1.45D+00  1.07D+00
 E= -701.562965405934     Delta-E=       -0.000000000015 Rises=F Damp=F
 DIIS: error= 6.29D-09 at cycle  16 NSaved=  16.
 NSaved=16 IEnMin=16 EnMin= -701.562965405934     IErMin=16 ErrMin= 6.29D-09
 ErrMax= 6.29D-09  0.00D+00 EMaxC= 1.00D-01 BMatC= 6.45D-14 BMatP= 8.23D-13
 IDIUse=1 WtCom= 1.00D+00 WtEn= 0.00D+00
 Coeff-Com: -0.921D-07 0.517D-06 0.346D-05 0.512D-05-0.281D-04-0.520D-04
 Coeff-Com:  0.981D-04 0.412D-03-0.467D-03-0.264D-02 0.170D-02 0.190D-01
 Coeff-Com: -0.179D-01-0.100D+00 0.776D-01 0.102D+01
 Coeff:     -0.921D-07 0.517D-06 0.346D-05 0.512D-05-0.281D-04-0.520D-04
 Coeff:      0.981D-04 0.412D-03-0.467D-03-0.264D-02 0.170D-02 0.190D-01
 Coeff:     -0.179D-01-0.100D+00 0.776D-01 0.102D+01
 Gap=     0.292 Goal=   None    Shift=    0.000
 RMSDP=6.74D-09 MaxDP=2.89D-07 DE=-1.48D-11 OVMax= 2.69D-07

 SCF Done:  E(RHF) =  -701.562965406     A.U. after   16 cycles
            NFock= 16  Conv=0.67D-08     -V/T= 2.0015
 KE= 7.004789812525D+02 PE=-3.440602011806D+03 EE= 1.133819339560D+03
 Leave Link  502 at Sun Jul 18 14:14:19 2021, MaxMem=   262144000 cpu:            1314.4 elap:             328.7
 (Enter /prod/apps/gaussian/g16b1/l801.exe)
 ExpMin= 2.97D-02 ExpMax= 1.17D+04 ExpMxC= 4.01D+02 IAcc=3 IRadAn=         5 AccDes= 0.00D+00
 HarFok:  IExCor=  205 AccDes= 0.00D+00 IRadAn=         5 IDoV=-2 UseB2=F ITyADJ=14
 ICtDFT= 12500011 ScaDFX=  1.000000  1.000000  1.000000  1.000000
 Largest valence mixing into a core orbital is  1.10D-04
 Largest core mixing into a valence orbital is  3.74D-05
 Range of M.O.s used for correlation:    15   430
 NBasis=   430 NAE=    52 NBE=    52 NFC=    14 NFV=     0
 NROrb=    416 NOA=    38 NOB=    38 NVA=   378 NVB=   378

 **** Warning!!: The largest alpha MO coefficient is  0.92429605D+02

 Leave Link  801 at Sun Jul 18 14:14:19 2021, MaxMem=   262144000 cpu:               0.8 elap:               0.2
 (Enter /prod/apps/gaussian/g16b1/l906.exe)
 FulOut=F Deriv=F AODrv=F NAtomX=    26
   MMem=           9  MDisk=          38 MDiskD=          38
  W3Min=     6578712 MinDsk=     7262815 NBas6D=         458
 NBas2D=      105729    NTT=      105111    LW2=     2000000
    MDV=   260798402 MDiskM=        7848 NBas2p=       99262
 Disk-based method using OVN memory for 38 occupieds at a time.
 Estimated scratch disk usage=  3759673032 words.
 IMap=   1   2   3   4   5   6   7   8   9  10  11  12  13  14  15  16  17  18  19  20
 IMap=  21  22  23  24  25  26  27  28  29  30  31  32  33  34  35  36  37  38
 Actual    scratch disk usage=  3572890824 words.
 JobTyp=1 Pass  1:  I=   1 to  38 NPSUse=  4 ParTrn=T ParDer=T DoDerP=F.
Erroneous write. Write -1 instead of 1972153464.
fd = 4
orig len = 2076561040 left = 1972153464
g_write
