 Entering Gaussian System, Link 0=g09
 Initial command:
 /prod/apps/gaussian/g09d1/l1.exe "/tmp/ubafar01/1496645/Gau-86633.inp" -scrdir="/tmp/ubafar01/1496645/"
 Entering Link 1 = /prod/apps/gaussian/g09d1/l1.exe PID=     86636.
  
 Copyright (c) 1988,1990,1992,1993,1995,1998,2003,2009,2013,
            Gaussian, Inc.  All Rights Reserved.
  
 This is part of the Gaussian(R) 09 program.  It is based on
 the Gaussian(R) 03 system (copyright 2003, Gaussian, Inc.),
 the Gaussian(R) 98 system (copyright 1998, Gaussian, Inc.),
 the Gaussian(R) 94 system (copyright 1995, Gaussian, Inc.),
 the Gaussian 92(TM) system (copyright 1992, Gaussian, Inc.),
 the Gaussian 90(TM) system (copyright 1990, Gaussian, Inc.),
 the Gaussian 88(TM) system (copyright 1988, Gaussian, Inc.),
 the Gaussian 86(TM) system (copyright 1986, Carnegie Mellon
 University), and the Gaussian 82(TM) system (copyright 1983,
 Carnegie Mellon University). Gaussian is a federally registered
 trademark of Gaussian, Inc.
  
 This software contains proprietary and confidential information,
 including trade secrets, belonging to Gaussian, Inc.
  
 This software is provided under written license and may be
 used, copied, transmitted, or stored only in accord with that
 written license.
  
 The following legend is applicable only to US Government
 contracts under FAR:
  
                    RESTRICTED RIGHTS LEGEND
  
 Use, reproduction and disclosure by the US Government is
 subject to restrictions as set forth in subparagraphs (a)
 and (c) of the Commercial Computer Software - Restricted
 Rights clause in FAR 52.227-19.
  
 Gaussian, Inc.
 340 Quinnipiac St., Bldg. 40, Wallingford CT 06492
  
  
 ---------------------------------------------------------------
 Warning -- This program may not be used in any manner that
 competes with the business of Gaussian, Inc. or will provide
 assistance to any competitor of Gaussian, Inc.  The licensee
 of this program is prohibited from giving any competitor of
 Gaussian, Inc. access to this program.  By using this program,
 the user acknowledges that Gaussian, Inc. is engaged in the
 business of creating and licensing software in the field of
 computational chemistry and represents and warrants to the
 licensee that it is not a competitor of Gaussian, Inc. and that
 it will not use this program in any manner prohibited above.
 ---------------------------------------------------------------
  

 Cite this work as:
 Gaussian 09, Revision D.01,
 M. J. Frisch, G. W. Trucks, H. B. Schlegel, G. E. Scuseria, 
 M. A. Robb, J. R. Cheeseman, G. Scalmani, V. Barone, B. Mennucci, 
 G. A. Petersson, H. Nakatsuji, M. Caricato, X. Li, H. P. Hratchian, 
 A. F. Izmaylov, J. Bloino, G. Zheng, J. L. Sonnenberg, M. Hada, 
 M. Ehara, K. Toyota, R. Fukuda, J. Hasegawa, M. Ishida, T. Nakajima, 
 Y. Honda, O. Kitao, H. Nakai, T. Vreven, J. A. Montgomery, Jr., 
 J. E. Peralta, F. Ogliaro, M. Bearpark, J. J. Heyd, E. Brothers, 
 K. N. Kudin, V. N. Staroverov, T. Keith, R. Kobayashi, J. Normand, 
 K. Raghavachari, A. Rendell, J. C. Burant, S. S. Iyengar, J. Tomasi, 
 M. Cossi, N. Rega, J. M. Millam, M. Klene, J. E. Knox, J. B. Cross, 
 V. Bakken, C. Adamo, J. Jaramillo, R. Gomperts, R. E. Stratmann, 
 O. Yazyev, A. J. Austin, R. Cammi, C. Pomelli, J. W. Ochterski, 
 R. L. Martin, K. Morokuma, V. G. Zakrzewski, G. A. Voth, 
 P. Salvador, J. J. Dannenberg, S. Dapprich, A. D. Daniels, 
 O. Farkas, J. B. Foresman, J. V. Ortiz, J. Cioslowski, 
 and D. J. Fox, Gaussian, Inc., Wallingford CT, 2013.
 
 ******************************************
 Gaussian 09:  AM64L-G09RevD.01 24-Apr-2013
                12-Nov-2020 
 ******************************************
 %nproc=1
 Will use up to    1 processors via shared memory.
 %Chk=SET_328_BBB87_conf1_geo_285_105.n.pdb.xyz.mst.n.w.chk
 %mem=16GB
 -----------------
 #p b3lyp/6-31G(d)
 -----------------
 1/38=1/1;
 2/12=2,17=6,18=5,40=1/2;
 3/5=1,6=6,7=1,11=2,16=1,25=1,30=1,74=-5/1,2,3;
 4//1;
 5/5=2,38=5/2;
 6/7=2,8=2,9=2,10=2,28=1/1;
 99/5=1,9=1/99;
 Leave Link    1 at Thu Nov 12 20:47:04 2020, MaxMem=  2147483648 cpu:         0.0
 (Enter /prod/apps/gaussian/g09d1/l101.exe)
 -----------------------------------------
 SET_328_BBB87_conf1_geo_285_105.n.pdb.xyz
 -----------------------------------------
 Symbolic Z-matrix:
 Charge =  0 Multiplicity = 1
 N                     2.212     0.215     0.036 
 H                     2.454     0.469     0.997 
 H                     3.096     0.203    -0.471 
 C                     1.357     1.263    -0.527 
 H                     1.197     1.038    -1.587 
 H                     1.792     2.272    -0.481 
 C                     0.003     1.308     0.193 
 H                    -0.596     2.118    -0.237 
 H                     0.153     1.547     1.251 
 C                    -0.763     0.021     0.141 
 N                    -1.116    -0.677     1.186 
 C                    -1.815    -1.812     0.824 
 H                    -2.167    -2.484     1.597 
 C                    -2.007    -1.995    -0.512 
 H                    -2.518    -2.802    -1.019 
 S                    -1.282    -0.686    -1.388 
 
 NAtoms=     16 NQM=       16 NQMF=       0 NMMI=      0 NMMIF=      0
                NMic=       0 NMicF=      0.
                    Isotopes and Nuclear Properties:
 (Nuclear quadrupole moments (NQMom) in fm**2, nuclear magnetic moments (NMagM)
  in nuclear magnetons)

  Atom         1           2           3           4           5           6           7           8           9          10
 IAtWgt=          14           1           1          12           1           1          12           1           1          12
 AtmWgt=  14.0030740   1.0078250   1.0078250  12.0000000   1.0078250   1.0078250  12.0000000   1.0078250   1.0078250  12.0000000
 NucSpn=           2           1           1           0           1           1           0           1           1           0
 AtZEff=   0.0000000   0.0000000   0.0000000   0.0000000   0.0000000   0.0000000   0.0000000   0.0000000   0.0000000   0.0000000
 NQMom=    2.0440000   0.0000000   0.0000000   0.0000000   0.0000000   0.0000000   0.0000000   0.0000000   0.0000000   0.0000000
 NMagM=    0.4037610   2.7928460   2.7928460   0.0000000   2.7928460   2.7928460   0.0000000   2.7928460   2.7928460   0.0000000
 AtZNuc=   7.0000000   1.0000000   1.0000000   6.0000000   1.0000000   1.0000000   6.0000000   1.0000000   1.0000000   6.0000000

  Atom        11          12          13          14          15          16
 IAtWgt=          14          12           1          12           1          32
 AtmWgt=  14.0030740  12.0000000   1.0078250  12.0000000   1.0078250  31.9720718
 NucSpn=           2           0           1           0           1           0
 AtZEff=   0.0000000   0.0000000   0.0000000   0.0000000   0.0000000   0.0000000
 NQMom=    2.0440000   0.0000000   0.0000000   0.0000000   0.0000000   0.0000000
 NMagM=    0.4037610   0.0000000   2.7928460   0.0000000   2.7928460   0.0000000
 AtZNuc=   7.0000000   6.0000000   1.0000000   6.0000000   1.0000000  16.0000000
 Leave Link  101 at Thu Nov 12 20:47:04 2020, MaxMem=  2147483648 cpu:         0.1
 (Enter /prod/apps/gaussian/g09d1/l202.exe)
                          Input orientation:                          
 ---------------------------------------------------------------------
 Center     Atomic      Atomic             Coordinates (Angstroms)
 Number     Number       Type             X           Y           Z
 ---------------------------------------------------------------------
      1          7           0        2.212000    0.215000    0.036000
      2          1           0        2.454000    0.469000    0.997000
      3          1           0        3.096000    0.203000   -0.471000
      4          6           0        1.357000    1.263000   -0.527000
      5          1           0        1.197000    1.038000   -1.587000
      6          1           0        1.792000    2.272000   -0.481000
      7          6           0        0.003000    1.308000    0.193000
      8          1           0       -0.596000    2.118000   -0.237000
      9          1           0        0.153000    1.547000    1.251000
     10          6           0       -0.763000    0.021000    0.141000
     11          7           0       -1.116000   -0.677000    1.186000
     12          6           0       -1.815000   -1.812000    0.824000
     13          1           0       -2.167000   -2.484000    1.597000
     14          6           0       -2.007000   -1.995000   -0.512000
     15          1           0       -2.518000   -2.802000   -1.019000
     16         16           0       -1.282000   -0.686000   -1.388000
 ---------------------------------------------------------------------
                    Distance matrix (angstroms):
                    1          2          3          4          5
     1  N    0.000000
     2  H    1.023035   0.000000
     3  H    1.019141   1.624175   0.000000
     4  C    1.465025   2.038730   2.037365   0.000000
     5  H    2.083671   2.929312   2.355607   1.095365   0.000000
     6  H    2.162160   2.423538   2.445665   1.099737   1.760687
     7  C    2.469611   2.712515   3.350906   1.534191   2.160309
     8  H    3.403058   3.680279   4.165675   2.151589   2.490733
     9  H    2.736774   2.553664   3.665088   2.166000   3.066474
    10  C    2.983167   3.358948   3.911464   2.546211   2.803903
    11  N    3.632320   3.754189   4.610964   3.579623   3.997590
    12  C    4.576724   4.843269   5.463989   4.619785   4.796620
    13  H    5.375590   5.516688   6.260652   5.565066   5.818835
    14  C    4.794201   5.314969   5.556392   4.683085   4.540961
    15  H    5.708609   6.283668   6.391191   5.637545   5.373030
    16  S    3.879125   4.580387   4.560493   3.391791   3.026090
                    6          7          8          9         10
     6  H    0.000000
     7  C    2.141050   0.000000
     8  H    2.405368   1.095354   0.000000
     9  H    2.492342   1.094982   1.761018   0.000000
    10  C    3.461490   1.498609   2.137331   2.097578   0.000000
    11  N    4.464522   2.485646   3.179207   2.561398   1.305311
    12  C    5.602904   3.665745   4.249304   3.916406   2.221054
    13  H    6.527733   4.589050   5.197115   4.663805   3.219655
    14  C    5.713200   3.930259   4.356985   4.507719   2.457275
    15  H    6.679148   4.971568   5.339664   5.585780   3.520647
    16  S    4.361409   2.850758   3.107702   3.742971   1.762683
                   11         12         13         14         15
    11  N    0.000000
    12  C    1.381257   0.000000
    13  H    2.130439   1.083059   0.000000
    14  C    2.326845   1.362075   2.170853   0.000000
    15  H    3.367975   2.207025   2.658530   1.081397   0.000000
    16  S    2.579363   2.538683   3.595310   1.733921   2.478167
                   16
    16  S    0.000000
 Stoichiometry    C5H8N2S
 Framework group  C1[X(C5H8N2S)]
 Deg. of freedom    42
 Full point group                 C1      NOp   1
 Largest Abelian subgroup         C1      NOp   1
 Largest concise Abelian subgroup C1      NOp   1
                         Standard orientation:                         
 ---------------------------------------------------------------------
 Center     Atomic      Atomic             Coordinates (Angstroms)
 Number     Number       Type             X           Y           Z
 ---------------------------------------------------------------------
      1          7           0       -2.409671    0.355584   -1.144019
      2          1           0       -2.771520    1.292172   -0.947880
      3          1           0       -3.101281   -0.079047   -1.753461
      4          6           0       -2.344912   -0.396693    0.111442
      5          1           0       -2.064417   -1.428804   -0.124980
      6          1           0       -3.298843   -0.446136    0.656413
      7          6           0       -1.300619    0.209714    1.057731
      8          1           0       -1.300116   -0.362059    1.992010
      9          1           0       -1.581477    1.237342    1.310880
     10          6           0        0.084948    0.263757    0.489301
     11          7           0        0.768691    1.359369    0.299651
     12          6           0        2.014623    1.092545   -0.233572
     13          1           0        2.686475    1.915874   -0.442762
     14          6           0        2.300096   -0.220264   -0.457823
     15          1           0        3.201303   -0.657950   -0.864855
     16         16           0        0.949495   -1.198151    0.017671
 ---------------------------------------------------------------------
 Rotational constants (GHZ):      3.3303365      1.1994637      1.0697153
 Leave Link  202 at Thu Nov 12 20:47:04 2020, MaxMem=  2147483648 cpu:         0.0
 (Enter /prod/apps/gaussian/g09d1/l301.exe)
 Standard basis: 6-31G(d) (6D, 7F)
 Ernie: Thresh=  0.10000D-02 Tol=  0.10000D-05 Strict=F.
 There are   140 symmetry adapted cartesian basis functions of A   symmetry.
 There are   140 symmetry adapted basis functions of A   symmetry.
   140 basis functions,   280 primitive gaussians,   140 cartesian basis functions
    34 alpha electrons       34 beta electrons
       nuclear repulsion energy       434.1735525314 Hartrees.
 IExCor=  402 DFT=T Ex+Corr=B3LYP ExCW=0 ScaHFX=  0.200000
 ScaDFX=  0.800000  0.720000  1.000000  0.810000 ScalE2=  1.000000  1.000000
 IRadAn=      0 IRanWt=     -1 IRanGd=            0 ICorTp=0 IEmpDi=  4
 NAtoms=   16 NActive=   16 NUniq=   16 SFac= 1.00D+00 NAtFMM=   60 NAOKFM=F Big=F
 Integral buffers will be    131072 words long.
 Raffenetti 2 integral format.
 Two-electron integral symmetry is turned on.
 Leave Link  301 at Thu Nov 12 20:47:04 2020, MaxMem=  2147483648 cpu:         0.0
 (Enter /prod/apps/gaussian/g09d1/l302.exe)
 NPDir=0 NMtPBC=     1 NCelOv=     1 NCel=       1 NClECP=     1 NCelD=      1
         NCelK=      1 NCelE2=     1 NClLst=     1 CellRange=     0.0.
 One-electron integrals computed using PRISM.
 NBasis=   140 RedAO= T EigKep=  2.43D-03  NBF=   140
 NBsUse=   140 1.00D-06 EigRej= -1.00D+00 NBFU=   140
 Precomputing XC quadrature grid using
 IXCGrd= 4 IRadAn=           0 IRanWt=          -1 IRanGd=           0 AccXCQ= 0.00D+00.
 Generated NRdTot=       0 NPtTot=           0 NUsed=           0 NTot=          32
 NSgBfM=   140   140   140   140   140 MxSgAt=    16 MxSgA2=    16.
 Leave Link  302 at Thu Nov 12 20:47:05 2020, MaxMem=  2147483648 cpu:         0.4
 (Enter /prod/apps/gaussian/g09d1/l303.exe)
 DipDrv:  MaxL=1.
 Leave Link  303 at Thu Nov 12 20:47:05 2020, MaxMem=  2147483648 cpu:         0.0
 (Enter /prod/apps/gaussian/g09d1/l401.exe)
 ExpMin= 1.17D-01 ExpMax= 2.19D+04 ExpMxC= 3.30D+03 IAcc=1 IRadAn=         1 AccDes= 0.00D+00
 Harris functional with IExCor=  402 and IRadAn=       1 diagonalized for initial guess.
 HarFok:  IExCor=  402 AccDes= 0.00D+00 IRadAn=         1 IDoV= 1 UseB2=F ITyADJ=14
 ICtDFT=  3500011 ScaDFX=  1.000000  1.000000  1.000000  1.000000
 FoFCou: FMM=F IPFlag=           0 FMFlag=      100000 FMFlg1=           0
         NFxFlg=           0 DoJE=T BraDBF=F KetDBF=T FulRan=T
         wScrn=  0.000000 ICntrl=     500 IOpCl=  0 I1Cent=   200000004 NGrid=           0
         NMat0=    1 NMatS0=      1 NMatT0=    0 NMatD0=    1 NMtDS0=    0 NMtDT0=    0
 Petite list used in FoFCou.
 Harris En= -702.987575246365    
 JPrj=0 DoOrth=F DoCkMO=F.
 Leave Link  401 at Thu Nov 12 20:47:06 2020, MaxMem=  2147483648 cpu:         0.9
 (Enter /prod/apps/gaussian/g09d1/l502.exe)
 Closed shell SCF:
 Using DIIS extrapolation, IDIIS=  1040.
 Integral symmetry usage will be decided dynamically.
 Keep R1 ints in memory in canonical form, NReq=50194176.
 IVT=       79251 IEndB=       79251 NGot=  2147483648 MDV=  2098691013
 LenX=  2098691013 LenY=  2098670972
 Requested convergence on RMS density matrix=1.00D-08 within 128 cycles.
 Requested convergence on MAX density matrix=1.00D-06.
 Requested convergence on             energy=1.00D-06.
 No special actions if energy rises.
 FoFCou: FMM=F IPFlag=           0 FMFlag=           0 FMFlg1=           0
         NFxFlg=           0 DoJE=F BraDBF=F KetDBF=F FulRan=T
         wScrn=  0.000000 ICntrl=     600 IOpCl=  0 I1Cent=           0 NGrid=           0
         NMat0=    1 NMatS0=   9870 NMatT0=    0 NMatD0=    1 NMtDS0=    0 NMtDT0=    0
 Symmetry not used in FoFCou.
 Integral accuracy reduced to 1.0D-05 until final iterations.

 Cycle   1  Pass 0  IDiag  1:
 E= -702.752850492622    
 DIIS: error= 2.64D-02 at cycle   1 NSaved=   1.
 NSaved= 1 IEnMin= 1 EnMin= -702.752850492622     IErMin= 1 ErrMin= 2.64D-02
 ErrMax= 2.64D-02  0.00D+00 EMaxC= 1.00D-01 BMatC= 2.59D-01 BMatP= 2.59D-01
 IDIUse=3 WtCom= 7.36D-01 WtEn= 2.64D-01
 Coeff-Com:  0.100D+01
 Coeff-En:   0.100D+01
 Coeff:      0.100D+01
 Gap=     0.264 Goal=   None    Shift=    0.000
 GapD=    0.264 DampG=1.000 DampE=0.500 DampFc=0.5000 IDamp=-1.
 Damping current iteration by 5.00D-01
 RMSDP=1.13D-02 MaxDP=2.32D-01              OVMax= 3.29D-01

 Cycle   2  Pass 0  IDiag  1:
 E= -702.803985814958     Delta-E=       -0.051135322336 Rises=F Damp=T
 DIIS: error= 1.69D-02 at cycle   2 NSaved=   2.
 NSaved= 2 IEnMin= 2 EnMin= -702.803985814958     IErMin= 2 ErrMin= 1.69D-02
 ErrMax= 1.69D-02  0.00D+00 EMaxC= 1.00D-01 BMatC= 4.43D-02 BMatP= 2.59D-01
 IDIUse=3 WtCom= 8.31D-01 WtEn= 1.69D-01
 Coeff-Com:  0.235D+00 0.765D+00
 Coeff-En:   0.408D+00 0.592D+00
 Coeff:      0.264D+00 0.736D+00
 Gap=     0.246 Goal=   None    Shift=    0.000
 RMSDP=3.95D-03 MaxDP=7.68D-02 DE=-5.11D-02 OVMax= 2.99D-01

 Cycle   3  Pass 0  IDiag  1:
 E= -702.985654662488     Delta-E=       -0.181668847529 Rises=F Damp=F
 DIIS: error= 1.21D-02 at cycle   3 NSaved=   3.
 NSaved= 3 IEnMin= 3 EnMin= -702.985654662488     IErMin= 3 ErrMin= 1.21D-02
 ErrMax= 1.21D-02  0.00D+00 EMaxC= 1.00D-01 BMatC= 3.50D-02 BMatP= 4.43D-02
 IDIUse=3 WtCom= 8.79D-01 WtEn= 1.21D-01
 Coeff-Com:  0.104D+00 0.461D+00 0.435D+00
 Coeff-En:   0.000D+00 0.000D+00 0.100D+01
 Coeff:      0.914D-01 0.405D+00 0.504D+00
 Gap=     0.219 Goal=   None    Shift=    0.000
 RMSDP=1.86D-03 MaxDP=4.93D-02 DE=-1.82D-01 OVMax= 8.82D-02

 Cycle   4  Pass 0  IDiag  1:
 E= -703.014380651569     Delta-E=       -0.028725989081 Rises=F Damp=F
 DIIS: error= 4.87D-03 at cycle   4 NSaved=   4.
 NSaved= 4 IEnMin= 4 EnMin= -703.014380651569     IErMin= 4 ErrMin= 4.87D-03
 ErrMax= 4.87D-03  0.00D+00 EMaxC= 1.00D-01 BMatC= 7.11D-03 BMatP= 3.50D-02
 IDIUse=3 WtCom= 9.51D-01 WtEn= 4.87D-02
 Coeff-Com:  0.837D-02 0.643D-01 0.310D+00 0.617D+00
 Coeff-En:   0.000D+00 0.000D+00 0.192D+00 0.808D+00
 Coeff:      0.796D-02 0.612D-01 0.305D+00 0.626D+00
 Gap=     0.217 Goal=   None    Shift=    0.000
 RMSDP=6.01D-04 MaxDP=1.59D-02 DE=-2.87D-02 OVMax= 2.33D-02

 Cycle   5  Pass 0  IDiag  1:
 E= -703.020766067100     Delta-E=       -0.006385415532 Rises=F Damp=F
 DIIS: error= 8.69D-04 at cycle   5 NSaved=   5.
 NSaved= 5 IEnMin= 5 EnMin= -703.020766067100     IErMin= 5 ErrMin= 8.69D-04
 ErrMax= 8.69D-04  0.00D+00 EMaxC= 1.00D-01 BMatC= 2.14D-04 BMatP= 7.11D-03
 IDIUse=3 WtCom= 9.91D-01 WtEn= 8.69D-03
 Coeff-Com:  0.442D-03-0.238D-04 0.106D+00 0.280D+00 0.614D+00
 Coeff-En:   0.000D+00 0.000D+00 0.000D+00 0.000D+00 0.100D+01
 Coeff:      0.438D-03-0.236D-04 0.105D+00 0.278D+00 0.617D+00
 Gap=     0.218 Goal=   None    Shift=    0.000
 RMSDP=1.49D-04 MaxDP=4.43D-03 DE=-6.39D-03 OVMax= 3.72D-03

 Cycle   6  Pass 0  IDiag  1:
 E= -703.020963109487     Delta-E=       -0.000197042387 Rises=F Damp=F
 DIIS: error= 2.04D-04 at cycle   6 NSaved=   6.
 NSaved= 6 IEnMin= 6 EnMin= -703.020963109487     IErMin= 6 ErrMin= 2.04D-04
 ErrMax= 2.04D-04  0.00D+00 EMaxC= 1.00D-01 BMatC= 2.27D-05 BMatP= 2.14D-04
 IDIUse=3 WtCom= 9.98D-01 WtEn= 2.04D-03
 Coeff-Com: -0.204D-04-0.504D-02 0.320D-01 0.969D-01 0.315D+00 0.561D+00
 Coeff-En:   0.000D+00 0.000D+00 0.000D+00 0.000D+00 0.000D+00 0.100D+01
 Coeff:     -0.204D-04-0.503D-02 0.319D-01 0.967D-01 0.314D+00 0.562D+00
 Gap=     0.218 Goal=   None    Shift=    0.000
 RMSDP=4.11D-05 MaxDP=1.13D-03 DE=-1.97D-04 OVMax= 1.66D-03

 Cycle   7  Pass 0  IDiag  1:
 E= -703.020983864514     Delta-E=       -0.000020755027 Rises=F Damp=F
 DIIS: error= 7.16D-05 at cycle   7 NSaved=   7.
 NSaved= 7 IEnMin= 7 EnMin= -703.020983864514     IErMin= 7 ErrMin= 7.16D-05
 ErrMax= 7.16D-05  0.00D+00 EMaxC= 1.00D-01 BMatC= 2.06D-06 BMatP= 2.27D-05
 IDIUse=1 WtCom= 1.00D+00 WtEn= 0.00D+00
 Coeff-Com:  0.971D-04-0.273D-02 0.107D-01 0.332D-01 0.125D+00 0.299D+00
 Coeff-Com:  0.535D+00
 Coeff:      0.971D-04-0.273D-02 0.107D-01 0.332D-01 0.125D+00 0.299D+00
 Coeff:      0.535D+00
 Gap=     0.218 Goal=   None    Shift=    0.000
 RMSDP=1.45D-05 MaxDP=4.05D-04 DE=-2.08D-05 OVMax= 1.01D-03

 Cycle   8  Pass 0  IDiag  1:
 E= -703.020985523997     Delta-E=       -0.000001659483 Rises=F Damp=F
 DIIS: error= 5.81D-05 at cycle   8 NSaved=   8.
 NSaved= 8 IEnMin= 8 EnMin= -703.020985523997     IErMin= 8 ErrMin= 5.81D-05
 ErrMax= 5.81D-05  0.00D+00 EMaxC= 1.00D-01 BMatC= 4.95D-07 BMatP= 2.06D-06
 IDIUse=1 WtCom= 1.00D+00 WtEn= 0.00D+00
 Coeff-Com:  0.121D-03-0.100D-02 0.812D-03 0.247D-02 0.206D-01 0.901D-01
 Coeff-Com:  0.349D+00 0.538D+00
 Coeff:      0.121D-03-0.100D-02 0.812D-03 0.247D-02 0.206D-01 0.901D-01
 Coeff:      0.349D+00 0.538D+00
 Gap=     0.218 Goal=   None    Shift=    0.000
 RMSDP=6.37D-06 MaxDP=1.70D-04 DE=-1.66D-06 OVMax= 3.60D-04

 Initial convergence to 1.0D-05 achieved.  Increase integral accuracy.
 Cycle   9  Pass 1  IDiag  1:
 E= -703.020995224042     Delta-E=       -0.000009700045 Rises=F Damp=F
 DIIS: error= 1.19D-05 at cycle   1 NSaved=   1.
 NSaved= 1 IEnMin= 1 EnMin= -703.020995224042     IErMin= 1 ErrMin= 1.19D-05
 ErrMax= 1.19D-05  0.00D+00 EMaxC= 1.00D-01 BMatC= 6.77D-08 BMatP= 6.77D-08
 IDIUse=1 WtCom= 1.00D+00 WtEn= 0.00D+00
 Coeff-Com:  0.100D+01
 Coeff:      0.100D+01
 Gap=     0.218 Goal=   None    Shift=    0.000
 RMSDP=6.37D-06 MaxDP=1.70D-04 DE=-9.70D-06 OVMax= 1.60D-04

 Cycle  10  Pass 1  IDiag  1:
 E= -703.020995234704     Delta-E=       -0.000000010662 Rises=F Damp=F
 DIIS: error= 1.81D-05 at cycle   2 NSaved=   2.
 NSaved= 2 IEnMin= 2 EnMin= -703.020995234704     IErMin= 1 ErrMin= 1.19D-05
 ErrMax= 1.81D-05  0.00D+00 EMaxC= 1.00D-01 BMatC= 7.69D-08 BMatP= 6.77D-08
 IDIUse=1 WtCom= 1.00D+00 WtEn= 0.00D+00
 Coeff-Com:  0.520D+00 0.480D+00
 Coeff:      0.520D+00 0.480D+00
 Gap=     0.218 Goal=   None    Shift=    0.000
 RMSDP=2.93D-06 MaxDP=8.82D-05 DE=-1.07D-08 OVMax= 1.54D-04

 Cycle  11  Pass 1  IDiag  1:
 E= -703.020995300558     Delta-E=       -0.000000065853 Rises=F Damp=F
 DIIS: error= 8.46D-06 at cycle   3 NSaved=   3.
 NSaved= 3 IEnMin= 3 EnMin= -703.020995300558     IErMin= 3 ErrMin= 8.46D-06
 ErrMax= 8.46D-06  0.00D+00 EMaxC= 1.00D-01 BMatC= 1.42D-08 BMatP= 6.77D-08
 IDIUse=1 WtCom= 1.00D+00 WtEn= 0.00D+00
 Coeff-Com:  0.705D-01 0.295D+00 0.635D+00
 Coeff:      0.705D-01 0.295D+00 0.635D+00
 Gap=     0.218 Goal=   None    Shift=    0.000
 RMSDP=1.10D-06 MaxDP=3.22D-05 DE=-6.59D-08 OVMax= 6.92D-05

 Cycle  12  Pass 1  IDiag  1:
 E= -703.020995313296     Delta-E=       -0.000000012738 Rises=F Damp=F
 DIIS: error= 2.09D-06 at cycle   4 NSaved=   4.
 NSaved= 4 IEnMin= 4 EnMin= -703.020995313296     IErMin= 4 ErrMin= 2.09D-06
 ErrMax= 2.09D-06  0.00D+00 EMaxC= 1.00D-01 BMatC= 2.13D-09 BMatP= 1.42D-08
 IDIUse=1 WtCom= 1.00D+00 WtEn= 0.00D+00
 Coeff-Com: -0.129D-01 0.127D+00 0.383D+00 0.503D+00
 Coeff:     -0.129D-01 0.127D+00 0.383D+00 0.503D+00
 Gap=     0.218 Goal=   None    Shift=    0.000
 RMSDP=3.90D-07 MaxDP=9.94D-06 DE=-1.27D-08 OVMax= 1.78D-05

 Cycle  13  Pass 1  IDiag  1:
 E= -703.020995315422     Delta-E=       -0.000000002125 Rises=F Damp=F
 DIIS: error= 3.41D-07 at cycle   5 NSaved=   5.
 NSaved= 5 IEnMin= 5 EnMin= -703.020995315422     IErMin= 5 ErrMin= 3.41D-07
 ErrMax= 3.41D-07  0.00D+00 EMaxC= 1.00D-01 BMatC= 5.62D-11 BMatP= 2.13D-09
 IDIUse=1 WtCom= 1.00D+00 WtEn= 0.00D+00
 Coeff-Com: -0.852D-02 0.546D-01 0.170D+00 0.256D+00 0.528D+00
 Coeff:     -0.852D-02 0.546D-01 0.170D+00 0.256D+00 0.528D+00
 Gap=     0.218 Goal=   None    Shift=    0.000
 RMSDP=6.60D-08 MaxDP=2.02D-06 DE=-2.13D-09 OVMax= 2.23D-06

 Cycle  14  Pass 1  IDiag  1:
 E= -703.020995315472     Delta-E=       -0.000000000051 Rises=F Damp=F
 DIIS: error= 8.72D-08 at cycle   6 NSaved=   6.
 NSaved= 6 IEnMin= 6 EnMin= -703.020995315472     IErMin= 6 ErrMin= 8.72D-08
 ErrMax= 8.72D-08  0.00D+00 EMaxC= 1.00D-01 BMatC= 2.50D-12 BMatP= 5.62D-11
 IDIUse=1 WtCom= 1.00D+00 WtEn= 0.00D+00
 Coeff-Com: -0.234D-02 0.112D-01 0.351D-01 0.594D-01 0.212D+00 0.684D+00
 Coeff:     -0.234D-02 0.112D-01 0.351D-01 0.594D-01 0.212D+00 0.684D+00
 Gap=     0.218 Goal=   None    Shift=    0.000
 RMSDP=1.51D-08 MaxDP=4.97D-07 DE=-5.09D-11 OVMax= 6.99D-07

 Cycle  15  Pass 1  IDiag  1:
 E= -703.020995315474     Delta-E=       -0.000000000002 Rises=F Damp=F
 DIIS: error= 3.97D-08 at cycle   7 NSaved=   7.
 NSaved= 7 IEnMin= 7 EnMin= -703.020995315474     IErMin= 7 ErrMin= 3.97D-08
 ErrMax= 3.97D-08  0.00D+00 EMaxC= 1.00D-01 BMatC= 5.36D-13 BMatP= 2.50D-12
 IDIUse=1 WtCom= 1.00D+00 WtEn= 0.00D+00
 Coeff-Com: -0.597D-03 0.173D-02 0.513D-02 0.114D-01 0.709D-01 0.377D+00
 Coeff-Com:  0.535D+00
 Coeff:     -0.597D-03 0.173D-02 0.513D-02 0.114D-01 0.709D-01 0.377D+00
 Coeff:      0.535D+00
 Gap=     0.218 Goal=   None    Shift=    0.000
 RMSDP=6.93D-09 MaxDP=1.56D-07 DE=-1.82D-12 OVMax= 3.65D-07

 SCF Done:  E(RB3LYP) =  -703.020995315     A.U. after   15 cycles
            NFock= 15  Conv=0.69D-08     -V/T= 2.0060
 KE= 6.988237392636D+02 PE=-2.522217627089D+03 EE= 6.861993399788D+02
 Leave Link  502 at Thu Nov 12 20:47:34 2020, MaxMem=  2147483648 cpu:        28.5
 (Enter /prod/apps/gaussian/g09d1/l601.exe)
 Copying SCF densities to generalized density rwf, IOpCl= 0 IROHF=0.

 **********************************************************************

            Population analysis using the SCF density.

 **********************************************************************

 Orbital symmetries:
       Occupied  (A) (A) (A) (A) (A) (A) (A) (A) (A) (A) (A) (A)
                 (A) (A) (A) (A) (A) (A) (A) (A) (A) (A) (A) (A)
                 (A) (A) (A) (A) (A) (A) (A) (A) (A) (A)
       Virtual   (A) (A) (A) (A) (A) (A) (A) (A) (A) (A) (A) (A)
                 (A) (A) (A) (A) (A) (A) (A) (A) (A) (A) (A) (A)
                 (A) (A) (A) (A) (A) (A) (A) (A) (A) (A) (A) (A)
                 (A) (A) (A) (A) (A) (A) (A) (A) (A) (A) (A) (A)
                 (A) (A) (A) (A) (A) (A) (A) (A) (A) (A) (A) (A)
                 (A) (A) (A) (A) (A) (A) (A) (A) (A) (A) (A) (A)
                 (A) (A) (A) (A) (A) (A) (A) (A) (A) (A) (A) (A)
                 (A) (A) (A) (A) (A) (A) (A) (A) (A) (A) (A) (A)
                 (A) (A) (A) (A) (A) (A) (A) (A) (A) (A)
 The electronic state is 1-A.
 Alpha  occ. eigenvalues --  -88.90296 -14.32374 -14.31564 -10.24610 -10.21639
 Alpha  occ. eigenvalues --  -10.21138 -10.21001 -10.19853  -7.96486  -5.92866
 Alpha  occ. eigenvalues --   -5.92520  -5.92200  -0.95000  -0.88470  -0.78637
 Alpha  occ. eigenvalues --   -0.77620  -0.70665  -0.62554  -0.57610  -0.53532
 Alpha  occ. eigenvalues --   -0.49525  -0.49039  -0.45697  -0.44458  -0.40781
 Alpha  occ. eigenvalues --   -0.39867  -0.38350  -0.36599  -0.35961  -0.34764
 Alpha  occ. eigenvalues --   -0.27189  -0.26228  -0.23908  -0.23174
 Alpha virt. eigenvalues --   -0.01398   0.02817   0.06195   0.07853   0.10029
 Alpha virt. eigenvalues --    0.12800   0.13011   0.13735   0.16387   0.17031
 Alpha virt. eigenvalues --    0.17771   0.18987   0.22174   0.23205   0.24024
 Alpha virt. eigenvalues --    0.26860   0.30554   0.32998   0.37719   0.38265
 Alpha virt. eigenvalues --    0.43300   0.44952   0.52309   0.53100   0.54359
 Alpha virt. eigenvalues --    0.55004   0.56413   0.58206   0.59990   0.64310
 Alpha virt. eigenvalues --    0.65085   0.66101   0.70642   0.72604   0.72726
 Alpha virt. eigenvalues --    0.74998   0.77376   0.80519   0.81597   0.83223
 Alpha virt. eigenvalues --    0.84165   0.85482   0.86205   0.88054   0.88350
 Alpha virt. eigenvalues --    0.90228   0.91767   0.92886   0.93976   0.95243
 Alpha virt. eigenvalues --    0.97074   0.97341   1.00099   1.03555   1.04935
 Alpha virt. eigenvalues --    1.07059   1.12704   1.18594   1.28861   1.35430
 Alpha virt. eigenvalues --    1.39810   1.41781   1.44904   1.46906   1.51576
 Alpha virt. eigenvalues --    1.58718   1.59771   1.64538   1.70381   1.75253
 Alpha virt. eigenvalues --    1.81521   1.83053   1.87403   1.91266   1.95837
 Alpha virt. eigenvalues --    1.97972   2.01106   2.03566   2.08283   2.15350
 Alpha virt. eigenvalues --    2.20317   2.22112   2.25197   2.27174   2.29569
 Alpha virt. eigenvalues --    2.34263   2.37503   2.43255   2.44283   2.47989
 Alpha virt. eigenvalues --    2.55386   2.56100   2.62478   2.68824   2.69731
 Alpha virt. eigenvalues --    2.78426   2.98869   3.05362   3.78348   3.93833
 Alpha virt. eigenvalues --    4.02175   4.11035   4.20756   4.33853   4.35714
 Alpha virt. eigenvalues --    4.50720
          Condensed to atoms (all electrons):
               1          2          3          4          5          6
     1  N    6.901459   0.308175   0.308392   0.324846  -0.043258  -0.046178
     2  H    0.308175   0.466471  -0.032890  -0.039576   0.006814  -0.005725
     3  H    0.308392  -0.032890   0.460174  -0.033389  -0.003835  -0.003256
     4  C    0.324846  -0.039576  -0.033389   4.905229   0.377547   0.366324
     5  H   -0.043258   0.006814  -0.003835   0.377547   0.587864  -0.046732
     6  H   -0.046178  -0.005725  -0.003256   0.366324  -0.046732   0.660555
     7  C   -0.064342  -0.002731   0.006435   0.356900  -0.029784  -0.048988
     8  H    0.004146  -0.000143  -0.000234  -0.036222  -0.002706   0.000861
     9  H   -0.004340   0.004872  -0.000002  -0.032180   0.004990  -0.005394
    10  C    0.005268  -0.001384   0.000167  -0.042187  -0.008882   0.006622
    11  N   -0.000918   0.000357   0.000003  -0.000315   0.000127  -0.000123
    12  C    0.000236  -0.000006  -0.000002  -0.000153  -0.000014   0.000006
    13  H    0.000001   0.000000   0.000000   0.000002   0.000000   0.000000
    14  C   -0.000216   0.000005   0.000003   0.000114  -0.000010  -0.000005
    15  H   -0.000001   0.000000   0.000000   0.000000   0.000002   0.000000
    16  S    0.002594  -0.000028  -0.000132   0.000717   0.004947   0.000007
               7          8          9         10         11         12
     1  N   -0.064342   0.004146  -0.004340   0.005268  -0.000918   0.000236
     2  H   -0.002731  -0.000143   0.004872  -0.001384   0.000357  -0.000006
     3  H    0.006435  -0.000234  -0.000002   0.000167   0.000003  -0.000002
     4  C    0.356900  -0.036222  -0.032180  -0.042187  -0.000315  -0.000153
     5  H   -0.029784  -0.002706   0.004990  -0.008882   0.000127  -0.000014
     6  H   -0.048988   0.000861  -0.005394   0.006622  -0.000123   0.000006
     7  C    5.165151   0.360118   0.362638   0.341316  -0.048983   0.007077
     8  H    0.360118   0.572344  -0.028664  -0.031240   0.000674  -0.000133
     9  H    0.362638  -0.028664   0.555152  -0.038223   0.004243  -0.000023
    10  C    0.341316  -0.031240  -0.038223   4.964066   0.503831  -0.081446
    11  N   -0.048983   0.000674   0.004243   0.503831   6.708886   0.430262
    12  C    0.007077  -0.000133  -0.000023  -0.081446   0.430262   4.754701
    13  H   -0.000190   0.000004  -0.000016   0.007059  -0.044015   0.374560
    14  C    0.002939   0.000050   0.000015  -0.047229  -0.057234   0.572287
    15  H   -0.000063  -0.000001   0.000002   0.002581   0.004386  -0.017812
    16  S   -0.076338   0.000563   0.005725   0.284283  -0.093495  -0.092612
              13         14         15         16
     1  N    0.000001  -0.000216  -0.000001   0.002594
     2  H    0.000000   0.000005   0.000000  -0.000028
     3  H    0.000000   0.000003   0.000000  -0.000132
     4  C    0.000002   0.000114   0.000000   0.000717
     5  H    0.000000  -0.000010   0.000002   0.004947
     6  H    0.000000  -0.000005   0.000000   0.000007
     7  C   -0.000190   0.002939  -0.000063  -0.076338
     8  H    0.000004   0.000050  -0.000001   0.000563
     9  H   -0.000016   0.000015   0.000002   0.005725
    10  C    0.007059  -0.047229   0.002581   0.284283
    11  N   -0.044015  -0.057234   0.004386  -0.093495
    12  C    0.374560   0.572287  -0.017812  -0.092612
    13  H    0.570065  -0.059592  -0.001191   0.005278
    14  C   -0.059592   5.268035   0.346916   0.321206
    15  H   -0.001191   0.346916   0.522760  -0.032210
    16  S    0.005278   0.321206  -0.032210  15.452074
 Mulliken charges:
               1
     1  N   -0.695865
     2  H    0.295789
     3  H    0.298565
     4  C   -0.147657
     5  H    0.152930
     6  H    0.122025
     7  C   -0.331156
     8  H    0.160581
     9  H    0.171204
    10  C    0.135398
    11  N   -0.407685
    12  C    0.053071
    13  H    0.148034
    14  C   -0.347285
    15  H    0.174630
    16  S    0.217420
 Sum of Mulliken charges =   0.00000
 Mulliken charges with hydrogens summed into heavy atoms:
               1
     1  N   -0.101511
     4  C    0.127298
     7  C    0.000630
    10  C    0.135398
    11  N   -0.407685
    12  C    0.201105
    14  C   -0.172655
    16  S    0.217420
 Electronic spatial extent (au):  <R**2>=           1180.6787
 Charge=              0.0000 electrons
 Dipole moment (field-independent basis, Debye):
    X=             -1.5338    Y=             -0.9602    Z=              0.1537  Tot=              1.8161
 Quadrupole moment (field-independent basis, Debye-Ang):
   XX=            -41.3138   YY=            -55.8886   ZZ=            -55.7014
   XY=             -0.8321   XZ=             -1.6494   YZ=             -0.2790
 Traceless Quadrupole moment (field-independent basis, Debye-Ang):
   XX=              9.6542   YY=             -4.9207   ZZ=             -4.7335
   XY=             -0.8321   XZ=             -1.6494   YZ=             -0.2790
 Octapole moment (field-independent basis, Debye-Ang**2):
  XXX=            -14.9511  YYY=             -1.0081  ZZZ=              0.1219  XYY=             -3.9066
  XXY=              5.6791  XXZ=            -17.8126  XZZ=             -7.5476  YZZ=             -1.6603
  YYZ=             -4.5877  XYZ=             -0.1502
 Hexadecapole moment (field-independent basis, Debye-Ang**3):
 XXXX=           -921.1627 YYYY=           -326.0007 ZZZZ=           -199.3523 XXXY=            -16.0557
 XXXZ=             23.0993 YYYX=             -4.2192 YYYZ=             -5.5980 ZZZX=             13.0065
 ZZZY=              0.7997 XXYY=           -201.2649 XXZZ=           -191.0932 YYZZ=            -87.5845
 XXYZ=              1.3723 YYXZ=             -1.1122 ZZXY=             -0.6139
 N-N= 4.341735525314D+02 E-N=-2.522217633859D+03  KE= 6.988237392636D+02
 No NMR shielding tensors so no spin-rotation constants.
 Leave Link  601 at Thu Nov 12 20:47:35 2020, MaxMem=  2147483648 cpu:         0.1
 (Enter /prod/apps/gaussian/g09d1/l9999.exe)
 1\1\GINC-PIRINEUS41\SP\RB3LYP\6-31G(d)\C5H8N2S1\UBAFAR01\12-Nov-2020\0
 \\#p b3lyp/6-31G(d)\\SET_328_BBB87_conf1_geo_285_105.n.pdb.xyz\\0,1\N,
 0,2.212,0.215,0.036\H,0,2.454,0.469,0.997\H,0,3.096,0.203,-0.471\C,0,1
 .357,1.263,-0.527\H,0,1.197,1.038,-1.587\H,0,1.792,2.272,-0.481\C,0,0.
 003,1.308,0.193\H,0,-0.596,2.118,-0.237\H,0,0.153,1.547,1.251\C,0,-0.7
 63,0.021,0.141\N,0,-1.116,-0.677,1.186\C,0,-1.815,-1.812,0.824\H,0,-2.
 167,-2.484,1.597\C,0,-2.007,-1.995,-0.512\H,0,-2.518,-2.802,-1.019\S,0
 ,-1.282,-0.686,-1.388\\Version=AM64L-G09RevD.01\State=1-A\HF=-703.0209
 953\RMSD=6.930e-09\Dipole=0.4187874,0.4573294,-0.3549617\Quadrupole=2.
 2492809,1.4366344,-3.6859153,5.4085178,0.8721177,0.4538062\PG=C01 [X(C
 5H8N2S1)]\\@


 GOOD SENSE ABOUT TRIVIALITIES IS BETTER THAN NONSENSE
 ABOUT THINGS THAT MATTER

                                       -- MAX BEERBOHM
 Job cpu time:       0 days  0 hours  0 minutes 30.3 seconds.
 File lengths (MBytes):  RWF=     10 Int=      0 D2E=      0 Chk=      2 Scr=      1
 Normal termination of Gaussian 09 at Thu Nov 12 20:47:35 2020.
 Initial command:
 /prod/apps/gaussian/g09d1/l1.exe "/tmp/ubafar01/1496645/Gau-86633.inp" -scrdir="/tmp/ubafar01/1496645/"
 Entering Link 1 = /prod/apps/gaussian/g09d1/l1.exe PID=     86714.
  
 Copyright (c) 1988,1990,1992,1993,1995,1998,2003,2009,2013,
            Gaussian, Inc.  All Rights Reserved.
  
 This is part of the Gaussian(R) 09 program.  It is based on
 the Gaussian(R) 03 system (copyright 2003, Gaussian, Inc.),
 the Gaussian(R) 98 system (copyright 1998, Gaussian, Inc.),
 the Gaussian(R) 94 system (copyright 1995, Gaussian, Inc.),
 the Gaussian 92(TM) system (copyright 1992, Gaussian, Inc.),
 the Gaussian 90(TM) system (copyright 1990, Gaussian, Inc.),
 the Gaussian 88(TM) system (copyright 1988, Gaussian, Inc.),
 the Gaussian 86(TM) system (copyright 1986, Carnegie Mellon
 University), and the Gaussian 82(TM) system (copyright 1983,
 Carnegie Mellon University). Gaussian is a federally registered
 trademark of Gaussian, Inc.
  
 This software contains proprietary and confidential information,
 including trade secrets, belonging to Gaussian, Inc.
  
 This software is provided under written license and may be
 used, copied, transmitted, or stored only in accord with that
 written license.
  
 The following legend is applicable only to US Government
 contracts under FAR:
  
                    RESTRICTED RIGHTS LEGEND
  
 Use, reproduction and disclosure by the US Government is
 subject to restrictions as set forth in subparagraphs (a)
 and (c) of the Commercial Computer Software - Restricted
 Rights clause in FAR 52.227-19.
  
 Gaussian, Inc.
 340 Quinnipiac St., Bldg. 40, Wallingford CT 06492
  
  
 ---------------------------------------------------------------
 Warning -- This program may not be used in any manner that
 competes with the business of Gaussian, Inc. or will provide
 assistance to any competitor of Gaussian, Inc.  The licensee
 of this program is prohibited from giving any competitor of
 Gaussian, Inc. access to this program.  By using this program,
 the user acknowledges that Gaussian, Inc. is engaged in the
 business of creating and licensing software in the field of
 computational chemistry and represents and warrants to the
 licensee that it is not a competitor of Gaussian, Inc. and that
 it will not use this program in any manner prohibited above.
 ---------------------------------------------------------------
  

 Cite this work as:
 Gaussian 09, Revision D.01,
 M. J. Frisch, G. W. Trucks, H. B. Schlegel, G. E. Scuseria, 
 M. A. Robb, J. R. Cheeseman, G. Scalmani, V. Barone, B. Mennucci, 
 G. A. Petersson, H. Nakatsuji, M. Caricato, X. Li, H. P. Hratchian, 
 A. F. Izmaylov, J. Bloino, G. Zheng, J. L. Sonnenberg, M. Hada, 
 M. Ehara, K. Toyota, R. Fukuda, J. Hasegawa, M. Ishida, T. Nakajima, 
 Y. Honda, O. Kitao, H. Nakai, T. Vreven, J. A. Montgomery, Jr., 
 J. E. Peralta, F. Ogliaro, M. Bearpark, J. J. Heyd, E. Brothers, 
 K. N. Kudin, V. N. Staroverov, T. Keith, R. Kobayashi, J. Normand, 
 K. Raghavachari, A. Rendell, J. C. Burant, S. S. Iyengar, J. Tomasi, 
 M. Cossi, N. Rega, J. M. Millam, M. Klene, J. E. Knox, J. B. Cross, 
 V. Bakken, C. Adamo, J. Jaramillo, R. Gomperts, R. E. Stratmann, 
 O. Yazyev, A. J. Austin, R. Cammi, C. Pomelli, J. W. Ochterski, 
 R. L. Martin, K. Morokuma, V. G. Zakrzewski, G. A. Voth, 
 P. Salvador, J. J. Dannenberg, S. Dapprich, A. D. Daniels, 
 O. Farkas, J. B. Foresman, J. V. Ortiz, J. Cioslowski, 
 and D. J. Fox, Gaussian, Inc., Wallingford CT, 2013.
 
 ******************************************
 Gaussian 09:  AM64L-G09RevD.01 24-Apr-2013
                12-Nov-2020 
 ******************************************
 %nproc=1
 Will use up to    1 processors via shared memory.
 %Chk=SET_328_BBB87_conf1_geo_285_105.n.pdb.xyz.mst.n.w.chk
 %mem=16GB
 %subst l502 /dades/curu/work_g09D01_MST_AddSphPartition_ReadGammas/exe-dir/
 ----------------------------------------------------------------------
 #p b3lyp/6-31G(d) scrf=(iefpcm,read,solvent=Water) geom=allcheck guess
 =read
 ----------------------------------------------------------------------
 1/29=7,38=1,40=2/1;
 2/12=2,40=1/2;
 3/5=1,6=6,7=1,11=2,14=-4,16=1,25=1,30=1,70=2203,72=1,74=-5,116=-2/1,2,3;
 4/5=1/1;
 5/5=2,38=6,53=1/2;
 6/7=2,8=2,9=2,10=2,28=1/1;
 99/5=1,9=1/99;
 Leave Link    1 at Thu Nov 12 20:47:35 2020, MaxMem=  2147483648 cpu:         0.0
 (Enter /prod/apps/gaussian/g09d1/l101.exe)
 Structure from the checkpoint file:  "SET_328_BBB87_conf1_geo_285_105.n.pdb.xyz.mst.n.w.chk"
 -----------------------------------------
 SET_328_BBB87_conf1_geo_285_105.n.pdb.xyz
 -----------------------------------------
 Charge =  0 Multiplicity = 1
 Z-Matrix found in file.
 N,0,2.212,0.215,0.036
 H,0,2.454,0.469,0.997
 H,0,3.096,0.203,-0.471
 C,0,1.357,1.263,-0.527
 H,0,1.197,1.038,-1.587
 H,0,1.792,2.272,-0.481
 C,0,0.003,1.308,0.193
 H,0,-0.596,2.118,-0.237
 H,0,0.153,1.547,1.251
 C,0,-0.763,0.021,0.141
 N,0,-1.116,-0.677,1.186
 C,0,-1.815,-1.812,0.824
 H,0,-2.167,-2.484,1.597
 C,0,-2.007,-1.995,-0.512
 H,0,-2.518,-2.802,-1.019
 S,0,-1.282,-0.686,-1.388
 Recover connectivity data from disk.
 NAtoms=     16 NQM=       16 NQMF=       0 NMMI=      0 NMMIF=      0
                NMic=       0 NMicF=      0.
                    Isotopes and Nuclear Properties:
 (Nuclear quadrupole moments (NQMom) in fm**2, nuclear magnetic moments (NMagM)
  in nuclear magnetons)

  Atom         1           2           3           4           5           6           7           8           9          10
 IAtWgt=          14           1           1          12           1           1          12           1           1          12
 AtmWgt=  14.0030740   1.0078250   1.0078250  12.0000000   1.0078250   1.0078250  12.0000000   1.0078250   1.0078250  12.0000000
 NucSpn=           2           1           1           0           1           1           0           1           1           0
 AtZEff=  -4.5500000  -1.0000000  -1.0000000  -3.6000000  -1.0000000  -1.0000000  -3.6000000  -1.0000000  -1.0000000  -3.6000000
 NQMom=    2.0440000   0.0000000   0.0000000   0.0000000   0.0000000   0.0000000   0.0000000   0.0000000   0.0000000   0.0000000
 NMagM=    0.4037610   2.7928460   2.7928460   0.0000000   2.7928460   2.7928460   0.0000000   2.7928460   2.7928460   0.0000000
 AtZNuc=   7.0000000   1.0000000   1.0000000   6.0000000   1.0000000   1.0000000   6.0000000   1.0000000   1.0000000   6.0000000

  Atom        11          12          13          14          15          16
 IAtWgt=          14          12           1          12           1          32
 AtmWgt=  14.0030740  12.0000000   1.0078250  12.0000000   1.0078250  31.9720718
 NucSpn=           2           0           1           0           1           0
 AtZEff=  -4.5500000  -3.6000000  -1.0000000  -3.6000000  -1.0000000 -13.6000000
 NQMom=    2.0440000   0.0000000   0.0000000   0.0000000   0.0000000   0.0000000
 NMagM=    0.4037610   0.0000000   2.7928460   0.0000000   2.7928460   0.0000000
 AtZNuc=   7.0000000   6.0000000   1.0000000   6.0000000   1.0000000  16.0000000
 Leave Link  101 at Thu Nov 12 20:47:35 2020, MaxMem=  2147483648 cpu:         0.1
 (Enter /prod/apps/gaussian/g09d1/l202.exe)
                          Input orientation:                          
 ---------------------------------------------------------------------
 Center     Atomic      Atomic             Coordinates (Angstroms)
 Number     Number       Type             X           Y           Z
 ---------------------------------------------------------------------
      1          7           0        2.212000    0.215000    0.036000
      2          1           0        2.454000    0.469000    0.997000
      3          1           0        3.096000    0.203000   -0.471000
      4          6           0        1.357000    1.263000   -0.527000
      5          1           0        1.197000    1.038000   -1.587000
      6          1           0        1.792000    2.272000   -0.481000
      7          6           0        0.003000    1.308000    0.193000
      8          1           0       -0.596000    2.118000   -0.237000
      9          1           0        0.153000    1.547000    1.251000
     10          6           0       -0.763000    0.021000    0.141000
     11          7           0       -1.116000   -0.677000    1.186000
     12          6           0       -1.815000   -1.812000    0.824000
     13          1           0       -2.167000   -2.484000    1.597000
     14          6           0       -2.007000   -1.995000   -0.512000
     15          1           0       -2.518000   -2.802000   -1.019000
     16         16           0       -1.282000   -0.686000   -1.388000
 ---------------------------------------------------------------------
                    Distance matrix (angstroms):
                    1          2          3          4          5
     1  N    0.000000
     2  H    1.023035   0.000000
     3  H    1.019141   1.624175   0.000000
     4  C    1.465025   2.038730   2.037365   0.000000
     5  H    2.083671   2.929312   2.355607   1.095365   0.000000
     6  H    2.162160   2.423538   2.445665   1.099737   1.760687
     7  C    2.469611   2.712515   3.350906   1.534191   2.160309
     8  H    3.403058   3.680279   4.165675   2.151589   2.490733
     9  H    2.736774   2.553664   3.665088   2.166000   3.066474
    10  C    2.983167   3.358948   3.911464   2.546211   2.803903
    11  N    3.632320   3.754189   4.610964   3.579623   3.997590
    12  C    4.576724   4.843269   5.463989   4.619785   4.796620
    13  H    5.375590   5.516688   6.260652   5.565066   5.818835
    14  C    4.794201   5.314969   5.556392   4.683085   4.540961
    15  H    5.708609   6.283668   6.391191   5.637545   5.373030
    16  S    3.879125   4.580387   4.560493   3.391791   3.026090
                    6          7          8          9         10
     6  H    0.000000
     7  C    2.141050   0.000000
     8  H    2.405368   1.095354   0.000000
     9  H    2.492342   1.094982   1.761018   0.000000
    10  C    3.461490   1.498609   2.137331   2.097578   0.000000
    11  N    4.464522   2.485646   3.179207   2.561398   1.305311
    12  C    5.602904   3.665745   4.249304   3.916406   2.221054
    13  H    6.527733   4.589050   5.197115   4.663805   3.219655
    14  C    5.713200   3.930259   4.356985   4.507719   2.457275
    15  H    6.679148   4.971568   5.339664   5.585780   3.520647
    16  S    4.361409   2.850758   3.107702   3.742971   1.762683
                   11         12         13         14         15
    11  N    0.000000
    12  C    1.381257   0.000000
    13  H    2.130439   1.083059   0.000000
    14  C    2.326845   1.362075   2.170853   0.000000
    15  H    3.367975   2.207025   2.658530   1.081397   0.000000
    16  S    2.579363   2.538683   3.595310   1.733921   2.478167
                   16
    16  S    0.000000
 Stoichiometry    C5H8N2S
 Framework group  C1[X(C5H8N2S)]
 Deg. of freedom    42
 Full point group                 C1      NOp   1
 RotChk:  IX=0 Diff= 2.56D-15
 Largest Abelian subgroup         C1      NOp   1
 Largest concise Abelian subgroup C1      NOp   1
                         Standard orientation:                         
 ---------------------------------------------------------------------
 Center     Atomic      Atomic             Coordinates (Angstroms)
 Number     Number       Type             X           Y           Z
 ---------------------------------------------------------------------
      1          7           0       -2.409671    0.355584   -1.144019
      2          1           0       -2.771520    1.292172   -0.947880
      3          1           0       -3.101281   -0.079047   -1.753461
      4          6           0       -2.344912   -0.396693    0.111442
      5          1           0       -2.064417   -1.428804   -0.124980
      6          1           0       -3.298843   -0.446136    0.656413
      7          6           0       -1.300619    0.209714    1.057731
      8          1           0       -1.300116   -0.362059    1.992010
      9          1           0       -1.581477    1.237342    1.310880
     10          6           0        0.084948    0.263757    0.489301
     11          7           0        0.768691    1.359369    0.299651
     12          6           0        2.014623    1.092545   -0.233572
     13          1           0        2.686475    1.915874   -0.442762
     14          6           0        2.300096   -0.220264   -0.457823
     15          1           0        3.201303   -0.657950   -0.864855
     16         16           0        0.949495   -1.198151    0.017671
 ---------------------------------------------------------------------
 Rotational constants (GHZ):      3.3303365      1.1994637      1.0697153
 Leave Link  202 at Thu Nov 12 20:47:35 2020, MaxMem=  2147483648 cpu:         0.0
 (Enter /prod/apps/gaussian/g09d1/l301.exe)
 Standard basis: 6-31G(d) (6D, 7F)
 Ernie: Thresh=  0.10000D-02 Tol=  0.10000D-05 Strict=F.
 There are   140 symmetry adapted cartesian basis functions of A   symmetry.
 There are   140 symmetry adapted basis functions of A   symmetry.
   140 basis functions,   280 primitive gaussians,   140 cartesian basis functions
    34 alpha electrons       34 beta electrons
       nuclear repulsion energy       434.1735525314 Hartrees.
 IExCor=  402 DFT=T Ex+Corr=B3LYP ExCW=0 ScaHFX=  0.200000
 ScaDFX=  0.800000  0.720000  1.000000  0.810000 ScalE2=  1.000000  1.000000
 IRadAn=      0 IRanWt=     -1 IRanGd=            0 ICorTp=0 IEmpDi=  4
 NAtoms=   16 NActive=   16 NUniq=   16 SFac= 1.00D+00 NAtFMM=   60 NAOKFM=F Big=F
 Integral buffers will be    131072 words long.
 Raffenetti 2 integral format.
 Two-electron integral symmetry is turned on.
 Using the following non-standard input for PCM:
 MSTModel=DFT cav g03defaults OFac=0.8 Rmin=0.3
 Warning! Using old PCM defaults because the g03defaults keyword was found.
 These settings can be overridden by following keywords.
 --- end of non-standard input.
 MST model for solvation energy: B3LYP parametrization.
 MST cavity parameters:
 ISph   IAn     Re0     Alpha   Atom Type   QCorr
 ------------------------------------------------
   1      7     1.55     1.25      NH         F
   2      1     0.90     1.25      NH         F
   3      1     0.90     1.25      NH         F
   4      6     1.50     1.25      CH2        F
   5      1     1.20     1.25      CH2        F
   6      1     1.20     1.25      CH2        F
   7      6     1.50     1.25      CH2        F
   8      1     1.20     1.25      CH2        F
   9      1     1.20     1.25      CH2        F
  10      6     1.50     1.25      C          F
  11      7     1.40     1.25      N          F
  12      6     1.50     1.25      CH         F
  13      1     1.20     1.25      CH         F
  14      6     1.50     1.25      CH         F
  15      1     1.20     1.25      CH         F
  16     16     1.75     1.25      S          F
 ------------------------------------------------------------------------------
 Polarizable Continuum Model (PCM)
 =================================
 Model                : PCM (using non-symmetric T matrix).
 Atomic radii         : MST.
 Polarization charges : Total charges.
 Charge compensation  : None.
 Solution method      : On-the-fly selection.
 Cavity type          : Scaled SES (Solvent Excluding Surface) (Alpha=1.250).
 Cavity algorithm     : GePol (RMin=0.300 OFac=0.800).
                        Default sphere list used, NSphG=   16.
                        Tesserae with average area of 0.200 Ang**2.
                        Smoothing algorithm: None.
                        Polarization charges: point-like.
                        Self-potential: constant (ISelfS= 1).
                        Self-field    : global E.n sum rule (ISelfD= 3).
 Solvent              : Water, Eps=  78.355300 Eps(inf)=   1.777849
                        RSolv=   1.385000 Ang.
 ------------------------------------------------------------------------------
 Spheres list:
 ISph  on   Nord     Re0    Alpha      Xe            Ye            Ze
    1   N      1    1.5500  1.250     -2.409671      0.355584     -1.144019
    2   H      2    0.9000  1.250     -2.771520      1.292172     -0.947880
    3   H      3    0.9000  1.250     -3.101281     -0.079047     -1.753461
    4   C      4    1.5000  1.250     -2.344912     -0.396693      0.111442
    5   H      5    1.2000  1.250     -2.064417     -1.428804     -0.124980
    6   H      6    1.2000  1.250     -3.298843     -0.446136      0.656413
    7   C      7    1.5000  1.250     -1.300619      0.209714      1.057731
    8   H      8    1.2000  1.250     -1.300116     -0.362059      1.992010
    9   H      9    1.2000  1.250     -1.581477      1.237342      1.310880
   10   C     10    1.5000  1.250      0.084948      0.263757      0.489301
   11   N     11    1.4000  1.250      0.768691      1.359369      0.299651
   12   C     12    1.5000  1.250      2.014623      1.092545     -0.233572
   13   H     13    1.2000  1.250      2.686475      1.915874     -0.442762
   14   C     14    1.5000  1.250      2.300096     -0.220264     -0.457823
   15   H     15    1.2000  1.250      3.201303     -0.657950     -0.864855
   16   S     16    1.7500  1.250      0.949495     -1.198151      0.017671
 ------------------------------------------------------------------------------
 GePol: Number of generator spheres                  =      16
 GePol: Total number of spheres                      =      38
 GePol: Number of exposed spheres                    =      37 ( 97.37%)
 GePol: Number of tesserae                           =    1328
 GePol: Average area of tesserae                     =       0.13 Ang**2
 GePol: Minimum area of tessera                      =   0.10D-02 Ang**2
 GePol: Maximum area of tessera                      =    0.30575 Ang**2
 GePol: Number of small tesserae                     =      16
 GePol: Fraction of small tesserae (<1% of avg)      =       1.20%
 GePol: Total count of vertices                      =    4595
 GePol: Maximum number of vertices in a tessera      =       7
 GePol: Cavity surface area                          =    172.343 Ang**2
 GePol: Cavity volume                                =    161.392 Ang**3
 PCM non-electrostatic energy =         0.0006617281 Hartrees.
 Nuclear repulsion after PCM non-electrostatic terms =      434.1742142596 Hartrees.
 Leave Link  301 at Thu Nov 12 20:47:35 2020, MaxMem=  2147483648 cpu:         0.1
 (Enter /prod/apps/gaussian/g09d1/l302.exe)
 NPDir=0 NMtPBC=     1 NCelOv=     1 NCel=       1 NClECP=     1 NCelD=      1
         NCelK=      1 NCelE2=     1 NClLst=     1 CellRange=     0.0.
 One-electron integrals computed using PRISM.
 NBasis=   140 RedAO= T EigKep=  2.43D-03  NBF=   140
 NBsUse=   140 1.00D-06 EigRej= -1.00D+00 NBFU=   140
 Precomputing XC quadrature grid using
 IXCGrd= 4 IRadAn=           0 IRanWt=          -1 IRanGd=           0 AccXCQ= 0.00D+00.
 Generated NRdTot=       0 NPtTot=           0 NUsed=           0 NTot=          32
 NSgBfM=   140   140   140   140   140 MxSgAt=    16 MxSgA2=    16.
 Leave Link  302 at Thu Nov 12 20:47:35 2020, MaxMem=  2147483648 cpu:         0.3
 (Enter /prod/apps/gaussian/g09d1/l303.exe)
 DipDrv:  MaxL=1.
 Leave Link  303 at Thu Nov 12 20:47:35 2020, MaxMem=  2147483648 cpu:         0.0
 (Enter /prod/apps/gaussian/g09d1/l401.exe)
 Initial guess from the checkpoint file:  "SET_328_BBB87_conf1_geo_285_105.n.pdb.xyz.mst.n.w.chk"
 B after Tr=     0.000000    0.000000    0.000000
         Rot=    1.000000    0.000000    0.000000    0.000000 Ang=   0.00 deg.
 Guess basis will be translated and rotated to current coordinates.
 JPrj=2 DoOrth=T DoCkMO=T.
 Leave Link  401 at Thu Nov 12 20:47:35 2020, MaxMem=  2147483648 cpu:         0.1
 (Enter /dades/curu/work_g09D01_MST_AddSphPartition_ReadGammas/exe-dir/l502.exe)
 Closed shell SCF:
 Using DIIS extrapolation, IDIIS=  1040.
 Integral symmetry usage will be decided dynamically.
 Keep R1 ints in memory in canonical form, NReq=53798581.
 IVT=       79251 IEndB=       79251 NGot=  2147483648 MDV=  2098691013
 LenX=  2098691013 LenY=  2098670972
 Requested convergence on RMS density matrix=1.00D-08 within 128 cycles.
 Requested convergence on MAX density matrix=1.00D-06.
 Requested convergence on             energy=1.00D-06.
 No special actions if energy rises.
 FoFCou: FMM=F IPFlag=           0 FMFlag=           0 FMFlg1=           0
         NFxFlg=           0 DoJE=F BraDBF=F KetDBF=F FulRan=T
         wScrn=  0.000000 ICntrl=     600 IOpCl=  0 I1Cent=           0 NGrid=           0
         NMat0=    1 NMatS0=   9870 NMatT0=    0 NMatD0=    1 NMtDS0=    0 NMtDT0=    0
 Symmetry not used in FoFCou.

 Cycle   1  Pass 1  IDiag  1:
 Inv3:  Mode=1 IEnd=     5290752.
 Iteration    1 A*A^-1 deviation from unit magnitude is 6.22D-15 for   1325.
 Iteration    1 A*A^-1 deviation from orthogonality  is 3.08D-15 for   1325   1306.
 Iteration    1 A^-1*A deviation from unit magnitude is 5.55D-15 for   1325.
 Iteration    1 A^-1*A deviation from orthogonality  is 2.44D-15 for   1325   1306.
 E= -703.032216046335    
 DIIS: error= 1.79D-03 at cycle   1 NSaved=   1.
 NSaved= 1 IEnMin= 1 EnMin= -703.032216046335     IErMin= 1 ErrMin= 1.79D-03
 ErrMax= 1.79D-03  0.00D+00 EMaxC= 1.00D-01 BMatC= 7.84D-04 BMatP= 7.84D-04
 IDIUse=3 WtCom= 9.82D-01 WtEn= 1.79D-02
 Coeff-Com:  0.100D+01
 Coeff-En:   0.100D+01
 Coeff:      0.100D+01
 Gap=     0.217 Goal=   None    Shift=    0.000
 GapD=    0.217 DampG=1.000 DampE=1.000 DampFc=1.0000 IDamp=-1.
 RMSDP=9.55D-04 MaxDP=1.17D-02              OVMax= 1.84D-02

 Cycle   2  Pass 1  IDiag  1:
 E= -703.033362211180     Delta-E=       -0.001146164845 Rises=F Damp=F
 DIIS: error= 1.52D-03 at cycle   2 NSaved=   2.
 NSaved= 2 IEnMin= 2 EnMin= -703.033362211180     IErMin= 2 ErrMin= 1.52D-03
 ErrMax= 1.52D-03  0.00D+00 EMaxC= 1.00D-01 BMatC= 6.79D-04 BMatP= 7.84D-04
 IDIUse=3 WtCom= 9.85D-01 WtEn= 1.52D-02
 Coeff-Com:  0.474D+00 0.526D+00
 Coeff-En:   0.000D+00 0.100D+01
 Coeff:      0.467D+00 0.533D+00
 Gap=     0.212 Goal=   None    Shift=    0.000
 RMSDP=2.80D-04 MaxDP=7.35D-03 DE=-1.15D-03 OVMax= 1.20D-02

 Cycle   3  Pass 1  IDiag  1:
 E= -703.033898913324     Delta-E=       -0.000536702144 Rises=F Damp=F
 DIIS: error= 7.76D-04 at cycle   3 NSaved=   3.
 NSaved= 3 IEnMin= 3 EnMin= -703.033898913324     IErMin= 3 ErrMin= 7.76D-04
 ErrMax= 7.76D-04  0.00D+00 EMaxC= 1.00D-01 BMatC= 1.50D-04 BMatP= 6.79D-04
 IDIUse=3 WtCom= 9.92D-01 WtEn= 7.76D-03
 Coeff-Com:  0.643D-01 0.306D+00 0.629D+00
 Coeff-En:   0.000D+00 0.185D+00 0.815D+00
 Coeff:      0.638D-01 0.305D+00 0.631D+00
 Gap=     0.212 Goal=   None    Shift=    0.000
 RMSDP=1.06D-04 MaxDP=3.03D-03 DE=-5.37D-04 OVMax= 4.95D-03

 Cycle   4  Pass 1  IDiag  1:
 E= -703.034033642545     Delta-E=       -0.000134729220 Rises=F Damp=F
 DIIS: error= 1.62D-04 at cycle   4 NSaved=   4.
 NSaved= 4 IEnMin= 4 EnMin= -703.034033642545     IErMin= 4 ErrMin= 1.62D-04
 ErrMax= 1.62D-04  0.00D+00 EMaxC= 1.00D-01 BMatC= 1.16D-05 BMatP= 1.50D-04
 IDIUse=3 WtCom= 9.98D-01 WtEn= 1.62D-03
 Coeff-Com: -0.176D-02 0.100D+00 0.302D+00 0.599D+00
 Coeff-En:   0.000D+00 0.000D+00 0.000D+00 0.100D+01
 Coeff:     -0.176D-02 0.100D+00 0.302D+00 0.600D+00
 Gap=     0.213 Goal=   None    Shift=    0.000
 RMSDP=3.06D-05 MaxDP=7.24D-04 DE=-1.35D-04 OVMax= 1.25D-03

 Cycle   5  Pass 1  IDiag  1:
 E= -703.034043949735     Delta-E=       -0.000010307191 Rises=F Damp=F
 DIIS: error= 5.99D-05 at cycle   5 NSaved=   5.
 NSaved= 5 IEnMin= 5 EnMin= -703.034043949735     IErMin= 5 ErrMin= 5.99D-05
 ErrMax= 5.99D-05  0.00D+00 EMaxC= 1.00D-01 BMatC= 1.42D-06 BMatP= 1.16D-05
 IDIUse=1 WtCom= 1.00D+00 WtEn= 0.00D+00
 Coeff-Com: -0.720D-02 0.221D-01 0.896D-01 0.317D+00 0.579D+00
 Coeff:     -0.720D-02 0.221D-01 0.896D-01 0.317D+00 0.579D+00
 Gap=     0.212 Goal=   None    Shift=    0.000
 RMSDP=8.38D-06 MaxDP=2.15D-04 DE=-1.03D-05 OVMax= 3.33D-04

 Cycle   6  Pass 1  IDiag  1:
 E= -703.034045182194     Delta-E=       -0.000001232459 Rises=F Damp=F
 DIIS: error= 1.46D-05 at cycle   6 NSaved=   6.
 NSaved= 6 IEnMin= 6 EnMin= -703.034045182194     IErMin= 6 ErrMin= 1.46D-05
 ErrMax= 1.46D-05  0.00D+00 EMaxC= 1.00D-01 BMatC= 7.56D-08 BMatP= 1.42D-06
 IDIUse=1 WtCom= 1.00D+00 WtEn= 0.00D+00
 Coeff-Com: -0.296D-02 0.163D-02 0.956D-02 0.807D-01 0.238D+00 0.673D+00
 Coeff:     -0.296D-02 0.163D-02 0.956D-02 0.807D-01 0.238D+00 0.673D+00
 Gap=     0.213 Goal=   None    Shift=    0.000
 RMSDP=2.92D-06 MaxDP=1.15D-04 DE=-1.23D-06 OVMax= 1.02D-04

 Cycle   7  Pass 1  IDiag  1:
 E= -703.034045247179     Delta-E=       -0.000000064985 Rises=F Damp=F
 DIIS: error= 7.14D-06 at cycle   7 NSaved=   7.
 NSaved= 7 IEnMin= 7 EnMin= -703.034045247179     IErMin= 7 ErrMin= 7.14D-06
 ErrMax= 7.14D-06  0.00D+00 EMaxC= 1.00D-01 BMatC= 1.28D-08 BMatP= 7.56D-08
 IDIUse=1 WtCom= 1.00D+00 WtEn= 0.00D+00
 Coeff-Com: -0.767D-03 0.811D-04-0.395D-03 0.185D-01 0.767D-01 0.348D+00
 Coeff-Com:  0.558D+00
 Coeff:     -0.767D-03 0.811D-04-0.395D-03 0.185D-01 0.767D-01 0.348D+00
 Coeff:      0.558D+00
 Gap=     0.213 Goal=   None    Shift=    0.000
 RMSDP=1.07D-06 MaxDP=3.64D-05 DE=-6.50D-08 OVMax= 6.92D-05

 Cycle   8  Pass 1  IDiag  1:
 E= -703.034045258040     Delta-E=       -0.000000010861 Rises=F Damp=F
 DIIS: error= 2.95D-06 at cycle   8 NSaved=   8.
 NSaved= 8 IEnMin= 8 EnMin= -703.034045258040     IErMin= 8 ErrMin= 2.95D-06
 ErrMax= 2.95D-06  0.00D+00 EMaxC= 1.00D-01 BMatC= 2.58D-09 BMatP= 1.28D-08
 IDIUse=1 WtCom= 1.00D+00 WtEn= 0.00D+00
 Coeff-Com: -0.128D-03-0.304D-03-0.179D-02 0.256D-03 0.166D-01 0.130D+00
 Coeff-Com:  0.357D+00 0.499D+00
 Coeff:     -0.128D-03-0.304D-03-0.179D-02 0.256D-03 0.166D-01 0.130D+00
 Coeff:      0.357D+00 0.499D+00
 Gap=     0.213 Goal=   None    Shift=    0.000
 RMSDP=3.86D-07 MaxDP=9.47D-06 DE=-1.09D-08 OVMax= 1.60D-05

 Cycle   9  Pass 1  IDiag  1:
 E= -703.034045260611     Delta-E=       -0.000000002572 Rises=F Damp=F
 DIIS: error= 3.07D-07 at cycle   9 NSaved=   9.
 NSaved= 9 IEnMin= 9 EnMin= -703.034045260611     IErMin= 9 ErrMin= 3.07D-07
 ErrMax= 3.07D-07  0.00D+00 EMaxC= 1.00D-01 BMatC= 4.03D-11 BMatP= 2.58D-09
 IDIUse=1 WtCom= 1.00D+00 WtEn= 0.00D+00
 Coeff-Com:  0.614D-05-0.112D-03-0.468D-03-0.128D-02-0.189D-03 0.157D-01
 Coeff-Com:  0.881D-01 0.153D+00 0.746D+00
 Coeff:      0.614D-05-0.112D-03-0.468D-03-0.128D-02-0.189D-03 0.157D-01
 Coeff:      0.881D-01 0.153D+00 0.746D+00
 Gap=     0.213 Goal=   None    Shift=    0.000
 RMSDP=6.79D-08 MaxDP=1.78D-06 DE=-2.57D-09 OVMax= 3.97D-06

 Cycle  10  Pass 1  IDiag  1:
 E= -703.034045260648     Delta-E=       -0.000000000036 Rises=F Damp=F
 DIIS: error= 2.07D-07 at cycle  10 NSaved=  10.
 NSaved=10 IEnMin=10 EnMin= -703.034045260648     IErMin=10 ErrMin= 2.07D-07
 ErrMax= 2.07D-07  0.00D+00 EMaxC= 1.00D-01 BMatC= 1.13D-11 BMatP= 4.03D-11
 IDIUse=1 WtCom= 1.00D+00 WtEn= 0.00D+00
 Coeff-Com:  0.137D-04-0.291D-04-0.571D-04-0.659D-03-0.163D-02-0.437D-02
 Coeff-Com:  0.149D-01 0.262D-01 0.392D+00 0.573D+00
 Coeff:      0.137D-04-0.291D-04-0.571D-04-0.659D-03-0.163D-02-0.437D-02
 Coeff:      0.149D-01 0.262D-01 0.392D+00 0.573D+00
 Gap=     0.213 Goal=   None    Shift=    0.000
 RMSDP=2.54D-08 MaxDP=5.83D-07 DE=-3.64D-11 OVMax= 9.35D-07

 Cycle  11  Pass 1  IDiag  1:
 E= -703.034045260666     Delta-E=       -0.000000000018 Rises=F Damp=F
 DIIS: error= 4.40D-08 at cycle  11 NSaved=  11.
 NSaved=11 IEnMin=11 EnMin= -703.034045260666     IErMin=11 ErrMin= 4.40D-08
 ErrMax= 4.40D-08  0.00D+00 EMaxC= 1.00D-01 BMatC= 6.69D-13 BMatP= 1.13D-11
 IDIUse=1 WtCom= 1.00D+00 WtEn= 0.00D+00
 Coeff-Com:  0.502D-05-0.354D-05 0.202D-04-0.147D-03-0.680D-03-0.375D-02
 Coeff-Com: -0.242D-02-0.935D-02 0.860D-01 0.226D+00 0.704D+00
 Coeff:      0.502D-05-0.354D-05 0.202D-04-0.147D-03-0.680D-03-0.375D-02
 Coeff:     -0.242D-02-0.935D-02 0.860D-01 0.226D+00 0.704D+00
 Gap=     0.213 Goal=   None    Shift=    0.000
 RMSDP=7.72D-09 MaxDP=1.52D-07 DE=-1.84D-11 OVMax= 2.63D-07

 Error on total polarization charges =  0.01701
 SCF Done:  E(RB3LYP) =  -703.034045261     A.U. after   11 cycles
            NFock= 11  Conv=0.77D-08     -V/T= 2.0060
 KE= 6.988221698284D+02 PE=-2.522551019787D+03 EE= 6.865205904381D+02
 --------------------------------------------------------------------
 Variational PCM results
 =======================
 <psi(f)|   H    |psi(f)>                     (a.u.) =    -703.018758
 <psi(f)|H+V(f)/2|psi(f)>                     (a.u.) =    -703.034707
 Total free energy in solution:
 - with all non electrostatic terms           (a.u.) =    -703.034045
 --------------------------------------------------------------------
 (Polarized solute)-Solvent               (kcal/mol) =     -10.01
 --------------------------------------------------------------------
 Cavitation energy                        (kcal/mol) =      20.82
 MST dispersion + repulsion energy        (kcal/mol) =     -20.40
 Total non electrostatic                  (kcal/mol) =       0.42
 --------------------------------------------------------------------
 Partition over spheres:
 Sphere  on Atom  Surface  Charge   GEl     GCav    GDR
    1      N1      21.24   0.051   -2.68    2.22   -2.72
    2      H2       2.79  -0.049   -0.77    0.63   -0.57
    3      H3       2.92  -0.051   -0.88    0.62   -0.56
    4      C4       1.51  -0.004   -0.04    0.41   -0.43
    5      H5       8.79  -0.017   -0.08    1.50   -1.42
    6      H6      12.85  -0.014   -0.09    1.52   -1.44
    7      C7       1.31  -0.004   -0.00    0.42   -0.44
    8      H8      11.20  -0.032   -0.17    1.52   -1.43
    9      H9       9.66  -0.023   -0.05    1.51   -1.43
   10      C10      2.19   0.000   -0.02    0.82   -0.63
   11      N11     10.26   0.136   -2.82    1.45   -1.12
   12      C12      9.40   0.020   -0.22    1.10   -1.17
   13      H13     13.73  -0.048   -0.04    1.52   -1.44
   14      C14      7.79   0.019   -0.19    1.00   -1.06
   15      H15     13.55  -0.063   -0.40    1.52   -1.44
   16      S16     27.24   0.031   -0.33    3.05   -3.09
 Added spheres:    15.91   0.031   -1.22    0.00    0.00
 --------------------------------------------------------------------
 Partition over spheres of the perturbative electrostatic energy:
(Contribution of added spheres asigned to closest sphere)
 Sphere  on Atom  Surface  Charge   GElSph
    1      N1      21.24   0.051   -2.61
    2      H2       2.79  -0.049   -0.85
    3      H3       2.92  -0.051   -0.78
    4      C4       1.51  -0.004   -0.03
    5      H5       8.79  -0.017   -0.14
    6      H6      12.85  -0.014   -0.08
    7      C7       1.31  -0.004   -0.01
    8      H8      11.20  -0.032   -0.18
    9      H9       9.66  -0.023   -0.18
   10      C10      2.19   0.000   -0.07
   11      N11     10.26   0.136   -2.57
   12      C12      9.40   0.020   -0.18
   13      H13     13.73  -0.048   -0.08
   14      C14      7.79   0.019   -0.18
   15      H15     13.55  -0.063   -0.34
   16      S16     27.24   0.031   -0.33
 Added spheres:    15.91   0.031    0.00
 --------------------------------------------------------------------
 After PCM corrections, the energy is  -703.034045261     a.u.
 --------------------------------------------------------------------
 Leave Link  502 at Thu Nov 12 20:48:05 2020, MaxMem=  2147483648 cpu:        29.4
 (Enter /prod/apps/gaussian/g09d1/l601.exe)
 Copying SCF densities to generalized density rwf, IOpCl= 0 IROHF=0.

 **********************************************************************

            Population analysis using the SCF density.

 **********************************************************************

 Orbital symmetries:
       Occupied  (A) (A) (A) (A) (A) (A) (A) (A) (A) (A) (A) (A)
                 (A) (A) (A) (A) (A) (A) (A) (A) (A) (A) (A) (A)
                 (A) (A) (A) (A) (A) (A) (A) (A) (A) (A)
       Virtual   (A) (A) (A) (A) (A) (A) (A) (A) (A) (A) (A) (A)
                 (A) (A) (A) (A) (A) (A) (A) (A) (A) (A) (A) (A)
                 (A) (A) (A) (A) (A) (A) (A) (A) (A) (A) (A) (A)
                 (A) (A) (A) (A) (A) (A) (A) (A) (A) (A) (A) (A)
                 (A) (A) (A) (A) (A) (A) (A) (A) (A) (A) (A) (A)
                 (A) (A) (A) (A) (A) (A) (A) (A) (A) (A) (A) (A)
                 (A) (A) (A) (A) (A) (A) (A) (A) (A) (A) (A) (A)
                 (A) (A) (A) (A) (A) (A) (A) (A) (A) (A) (A) (A)
                 (A) (A) (A) (A) (A) (A) (A) (A) (A) (A)
 The electronic state is 1-A.
 Alpha  occ. eigenvalues --  -88.91176 -14.33614 -14.30627 -10.25550 -10.21796
 Alpha  occ. eigenvalues --  -10.21713 -10.20906 -10.19590  -7.97358  -5.93732
 Alpha  occ. eigenvalues --   -5.93387  -5.93082  -0.96124  -0.87553  -0.79548
 Alpha  occ. eigenvalues --   -0.77739  -0.70894  -0.62234  -0.58230  -0.53857
 Alpha  occ. eigenvalues --   -0.49943  -0.48342  -0.45412  -0.44338  -0.41237
 Alpha  occ. eigenvalues --   -0.39889  -0.38379  -0.36627  -0.36381  -0.34569
 Alpha  occ. eigenvalues --   -0.28377  -0.27844  -0.24150  -0.23542
 Alpha virt. eigenvalues --   -0.02289   0.02325   0.05191   0.08785   0.10454
 Alpha virt. eigenvalues --    0.12994   0.13926   0.14570   0.17202   0.17471
 Alpha virt. eigenvalues --    0.19153   0.19348   0.21956   0.23762   0.23870
 Alpha virt. eigenvalues --    0.26544   0.30277   0.32509   0.36689   0.37590
 Alpha virt. eigenvalues --    0.42621   0.44467   0.51456   0.53039   0.53880
 Alpha virt. eigenvalues --    0.54732   0.56006   0.58308   0.59382   0.63864
 Alpha virt. eigenvalues --    0.64358   0.65568   0.70707   0.72459   0.72552
 Alpha virt. eigenvalues --    0.74779   0.76569   0.79707   0.81455   0.82902
 Alpha virt. eigenvalues --    0.83239   0.84810   0.86064   0.87936   0.88290
 Alpha virt. eigenvalues --    0.90758   0.91287   0.93132   0.93917   0.96042
 Alpha virt. eigenvalues --    0.97435   0.97771   0.99570   1.02780   1.04003
 Alpha virt. eigenvalues --    1.06527   1.12997   1.17974   1.28249   1.34454
 Alpha virt. eigenvalues --    1.39053   1.41345   1.44773   1.46194   1.51298
 Alpha virt. eigenvalues --    1.58505   1.59421   1.64468   1.70107   1.74889
 Alpha virt. eigenvalues --    1.80931   1.82503   1.87785   1.91136   1.95312
 Alpha virt. eigenvalues --    1.97603   2.00813   2.03880   2.08422   2.15550
 Alpha virt. eigenvalues --    2.19613   2.21917   2.24471   2.26535   2.29126
 Alpha virt. eigenvalues --    2.34441   2.37461   2.42839   2.43933   2.48627
 Alpha virt. eigenvalues --    2.54507   2.55152   2.62498   2.68971   2.69150
 Alpha virt. eigenvalues --    2.78324   2.97674   3.04389   3.78950   3.92948
 Alpha virt. eigenvalues --    4.00826   4.10254   4.20671   4.33038   4.35689
 Alpha virt. eigenvalues --    4.50791
          Condensed to atoms (all electrons):
               1          2          3          4          5          6
     1  N    6.965938   0.312405   0.313555   0.320358  -0.043955  -0.045455
     2  H    0.312405   0.425821  -0.029027  -0.037476   0.006210  -0.004840
     3  H    0.313555  -0.029027   0.414381  -0.031313  -0.003694  -0.002533
     4  C    0.320358  -0.037476  -0.031313   4.879113   0.379458   0.374543
     5  H   -0.043955   0.006210  -0.003694   0.379458   0.586160  -0.043859
     6  H   -0.045455  -0.004840  -0.002533   0.374543  -0.043859   0.631167
     7  C   -0.066787  -0.002528   0.005914   0.358543  -0.032028  -0.046826
     8  H    0.003984  -0.000110  -0.000200  -0.033466  -0.002566   0.000343
     9  H   -0.003890   0.004557  -0.000020  -0.031501   0.004977  -0.005107
    10  C    0.007128  -0.001344   0.000148  -0.041833  -0.009301   0.006500
    11  N   -0.001376   0.000337   0.000006  -0.000172   0.000131  -0.000132
    12  C    0.000276  -0.000004  -0.000002  -0.000161  -0.000010   0.000006
    13  H    0.000001   0.000000   0.000000   0.000002   0.000000   0.000000
    14  C   -0.000262   0.000004   0.000003   0.000128  -0.000007  -0.000005
    15  H   -0.000001   0.000000   0.000000   0.000000   0.000002   0.000000
    16  S    0.003331  -0.000020  -0.000141   0.000962   0.005090   0.000047
               7          8          9         10         11         12
     1  N   -0.066787   0.003984  -0.003890   0.007128  -0.001376   0.000276
     2  H   -0.002528  -0.000110   0.004557  -0.001344   0.000337  -0.000004
     3  H    0.005914  -0.000200  -0.000020   0.000148   0.000006  -0.000002
     4  C    0.358543  -0.033466  -0.031501  -0.041833  -0.000172  -0.000161
     5  H   -0.032028  -0.002566   0.004977  -0.009301   0.000131  -0.000010
     6  H   -0.046826   0.000343  -0.005107   0.006500  -0.000132   0.000006
     7  C    5.156415   0.363380   0.365346   0.338947  -0.045871   0.006269
     8  H    0.363380   0.548822  -0.027582  -0.030499   0.000657  -0.000126
     9  H    0.365346  -0.027582   0.553307  -0.042146   0.003429   0.000102
    10  C    0.338947  -0.030499  -0.042146   4.969882   0.502059  -0.089538
    11  N   -0.045871   0.000657   0.003429   0.502059   6.783929   0.420401
    12  C    0.006269  -0.000126   0.000102  -0.089538   0.420401   4.776701
    13  H   -0.000186   0.000004  -0.000011   0.006465  -0.043031   0.375026
    14  C    0.003326   0.000040  -0.000021  -0.043172  -0.060960   0.585791
    15  H   -0.000058  -0.000001   0.000001   0.002266   0.004276  -0.018114
    16  S   -0.071424   0.000226   0.005650   0.297728  -0.101969  -0.087164
              13         14         15         16
     1  N    0.000001  -0.000262  -0.000001   0.003331
     2  H    0.000000   0.000004   0.000000  -0.000020
     3  H    0.000000   0.000003   0.000000  -0.000141
     4  C    0.000002   0.000128   0.000000   0.000962
     5  H    0.000000  -0.000007   0.000002   0.005090
     6  H    0.000000  -0.000005   0.000000   0.000047
     7  C   -0.000186   0.003326  -0.000058  -0.071424
     8  H    0.000004   0.000040  -0.000001   0.000226
     9  H   -0.000011  -0.000021   0.000001   0.005650
    10  C    0.006465  -0.043172   0.002266   0.297728
    11  N   -0.043031  -0.060960   0.004276  -0.101969
    12  C    0.375026   0.585791  -0.018114  -0.087164
    13  H    0.539785  -0.051844  -0.001265   0.005304
    14  C   -0.051844   5.259210   0.352097   0.310955
    15  H   -0.001265   0.352097   0.485181  -0.030055
    16  S    0.005304   0.310955  -0.030055  15.440776
 Mulliken charges:
               1
     1  N   -0.765250
     2  H    0.326016
     3  H    0.332923
     4  C   -0.137186
     5  H    0.153390
     6  H    0.136150
     7  C   -0.332432
     8  H    0.177094
     9  H    0.172908
    10  C    0.126709
    11  N   -0.461714
    12  C    0.030547
    13  H    0.169750
    14  C   -0.355283
    15  H    0.205671
    16  S    0.220705
 Sum of Mulliken charges =   0.00000
 Mulliken charges with hydrogens summed into heavy atoms:
               1
     1  N   -0.106310
     4  C    0.152354
     7  C    0.017571
    10  C    0.126709
    11  N   -0.461714
    12  C    0.200297
    14  C   -0.149612
    16  S    0.220705
 Electronic spatial extent (au):  <R**2>=           1178.1034
 Charge=              0.0000 electrons
 Dipole moment (field-independent basis, Debye):
    X=             -1.8744    Y=             -1.5167    Z=              0.2269  Tot=              2.4218
 Quadrupole moment (field-independent basis, Debye-Ang):
   XX=            -37.9962   YY=            -56.0645   ZZ=            -55.3793
   XY=             -1.3054   XZ=             -1.9971   YZ=             -0.4546
 Traceless Quadrupole moment (field-independent basis, Debye-Ang):
   XX=             11.8171   YY=             -6.2511   ZZ=             -5.5660
   XY=             -1.3054   XZ=             -1.9971   YZ=             -0.4546
 Octapole moment (field-independent basis, Debye-Ang**2):
  XXX=            -18.9721  YYY=             -2.8302  ZZZ=              0.5676  XYY=             -4.2830
  XXY=              5.1919  XXZ=            -19.6581  XZZ=             -8.5482  YZZ=             -2.2549
  YYZ=             -4.9475  XYZ=             -0.0566
 Hexadecapole moment (field-independent basis, Debye-Ang**3):
 XXXX=           -874.7530 YYYY=           -326.6595 ZZZZ=           -197.1325 XXXY=            -18.0520
 XXXZ=             23.4272 YYYX=             -5.8718 YYYZ=             -6.5401 ZZZX=             12.5914
 ZZZY=              0.5534 XXYY=           -196.4992 XXZZ=           -185.1628 YYZZ=            -87.4551
 XXYZ=              1.0320 YYXZ=             -1.5544 ZZXY=             -0.6967
 N-N= 4.341742142596D+02 E-N=-2.522551025452D+03  KE= 6.988221698284D+02
 No NMR shielding tensors so no spin-rotation constants.
 Leave Link  601 at Thu Nov 12 20:48:05 2020, MaxMem=  2147483648 cpu:         0.1
 (Enter /prod/apps/gaussian/g09d1/l9999.exe)
 1\1\GINC-PIRINEUS41\SP\RB3LYP\6-31G(d)\C5H8N2S1\UBAFAR01\12-Nov-2020\0
 \\#p b3lyp/6-31G(d) scrf=(iefpcm,read,solvent=Water) geom=allcheck gue
 ss=read\\SET_328_BBB87_conf1_geo_285_105.n.pdb.xyz\\0,1\N,0,2.212,0.21
 5,0.036\H,0,2.454,0.469,0.997\H,0,3.096,0.203,-0.471\C,0,1.357,1.263,-
 0.527\H,0,1.197,1.038,-1.587\H,0,1.792,2.272,-0.481\C,0,0.003,1.308,0.
 193\H,0,-0.596,2.118,-0.237\H,0,0.153,1.547,1.251\C,0,-0.763,0.021,0.1
 41\N,0,-1.116,-0.677,1.186\C,0,-1.815,-1.812,0.824\H,0,-2.167,-2.484,1
 .597\C,0,-2.007,-1.995,-0.512\H,0,-2.518,-2.802,-1.019\S,0,-1.282,-0.6
 86,-1.388\\Version=AM64L-G09RevD.01\State=1-A\HF=-703.0340453\RMSD=7.7
 24e-09\Dipole=0.4926562,0.5880212,-0.5651586\Quadrupole=2.8605495,1.83
 07608,-4.6913104,6.514352,1.2564165,0.6563472\PG=C01 [X(C5H8N2S1)]\\@


 HEAVEN'S NET CASTS WIDE.
 THOUGH ITS MESHES ARE COARSE, NOTHING SLIPS THROUGH.

                                          -- LAO-TSU
 Job cpu time:       0 days  0 hours  0 minutes 30.3 seconds.
 File lengths (MBytes):  RWF=     40 Int=      0 D2E=      0 Chk=      2 Scr=      1
 Normal termination of Gaussian 09 at Thu Nov 12 20:48:05 2020.
