 Entering Gaussian System, Link 0=g09
 Initial command:
 /prod/apps/gaussian/g09d1/l1.exe "/tmp/ubafar01/1496617/Gau-83988.inp" -scrdir="/tmp/ubafar01/1496617/"
 Entering Link 1 = /prod/apps/gaussian/g09d1/l1.exe PID=     83990.
  
 Copyright (c) 1988,1990,1992,1993,1995,1998,2003,2009,2013,
            Gaussian, Inc.  All Rights Reserved.
  
 This is part of the Gaussian(R) 09 program.  It is based on
 the Gaussian(R) 03 system (copyright 2003, Gaussian, Inc.),
 the Gaussian(R) 98 system (copyright 1998, Gaussian, Inc.),
 the Gaussian(R) 94 system (copyright 1995, Gaussian, Inc.),
 the Gaussian 92(TM) system (copyright 1992, Gaussian, Inc.),
 the Gaussian 90(TM) system (copyright 1990, Gaussian, Inc.),
 the Gaussian 88(TM) system (copyright 1988, Gaussian, Inc.),
 the Gaussian 86(TM) system (copyright 1986, Carnegie Mellon
 University), and the Gaussian 82(TM) system (copyright 1983,
 Carnegie Mellon University). Gaussian is a federally registered
 trademark of Gaussian, Inc.
  
 This software contains proprietary and confidential information,
 including trade secrets, belonging to Gaussian, Inc.
  
 This software is provided under written license and may be
 used, copied, transmitted, or stored only in accord with that
 written license.
  
 The following legend is applicable only to US Government
 contracts under FAR:
  
                    RESTRICTED RIGHTS LEGEND
  
 Use, reproduction and disclosure by the US Government is
 subject to restrictions as set forth in subparagraphs (a)
 and (c) of the Commercial Computer Software - Restricted
 Rights clause in FAR 52.227-19.
  
 Gaussian, Inc.
 340 Quinnipiac St., Bldg. 40, Wallingford CT 06492
  
  
 ---------------------------------------------------------------
 Warning -- This program may not be used in any manner that
 competes with the business of Gaussian, Inc. or will provide
 assistance to any competitor of Gaussian, Inc.  The licensee
 of this program is prohibited from giving any competitor of
 Gaussian, Inc. access to this program.  By using this program,
 the user acknowledges that Gaussian, Inc. is engaged in the
 business of creating and licensing software in the field of
 computational chemistry and represents and warrants to the
 licensee that it is not a competitor of Gaussian, Inc. and that
 it will not use this program in any manner prohibited above.
 ---------------------------------------------------------------
  

 Cite this work as:
 Gaussian 09, Revision D.01,
 M. J. Frisch, G. W. Trucks, H. B. Schlegel, G. E. Scuseria, 
 M. A. Robb, J. R. Cheeseman, G. Scalmani, V. Barone, B. Mennucci, 
 G. A. Petersson, H. Nakatsuji, M. Caricato, X. Li, H. P. Hratchian, 
 A. F. Izmaylov, J. Bloino, G. Zheng, J. L. Sonnenberg, M. Hada, 
 M. Ehara, K. Toyota, R. Fukuda, J. Hasegawa, M. Ishida, T. Nakajima, 
 Y. Honda, O. Kitao, H. Nakai, T. Vreven, J. A. Montgomery, Jr., 
 J. E. Peralta, F. Ogliaro, M. Bearpark, J. J. Heyd, E. Brothers, 
 K. N. Kudin, V. N. Staroverov, T. Keith, R. Kobayashi, J. Normand, 
 K. Raghavachari, A. Rendell, J. C. Burant, S. S. Iyengar, J. Tomasi, 
 M. Cossi, N. Rega, J. M. Millam, M. Klene, J. E. Knox, J. B. Cross, 
 V. Bakken, C. Adamo, J. Jaramillo, R. Gomperts, R. E. Stratmann, 
 O. Yazyev, A. J. Austin, R. Cammi, C. Pomelli, J. W. Ochterski, 
 R. L. Martin, K. Morokuma, V. G. Zakrzewski, G. A. Voth, 
 P. Salvador, J. J. Dannenberg, S. Dapprich, A. D. Daniels, 
 O. Farkas, J. B. Foresman, J. V. Ortiz, J. Cioslowski, 
 and D. J. Fox, Gaussian, Inc., Wallingford CT, 2013.
 
 ******************************************
 Gaussian 09:  AM64L-G09RevD.01 24-Apr-2013
                12-Nov-2020 
 ******************************************
 %nproc=1
 Will use up to    1 processors via shared memory.
 %Chk=SET_328_BBB23_conf1_geo_300_180.n.pdb.xyz.mst.n.w.chk
 %mem=16GB
 -----------------
 #p b3lyp/6-31G(d)
 -----------------
 1/38=1/1;
 2/12=2,17=6,18=5,40=1/2;
 3/5=1,6=6,7=1,11=2,16=1,25=1,30=1,74=-5/1,2,3;
 4//1;
 5/5=2,38=5/2;
 6/7=2,8=2,9=2,10=2,28=1/1;
 99/5=1,9=1/99;
 Leave Link    1 at Thu Nov 12 20:33:25 2020, MaxMem=  2147483648 cpu:         0.0
 (Enter /prod/apps/gaussian/g09d1/l101.exe)
 -----------------------------------------
 SET_328_BBB23_conf1_geo_300_180.n.pdb.xyz
 -----------------------------------------
 Symbolic Z-matrix:
 Charge =  0 Multiplicity = 1
 C                     0.848     1.515    -1.717 
 H                     0.673     2.291    -0.966 
 H                    -0.028     1.484    -2.374 
 H                     1.706     1.828    -2.32 
 C                     1.1       0.149    -1.076 
 H                     1.998     0.2      -0.444 
 H                     1.331    -0.575    -1.869 
 C                    -0.068    -0.401    -0.24 
 C                     0.195    -1.869     0.125 
 H                     1.093    -1.958     0.746 
 H                     0.354    -2.471    -0.776 
 H                    -0.639    -2.311     0.68 
 H                    -0.97     -0.364    -0.869 
 C                    -0.33      0.461     1.008 
 H                    -0.389     1.514     0.709 
 H                     0.537     0.383     1.677 
 C                    -1.604     0.099     1.777 
 H                    -2.487     0.185     1.135 
 H                    -1.749     0.767     2.632 
 H                    -1.572    -0.925     2.161 
 
 NAtoms=     20 NQM=       20 NQMF=       0 NMMI=      0 NMMIF=      0
                NMic=       0 NMicF=      0.
                    Isotopes and Nuclear Properties:
 (Nuclear quadrupole moments (NQMom) in fm**2, nuclear magnetic moments (NMagM)
  in nuclear magnetons)

  Atom         1           2           3           4           5           6           7           8           9          10
 IAtWgt=          12           1           1           1          12           1           1          12          12           1
 AtmWgt=  12.0000000   1.0078250   1.0078250   1.0078250  12.0000000   1.0078250   1.0078250  12.0000000  12.0000000   1.0078250
 NucSpn=           0           1           1           1           0           1           1           0           0           1
 AtZEff=   0.0000000   0.0000000   0.0000000   0.0000000   0.0000000   0.0000000   0.0000000   0.0000000   0.0000000   0.0000000
 NQMom=    0.0000000   0.0000000   0.0000000   0.0000000   0.0000000   0.0000000   0.0000000   0.0000000   0.0000000   0.0000000
 NMagM=    0.0000000   2.7928460   2.7928460   2.7928460   0.0000000   2.7928460   2.7928460   0.0000000   0.0000000   2.7928460
 AtZNuc=   6.0000000   1.0000000   1.0000000   1.0000000   6.0000000   1.0000000   1.0000000   6.0000000   6.0000000   1.0000000

  Atom        11          12          13          14          15          16          17          18          19          20
 IAtWgt=           1           1           1          12           1           1          12           1           1           1
 AtmWgt=   1.0078250   1.0078250   1.0078250  12.0000000   1.0078250   1.0078250  12.0000000   1.0078250   1.0078250   1.0078250
 NucSpn=           1           1           1           0           1           1           0           1           1           1
 AtZEff=   0.0000000   0.0000000   0.0000000   0.0000000   0.0000000   0.0000000   0.0000000   0.0000000   0.0000000   0.0000000
 NQMom=    0.0000000   0.0000000   0.0000000   0.0000000   0.0000000   0.0000000   0.0000000   0.0000000   0.0000000   0.0000000
 NMagM=    2.7928460   2.7928460   2.7928460   0.0000000   2.7928460   2.7928460   0.0000000   2.7928460   2.7928460   2.7928460
 AtZNuc=   1.0000000   1.0000000   1.0000000   6.0000000   1.0000000   1.0000000   6.0000000   1.0000000   1.0000000   1.0000000
 Leave Link  101 at Thu Nov 12 20:33:26 2020, MaxMem=  2147483648 cpu:         0.1
 (Enter /prod/apps/gaussian/g09d1/l202.exe)
                          Input orientation:                          
 ---------------------------------------------------------------------
 Center     Atomic      Atomic             Coordinates (Angstroms)
 Number     Number       Type             X           Y           Z
 ---------------------------------------------------------------------
      1          6           0        0.848000    1.515000   -1.717000
      2          1           0        0.673000    2.291000   -0.966000
      3          1           0       -0.028000    1.484000   -2.374000
      4          1           0        1.706000    1.828000   -2.320000
      5          6           0        1.100000    0.149000   -1.076000
      6          1           0        1.998000    0.200000   -0.444000
      7          1           0        1.331000   -0.575000   -1.869000
      8          6           0       -0.068000   -0.401000   -0.240000
      9          6           0        0.195000   -1.869000    0.125000
     10          1           0        1.093000   -1.958000    0.746000
     11          1           0        0.354000   -2.471000   -0.776000
     12          1           0       -0.639000   -2.311000    0.680000
     13          1           0       -0.970000   -0.364000   -0.869000
     14          6           0       -0.330000    0.461000    1.008000
     15          1           0       -0.389000    1.514000    0.709000
     16          1           0        0.537000    0.383000    1.677000
     17          6           0       -1.604000    0.099000    1.777000
     18          1           0       -2.487000    0.185000    1.135000
     19          1           0       -1.749000    0.767000    2.632000
     20          1           0       -1.572000   -0.925000    2.161000
 ---------------------------------------------------------------------
                    Distance matrix (angstroms):
                    1          2          3          4          5
     1  C    0.000000
     2  H    1.093984   0.000000
     3  H    1.095439   1.767799   0.000000
     4  H    1.094414   1.764872   1.768618   0.000000
     5  C    1.529817   2.186914   2.177019   2.175733   0.000000
     6  H    2.161540   2.529899   3.078674   2.501005   1.099286
     7  H    2.150463   3.076090   2.518211   2.473547   1.098356
     8  C    2.586821   2.884965   2.847592   3.527310   1.538057
     9  C    3.907791   4.327166   4.187761   4.682836   2.516694
    10  H    4.264754   4.600146   4.778954   4.910185   2.785531
    11  H    4.125253   4.776453   4.282704   4.763742   2.740605
    12  H    4.753426   5.060540   4.909405   5.624086   3.487013
    13  H    2.748612   3.123761   2.562712   3.751165   2.142643
    14  C    3.150274   2.872557   3.546217   4.133953   2.546625
    15  H    2.723168   2.130070   3.104208   3.696277   2.695658
    16  H    3.591292   3.262577   4.235803   4.408015   2.819705
    17  C    4.497265   4.184930   4.651108   5.543550   3.931123
    18  H    4.585306   4.339935   4.477406   5.676066   4.213833
    19  H    5.120324   4.597202   5.341907   6.130665   4.716777
    20  H    5.181591   5.016055   5.362224   6.197068   4.332578
                    6          7          8          9         10
     6  H    0.000000
     7  H    1.753893   0.000000
     8  C    2.161290   2.154325   0.000000
     9  C    2.802736   2.634572   1.535389   0.000000
    10  H    2.625279   2.967753   2.178157   1.095430   0.000000
    11  H    3.153918   2.396663   2.179514   1.095210   1.767986
    12  H    3.810809   3.659508   2.195573   1.094963   1.768838
    13  H    3.050860   2.517761   1.100279   2.147158   3.066762
    14  C    2.756086   3.479849   1.539218   2.546412   2.818711
    15  H    2.958678   3.737433   2.161219   3.482356   3.775245
    16  H    2.581986   3.757967   2.157677   2.756297   2.579957
    17  C    4.232900   4.728828   2.584102   3.136643   3.545140
    18  H    4.754860   4.917188   2.843516   3.525924   4.190486
    19  H    4.880909   5.616615   3.526807   4.124643   4.365728
    20  H    4.560323   4.979037   2.881214   2.856347   3.189285
                   11         12         13         14         15
    11  H    0.000000
    12  H    1.769628   0.000000
    13  H    2.490196   2.509934   0.000000
    14  C    3.499591   2.808389   2.147872   0.000000
    15  H    4.317117   3.833271   2.520819   1.096217   0.000000
    16  H    3.767760   3.103969   3.051422   1.097877   1.753186
    17  C    4.117824   2.818286   2.760007   1.531496   2.149203
    18  H    4.333306   3.138813   2.572685   2.178292   2.519786
    19  H    5.149924   3.810051   3.760718   2.178204   2.470939
    20  H    3.837390   2.232677   3.139749   2.189285   3.075145
                   16         17         18         19         20
    16  H    0.000000
    17  C    2.162068   0.000000
    18  H    3.078562   1.095102   0.000000
    19  H    2.507045   1.094657   1.767591   0.000000
    20  H    2.528438   1.094101   1.766919   1.765229   0.000000
 Stoichiometry    C6H14
 Framework group  C1[X(C6H14)]
 Deg. of freedom    54
 Full point group                 C1      NOp   1
 Largest Abelian subgroup         C1      NOp   1
 Largest concise Abelian subgroup C1      NOp   1
                         Standard orientation:                         
 ---------------------------------------------------------------------
 Center     Atomic      Atomic             Coordinates (Angstroms)
 Number     Number       Type             X           Y           Z
 ---------------------------------------------------------------------
      1          6           0       -2.268859   -0.854970   -0.178114
      2          1           0       -1.848058   -1.771230    0.246382
      3          1           0       -2.290219   -0.971850   -1.267091
      4          1           0       -3.303769   -0.776393    0.169058
      5          6           0       -1.462424    0.381298    0.223936
      6          1           0       -1.478898    0.490744    1.317635
      7          1           0       -1.963171    1.273653   -0.175238
      8          6           0       -0.001252    0.387406   -0.256232
      9          6           0        0.619414    1.772940   -0.027130
     10          1           0        0.640369    2.015291    1.040949
     11          1           0        0.034329    2.549138   -0.531786
     12          1           0        1.646513    1.831055   -0.402145
     13          1           0       -0.009155    0.193921   -1.339336
     14          6           0        0.822628   -0.726741    0.413910
     15          1           0        0.278227   -1.674375    0.328420
     16          1           0        0.893910   -0.512888    1.488396
     17          6           0        2.227967   -0.916338   -0.164497
     18          1           0        2.183619   -1.147479   -1.234009
     19          1           0        2.748249   -1.741560    0.332080
     20          1           0        2.843204   -0.019593   -0.044547
 ---------------------------------------------------------------------
 Rotational constants (GHZ):      4.6127899      2.2448386      1.6584907
 Leave Link  202 at Thu Nov 12 20:33:26 2020, MaxMem=  2147483648 cpu:         0.0
 (Enter /prod/apps/gaussian/g09d1/l301.exe)
 Standard basis: 6-31G(d) (6D, 7F)
 Ernie: Thresh=  0.10000D-02 Tol=  0.10000D-05 Strict=F.
 There are   118 symmetry adapted cartesian basis functions of A   symmetry.
 There are   118 symmetry adapted basis functions of A   symmetry.
   118 basis functions,   224 primitive gaussians,   118 cartesian basis functions
    25 alpha electrons       25 beta electrons
       nuclear repulsion energy       256.7681712848 Hartrees.
 IExCor=  402 DFT=T Ex+Corr=B3LYP ExCW=0 ScaHFX=  0.200000
 ScaDFX=  0.800000  0.720000  1.000000  0.810000 ScalE2=  1.000000  1.000000
 IRadAn=      0 IRanWt=     -1 IRanGd=            0 ICorTp=0 IEmpDi=  4
 NAtoms=   20 NActive=   20 NUniq=   20 SFac= 1.00D+00 NAtFMM=   60 NAOKFM=F Big=F
 Integral buffers will be    131072 words long.
 Raffenetti 2 integral format.
 Two-electron integral symmetry is turned on.
 Leave Link  301 at Thu Nov 12 20:33:26 2020, MaxMem=  2147483648 cpu:         0.0
 (Enter /prod/apps/gaussian/g09d1/l302.exe)
 NPDir=0 NMtPBC=     1 NCelOv=     1 NCel=       1 NClECP=     1 NCelD=      1
         NCelK=      1 NCelE2=     1 NClLst=     1 CellRange=     0.0.
 One-electron integrals computed using PRISM.
 NBasis=   118 RedAO= T EigKep=  3.83D-03  NBF=   118
 NBsUse=   118 1.00D-06 EigRej= -1.00D+00 NBFU=   118
 Precomputing XC quadrature grid using
 IXCGrd= 4 IRadAn=           0 IRanWt=          -1 IRanGd=           0 AccXCQ= 0.00D+00.
 Generated NRdTot=       0 NPtTot=           0 NUsed=           0 NTot=          32
 NSgBfM=   118   118   118   118   118 MxSgAt=    20 MxSgA2=    20.
 Leave Link  302 at Thu Nov 12 20:33:26 2020, MaxMem=  2147483648 cpu:         0.4
 (Enter /prod/apps/gaussian/g09d1/l303.exe)
 DipDrv:  MaxL=1.
 Leave Link  303 at Thu Nov 12 20:33:26 2020, MaxMem=  2147483648 cpu:         0.0
 (Enter /prod/apps/gaussian/g09d1/l401.exe)
 ExpMin= 1.61D-01 ExpMax= 3.05D+03 ExpMxC= 4.57D+02 IAcc=1 IRadAn=         1 AccDes= 0.00D+00
 Harris functional with IExCor=  402 and IRadAn=       1 diagonalized for initial guess.
 HarFok:  IExCor=  402 AccDes= 0.00D+00 IRadAn=         1 IDoV= 1 UseB2=F ITyADJ=14
 ICtDFT=  3500011 ScaDFX=  1.000000  1.000000  1.000000  1.000000
 FoFCou: FMM=F IPFlag=           0 FMFlag=      100000 FMFlg1=           0
         NFxFlg=           0 DoJE=T BraDBF=F KetDBF=T FulRan=T
         wScrn=  0.000000 ICntrl=     500 IOpCl=  0 I1Cent=   200000004 NGrid=           0
         NMat0=    1 NMatS0=      1 NMatT0=    0 NMatD0=    1 NMtDS0=    0 NMtDT0=    0
 Petite list used in FoFCou.
 Harris En= -237.169963669293    
 JPrj=0 DoOrth=F DoCkMO=F.
 Leave Link  401 at Thu Nov 12 20:33:27 2020, MaxMem=  2147483648 cpu:         1.1
 (Enter /prod/apps/gaussian/g09d1/l502.exe)
 Closed shell SCF:
 Using DIIS extrapolation, IDIIS=  1040.
 Integral symmetry usage will be decided dynamically.
 Keep R1 ints in memory in canonical form, NReq=25653273.
 IVT=       61948 IEndB=       61948 NGot=  2147483648 MDV=  2122770970
 LenX=  2122770970 LenY=  2122756605
 Requested convergence on RMS density matrix=1.00D-08 within 128 cycles.
 Requested convergence on MAX density matrix=1.00D-06.
 Requested convergence on             energy=1.00D-06.
 No special actions if energy rises.
 FoFCou: FMM=F IPFlag=           0 FMFlag=           0 FMFlg1=           0
         NFxFlg=           0 DoJE=F BraDBF=F KetDBF=F FulRan=T
         wScrn=  0.000000 ICntrl=     600 IOpCl=  0 I1Cent=           0 NGrid=           0
         NMat0=    1 NMatS0=   7021 NMatT0=    0 NMatD0=    1 NMtDS0=    0 NMtDT0=    0
 Symmetry not used in FoFCou.
 Integral accuracy reduced to 1.0D-05 until final iterations.

 Cycle   1  Pass 0  IDiag  1:
 E= -236.798532459440    
 DIIS: error= 4.20D-02 at cycle   1 NSaved=   1.
 NSaved= 1 IEnMin= 1 EnMin= -236.798532459440     IErMin= 1 ErrMin= 4.20D-02
 ErrMax= 4.20D-02  0.00D+00 EMaxC= 1.00D-01 BMatC= 2.53D-01 BMatP= 2.53D-01
 IDIUse=3 WtCom= 5.80D-01 WtEn= 4.20D-01
 Coeff-Com:  0.100D+01
 Coeff-En:   0.100D+01
 Coeff:      0.100D+01
 Gap=     0.347 Goal=   None    Shift=    0.000
 GapD=    0.347 DampG=1.000 DampE=0.500 DampFc=0.5000 IDamp=-1.
 Damping current iteration by 5.00D-01
 RMSDP=1.01D-02 MaxDP=1.44D-01              OVMax= 1.86D-01

 Cycle   2  Pass 0  IDiag  1:
 E= -236.924508917506     Delta-E=       -0.125976458066 Rises=F Damp=T
 DIIS: error= 7.94D-03 at cycle   2 NSaved=   2.
 NSaved= 2 IEnMin= 2 EnMin= -236.924508917506     IErMin= 2 ErrMin= 7.94D-03
 ErrMax= 7.94D-03  0.00D+00 EMaxC= 1.00D-01 BMatC= 1.01D-02 BMatP= 2.53D-01
 IDIUse=3 WtCom= 9.21D-01 WtEn= 7.94D-02
 Coeff-Com:  0.786D-01 0.921D+00
 Coeff-En:   0.130D+00 0.870D+00
 Coeff:      0.827D-01 0.917D+00
 Gap=     0.403 Goal=   None    Shift=    0.000
 RMSDP=1.63D-03 MaxDP=2.39D-02 DE=-1.26D-01 OVMax= 9.98D-02

 Cycle   3  Pass 0  IDiag  1:
 E= -237.081874065847     Delta-E=       -0.157365148341 Rises=F Damp=F
 DIIS: error= 2.10D-03 at cycle   3 NSaved=   3.
 NSaved= 3 IEnMin= 3 EnMin= -237.081874065847     IErMin= 3 ErrMin= 2.10D-03
 ErrMax= 2.10D-03  0.00D+00 EMaxC= 1.00D-01 BMatC= 1.04D-03 BMatP= 1.01D-02
 IDIUse=3 WtCom= 9.79D-01 WtEn= 2.10D-02
 Coeff-Com:  0.221D-02 0.182D+00 0.816D+00
 Coeff-En:   0.000D+00 0.000D+00 0.100D+01
 Coeff:      0.216D-02 0.178D+00 0.820D+00
 Gap=     0.391 Goal=   None    Shift=    0.000
 RMSDP=5.12D-04 MaxDP=1.09D-02 DE=-1.57D-01 OVMax= 9.09D-03

 Cycle   4  Pass 0  IDiag  1:
 E= -237.082425054223     Delta-E=       -0.000550988375 Rises=F Damp=F
 DIIS: error= 1.50D-03 at cycle   4 NSaved=   4.
 NSaved= 4 IEnMin= 4 EnMin= -237.082425054223     IErMin= 4 ErrMin= 1.50D-03
 ErrMax= 1.50D-03  0.00D+00 EMaxC= 1.00D-01 BMatC= 5.08D-04 BMatP= 1.04D-03
 IDIUse=3 WtCom= 9.85D-01 WtEn= 1.50D-02
 Coeff-Com: -0.240D-02 0.354D-01 0.420D+00 0.547D+00
 Coeff-En:   0.000D+00 0.000D+00 0.312D+00 0.688D+00
 Coeff:     -0.237D-02 0.349D-01 0.418D+00 0.549D+00
 Gap=     0.393 Goal=   None    Shift=    0.000
 RMSDP=2.08D-04 MaxDP=4.12D-03 DE=-5.51D-04 OVMax= 4.63D-03

 Cycle   5  Pass 0  IDiag  1:
 E= -237.082909550154     Delta-E=       -0.000484495932 Rises=F Damp=F
 DIIS: error= 1.96D-04 at cycle   5 NSaved=   5.
 NSaved= 5 IEnMin= 5 EnMin= -237.082909550154     IErMin= 5 ErrMin= 1.96D-04
 ErrMax= 1.96D-04  0.00D+00 EMaxC= 1.00D-01 BMatC= 1.38D-05 BMatP= 5.08D-04
 IDIUse=3 WtCom= 9.98D-01 WtEn= 1.96D-03
 Coeff-Com: -0.430D-03-0.362D-03 0.981D-01 0.206D+00 0.697D+00
 Coeff-En:   0.000D+00 0.000D+00 0.000D+00 0.000D+00 0.100D+01
 Coeff:     -0.430D-03-0.361D-03 0.979D-01 0.206D+00 0.697D+00
 Gap=     0.393 Goal=   None    Shift=    0.000
 RMSDP=2.90D-05 MaxDP=6.83D-04 DE=-4.84D-04 OVMax= 6.48D-04

 Cycle   6  Pass 0  IDiag  1:
 E= -237.082922428313     Delta-E=       -0.000012878158 Rises=F Damp=F
 DIIS: error= 2.02D-05 at cycle   6 NSaved=   6.
 NSaved= 6 IEnMin= 6 EnMin= -237.082922428313     IErMin= 6 ErrMin= 2.02D-05
 ErrMax= 2.02D-05  0.00D+00 EMaxC= 1.00D-01 BMatC= 1.20D-07 BMatP= 1.38D-05
 IDIUse=1 WtCom= 1.00D+00 WtEn= 0.00D+00
 Coeff-Com: -0.218D-04-0.624D-03 0.249D-01 0.561D-01 0.212D+00 0.707D+00
 Coeff:     -0.218D-04-0.624D-03 0.249D-01 0.561D-01 0.212D+00 0.707D+00
 Gap=     0.393 Goal=   None    Shift=    0.000
 RMSDP=4.51D-06 MaxDP=7.37D-05 DE=-1.29D-05 OVMax= 9.19D-05

 Initial convergence to 1.0D-05 achieved.  Increase integral accuracy.
 Cycle   7  Pass 1  IDiag  1:
 E= -237.082839286517     Delta-E=        0.000083141796 Rises=F Damp=F
 DIIS: error= 1.12D-05 at cycle   1 NSaved=   1.
 NSaved= 1 IEnMin= 1 EnMin= -237.082839286517     IErMin= 1 ErrMin= 1.12D-05
 ErrMax= 1.12D-05  0.00D+00 EMaxC= 1.00D-01 BMatC= 5.44D-08 BMatP= 5.44D-08
 IDIUse=1 WtCom= 1.00D+00 WtEn= 0.00D+00
 Coeff-Com:  0.100D+01
 Coeff:      0.100D+01
 Gap=     0.393 Goal=   None    Shift=    0.000
 RMSDP=4.51D-06 MaxDP=7.37D-05 DE= 8.31D-05 OVMax= 7.93D-05

 Cycle   8  Pass 1  IDiag  1:
 E= -237.082839329003     Delta-E=       -0.000000042486 Rises=F Damp=F
 DIIS: error= 1.07D-05 at cycle   2 NSaved=   2.
 NSaved= 2 IEnMin= 2 EnMin= -237.082839329003     IErMin= 2 ErrMin= 1.07D-05
 ErrMax= 1.07D-05  0.00D+00 EMaxC= 1.00D-01 BMatC= 2.98D-08 BMatP= 5.44D-08
 IDIUse=1 WtCom= 1.00D+00 WtEn= 0.00D+00
 Coeff-Com:  0.405D+00 0.595D+00
 Coeff:      0.405D+00 0.595D+00
 Gap=     0.393 Goal=   None    Shift=    0.000
 RMSDP=1.80D-06 MaxDP=4.00D-05 DE=-4.25D-08 OVMax= 4.74D-05

 Cycle   9  Pass 1  IDiag  1:
 E= -237.082839354956     Delta-E=       -0.000000025953 Rises=F Damp=F
 DIIS: error= 3.77D-06 at cycle   3 NSaved=   3.
 NSaved= 3 IEnMin= 3 EnMin= -237.082839354956     IErMin= 3 ErrMin= 3.77D-06
 ErrMax= 3.77D-06  0.00D+00 EMaxC= 1.00D-01 BMatC= 3.70D-09 BMatP= 2.98D-08
 IDIUse=1 WtCom= 1.00D+00 WtEn= 0.00D+00
 Coeff-Com: -0.184D-01 0.252D+00 0.766D+00
 Coeff:     -0.184D-01 0.252D+00 0.766D+00
 Gap=     0.393 Goal=   None    Shift=    0.000
 RMSDP=5.06D-07 MaxDP=1.05D-05 DE=-2.60D-08 OVMax= 1.38D-05

 Cycle  10  Pass 1  IDiag  1:
 E= -237.082839358640     Delta-E=       -0.000000003684 Rises=F Damp=F
 DIIS: error= 2.44D-07 at cycle   4 NSaved=   4.
 NSaved= 4 IEnMin= 4 EnMin= -237.082839358640     IErMin= 4 ErrMin= 2.44D-07
 ErrMax= 2.44D-07  0.00D+00 EMaxC= 1.00D-01 BMatC= 2.52D-11 BMatP= 3.70D-09
 IDIUse=1 WtCom= 1.00D+00 WtEn= 0.00D+00
 Coeff-Com: -0.953D-02 0.751D-01 0.248D+00 0.686D+00
 Coeff:     -0.953D-02 0.751D-01 0.248D+00 0.686D+00
 Gap=     0.393 Goal=   None    Shift=    0.000
 RMSDP=5.59D-08 MaxDP=1.34D-06 DE=-3.68D-09 OVMax= 1.14D-06

 Cycle  11  Pass 1  IDiag  1:
 E= -237.082839358663     Delta-E=       -0.000000000023 Rises=F Damp=F
 DIIS: error= 1.20D-07 at cycle   5 NSaved=   5.
 NSaved= 5 IEnMin= 5 EnMin= -237.082839358663     IErMin= 5 ErrMin= 1.20D-07
 ErrMax= 1.20D-07  0.00D+00 EMaxC= 1.00D-01 BMatC= 3.97D-12 BMatP= 2.52D-11
 IDIUse=1 WtCom= 1.00D+00 WtEn= 0.00D+00
 Coeff-Com: -0.309D-02 0.188D-01 0.672D-01 0.325D+00 0.592D+00
 Coeff:     -0.309D-02 0.188D-01 0.672D-01 0.325D+00 0.592D+00
 Gap=     0.393 Goal=   None    Shift=    0.000
 RMSDP=2.00D-08 MaxDP=4.46D-07 DE=-2.31D-11 OVMax= 3.95D-07

 Cycle  12  Pass 1  IDiag  1:
 E= -237.082839358670     Delta-E=       -0.000000000007 Rises=F Damp=F
 DIIS: error= 2.49D-08 at cycle   6 NSaved=   6.
 NSaved= 6 IEnMin= 6 EnMin= -237.082839358670     IErMin= 6 ErrMin= 2.49D-08
 ErrMax= 2.49D-08  0.00D+00 EMaxC= 1.00D-01 BMatC= 1.24D-13 BMatP= 3.97D-12
 IDIUse=1 WtCom= 1.00D+00 WtEn= 0.00D+00
 Coeff-Com: -0.293D-03 0.263D-03 0.271D-02 0.449D-01 0.187D+00 0.765D+00
 Coeff:     -0.293D-03 0.263D-03 0.271D-02 0.449D-01 0.187D+00 0.765D+00
 Gap=     0.393 Goal=   None    Shift=    0.000
 RMSDP=4.29D-09 MaxDP=6.47D-08 DE=-6.71D-12 OVMax= 8.10D-08

 SCF Done:  E(RB3LYP) =  -237.082839359     A.U. after   12 cycles
            NFock= 12  Conv=0.43D-08     -V/T= 2.0102
 KE= 2.346855091565D+02 PE=-1.060501454074D+03 EE= 3.319649342741D+02
 Leave Link  502 at Thu Nov 12 20:33:52 2020, MaxMem=  2147483648 cpu:        25.2
 (Enter /prod/apps/gaussian/g09d1/l601.exe)
 Copying SCF densities to generalized density rwf, IOpCl= 0 IROHF=0.

 **********************************************************************

            Population analysis using the SCF density.

 **********************************************************************

 Orbital symmetries:
       Occupied  (A) (A) (A) (A) (A) (A) (A) (A) (A) (A) (A) (A)
                 (A) (A) (A) (A) (A) (A) (A) (A) (A) (A) (A) (A)
                 (A)
       Virtual   (A) (A) (A) (A) (A) (A) (A) (A) (A) (A) (A) (A)
                 (A) (A) (A) (A) (A) (A) (A) (A) (A) (A) (A) (A)
                 (A) (A) (A) (A) (A) (A) (A) (A) (A) (A) (A) (A)
                 (A) (A) (A) (A) (A) (A) (A) (A) (A) (A) (A) (A)
                 (A) (A) (A) (A) (A) (A) (A) (A) (A) (A) (A) (A)
                 (A) (A) (A) (A) (A) (A) (A) (A) (A) (A) (A) (A)
                 (A) (A) (A) (A) (A) (A) (A) (A) (A) (A) (A) (A)
                 (A) (A) (A) (A) (A) (A) (A) (A) (A)
 The electronic state is 1-A.
 Alpha  occ. eigenvalues --  -10.17974 -10.17359 -10.17315 -10.16896 -10.16889
 Alpha  occ. eigenvalues --  -10.16693  -0.80867  -0.74272  -0.70948  -0.63680
 Alpha  occ. eigenvalues --   -0.60417  -0.54859  -0.45882  -0.44254  -0.43473
 Alpha  occ. eigenvalues --   -0.41198  -0.40378  -0.37877  -0.36301  -0.35883
 Alpha  occ. eigenvalues --   -0.34575  -0.33726  -0.31358  -0.30579  -0.30344
 Alpha virt. eigenvalues --    0.08931   0.11038   0.12165   0.12791   0.15559
 Alpha virt. eigenvalues --    0.15825   0.16796   0.17267   0.17946   0.18505
 Alpha virt. eigenvalues --    0.19065   0.19643   0.22426   0.23613   0.25267
 Alpha virt. eigenvalues --    0.25890   0.26472   0.27835   0.28546   0.49914
 Alpha virt. eigenvalues --    0.50370   0.51301   0.52725   0.53874   0.58152
 Alpha virt. eigenvalues --    0.59703   0.62586   0.65334   0.66348   0.67901
 Alpha virt. eigenvalues --    0.70036   0.75421   0.76617   0.80239   0.83715
 Alpha virt. eigenvalues --    0.86526   0.88329   0.88546   0.89325   0.91246
 Alpha virt. eigenvalues --    0.92215   0.92524   0.92919   0.94512   0.96234
 Alpha virt. eigenvalues --    0.96969   0.97570   0.98839   1.00499   1.02793
 Alpha virt. eigenvalues --    1.04108   1.07481   1.26185   1.36468   1.41602
 Alpha virt. eigenvalues --    1.42528   1.56369   1.59031   1.61493   1.68879
 Alpha virt. eigenvalues --    1.72910   1.76966   1.83666   1.87661   1.89877
 Alpha virt. eigenvalues --    1.92352   1.95254   1.98516   2.01898   2.02318
 Alpha virt. eigenvalues --    2.03289   2.12040   2.14463   2.18723   2.27287
 Alpha virt. eigenvalues --    2.28814   2.31092   2.32483   2.34618   2.37796
 Alpha virt. eigenvalues --    2.42729   2.46680   2.53108   2.65502   2.68715
 Alpha virt. eigenvalues --    2.77113   2.79538   4.12579   4.21692   4.27388
 Alpha virt. eigenvalues --    4.39664   4.44583   4.60350
          Condensed to atoms (all electrons):
               1          2          3          4          5          6
     1  C    5.074189   0.376847   0.377093   0.371052   0.372352  -0.039458
     2  H    0.376847   0.572262  -0.032930  -0.030639  -0.034412  -0.004373
     3  H    0.377093  -0.032930   0.579847  -0.031183  -0.035823   0.005445
     4  H    0.371052  -0.030639  -0.031183   0.578878  -0.027596  -0.002673
     5  C    0.372352  -0.034412  -0.035823  -0.027596   4.993316   0.369086
     6  H   -0.039458  -0.004373   0.005445  -0.002673   0.369086   0.619346
     7  H   -0.039355   0.005281  -0.004353  -0.003365   0.371226  -0.039124
     8  C   -0.038772  -0.005210  -0.004893   0.004057   0.391144  -0.038363
     9  C    0.004511   0.000032   0.000071  -0.000148  -0.048117  -0.003794
    10  H    0.000023   0.000001   0.000009   0.000003  -0.005860   0.004775
    11  H    0.000028   0.000003  -0.000004  -0.000005  -0.005038  -0.000258
    12  H   -0.000164   0.000003  -0.000001   0.000002   0.004831  -0.000107
    13  H   -0.005179  -0.000159   0.005936  -0.000006  -0.049264   0.006745
    14  C   -0.005716   0.001211  -0.000402   0.000183  -0.043318  -0.008800
    15  H    0.001854   0.005523   0.000298  -0.000151  -0.006218  -0.000150
    16  H   -0.000144   0.000222   0.000051  -0.000022  -0.004401   0.005746
    17  C    0.000135  -0.000186  -0.000029   0.000000   0.004352   0.000036
    18  H   -0.000015   0.000015   0.000000   0.000000   0.000072   0.000011
    19  H    0.000001   0.000011   0.000000   0.000000  -0.000143   0.000000
    20  H   -0.000005   0.000001   0.000001   0.000000   0.000011  -0.000001
               7          8          9         10         11         12
     1  C   -0.039355  -0.038772   0.004511   0.000023   0.000028  -0.000164
     2  H    0.005281  -0.005210   0.000032   0.000001   0.000003   0.000003
     3  H   -0.004353  -0.004893   0.000071   0.000009  -0.000004  -0.000001
     4  H   -0.003365   0.004057  -0.000148   0.000003  -0.000005   0.000002
     5  C    0.371226   0.391144  -0.048117  -0.005860  -0.005038   0.004831
     6  H   -0.039124  -0.038363  -0.003794   0.004775  -0.000258  -0.000107
     7  H    0.618018  -0.037434  -0.005394  -0.000288   0.005860   0.000038
     8  C   -0.037434   4.856302   0.377228  -0.034470  -0.029723  -0.028485
     9  C   -0.005394   0.377228   5.118799   0.371507   0.369499   0.369125
    10  H   -0.000288  -0.034470   0.371507   0.584560  -0.031763  -0.032225
    11  H    0.005860  -0.029723   0.369499  -0.031763   0.580963  -0.029892
    12  H    0.000038  -0.028485   0.369125  -0.032225  -0.029892   0.576217
    13  H   -0.003184   0.374929  -0.047329   0.006002  -0.003366  -0.003234
    14  C    0.005352   0.393938  -0.050091  -0.005990   0.005162  -0.004731
    15  H    0.000040  -0.038686   0.005742  -0.000013  -0.000183  -0.000037
    16  H   -0.000059  -0.039041  -0.008422   0.005912  -0.000015  -0.000049
    17  C   -0.000168  -0.039484  -0.004649  -0.000225   0.000079   0.001843
    18  H    0.000001  -0.004642  -0.000468   0.000067  -0.000024   0.000329
    19  H    0.000002   0.004074   0.000114  -0.000022   0.000001  -0.000100
    20  H   -0.000001  -0.005388   0.002269   0.000242  -0.000143   0.003523
              13         14         15         16         17         18
     1  C   -0.005179  -0.005716   0.001854  -0.000144   0.000135  -0.000015
     2  H   -0.000159   0.001211   0.005523   0.000222  -0.000186   0.000015
     3  H    0.005936  -0.000402   0.000298   0.000051  -0.000029   0.000000
     4  H   -0.000006   0.000183  -0.000151  -0.000022   0.000000   0.000000
     5  C   -0.049264  -0.043318  -0.006218  -0.004401   0.004352   0.000072
     6  H    0.006745  -0.008800  -0.000150   0.005746   0.000036   0.000011
     7  H   -0.003184   0.005352   0.000040  -0.000059  -0.000168   0.000001
     8  C    0.374929   0.393938  -0.038686  -0.039041  -0.039484  -0.004642
     9  C   -0.047329  -0.050091   0.005742  -0.008422  -0.004649  -0.000468
    10  H    0.006002  -0.005990  -0.000013   0.005912  -0.000225   0.000067
    11  H   -0.003366   0.005162  -0.000183  -0.000015   0.000079  -0.000024
    12  H   -0.003234  -0.004731  -0.000037  -0.000049   0.001843   0.000329
    13  H    0.651405  -0.051015  -0.003207   0.006772  -0.005138   0.005832
    14  C   -0.051015   4.997287   0.373663   0.369402   0.371078  -0.035935
    15  H   -0.003207   0.373663   0.608411  -0.039108  -0.038220  -0.004262
    16  H    0.006772   0.369402  -0.039108   0.618859  -0.039659   0.005412
    17  C   -0.005138   0.371078  -0.038220  -0.039659   5.071540   0.377210
    18  H    0.005832  -0.035935  -0.004262   0.005412   0.377210   0.579939
    19  H   -0.000005  -0.027792  -0.003197  -0.002547   0.371617  -0.031336
    20  H   -0.000225  -0.033894   0.005095  -0.004472   0.378063  -0.033089
              19         20
     1  C    0.000001  -0.000005
     2  H    0.000011   0.000001
     3  H    0.000000   0.000001
     4  H    0.000000   0.000000
     5  C   -0.000143   0.000011
     6  H    0.000000  -0.000001
     7  H    0.000002  -0.000001
     8  C    0.004074  -0.005388
     9  C    0.000114   0.002269
    10  H   -0.000022   0.000242
    11  H    0.000001  -0.000143
    12  H   -0.000100   0.003523
    13  H   -0.000005  -0.000225
    14  C   -0.027792  -0.033894
    15  H   -0.003197   0.005095
    16  H   -0.002547  -0.004472
    17  C    0.371617   0.378063
    18  H   -0.031336  -0.033089
    19  H    0.579559  -0.031227
    20  H   -0.031227   0.573814
 Mulliken charges:
               1
     1  C   -0.449277
     2  H    0.146497
     3  H    0.140866
     4  H    0.141614
     5  C   -0.246201
     6  H    0.125910
     7  H    0.126905
     8  C   -0.057081
     9  C   -0.450485
    10  H    0.137755
    11  H    0.138819
    12  H    0.143115
    13  H    0.113689
    14  C   -0.249594
    15  H    0.132805
    16  H    0.125562
    17  C   -0.448195
    18  H    0.140884
    19  H    0.140989
    20  H    0.145424
 Sum of Mulliken charges =   0.00000
 Mulliken charges with hydrogens summed into heavy atoms:
               1
     1  C   -0.020301
     5  C    0.006613
     8  C    0.056609
     9  C   -0.030796
    14  C    0.008773
    17  C   -0.020898
 Electronic spatial extent (au):  <R**2>=            820.7669
 Charge=              0.0000 electrons
 Dipole moment (field-independent basis, Debye):
    X=             -0.0422    Y=             -0.0243    Z=             -0.0100  Tot=              0.0497
 Quadrupole moment (field-independent basis, Debye-Ang):
   XX=            -41.8843   YY=            -41.7869   ZZ=            -41.1775
   XY=             -0.1975   XZ=              0.1183   YZ=             -0.1492
 Traceless Quadrupole moment (field-independent basis, Debye-Ang):
   XX=             -0.2681   YY=             -0.1706   ZZ=              0.4387
   XY=             -0.1975   XZ=              0.1183   YZ=             -0.1492
 Octapole moment (field-independent basis, Debye-Ang**2):
  XXX=             -0.9818  YYY=             -1.4374  ZZZ=             -0.1894  XYY=              0.0497
  XXY=              1.2624  XXZ=              0.5854  XZZ=             -0.1272  YZZ=              0.0720
  YYZ=             -0.0833  XYZ=              0.1756
 Hexadecapole moment (field-independent basis, Debye-Ang**3):
 XXXX=           -689.0799 YYYY=           -347.5664 ZZZZ=           -100.2102 XXXY=              0.5717
 XXXZ=             -0.5831 YYYX=             -4.9034 YYYZ=             -3.3780 ZZZX=              0.6337
 ZZZY=              2.2969 XXYY=           -173.4070 XXZZ=           -132.4009 YYZZ=            -74.6179
 XXYZ=             -2.5835 YYXZ=              1.1661 ZZXY=             -0.4320
 N-N= 2.567681712848D+02 E-N=-1.060501457619D+03  KE= 2.346855091565D+02
 No NMR shielding tensors so no spin-rotation constants.
 Leave Link  601 at Thu Nov 12 20:33:53 2020, MaxMem=  2147483648 cpu:         0.1
 (Enter /prod/apps/gaussian/g09d1/l9999.exe)
 1\1\GINC-PIRINEUS41\SP\RB3LYP\6-31G(d)\C6H14\UBAFAR01\12-Nov-2020\0\\#
 p b3lyp/6-31G(d)\\SET_328_BBB23_conf1_geo_300_180.n.pdb.xyz\\0,1\C,0,0
 .848,1.515,-1.717\H,0,0.673,2.291,-0.966\H,0,-0.028,1.484,-2.374\H,0,1
 .706,1.828,-2.32\C,0,1.1,0.149,-1.076\H,0,1.998,0.2,-0.444\H,0,1.331,-
 0.575,-1.869\C,0,-0.068,-0.401,-0.24\C,0,0.195,-1.869,0.125\H,0,1.093,
 -1.958,0.746\H,0,0.354,-2.471,-0.776\H,0,-0.639,-2.311,0.68\H,0,-0.97,
 -0.364,-0.869\C,0,-0.33,0.461,1.008\H,0,-0.389,1.514,0.709\H,0,0.537,0
 .383,1.677\C,0,-1.604,0.099,1.777\H,0,-2.487,0.185,1.135\H,0,-1.749,0.
 767,2.632\H,0,-1.572,-0.925,2.161\\Version=AM64L-G09RevD.01\State=1-A\
 HF=-237.0828394\RMSD=4.286e-09\Dipole=0.0030218,0.0138447,-0.0134718\Q
 uadrupole=0.0500309,-0.1962098,0.1461788,0.0225809,0.2163213,0.2103164
 \PG=C01 [X(C6H14)]\\@


 DIATOMIC MOLECULES ARE PECULIAR BECAUSE THEY ONLY HAVE TWO ENDS,
 AND THESE ENDS ARE VERY CLOSE TOGETHER.
 KLAUS RUEDENBERG, REV.MOD.PHYS. PG 176, 32, (1960)
 Job cpu time:       0 days  0 hours  0 minutes 27.1 seconds.
 File lengths (MBytes):  RWF=      8 Int=      0 D2E=      0 Chk=      2 Scr=      1
 Normal termination of Gaussian 09 at Thu Nov 12 20:33:53 2020.
 Initial command:
 /prod/apps/gaussian/g09d1/l1.exe "/tmp/ubafar01/1496617/Gau-83988.inp" -scrdir="/tmp/ubafar01/1496617/"
 Entering Link 1 = /prod/apps/gaussian/g09d1/l1.exe PID=     84045.
  
 Copyright (c) 1988,1990,1992,1993,1995,1998,2003,2009,2013,
            Gaussian, Inc.  All Rights Reserved.
  
 This is part of the Gaussian(R) 09 program.  It is based on
 the Gaussian(R) 03 system (copyright 2003, Gaussian, Inc.),
 the Gaussian(R) 98 system (copyright 1998, Gaussian, Inc.),
 the Gaussian(R) 94 system (copyright 1995, Gaussian, Inc.),
 the Gaussian 92(TM) system (copyright 1992, Gaussian, Inc.),
 the Gaussian 90(TM) system (copyright 1990, Gaussian, Inc.),
 the Gaussian 88(TM) system (copyright 1988, Gaussian, Inc.),
 the Gaussian 86(TM) system (copyright 1986, Carnegie Mellon
 University), and the Gaussian 82(TM) system (copyright 1983,
 Carnegie Mellon University). Gaussian is a federally registered
 trademark of Gaussian, Inc.
  
 This software contains proprietary and confidential information,
 including trade secrets, belonging to Gaussian, Inc.
  
 This software is provided under written license and may be
 used, copied, transmitted, or stored only in accord with that
 written license.
  
 The following legend is applicable only to US Government
 contracts under FAR:
  
                    RESTRICTED RIGHTS LEGEND
  
 Use, reproduction and disclosure by the US Government is
 subject to restrictions as set forth in subparagraphs (a)
 and (c) of the Commercial Computer Software - Restricted
 Rights clause in FAR 52.227-19.
  
 Gaussian, Inc.
 340 Quinnipiac St., Bldg. 40, Wallingford CT 06492
  
  
 ---------------------------------------------------------------
 Warning -- This program may not be used in any manner that
 competes with the business of Gaussian, Inc. or will provide
 assistance to any competitor of Gaussian, Inc.  The licensee
 of this program is prohibited from giving any competitor of
 Gaussian, Inc. access to this program.  By using this program,
 the user acknowledges that Gaussian, Inc. is engaged in the
 business of creating and licensing software in the field of
 computational chemistry and represents and warrants to the
 licensee that it is not a competitor of Gaussian, Inc. and that
 it will not use this program in any manner prohibited above.
 ---------------------------------------------------------------
  

 Cite this work as:
 Gaussian 09, Revision D.01,
 M. J. Frisch, G. W. Trucks, H. B. Schlegel, G. E. Scuseria, 
 M. A. Robb, J. R. Cheeseman, G. Scalmani, V. Barone, B. Mennucci, 
 G. A. Petersson, H. Nakatsuji, M. Caricato, X. Li, H. P. Hratchian, 
 A. F. Izmaylov, J. Bloino, G. Zheng, J. L. Sonnenberg, M. Hada, 
 M. Ehara, K. Toyota, R. Fukuda, J. Hasegawa, M. Ishida, T. Nakajima, 
 Y. Honda, O. Kitao, H. Nakai, T. Vreven, J. A. Montgomery, Jr., 
 J. E. Peralta, F. Ogliaro, M. Bearpark, J. J. Heyd, E. Brothers, 
 K. N. Kudin, V. N. Staroverov, T. Keith, R. Kobayashi, J. Normand, 
 K. Raghavachari, A. Rendell, J. C. Burant, S. S. Iyengar, J. Tomasi, 
 M. Cossi, N. Rega, J. M. Millam, M. Klene, J. E. Knox, J. B. Cross, 
 V. Bakken, C. Adamo, J. Jaramillo, R. Gomperts, R. E. Stratmann, 
 O. Yazyev, A. J. Austin, R. Cammi, C. Pomelli, J. W. Ochterski, 
 R. L. Martin, K. Morokuma, V. G. Zakrzewski, G. A. Voth, 
 P. Salvador, J. J. Dannenberg, S. Dapprich, A. D. Daniels, 
 O. Farkas, J. B. Foresman, J. V. Ortiz, J. Cioslowski, 
 and D. J. Fox, Gaussian, Inc., Wallingford CT, 2013.
 
 ******************************************
 Gaussian 09:  AM64L-G09RevD.01 24-Apr-2013
                12-Nov-2020 
 ******************************************
 %nproc=1
 Will use up to    1 processors via shared memory.
 %Chk=SET_328_BBB23_conf1_geo_300_180.n.pdb.xyz.mst.n.w.chk
 %mem=16GB
 %subst l502 /dades/curu/work_g09D01_MST_AddSphPartition_ReadGammas/exe-dir/
 ----------------------------------------------------------------------
 #p b3lyp/6-31G(d) scrf=(iefpcm,read,solvent=Water) geom=allcheck guess
 =read
 ----------------------------------------------------------------------
 1/29=7,38=1,40=2/1;
 2/12=2,40=1/2;
 3/5=1,6=6,7=1,11=2,14=-4,16=1,25=1,30=1,70=2203,72=1,74=-5,116=-2/1,2,3;
 4/5=1/1;
 5/5=2,38=6,53=1/2;
 6/7=2,8=2,9=2,10=2,28=1/1;
 99/5=1,9=1/99;
 Leave Link    1 at Thu Nov 12 20:33:53 2020, MaxMem=  2147483648 cpu:         0.0
 (Enter /prod/apps/gaussian/g09d1/l101.exe)
 Structure from the checkpoint file:  "SET_328_BBB23_conf1_geo_300_180.n.pdb.xyz.mst.n.w.chk"
 -----------------------------------------
 SET_328_BBB23_conf1_geo_300_180.n.pdb.xyz
 -----------------------------------------
 Charge =  0 Multiplicity = 1
 Z-Matrix found in file.
 C,0,0.848,1.515,-1.717
 H,0,0.673,2.291,-0.966
 H,0,-0.028,1.484,-2.374
 H,0,1.706,1.828,-2.32
 C,0,1.1,0.149,-1.076
 H,0,1.998,0.2,-0.444
 H,0,1.331,-0.575,-1.869
 C,0,-0.068,-0.401,-0.24
 C,0,0.195,-1.869,0.125
 H,0,1.093,-1.958,0.746
 H,0,0.354,-2.471,-0.776
 H,0,-0.639,-2.311,0.68
 H,0,-0.97,-0.364,-0.869
 C,0,-0.33,0.461,1.008
 H,0,-0.389,1.514,0.709
 H,0,0.537,0.383,1.677
 C,0,-1.604,0.099,1.777
 H,0,-2.487,0.185,1.135
 H,0,-1.749,0.767,2.632
 H,0,-1.572,-0.925,2.161
 Recover connectivity data from disk.
 NAtoms=     20 NQM=       20 NQMF=       0 NMMI=      0 NMMIF=      0
                NMic=       0 NMicF=      0.
                    Isotopes and Nuclear Properties:
 (Nuclear quadrupole moments (NQMom) in fm**2, nuclear magnetic moments (NMagM)
  in nuclear magnetons)

  Atom         1           2           3           4           5           6           7           8           9          10
 IAtWgt=          12           1           1           1          12           1           1          12          12           1
 AtmWgt=  12.0000000   1.0078250   1.0078250   1.0078250  12.0000000   1.0078250   1.0078250  12.0000000  12.0000000   1.0078250
 NucSpn=           0           1           1           1           0           1           1           0           0           1
 AtZEff=  -3.6000000  -1.0000000  -1.0000000  -1.0000000  -3.6000000  -1.0000000  -1.0000000  -3.6000000  -3.6000000  -1.0000000
 NQMom=    0.0000000   0.0000000   0.0000000   0.0000000   0.0000000   0.0000000   0.0000000   0.0000000   0.0000000   0.0000000
 NMagM=    0.0000000   2.7928460   2.7928460   2.7928460   0.0000000   2.7928460   2.7928460   0.0000000   0.0000000   2.7928460
 AtZNuc=   6.0000000   1.0000000   1.0000000   1.0000000   6.0000000   1.0000000   1.0000000   6.0000000   6.0000000   1.0000000

  Atom        11          12          13          14          15          16          17          18          19          20
 IAtWgt=           1           1           1          12           1           1          12           1           1           1
 AtmWgt=   1.0078250   1.0078250   1.0078250  12.0000000   1.0078250   1.0078250  12.0000000   1.0078250   1.0078250   1.0078250
 NucSpn=           1           1           1           0           1           1           0           1           1           1
 AtZEff=  -1.0000000  -1.0000000  -1.0000000  -3.6000000  -1.0000000  -1.0000000  -3.6000000  -1.0000000  -1.0000000  -1.0000000
 NQMom=    0.0000000   0.0000000   0.0000000   0.0000000   0.0000000   0.0000000   0.0000000   0.0000000   0.0000000   0.0000000
 NMagM=    2.7928460   2.7928460   2.7928460   0.0000000   2.7928460   2.7928460   0.0000000   2.7928460   2.7928460   2.7928460
 AtZNuc=   1.0000000   1.0000000   1.0000000   6.0000000   1.0000000   1.0000000   6.0000000   1.0000000   1.0000000   1.0000000
 Leave Link  101 at Thu Nov 12 20:33:53 2020, MaxMem=  2147483648 cpu:         0.0
 (Enter /prod/apps/gaussian/g09d1/l202.exe)
                          Input orientation:                          
 ---------------------------------------------------------------------
 Center     Atomic      Atomic             Coordinates (Angstroms)
 Number     Number       Type             X           Y           Z
 ---------------------------------------------------------------------
      1          6           0        0.848000    1.515000   -1.717000
      2          1           0        0.673000    2.291000   -0.966000
      3          1           0       -0.028000    1.484000   -2.374000
      4          1           0        1.706000    1.828000   -2.320000
      5          6           0        1.100000    0.149000   -1.076000
      6          1           0        1.998000    0.200000   -0.444000
      7          1           0        1.331000   -0.575000   -1.869000
      8          6           0       -0.068000   -0.401000   -0.240000
      9          6           0        0.195000   -1.869000    0.125000
     10          1           0        1.093000   -1.958000    0.746000
     11          1           0        0.354000   -2.471000   -0.776000
     12          1           0       -0.639000   -2.311000    0.680000
     13          1           0       -0.970000   -0.364000   -0.869000
     14          6           0       -0.330000    0.461000    1.008000
     15          1           0       -0.389000    1.514000    0.709000
     16          1           0        0.537000    0.383000    1.677000
     17          6           0       -1.604000    0.099000    1.777000
     18          1           0       -2.487000    0.185000    1.135000
     19          1           0       -1.749000    0.767000    2.632000
     20          1           0       -1.572000   -0.925000    2.161000
 ---------------------------------------------------------------------
                    Distance matrix (angstroms):
                    1          2          3          4          5
     1  C    0.000000
     2  H    1.093984   0.000000
     3  H    1.095439   1.767799   0.000000
     4  H    1.094414   1.764872   1.768618   0.000000
     5  C    1.529817   2.186914   2.177019   2.175733   0.000000
     6  H    2.161540   2.529899   3.078674   2.501005   1.099286
     7  H    2.150463   3.076090   2.518211   2.473547   1.098356
     8  C    2.586821   2.884965   2.847592   3.527310   1.538057
     9  C    3.907791   4.327166   4.187761   4.682836   2.516694
    10  H    4.264754   4.600146   4.778954   4.910185   2.785531
    11  H    4.125253   4.776453   4.282704   4.763742   2.740605
    12  H    4.753426   5.060540   4.909405   5.624086   3.487013
    13  H    2.748612   3.123761   2.562712   3.751165   2.142643
    14  C    3.150274   2.872557   3.546217   4.133953   2.546625
    15  H    2.723168   2.130070   3.104208   3.696277   2.695658
    16  H    3.591292   3.262577   4.235803   4.408015   2.819705
    17  C    4.497265   4.184930   4.651108   5.543550   3.931123
    18  H    4.585306   4.339935   4.477406   5.676066   4.213833
    19  H    5.120324   4.597202   5.341907   6.130665   4.716777
    20  H    5.181591   5.016055   5.362224   6.197068   4.332578
                    6          7          8          9         10
     6  H    0.000000
     7  H    1.753893   0.000000
     8  C    2.161290   2.154325   0.000000
     9  C    2.802736   2.634572   1.535389   0.000000
    10  H    2.625279   2.967753   2.178157   1.095430   0.000000
    11  H    3.153918   2.396663   2.179514   1.095210   1.767986
    12  H    3.810809   3.659508   2.195573   1.094963   1.768838
    13  H    3.050860   2.517761   1.100279   2.147158   3.066762
    14  C    2.756086   3.479849   1.539218   2.546412   2.818711
    15  H    2.958678   3.737433   2.161219   3.482356   3.775245
    16  H    2.581986   3.757967   2.157677   2.756297   2.579957
    17  C    4.232900   4.728828   2.584102   3.136643   3.545140
    18  H    4.754860   4.917188   2.843516   3.525924   4.190486
    19  H    4.880909   5.616615   3.526807   4.124643   4.365728
    20  H    4.560323   4.979037   2.881214   2.856347   3.189285
                   11         12         13         14         15
    11  H    0.000000
    12  H    1.769628   0.000000
    13  H    2.490196   2.509934   0.000000
    14  C    3.499591   2.808389   2.147872   0.000000
    15  H    4.317117   3.833271   2.520819   1.096217   0.000000
    16  H    3.767760   3.103969   3.051422   1.097877   1.753186
    17  C    4.117824   2.818286   2.760007   1.531496   2.149203
    18  H    4.333306   3.138813   2.572685   2.178292   2.519786
    19  H    5.149924   3.810051   3.760718   2.178204   2.470939
    20  H    3.837390   2.232677   3.139749   2.189285   3.075145
                   16         17         18         19         20
    16  H    0.000000
    17  C    2.162068   0.000000
    18  H    3.078562   1.095102   0.000000
    19  H    2.507045   1.094657   1.767591   0.000000
    20  H    2.528438   1.094101   1.766919   1.765229   0.000000
 Stoichiometry    C6H14
 Framework group  C1[X(C6H14)]
 Deg. of freedom    54
 Full point group                 C1      NOp   1
 RotChk:  IX=0 Diff= 6.64D-16
 Largest Abelian subgroup         C1      NOp   1
 Largest concise Abelian subgroup C1      NOp   1
                         Standard orientation:                         
 ---------------------------------------------------------------------
 Center     Atomic      Atomic             Coordinates (Angstroms)
 Number     Number       Type             X           Y           Z
 ---------------------------------------------------------------------
      1          6           0       -2.268859   -0.854970   -0.178114
      2          1           0       -1.848058   -1.771230    0.246382
      3          1           0       -2.290219   -0.971850   -1.267091
      4          1           0       -3.303769   -0.776393    0.169058
      5          6           0       -1.462424    0.381298    0.223936
      6          1           0       -1.478898    0.490744    1.317635
      7          1           0       -1.963171    1.273653   -0.175238
      8          6           0       -0.001252    0.387406   -0.256232
      9          6           0        0.619414    1.772940   -0.027130
     10          1           0        0.640369    2.015291    1.040949
     11          1           0        0.034329    2.549138   -0.531786
     12          1           0        1.646513    1.831055   -0.402145
     13          1           0       -0.009155    0.193921   -1.339336
     14          6           0        0.822628   -0.726741    0.413910
     15          1           0        0.278227   -1.674375    0.328420
     16          1           0        0.893910   -0.512888    1.488396
     17          6           0        2.227967   -0.916338   -0.164497
     18          1           0        2.183619   -1.147479   -1.234009
     19          1           0        2.748249   -1.741560    0.332080
     20          1           0        2.843204   -0.019593   -0.044547
 ---------------------------------------------------------------------
 Rotational constants (GHZ):      4.6127899      2.2448386      1.6584907
 Leave Link  202 at Thu Nov 12 20:33:53 2020, MaxMem=  2147483648 cpu:         0.0
 (Enter /prod/apps/gaussian/g09d1/l301.exe)
 Standard basis: 6-31G(d) (6D, 7F)
 Ernie: Thresh=  0.10000D-02 Tol=  0.10000D-05 Strict=F.
 There are   118 symmetry adapted cartesian basis functions of A   symmetry.
 There are   118 symmetry adapted basis functions of A   symmetry.
   118 basis functions,   224 primitive gaussians,   118 cartesian basis functions
    25 alpha electrons       25 beta electrons
       nuclear repulsion energy       256.7681712848 Hartrees.
 IExCor=  402 DFT=T Ex+Corr=B3LYP ExCW=0 ScaHFX=  0.200000
 ScaDFX=  0.800000  0.720000  1.000000  0.810000 ScalE2=  1.000000  1.000000
 IRadAn=      0 IRanWt=     -1 IRanGd=            0 ICorTp=0 IEmpDi=  4
 NAtoms=   20 NActive=   20 NUniq=   20 SFac= 1.00D+00 NAtFMM=   60 NAOKFM=F Big=F
 Integral buffers will be    131072 words long.
 Raffenetti 2 integral format.
 Two-electron integral symmetry is turned on.
 Using the following non-standard input for PCM:
 MSTModel=DFT cav g03defaults OFac=0.8 Rmin=0.3
 Warning! Using old PCM defaults because the g03defaults keyword was found.
 These settings can be overridden by following keywords.
 --- end of non-standard input.
 MST model for solvation energy: B3LYP parametrization.
 MST cavity parameters:
 ISph   IAn     Re0     Alpha   Atom Type   QCorr
 ------------------------------------------------
   1      6     1.50     1.25      CH3        F
   2      1     1.20     1.25      CH3        F
   3      1     1.20     1.25      CH3        F
   4      1     1.20     1.25      CH3        F
   5      6     1.50     1.25      CH2        F
   6      1     1.20     1.25      CH2        F
   7      1     1.20     1.25      CH2        F
   8      6     1.50     1.25      CH         F
   9      6     1.50     1.25      CH3        F
  10      1     1.20     1.25      CH3        F
  11      1     1.20     1.25      CH3        F
  12      1     1.20     1.25      CH3        F
  13      1     1.20     1.25      CH         F
  14      6     1.50     1.25      CH2        F
  15      1     1.20     1.25      CH2        F
  16      1     1.20     1.25      CH2        F
  17      6     1.50     1.25      CH3        F
  18      1     1.20     1.25      CH3        F
  19      1     1.20     1.25      CH3        F
  20      1     1.20     1.25      CH3        F
 ------------------------------------------------------------------------------
 Polarizable Continuum Model (PCM)
 =================================
 Model                : PCM (using non-symmetric T matrix).
 Atomic radii         : MST.
 Polarization charges : Total charges.
 Charge compensation  : None.
 Solution method      : On-the-fly selection.
 Cavity type          : Scaled SES (Solvent Excluding Surface) (Alpha=1.250).
 Cavity algorithm     : GePol (RMin=0.300 OFac=0.800).
                        Default sphere list used, NSphG=   20.
                        Tesserae with average area of 0.200 Ang**2.
                        Smoothing algorithm: None.
                        Polarization charges: point-like.
                        Self-potential: constant (ISelfS= 1).
                        Self-field    : global E.n sum rule (ISelfD= 3).
 Solvent              : Water, Eps=  78.355300 Eps(inf)=   1.777849
                        RSolv=   1.385000 Ang.
 ------------------------------------------------------------------------------
 Spheres list:
 ISph  on   Nord     Re0    Alpha      Xe            Ye            Ze
    1   C      1    1.5000  1.250     -2.268859     -0.854970     -0.178114
    2   H      2    1.2000  1.250     -1.848058     -1.771230      0.246382
    3   H      3    1.2000  1.250     -2.290219     -0.971850     -1.267091
    4   H      4    1.2000  1.250     -3.303769     -0.776393      0.169058
    5   C      5    1.5000  1.250     -1.462424      0.381298      0.223936
    6   H      6    1.2000  1.250     -1.478898      0.490744      1.317635
    7   H      7    1.2000  1.250     -1.963171      1.273653     -0.175238
    8   C      8    1.5000  1.250     -0.001252      0.387406     -0.256232
    9   C      9    1.5000  1.250      0.619414      1.772940     -0.027130
   10   H     10    1.2000  1.250      0.640369      2.015291      1.040949
   11   H     11    1.2000  1.250      0.034329      2.549138     -0.531786
   12   H     12    1.2000  1.250      1.646513      1.831055     -0.402145
   13   H     13    1.2000  1.250     -0.009155      0.193921     -1.339336
   14   C     14    1.5000  1.250      0.822628     -0.726741      0.413910
   15   H     15    1.2000  1.250      0.278227     -1.674375      0.328420
   16   H     16    1.2000  1.250      0.893910     -0.512888      1.488396
   17   C     17    1.5000  1.250      2.227967     -0.916338     -0.164497
   18   H     18    1.2000  1.250      2.183619     -1.147479     -1.234009
   19   H     19    1.2000  1.250      2.748249     -1.741560      0.332080
   20   H     20    1.2000  1.250      2.843204     -0.019593     -0.044547
 ------------------------------------------------------------------------------
 GePol: Number of generator spheres                  =      20
 GePol: Total number of spheres                      =      49
 GePol: Number of exposed spheres                    =      42 ( 85.71%)
 GePol: Number of tesserae                           =    1398
 GePol: Average area of tesserae                     =       0.12 Ang**2
 GePol: Minimum area of tessera                      =   0.10D-02 Ang**2
 GePol: Maximum area of tessera                      =    0.30575 Ang**2
 GePol: Number of small tesserae                     =       7
 GePol: Fraction of small tesserae (<1% of avg)      =       0.50%
 GePol: Total count of vertices                      =    4913
 GePol: Maximum number of vertices in a tessera      =       7
 GePol: Cavity surface area                          =    174.391 Ang**2
 GePol: Cavity volume                                =    160.864 Ang**3
 PCM non-electrostatic energy =         0.0014043600 Hartrees.
 Nuclear repulsion after PCM non-electrostatic terms =      256.7695756448 Hartrees.
 Leave Link  301 at Thu Nov 12 20:33:53 2020, MaxMem=  2147483648 cpu:         0.1
 (Enter /prod/apps/gaussian/g09d1/l302.exe)
 NPDir=0 NMtPBC=     1 NCelOv=     1 NCel=       1 NClECP=     1 NCelD=      1
         NCelK=      1 NCelE2=     1 NClLst=     1 CellRange=     0.0.
 One-electron integrals computed using PRISM.
 NBasis=   118 RedAO= T EigKep=  3.83D-03  NBF=   118
 NBsUse=   118 1.00D-06 EigRej= -1.00D+00 NBFU=   118
 Precomputing XC quadrature grid using
 IXCGrd= 4 IRadAn=           0 IRanWt=          -1 IRanGd=           0 AccXCQ= 0.00D+00.
 Generated NRdTot=       0 NPtTot=           0 NUsed=           0 NTot=          32
 NSgBfM=   118   118   118   118   118 MxSgAt=    20 MxSgA2=    20.
 Leave Link  302 at Thu Nov 12 20:33:53 2020, MaxMem=  2147483648 cpu:         0.3
 (Enter /prod/apps/gaussian/g09d1/l303.exe)
 DipDrv:  MaxL=1.
 Leave Link  303 at Thu Nov 12 20:33:53 2020, MaxMem=  2147483648 cpu:         0.0
 (Enter /prod/apps/gaussian/g09d1/l401.exe)
 Initial guess from the checkpoint file:  "SET_328_BBB23_conf1_geo_300_180.n.pdb.xyz.mst.n.w.chk"
 B after Tr=     0.000000    0.000000    0.000000
         Rot=    1.000000    0.000000    0.000000    0.000000 Ang=   0.00 deg.
 Guess basis will be translated and rotated to current coordinates.
 JPrj=2 DoOrth=T DoCkMO=T.
 Leave Link  401 at Thu Nov 12 20:33:53 2020, MaxMem=  2147483648 cpu:         0.1
 (Enter /dades/curu/work_g09D01_MST_AddSphPartition_ReadGammas/exe-dir/l502.exe)
 Closed shell SCF:
 Using DIIS extrapolation, IDIIS=  1040.
 Integral symmetry usage will be decided dynamically.
 Keep R1 ints in memory in canonical form, NReq=29932915.
 IVT=       61948 IEndB=       61948 NGot=  2147483648 MDV=  2122770970
 LenX=  2122770970 LenY=  2122756605
 Requested convergence on RMS density matrix=1.00D-08 within 128 cycles.
 Requested convergence on MAX density matrix=1.00D-06.
 Requested convergence on             energy=1.00D-06.
 No special actions if energy rises.
 FoFCou: FMM=F IPFlag=           0 FMFlag=           0 FMFlg1=           0
         NFxFlg=           0 DoJE=F BraDBF=F KetDBF=F FulRan=T
         wScrn=  0.000000 ICntrl=     600 IOpCl=  0 I1Cent=           0 NGrid=           0
         NMat0=    1 NMatS0=   7021 NMatT0=    0 NMatD0=    1 NMtDS0=    0 NMtDT0=    0
 Symmetry not used in FoFCou.

 Cycle   1  Pass 1  IDiag  1:
 Inv3:  Mode=1 IEnd=     5863212.
 Iteration    1 A*A^-1 deviation from unit magnitude is 3.55D-15 for   1377.
 Iteration    1 A*A^-1 deviation from orthogonality  is 1.86D-15 for   1375    974.
 Iteration    1 A^-1*A deviation from unit magnitude is 3.55D-15 for   1377.
 Iteration    1 A^-1*A deviation from orthogonality  is 1.35D-15 for     36     30.
 E= -237.081784346249    
 DIIS: error= 1.22D-04 at cycle   1 NSaved=   1.
 NSaved= 1 IEnMin= 1 EnMin= -237.081784346249     IErMin= 1 ErrMin= 1.22D-04
 ErrMax= 1.22D-04  0.00D+00 EMaxC= 1.00D-01 BMatC= 4.88D-06 BMatP= 4.88D-06
 IDIUse=3 WtCom= 9.99D-01 WtEn= 1.22D-03
 Coeff-Com:  0.100D+01
 Coeff-En:   0.100D+01
 Coeff:      0.100D+01
 Gap=     0.393 Goal=   None    Shift=    0.000
 RMSDP=8.74D-05 MaxDP=1.07D-03              OVMax= 1.02D-03

 Cycle   2  Pass 1  IDiag  1:
 E= -237.081793806703     Delta-E=       -0.000009460454 Rises=F Damp=F
 DIIS: error= 1.03D-04 at cycle   2 NSaved=   2.
 NSaved= 2 IEnMin= 2 EnMin= -237.081793806703     IErMin= 2 ErrMin= 1.03D-04
 ErrMax= 1.03D-04  0.00D+00 EMaxC= 1.00D-01 BMatC= 1.73D-06 BMatP= 4.88D-06
 IDIUse=3 WtCom= 9.99D-01 WtEn= 1.03D-03
 Coeff-Com:  0.313D+00 0.687D+00
 Coeff-En:   0.000D+00 0.100D+01
 Coeff:      0.313D+00 0.687D+00
 Gap=     0.393 Goal=   None    Shift=    0.000
 RMSDP=1.26D-05 MaxDP=2.80D-04 DE=-9.46D-06 OVMax= 2.92D-04

 Cycle   3  Pass 1  IDiag  1:
 E= -237.081795159605     Delta-E=       -0.000001352902 Rises=F Damp=F
 DIIS: error= 4.77D-05 at cycle   3 NSaved=   3.
 NSaved= 3 IEnMin= 3 EnMin= -237.081795159605     IErMin= 3 ErrMin= 4.77D-05
 ErrMax= 4.77D-05  0.00D+00 EMaxC= 1.00D-01 BMatC= 3.71D-07 BMatP= 1.73D-06
 IDIUse=1 WtCom= 1.00D+00 WtEn= 0.00D+00
 Coeff-Com:  0.312D-02 0.309D+00 0.688D+00
 Coeff:      0.312D-02 0.309D+00 0.688D+00
 Gap=     0.393 Goal=   None    Shift=    0.000
 RMSDP=5.48D-06 MaxDP=9.98D-05 DE=-1.35D-06 OVMax= 1.21D-04

 Cycle   4  Pass 1  IDiag  1:
 E= -237.081795528527     Delta-E=       -0.000000368922 Rises=F Damp=F
 DIIS: error= 3.74D-06 at cycle   4 NSaved=   4.
 NSaved= 4 IEnMin= 4 EnMin= -237.081795528527     IErMin= 4 ErrMin= 3.74D-06
 ErrMax= 3.74D-06  0.00D+00 EMaxC= 1.00D-01 BMatC= 6.52D-09 BMatP= 3.71D-07
 IDIUse=1 WtCom= 1.00D+00 WtEn= 0.00D+00
 Coeff-Com: -0.952D-02 0.536D-01 0.187D+00 0.769D+00
 Coeff:     -0.952D-02 0.536D-01 0.187D+00 0.769D+00
 Gap=     0.393 Goal=   None    Shift=    0.000
 RMSDP=8.23D-07 MaxDP=1.70D-05 DE=-3.69D-07 OVMax= 1.84D-05

 Cycle   5  Pass 1  IDiag  1:
 E= -237.081795534054     Delta-E=       -0.000000005527 Rises=F Damp=F
 DIIS: error= 1.49D-06 at cycle   5 NSaved=   5.
 NSaved= 5 IEnMin= 5 EnMin= -237.081795534054     IErMin= 5 ErrMin= 1.49D-06
 ErrMax= 1.49D-06  0.00D+00 EMaxC= 1.00D-01 BMatC= 6.27D-10 BMatP= 6.52D-09
 IDIUse=1 WtCom= 1.00D+00 WtEn= 0.00D+00
 Coeff-Com: -0.461D-02 0.166D-01 0.669D-01 0.343D+00 0.578D+00
 Coeff:     -0.461D-02 0.166D-01 0.669D-01 0.343D+00 0.578D+00
 Gap=     0.393 Goal=   None    Shift=    0.000
 RMSDP=2.87D-07 MaxDP=4.82D-06 DE=-5.53D-09 OVMax= 5.72D-06

 Cycle   6  Pass 1  IDiag  1:
 E= -237.081795534650     Delta-E=       -0.000000000596 Rises=F Damp=F
 DIIS: error= 4.28D-07 at cycle   6 NSaved=   6.
 NSaved= 6 IEnMin= 6 EnMin= -237.081795534650     IErMin= 6 ErrMin= 4.28D-07
 ErrMax= 4.28D-07  0.00D+00 EMaxC= 1.00D-01 BMatC= 4.35D-11 BMatP= 6.27D-10
 IDIUse=1 WtCom= 1.00D+00 WtEn= 0.00D+00
 Coeff-Com: -0.490D-03 0.701D-03 0.389D-02 0.358D-01 0.227D+00 0.733D+00
 Coeff:     -0.490D-03 0.701D-03 0.389D-02 0.358D-01 0.227D+00 0.733D+00
 Gap=     0.393 Goal=   None    Shift=    0.000
 RMSDP=6.49D-08 MaxDP=1.28D-06 DE=-5.96D-10 OVMax= 1.39D-06

 Cycle   7  Pass 1  IDiag  1:
 E= -237.081795534694     Delta-E=       -0.000000000044 Rises=F Damp=F
 DIIS: error= 4.66D-08 at cycle   7 NSaved=   7.
 NSaved= 7 IEnMin= 7 EnMin= -237.081795534694     IErMin= 7 ErrMin= 4.66D-08
 ErrMax= 4.66D-08  0.00D+00 EMaxC= 1.00D-01 BMatC= 5.09D-13 BMatP= 4.35D-11
 IDIUse=1 WtCom= 1.00D+00 WtEn= 0.00D+00
 Coeff-Com: -0.743D-05-0.248D-03-0.783D-03-0.121D-02 0.390D-01 0.183D+00
 Coeff-Com:  0.780D+00
 Coeff:     -0.743D-05-0.248D-03-0.783D-03-0.121D-02 0.390D-01 0.183D+00
 Coeff:      0.780D+00
 Gap=     0.393 Goal=   None    Shift=    0.000
 RMSDP=8.70D-09 MaxDP=1.11D-07 DE=-4.35D-11 OVMax= 1.75D-07

 Error on total polarization charges =  0.01407
 SCF Done:  E(RB3LYP) =  -237.081795535     A.U. after    7 cycles
            NFock=  7  Conv=0.87D-08     -V/T= 2.0102
 KE= 2.346865876898D+02 PE=-1.060514906599D+03 EE= 3.319769477296D+02
 --------------------------------------------------------------------
 Variational PCM results
 =======================
 <psi(f)|   H    |psi(f)>                     (a.u.) =    -237.082827
 <psi(f)|H+V(f)/2|psi(f)>                     (a.u.) =    -237.083200
 Total free energy in solution:
 - with all non electrostatic terms           (a.u.) =    -237.081796
 --------------------------------------------------------------------
 (Polarized solute)-Solvent               (kcal/mol) =      -0.23
 --------------------------------------------------------------------
 Cavitation energy                        (kcal/mol) =      23.91
 MST dispersion + repulsion energy        (kcal/mol) =     -23.03
 Total non electrostatic                  (kcal/mol) =       0.88
 --------------------------------------------------------------------
 Partition over spheres:
 Sphere  on Atom  Surface  Charge   GEl     GCav    GDR
    1      C1       3.15   0.006   -0.01    0.63   -0.67
    2      H2       9.95  -0.004   -0.02    1.38   -1.31
    3      H3      12.18  -0.003   -0.02    1.53   -1.45
    4      H4      13.21  -0.004   -0.02    1.53   -1.45
    5      C5       0.47   0.001   -0.00    0.43   -0.45
    6      H6       9.31  -0.003   -0.01    1.53   -1.44
    7      H7      10.57  -0.003   -0.01    1.52   -1.43
    8      C8       0.00   0.000    0.00    0.33   -0.36
    9      C9       2.67   0.006   -0.01    0.59   -0.62
   10      H10     10.10  -0.003   -0.02    1.53   -1.45
   11      H11     11.32  -0.003   -0.02    1.53   -1.45
   12      H12      9.66  -0.004   -0.02    1.44   -1.37
   13      H13      9.04  -0.003   -0.01    1.51   -1.44
   14      C14      0.44   0.001   -0.00    0.44   -0.46
   15      H15      8.58  -0.004   -0.01    1.37   -1.29
   16      H16      9.77  -0.002   -0.01    1.52   -1.44
   17      C17      3.11   0.006   -0.01    0.63   -0.67
   18      H18     12.17  -0.003   -0.02    1.53   -1.45
   19      H19     13.22  -0.003   -0.02    1.53   -1.45
   20      H20      9.85  -0.004   -0.02    1.44   -1.37
 Added spheres:    15.63   0.011   -0.01    0.00    0.00
 --------------------------------------------------------------------
 Partition over spheres of the perturbative electrostatic energy:
(Contribution of added spheres asigned to closest sphere)
 Sphere  on Atom  Surface  Charge   GElSph
    1      C1       3.15   0.006   -0.01
    2      H2       9.95  -0.004   -0.02
    3      H3      12.18  -0.003   -0.02
    4      H4      13.21  -0.004   -0.02
    5      C5       0.47   0.001   -0.00
    6      H6       9.31  -0.003   -0.01
    7      H7      10.57  -0.003   -0.01
    8      C8       0.00   0.000    0.00
    9      C9       2.67   0.006   -0.01
   10      H10     10.10  -0.003   -0.02
   11      H11     11.32  -0.003   -0.02
   12      H12      9.66  -0.004   -0.02
   13      H13      9.04  -0.003   -0.01
   14      C14      0.44   0.001   -0.00
   15      H15      8.58  -0.004   -0.01
   16      H16      9.77  -0.002   -0.01
   17      C17      3.11   0.006   -0.01
   18      H18     12.17  -0.003   -0.02
   19      H19     13.22  -0.003   -0.02
   20      H20      9.85  -0.004   -0.02
 Added spheres:    15.63   0.011    0.00
 --------------------------------------------------------------------
 After PCM corrections, the energy is  -237.081795535     a.u.
 --------------------------------------------------------------------
 Leave Link  502 at Thu Nov 12 20:34:16 2020, MaxMem=  2147483648 cpu:        22.3
 (Enter /prod/apps/gaussian/g09d1/l601.exe)
 Copying SCF densities to generalized density rwf, IOpCl= 0 IROHF=0.

 **********************************************************************

            Population analysis using the SCF density.

 **********************************************************************

 Orbital symmetries:
       Occupied  (A) (A) (A) (A) (A) (A) (A) (A) (A) (A) (A) (A)
                 (A) (A) (A) (A) (A) (A) (A) (A) (A) (A) (A) (A)
                 (A)
       Virtual   (A) (A) (A) (A) (A) (A) (A) (A) (A) (A) (A) (A)
                 (A) (A) (A) (A) (A) (A) (A) (A) (A) (A) (A) (A)
                 (A) (A) (A) (A) (A) (A) (A) (A) (A) (A) (A) (A)
                 (A) (A) (A) (A) (A) (A) (A) (A) (A) (A) (A) (A)
                 (A) (A) (A) (A) (A) (A) (A) (A) (A) (A) (A) (A)
                 (A) (A) (A) (A) (A) (A) (A) (A) (A) (A) (A) (A)
                 (A) (A) (A) (A) (A) (A) (A) (A) (A) (A) (A) (A)
                 (A) (A) (A) (A) (A) (A) (A) (A) (A)
 The electronic state is 1-A.
 Alpha  occ. eigenvalues --  -10.17828 -10.17217 -10.17160 -10.16763 -10.16758
 Alpha  occ. eigenvalues --  -10.16568  -0.80726  -0.74147  -0.70836  -0.63570
 Alpha  occ. eigenvalues --   -0.60297  -0.54721  -0.45743  -0.44120  -0.43347
 Alpha  occ. eigenvalues --   -0.41078  -0.40258  -0.37762  -0.36180  -0.35765
 Alpha  occ. eigenvalues --   -0.34436  -0.33594  -0.31205  -0.30449  -0.30206
 Alpha virt. eigenvalues --    0.09134   0.11238   0.12372   0.13011   0.15735
 Alpha virt. eigenvalues --    0.16024   0.16996   0.17445   0.18126   0.18664
 Alpha virt. eigenvalues --    0.19245   0.19821   0.22572   0.23772   0.25380
 Alpha virt. eigenvalues --    0.26010   0.26611   0.27959   0.28671   0.49984
 Alpha virt. eigenvalues --    0.50459   0.51397   0.52844   0.53995   0.58239
 Alpha virt. eigenvalues --    0.59791   0.62666   0.65430   0.66441   0.67996
 Alpha virt. eigenvalues --    0.70152   0.75547   0.76715   0.80373   0.83871
 Alpha virt. eigenvalues --    0.86692   0.88499   0.88706   0.89480   0.91402
 Alpha virt. eigenvalues --    0.92372   0.92675   0.93067   0.94648   0.96384
 Alpha virt. eigenvalues --    0.97115   0.97738   0.98990   1.00642   1.02937
 Alpha virt. eigenvalues --    1.04271   1.07620   1.26300   1.36573   1.41732
 Alpha virt. eigenvalues --    1.42657   1.56484   1.59155   1.61611   1.69006
 Alpha virt. eigenvalues --    1.73047   1.77094   1.83792   1.87784   1.89998
 Alpha virt. eigenvalues --    1.92483   1.95380   1.98636   2.02018   2.02448
 Alpha virt. eigenvalues --    2.03425   2.12169   2.14586   2.18852   2.27413
 Alpha virt. eigenvalues --    2.28939   2.31208   2.32614   2.34743   2.37917
 Alpha virt. eigenvalues --    2.42853   2.46816   2.53247   2.65627   2.68848
 Alpha virt. eigenvalues --    2.77243   2.79668   4.12715   4.21820   4.27506
 Alpha virt. eigenvalues --    4.39796   4.44723   4.60494
          Condensed to atoms (all electrons):
               1          2          3          4          5          6
     1  C    5.083748   0.377013   0.377209   0.370854   0.371714  -0.039438
     2  H    0.377013   0.568206  -0.032647  -0.030504  -0.034114  -0.004344
     3  H    0.377209  -0.032647   0.576317  -0.031066  -0.035519   0.005396
     4  H    0.370854  -0.030504  -0.031066   0.576645  -0.027439  -0.002639
     5  C    0.371714  -0.034114  -0.035519  -0.027439   4.995230   0.369399
     6  H   -0.039438  -0.004344   0.005396  -0.002639   0.369399   0.617445
     7  H   -0.039201   0.005226  -0.004330  -0.003327   0.371639  -0.039109
     8  C   -0.038878  -0.005176  -0.004824   0.004038   0.391270  -0.038272
     9  C    0.004520   0.000032   0.000072  -0.000148  -0.048079  -0.003769
    10  H    0.000023   0.000001   0.000009   0.000003  -0.005797   0.004745
    11  H    0.000028   0.000002  -0.000004  -0.000005  -0.004988  -0.000253
    12  H   -0.000164   0.000003  -0.000001   0.000002   0.004803  -0.000106
    13  H   -0.005138  -0.000154   0.005853  -0.000005  -0.049050   0.006688
    14  C   -0.005623   0.001269  -0.000402   0.000180  -0.043467  -0.008744
    15  H    0.001871   0.005325   0.000302  -0.000146  -0.006191  -0.000144
    16  H   -0.000146   0.000223   0.000050  -0.000021  -0.004341   0.005690
    17  C    0.000134  -0.000186  -0.000029   0.000000   0.004358   0.000037
    18  H   -0.000015   0.000015   0.000000   0.000000   0.000072   0.000011
    19  H    0.000001   0.000011   0.000000   0.000000  -0.000142   0.000000
    20  H   -0.000005   0.000001   0.000001   0.000000   0.000010  -0.000001
               7          8          9         10         11         12
     1  C   -0.039201  -0.038878   0.004520   0.000023   0.000028  -0.000164
     2  H    0.005226  -0.005176   0.000032   0.000001   0.000002   0.000003
     3  H   -0.004330  -0.004824   0.000072   0.000009  -0.000004  -0.000001
     4  H   -0.003327   0.004038  -0.000148   0.000003  -0.000005   0.000002
     5  C    0.371639   0.391270  -0.048079  -0.005797  -0.004988   0.004803
     6  H   -0.039109  -0.038272  -0.003769   0.004745  -0.000253  -0.000106
     7  H    0.615212  -0.037248  -0.005340  -0.000281   0.005763   0.000038
     8  C   -0.037248   4.853349   0.376252  -0.034173  -0.029489  -0.028211
     9  C   -0.005340   0.376252   5.129904   0.371432   0.369481   0.369207
    10  H   -0.000281  -0.034173   0.371432   0.581852  -0.031674  -0.031960
    11  H    0.005763  -0.029489   0.369481  -0.031674   0.577902  -0.029780
    12  H    0.000038  -0.028211   0.369207  -0.031960  -0.029780   0.572626
    13  H   -0.003174   0.376076  -0.047311   0.005944  -0.003332  -0.003181
    14  C    0.005333   0.394057  -0.050282  -0.005931   0.005137  -0.004722
    15  H    0.000039  -0.038475   0.005737  -0.000013  -0.000181  -0.000038
    16  H   -0.000060  -0.038817  -0.008414   0.005854  -0.000015  -0.000040
    17  C   -0.000168  -0.039574  -0.004579  -0.000224   0.000076   0.001863
    18  H    0.000001  -0.004564  -0.000468   0.000067  -0.000024   0.000332
    19  H    0.000002   0.004054   0.000111  -0.000022   0.000001  -0.000098
    20  H   -0.000001  -0.005373   0.002294   0.000245  -0.000140   0.003352
              13         14         15         16         17         18
     1  C   -0.005138  -0.005623   0.001871  -0.000146   0.000134  -0.000015
     2  H   -0.000154   0.001269   0.005325   0.000223  -0.000186   0.000015
     3  H    0.005853  -0.000402   0.000302   0.000050  -0.000029   0.000000
     4  H   -0.000005   0.000180  -0.000146  -0.000021   0.000000   0.000000
     5  C   -0.049050  -0.043467  -0.006191  -0.004341   0.004358   0.000072
     6  H    0.006688  -0.008744  -0.000144   0.005690   0.000037   0.000011
     7  H   -0.003174   0.005333   0.000039  -0.000060  -0.000168   0.000001
     8  C    0.376076   0.394057  -0.038475  -0.038817  -0.039574  -0.004564
     9  C   -0.047311  -0.050282   0.005737  -0.008414  -0.004579  -0.000468
    10  H    0.005944  -0.005931  -0.000013   0.005854  -0.000224   0.000067
    11  H   -0.003332   0.005137  -0.000181  -0.000015   0.000076  -0.000024
    12  H   -0.003181  -0.004722  -0.000038  -0.000040   0.001863   0.000332
    13  H    0.647722  -0.050928  -0.003191   0.006711  -0.005111   0.005773
    14  C   -0.050928   4.999346   0.374346   0.369830   0.370071  -0.035637
    15  H   -0.003191   0.374346   0.604405  -0.038910  -0.038101  -0.004230
    16  H    0.006711   0.369830  -0.038910   0.616392  -0.039717   0.005365
    17  C   -0.005111   0.370071  -0.038101  -0.039717   5.081865   0.377231
    18  H    0.005773  -0.035637  -0.004230   0.005365   0.377231   0.576760
    19  H   -0.000005  -0.027622  -0.003165  -0.002515   0.371450  -0.031217
    20  H   -0.000218  -0.033598   0.005038  -0.004429   0.378119  -0.032832
              19         20
     1  C    0.000001  -0.000005
     2  H    0.000011   0.000001
     3  H    0.000000   0.000001
     4  H    0.000000   0.000000
     5  C   -0.000142   0.000010
     6  H    0.000000  -0.000001
     7  H    0.000002  -0.000001
     8  C    0.004054  -0.005373
     9  C    0.000111   0.002294
    10  H   -0.000022   0.000245
    11  H    0.000001  -0.000140
    12  H   -0.000098   0.003352
    13  H   -0.000005  -0.000218
    14  C   -0.027622  -0.033598
    15  H   -0.003165   0.005038
    16  H   -0.002515  -0.004429
    17  C    0.371450   0.378119
    18  H   -0.031217  -0.032832
    19  H    0.577311  -0.031125
    20  H   -0.031125   0.570217
 Mulliken charges:
               1
     1  C   -0.458506
     2  H    0.149799
     3  H    0.143612
     4  H    0.143578
     5  C   -0.249368
     6  H    0.127406
     7  H    0.128986
     8  C   -0.056020
     9  C   -0.460654
    10  H    0.139900
    11  H    0.141495
    12  H    0.146074
    13  H    0.116028
    14  C   -0.252613
    15  H    0.135721
    16  H    0.127308
    17  C   -0.457517
    18  H    0.143359
    19  H    0.142967
    20  H    0.148444
 Sum of Mulliken charges =   0.00000
 Mulliken charges with hydrogens summed into heavy atoms:
               1
     1  C   -0.021517
     5  C    0.007024
     8  C    0.060008
     9  C   -0.033184
    14  C    0.010416
    17  C   -0.022747
 Electronic spatial extent (au):  <R**2>=            820.7669
 Charge=              0.0000 electrons
 Dipole moment (field-independent basis, Debye):
    X=             -0.0493    Y=             -0.0321    Z=             -0.0193  Tot=              0.0620
 Quadrupole moment (field-independent basis, Debye-Ang):
   XX=            -41.9371   YY=            -41.7877   ZZ=            -41.1239
   XY=             -0.1995   XZ=              0.1269   YZ=             -0.1595
 Traceless Quadrupole moment (field-independent basis, Debye-Ang):
   XX=             -0.3209   YY=             -0.1714   ZZ=              0.4923
   XY=             -0.1995   XZ=              0.1269   YZ=             -0.1595
 Octapole moment (field-independent basis, Debye-Ang**2):
  XXX=             -0.9827  YYY=             -1.5700  ZZZ=             -0.2216  XYY=             -0.0015
  XXY=              1.3982  XXZ=              0.5838  XZZ=             -0.1355  YZZ=              0.0679
  YYZ=             -0.0912  XYZ=              0.1844
 Hexadecapole moment (field-independent basis, Debye-Ang**3):
 XXXX=           -689.4387 YYYY=           -347.5255 ZZZZ=            -99.9406 XXXY=              0.6577
 XXXZ=             -0.5450 YYYX=             -5.0390 YYYZ=             -3.4780 ZZZX=              0.6624
 ZZZY=              2.3358 XXYY=           -173.4493 XXZZ=           -132.3089 YYZZ=            -74.5368
 XXYZ=             -2.6557 YYXZ=              1.1728 ZZXY=             -0.4282
 N-N= 2.567695756448D+02 E-N=-1.060514901143D+03  KE= 2.346865876898D+02
 No NMR shielding tensors so no spin-rotation constants.
 Leave Link  601 at Thu Nov 12 20:34:16 2020, MaxMem=  2147483648 cpu:         0.1
 (Enter /prod/apps/gaussian/g09d1/l9999.exe)
 1\1\GINC-PIRINEUS41\SP\RB3LYP\6-31G(d)\C6H14\UBAFAR01\12-Nov-2020\0\\#
 p b3lyp/6-31G(d) scrf=(iefpcm,read,solvent=Water) geom=allcheck guess=
 read\\SET_328_BBB23_conf1_geo_300_180.n.pdb.xyz\\0,1\C,0,0.848,1.515,-
 1.717\H,0,0.673,2.291,-0.966\H,0,-0.028,1.484,-2.374\H,0,1.706,1.828,-
 2.32\C,0,1.1,0.149,-1.076\H,0,1.998,0.2,-0.444\H,0,1.331,-0.575,-1.869
 \C,0,-0.068,-0.401,-0.24\C,0,0.195,-1.869,0.125\H,0,1.093,-1.958,0.746
 \H,0,0.354,-2.471,-0.776\H,0,-0.639,-2.311,0.68\H,0,-0.97,-0.364,-0.86
 9\C,0,-0.33,0.461,1.008\H,0,-0.389,1.514,0.709\H,0,0.537,0.383,1.677\C
 ,0,-1.604,0.099,1.777\H,0,-2.487,0.185,1.135\H,0,-1.749,0.767,2.632\H,
 0,-1.572,-0.925,2.161\\Version=AM64L-G09RevD.01\State=1-A\HF=-237.0817
 955\RMSD=8.704e-09\Dipole=0.0007577,0.0171432,-0.0173106\Quadrupole=0.
 0542247,-0.1997422,0.1455175,0.0225929,0.2527227,0.2283587\PG=C01 [X(C
 6H14)]\\@


 THE WORLD IS NOT A HAMBURGER - YOU CAN'T HAVE IT YOUR WAY.
 Job cpu time:       0 days  0 hours  0 minutes 23.1 seconds.
 File lengths (MBytes):  RWF=     41 Int=      0 D2E=      0 Chk=      2 Scr=      1
 Normal termination of Gaussian 09 at Thu Nov 12 20:34:16 2020.
