 Entering Gaussian System, Link 0=g16
 Input=105.n.pdb.xyz.mst.wat.gau
 Output=105.n.pdb.xyz.mst.wat.log
 Initial command:
 /dades/curu/g16A03_MST/g16/l1.exe "/tmp/ubator01/1955223/Gau-136858.inp" -scrdir="/tmp/ubator01/1955223/"
 Entering Link 1 = /dades/curu/g16A03_MST/g16/l1.exe PID=    136859.
  
 Copyright (c) 1988,1990,1992,1993,1995,1998,2003,2009,2016,
            Gaussian, Inc.  All Rights Reserved.
  
 This is part of the Gaussian(R) 16 program.  It is based on
 the Gaussian(R) 09 system (copyright 2009, Gaussian, Inc.),
 the Gaussian(R) 03 system (copyright 2003, Gaussian, Inc.),
 the Gaussian(R) 98 system (copyright 1998, Gaussian, Inc.),
 the Gaussian(R) 94 system (copyright 1995, Gaussian, Inc.),
 the Gaussian 92(TM) system (copyright 1992, Gaussian, Inc.),
 the Gaussian 90(TM) system (copyright 1990, Gaussian, Inc.),
 the Gaussian 88(TM) system (copyright 1988, Gaussian, Inc.),
 the Gaussian 86(TM) system (copyright 1986, Carnegie Mellon
 University), and the Gaussian 82(TM) system (copyright 1983,
 Carnegie Mellon University). Gaussian is a federally registered
 trademark of Gaussian, Inc.
  
 This software contains proprietary and confidential information,
 including trade secrets, belonging to Gaussian, Inc.
  
 This software is provided under written license and may be
 used, copied, transmitted, or stored only in accord with that
 written license.
  
 The following legend is applicable only to US Government
 contracts under FAR:
  
                    RESTRICTED RIGHTS LEGEND
  
 Use, reproduction and disclosure by the US Government is
 subject to restrictions as set forth in subparagraphs (a)
 and (c) of the Commercial Computer Software - Restricted
 Rights clause in FAR 52.227-19.
  
 Gaussian, Inc.
 340 Quinnipiac St., Bldg. 40, Wallingford CT 06492
  
  
 ---------------------------------------------------------------
 Warning -- This program may not be used in any manner that
 competes with the business of Gaussian, Inc. or will provide
 assistance to any competitor of Gaussian, Inc.  The licensee
 of this program is prohibited from giving any competitor of
 Gaussian, Inc. access to this program.  By using this program,
 the user acknowledges that Gaussian, Inc. is engaged in the
 business of creating and licensing software in the field of
 computational chemistry and represents and warrants to the
 licensee that it is not a competitor of Gaussian, Inc. and that
 it will not use this program in any manner prohibited above.
 ---------------------------------------------------------------
  

 Cite this work as:
 Gaussian 16, Revision A.03,
 M. J. Frisch, G. W. Trucks, H. B. Schlegel, G. E. Scuseria, 
 M. A. Robb, J. R. Cheeseman, G. Scalmani, V. Barone, 
 G. A. Petersson, H. Nakatsuji, X. Li, M. Caricato, A. V. Marenich, 
 J. Bloino, B. G. Janesko, R. Gomperts, B. Mennucci, H. P. Hratchian, 
 J. V. Ortiz, A. F. Izmaylov, J. L. Sonnenberg, D. Williams-Young, 
 F. Ding, F. Lipparini, F. Egidi, J. Goings, B. Peng, A. Petrone, 
 T. Henderson, D. Ranasinghe, V. G. Zakrzewski, J. Gao, N. Rega, 
 G. Zheng, W. Liang, M. Hada, M. Ehara, K. Toyota, R. Fukuda, 
 J. Hasegawa, M. Ishida, T. Nakajima, Y. Honda, O. Kitao, H. Nakai, 
 T. Vreven, K. Throssell, J. A. Montgomery, Jr., J. E. Peralta, 
 F. Ogliaro, M. J. Bearpark, J. J. Heyd, E. N. Brothers, K. N. Kudin, 
 V. N. Staroverov, T. A. Keith, R. Kobayashi, J. Normand, 
 K. Raghavachari, A. P. Rendell, J. C. Burant, S. S. Iyengar, 
 J. Tomasi, M. Cossi, J. M. Millam, M. Klene, C. Adamo, R. Cammi, 
 J. W. Ochterski, R. L. Martin, K. Morokuma, O. Farkas, 
 J. B. Foresman, and D. J. Fox, Gaussian, Inc., Wallingford CT, 2016.
 
 ******************************************
 Gaussian 16:  ES64L-G16RevA.03 25-Dec-2016
                 1-Mar-2022 
 ******************************************
 %nproc=4
 Will use up to    4 processors via shared memory.
 %Chk=105.n.pdb.xyz.mst.wat.chk
 %mem=800MB
 ----------------------------------------------------------------------
 #p b3lyp/6-31G(d) opt=(MaxStep=10,MaxCycles=1000) freq scf=(MaxCycle=2
 000,NoVarAcc,NoIncFock) scrf=(iefpcm,read,solvent=water)
 ----------------------------------------------------------------------
 1/6=1000,8=10,18=20,19=15,26=3,38=1,40=2/1,3;
 2/9=110,12=2,17=6,18=5,40=1/2;
 3/5=1,6=6,7=1,11=2,25=1,30=1,70=2203,71=1,72=1,74=-5/1,2,3;
 4//1;
 5/5=100002,7=2000,38=1,53=1/2;
 6/7=2,8=2,9=2,10=2,28=1/1;
 7//1,2,3,16;
 1/6=1000,8=10,18=20,19=15,26=3/3(2);
 2/9=110/2;
 99//99;
 2/9=110/2;
 3/5=1,6=6,7=1,11=2,25=1,30=1,70=2205,71=1,72=1,74=-5/1,2,3;
 4/5=5,16=3,69=1/1;
 5/5=100002,7=2000,38=1,53=1/2;
 7//1,2,3,16;
 1/6=1000,8=10,18=20,19=15,26=3/3(-5);
 2/9=110/2;
 6/7=2,8=2,9=2,10=2,19=2,28=1/1;
 99/9=1/99;
 Leave Link    1 at Tue Mar  1 20:47:56 2022, MaxMem=   104857600 cpu:               0.1 elap:               0.0
 (Enter /dades/curu/g16A03_MST/g16/l101.exe)
 -------------
 105.n.pdb.xyz
 -------------
 Symbolic Z-matrix:
 Charge =  0 Multiplicity = 1
 Cl                   -0.523     4.063     1.838 
 C                    -1.157     2.617     1.153 
 C                    -0.323     1.515     0.958 
 C                    -0.794     0.311     0.383 
 C                    -2.177     0.235     0.087 
 N                    -2.852    -0.889    -0.41 
 C                    -2.536    -2.204    -0.226 
 O                    -3.225    -3.076    -0.75 
 C                    -1.422    -2.505     0.716 
 C                    -0.11     -2.108     0.132 
 O                     0.668    -2.999    -0.225 
 N                     0.167    -0.733     0.087 
 C                     1.488    -0.311    -0.325 
 C                     1.666     0.769    -1.2 
 C                     2.946     1.188    -1.58 
 C                     4.069     0.526    -1.099 
 C                     3.913    -0.569    -0.25 
 C                     2.633    -0.983     0.13 
 C                    -2.996     1.371     0.253 
 C                    -2.491     2.555     0.786 
 H                     0.72      1.607     1.265 
 H                    -3.739    -0.759    -0.89 
 H                    -1.41     -3.584     0.911 
 H                    -1.581    -2.017     1.685 
 H                     0.809     1.29     -1.624 
 H                     3.062     2.031    -2.258 
 H                     5.065     0.85     -1.397 
 H                     4.784    -1.101     0.115 
 H                     2.55     -1.835     0.805 
 H                    -4.058     1.332     0.003 
 H                    -3.146     3.412     0.926 
 
 ITRead=  0  0  0  0  0  0  0  0  0  0  0  0  0  0  0  0  0  0  0  0
 ITRead=  0  0  0  0  0  0  0  0  0  0  0
 MicOpt= -1 -1 -1 -1 -1 -1 -1 -1 -1 -1 -1 -1 -1 -1 -1 -1 -1 -1 -1 -1
 MicOpt= -1 -1 -1 -1 -1 -1 -1 -1 -1 -1 -1
 NAtoms=     31 NQM=       31 NQMF=       0 NMMI=      0 NMMIF=      0
                NMic=       0 NMicF=      0.
                    Isotopes and Nuclear Properties:
 (Nuclear quadrupole moments (NQMom) in fm**2, nuclear magnetic moments (NMagM)
  in nuclear magnetons)

  Atom         1           2           3           4           5           6           7           8           9          10
 IAtWgt=          35          12          12          12          12          14          12          16          12          12
 AtmWgt=  34.9688527  12.0000000  12.0000000  12.0000000  12.0000000  14.0030740  12.0000000  15.9949146  12.0000000  12.0000000
 NucSpn=           3           0           0           0           0           2           0           0           0           0
 AtZEff=  -0.0000000  -0.0000000  -0.0000000  -0.0000000  -0.0000000  -0.0000000  -0.0000000  -0.0000000  -0.0000000  -0.0000000
 NQMom=   -8.1650000   0.0000000   0.0000000   0.0000000   0.0000000   2.0440000   0.0000000   0.0000000   0.0000000   0.0000000
 NMagM=    0.8218740   0.0000000   0.0000000   0.0000000   0.0000000   0.4037610   0.0000000   0.0000000   0.0000000   0.0000000
 AtZNuc=  17.0000000   6.0000000   6.0000000   6.0000000   6.0000000   7.0000000   6.0000000   8.0000000   6.0000000   6.0000000

  Atom        11          12          13          14          15          16          17          18          19          20
 IAtWgt=          16          14          12          12          12          12          12          12          12          12
 AtmWgt=  15.9949146  14.0030740  12.0000000  12.0000000  12.0000000  12.0000000  12.0000000  12.0000000  12.0000000  12.0000000
 NucSpn=           0           2           0           0           0           0           0           0           0           0
 AtZEff=  -0.0000000  -0.0000000  -0.0000000  -0.0000000  -0.0000000  -0.0000000  -0.0000000  -0.0000000  -0.0000000  -0.0000000
 NQMom=    0.0000000   2.0440000   0.0000000   0.0000000   0.0000000   0.0000000   0.0000000   0.0000000   0.0000000   0.0000000
 NMagM=    0.0000000   0.4037610   0.0000000   0.0000000   0.0000000   0.0000000   0.0000000   0.0000000   0.0000000   0.0000000
 AtZNuc=   8.0000000   7.0000000   6.0000000   6.0000000   6.0000000   6.0000000   6.0000000   6.0000000   6.0000000   6.0000000

  Atom        21          22          23          24          25          26          27          28          29          30
 IAtWgt=           1           1           1           1           1           1           1           1           1           1
 AtmWgt=   1.0078250   1.0078250   1.0078250   1.0078250   1.0078250   1.0078250   1.0078250   1.0078250   1.0078250   1.0078250
 NucSpn=           1           1           1           1           1           1           1           1           1           1
 AtZEff=  -0.0000000  -0.0000000  -0.0000000  -0.0000000  -0.0000000  -0.0000000  -0.0000000  -0.0000000  -0.0000000  -0.0000000
 NQMom=    0.0000000   0.0000000   0.0000000   0.0000000   0.0000000   0.0000000   0.0000000   0.0000000   0.0000000   0.0000000
 NMagM=    2.7928460   2.7928460   2.7928460   2.7928460   2.7928460   2.7928460   2.7928460   2.7928460   2.7928460   2.7928460
 AtZNuc=   1.0000000   1.0000000   1.0000000   1.0000000   1.0000000   1.0000000   1.0000000   1.0000000   1.0000000   1.0000000

  Atom        31
 IAtWgt=           1
 AtmWgt=   1.0078250
 NucSpn=           1
 AtZEff=  -0.0000000
 NQMom=    0.0000000
 NMagM=    2.7928460
 AtZNuc=   1.0000000
 Leave Link  101 at Tue Mar  1 20:47:57 2022, MaxMem=   104857600 cpu:               0.1 elap:               0.1
 (Enter /dades/curu/g16A03_MST/g16/l103.exe)

 GradGradGradGradGradGradGradGradGradGradGradGradGradGradGradGradGradGrad
 Berny optimization.
 Initialization pass.
                           ----------------------------
                           !    Initial Parameters    !
                           ! (Angstroms and Degrees)  !
 --------------------------                            --------------------------
 ! Name  Definition              Value          Derivative Info.                !
 --------------------------------------------------------------------------------
 ! R1    R(1,2)                  1.7211         estimate D2E/DX2                !
 ! R2    R(2,3)                  1.3957         estimate D2E/DX2                !
 ! R3    R(2,20)                 1.385          estimate D2E/DX2                !
 ! R4    R(3,4)                  1.4149         estimate D2E/DX2                !
 ! R5    R(3,21)                 1.0911         estimate D2E/DX2                !
 ! R6    R(4,5)                  1.4164         estimate D2E/DX2                !
 ! R7    R(4,12)                 1.4495         estimate D2E/DX2                !
 ! R8    R(5,6)                  1.4021         estimate D2E/DX2                !
 ! R9    R(5,19)                 1.4103         estimate D2E/DX2                !
 ! R10   R(6,7)                  1.3649         estimate D2E/DX2                !
 ! R11   R(6,22)                 1.0169         estimate D2E/DX2                !
 ! R12   R(7,8)                  1.2287         estimate D2E/DX2                !
 ! R13   R(7,9)                  1.4896         estimate D2E/DX2                !
 ! R14   R(9,10)                 1.49           estimate D2E/DX2                !
 ! R15   R(9,23)                 1.0965         estimate D2E/DX2                !
 ! R16   R(9,24)                 1.0965         estimate D2E/DX2                !
 ! R17   R(10,11)                1.2356         estimate D2E/DX2                !
 ! R18   R(10,12)                1.4033         estimate D2E/DX2                !
 ! R19   R(12,13)                1.4467         estimate D2E/DX2                !
 ! R20   R(13,14)                1.4013         estimate D2E/DX2                !
 ! R21   R(13,18)                1.4034         estimate D2E/DX2                !
 ! R22   R(14,15)                1.3994         estimate D2E/DX2                !
 ! R23   R(14,25)                1.0889         estimate D2E/DX2                !
 ! R24   R(15,16)                1.3895         estimate D2E/DX2                !
 ! R25   R(15,26)                1.088          estimate D2E/DX2                !
 ! R26   R(16,17)                1.3943         estimate D2E/DX2                !
 ! R27   R(16,27)                1.0889         estimate D2E/DX2                !
 ! R28   R(17,18)                1.3979         estimate D2E/DX2                !
 ! R29   R(17,28)                1.0839         estimate D2E/DX2                !
 ! R30   R(18,29)                1.0901         estimate D2E/DX2                !
 ! R31   R(19,20)                1.3932         estimate D2E/DX2                !
 ! R32   R(19,30)                1.0917         estimate D2E/DX2                !
 ! R33   R(20,31)                1.0877         estimate D2E/DX2                !
 ! A1    A(1,2,3)              119.9245         estimate D2E/DX2                !
 ! A2    A(1,2,20)             119.8614         estimate D2E/DX2                !
 ! A3    A(3,2,20)             120.2117         estimate D2E/DX2                !
 ! A4    A(2,3,4)              121.9866         estimate D2E/DX2                !
 ! A5    A(2,3,21)             117.7301         estimate D2E/DX2                !
 ! A6    A(4,3,21)             120.2832         estimate D2E/DX2                !
 ! A7    A(3,4,5)              117.1048         estimate D2E/DX2                !
 ! A8    A(3,4,12)             118.3698         estimate D2E/DX2                !
 ! A9    A(5,4,12)             124.4748         estimate D2E/DX2                !
 ! A10   A(4,5,6)              125.9555         estimate D2E/DX2                !
 ! A11   A(4,5,19)             119.95           estimate D2E/DX2                !
 ! A12   A(6,5,19)             114.072          estimate D2E/DX2                !
 ! A13   A(5,6,7)              127.813          estimate D2E/DX2                !
 ! A14   A(5,6,22)             118.9958         estimate D2E/DX2                !
 ! A15   A(7,6,22)             112.8766         estimate D2E/DX2                !
 ! A16   A(6,7,8)              119.7645         estimate D2E/DX2                !
 ! A17   A(6,7,9)              116.9408         estimate D2E/DX2                !
 ! A18   A(8,7,9)              123.0687         estimate D2E/DX2                !
 ! A19   A(7,9,10)             110.9047         estimate D2E/DX2                !
 ! A20   A(7,9,23)             108.631          estimate D2E/DX2                !
 ! A21   A(7,9,24)             111.1286         estimate D2E/DX2                !
 ! A22   A(10,9,23)            108.7991         estimate D2E/DX2                !
 ! A23   A(10,9,24)            110.8223         estimate D2E/DX2                !
 ! A24   A(23,9,24)            106.4009         estimate D2E/DX2                !
 ! A25   A(9,10,11)            118.3963         estimate D2E/DX2                !
 ! A26   A(9,10,12)            116.5798         estimate D2E/DX2                !
 ! A27   A(11,10,12)           124.9604         estimate D2E/DX2                !
 ! A28   A(4,12,10)            124.6307         estimate D2E/DX2                !
 ! A29   A(4,12,13)            116.9651         estimate D2E/DX2                !
 ! A30   A(10,12,13)           118.3712         estimate D2E/DX2                !
 ! A31   A(12,13,14)           121.2404         estimate D2E/DX2                !
 ! A32   A(12,13,18)           120.8622         estimate D2E/DX2                !
 ! A33   A(14,13,18)           117.8938         estimate D2E/DX2                !
 ! A34   A(13,14,15)           121.0973         estimate D2E/DX2                !
 ! A35   A(13,14,25)           120.7921         estimate D2E/DX2                !
 ! A36   A(15,14,25)           118.0921         estimate D2E/DX2                !
 ! A37   A(14,15,16)           120.1714         estimate D2E/DX2                !
 ! A38   A(14,15,26)           119.9149         estimate D2E/DX2                !
 ! A39   A(16,15,26)           119.9129         estimate D2E/DX2                !
 ! A40   A(15,16,17)           119.6371         estimate D2E/DX2                !
 ! A41   A(15,16,27)           120.1809         estimate D2E/DX2                !
 ! A42   A(17,16,27)           120.1738         estimate D2E/DX2                !
 ! A43   A(16,17,18)           120.0354         estimate D2E/DX2                !
 ! A44   A(16,17,28)           120.0383         estimate D2E/DX2                !
 ! A45   A(18,17,28)           119.9262         estimate D2E/DX2                !
 ! A46   A(13,18,17)           121.1377         estimate D2E/DX2                !
 ! A47   A(13,18,29)           120.8538         estimate D2E/DX2                !
 ! A48   A(17,18,29)           118.0009         estimate D2E/DX2                !
 ! A49   A(5,19,20)            121.2722         estimate D2E/DX2                !
 ! A50   A(5,19,30)            120.6108         estimate D2E/DX2                !
 ! A51   A(20,19,30)           118.0717         estimate D2E/DX2                !
 ! A52   A(2,20,19)            119.2465         estimate D2E/DX2                !
 ! A53   A(2,20,31)            120.7077         estimate D2E/DX2                !
 ! A54   A(19,20,31)           120.0373         estimate D2E/DX2                !
 ! D1    D(1,2,3,4)           -179.1803         estimate D2E/DX2                !
 ! D2    D(1,2,3,21)             0.7852         estimate D2E/DX2                !
 ! D3    D(20,2,3,4)             0.2433         estimate D2E/DX2                !
 ! D4    D(20,2,3,21)         -179.7912         estimate D2E/DX2                !
 ! D5    D(1,2,20,19)         -178.9557         estimate D2E/DX2                !
 ! D6    D(1,2,20,31)           -0.0183         estimate D2E/DX2                !
 ! D7    D(3,2,20,19)            1.6203         estimate D2E/DX2                !
 ! D8    D(3,2,20,31)         -179.4423         estimate D2E/DX2                !
 ! D9    D(2,3,4,5)             -3.9153         estimate D2E/DX2                !
 ! D10   D(2,3,4,12)           173.6134         estimate D2E/DX2                !
 ! D11   D(21,3,4,5)           176.1201         estimate D2E/DX2                !
 ! D12   D(21,3,4,12)           -6.3512         estimate D2E/DX2                !
 ! D13   D(3,4,5,6)           -176.0804         estimate D2E/DX2                !
 ! D14   D(3,4,5,19)             5.7511         estimate D2E/DX2                !
 ! D15   D(12,4,5,6)             6.5575         estimate D2E/DX2                !
 ! D16   D(12,4,5,19)         -171.6111         estimate D2E/DX2                !
 ! D17   D(3,4,12,10)          148.3571         estimate D2E/DX2                !
 ! D18   D(3,4,12,13)          -33.7725         estimate D2E/DX2                !
 ! D19   D(5,4,12,10)          -34.3116         estimate D2E/DX2                !
 ! D20   D(5,4,12,13)          143.5589         estimate D2E/DX2                !
 ! D21   D(4,5,6,7)             28.4023         estimate D2E/DX2                !
 ! D22   D(4,5,6,22)          -158.5311         estimate D2E/DX2                !
 ! D23   D(19,5,6,7)          -153.3357         estimate D2E/DX2                !
 ! D24   D(19,5,6,22)           19.7309         estimate D2E/DX2                !
 ! D25   D(4,5,19,20)           -4.1259         estimate D2E/DX2                !
 ! D26   D(4,5,19,30)          178.3713         estimate D2E/DX2                !
 ! D27   D(6,5,19,20)          177.4977         estimate D2E/DX2                !
 ! D28   D(6,5,19,30)           -0.0051         estimate D2E/DX2                !
 ! D29   D(5,6,7,8)           -178.9415         estimate D2E/DX2                !
 ! D30   D(5,6,7,9)              6.3529         estimate D2E/DX2                !
 ! D31   D(22,6,7,8)             7.6389         estimate D2E/DX2                !
 ! D32   D(22,6,7,9)          -167.0667         estimate D2E/DX2                !
 ! D33   D(6,7,9,10)           -71.2755         estimate D2E/DX2                !
 ! D34   D(6,7,9,23)           169.1993         estimate D2E/DX2                !
 ! D35   D(6,7,9,24)            52.4728         estimate D2E/DX2                !
 ! D36   D(8,7,9,10)           114.2094         estimate D2E/DX2                !
 ! D37   D(8,7,9,23)            -5.3159         estimate D2E/DX2                !
 ! D38   D(8,7,9,24)          -122.0423         estimate D2E/DX2                !
 ! D39   D(7,9,10,11)         -108.754          estimate D2E/DX2                !
 ! D40   D(7,9,10,12)           73.9984         estimate D2E/DX2                !
 ! D41   D(23,9,10,11)          10.6705         estimate D2E/DX2                !
 ! D42   D(23,9,10,12)        -166.5771         estimate D2E/DX2                !
 ! D43   D(24,9,10,11)         127.3226         estimate D2E/DX2                !
 ! D44   D(24,9,10,12)         -49.9251         estimate D2E/DX2                !
 ! D45   D(9,10,12,4)           -9.2975         estimate D2E/DX2                !
 ! D46   D(9,10,12,13)         172.8596         estimate D2E/DX2                !
 ! D47   D(11,10,12,4)         173.6569         estimate D2E/DX2                !
 ! D48   D(11,10,12,13)         -4.1859         estimate D2E/DX2                !
 ! D49   D(4,12,13,14)         -40.6068         estimate D2E/DX2                !
 ! D50   D(4,12,13,18)         140.1016         estimate D2E/DX2                !
 ! D51   D(10,12,13,14)        137.4018         estimate D2E/DX2                !
 ! D52   D(10,12,13,18)        -41.8898         estimate D2E/DX2                !
 ! D53   D(12,13,14,15)        178.9821         estimate D2E/DX2                !
 ! D54   D(12,13,14,25)         -2.614          estimate D2E/DX2                !
 ! D55   D(18,13,14,15)         -1.7059         estimate D2E/DX2                !
 ! D56   D(18,13,14,25)        176.6979         estimate D2E/DX2                !
 ! D57   D(12,13,18,17)       -179.126          estimate D2E/DX2                !
 ! D58   D(12,13,18,29)         -0.1509         estimate D2E/DX2                !
 ! D59   D(14,13,18,17)          1.5593         estimate D2E/DX2                !
 ! D60   D(14,13,18,29)       -179.4656         estimate D2E/DX2                !
 ! D61   D(13,14,15,16)          0.5238         estimate D2E/DX2                !
 ! D62   D(13,14,15,26)       -179.8004         estimate D2E/DX2                !
 ! D63   D(25,14,15,16)       -177.922          estimate D2E/DX2                !
 ! D64   D(25,14,15,26)          1.7538         estimate D2E/DX2                !
 ! D65   D(14,15,16,17)          0.8538         estimate D2E/DX2                !
 ! D66   D(14,15,16,27)        179.8129         estimate D2E/DX2                !
 ! D67   D(26,15,16,17)       -178.822          estimate D2E/DX2                !
 ! D68   D(26,15,16,27)          0.1371         estimate D2E/DX2                !
 ! D69   D(15,16,17,18)         -0.9981         estimate D2E/DX2                !
 ! D70   D(15,16,17,28)        178.9183         estimate D2E/DX2                !
 ! D71   D(27,16,17,18)       -179.9573         estimate D2E/DX2                !
 ! D72   D(27,16,17,28)         -0.0408         estimate D2E/DX2                !
 ! D73   D(16,17,18,13)         -0.2294         estimate D2E/DX2                !
 ! D74   D(16,17,18,29)       -179.2329         estimate D2E/DX2                !
 ! D75   D(28,17,18,13)        179.8541         estimate D2E/DX2                !
 ! D76   D(28,17,18,29)          0.8505         estimate D2E/DX2                !
 ! D77   D(5,19,20,2)            0.3212         estimate D2E/DX2                !
 ! D78   D(5,19,20,31)        -178.6235         estimate D2E/DX2                !
 ! D79   D(30,19,20,2)         177.8854         estimate D2E/DX2                !
 ! D80   D(30,19,20,31)         -1.0592         estimate D2E/DX2                !
 --------------------------------------------------------------------------------
 Trust Radius=1.00D-01 FncErr=1.00D-07 GrdErr=1.00D-06 EigMax=2.50D+02 EigMin=1.00D-04
 Number of steps in this run=    186 maximum allowed number of steps=    186.
 GradGradGradGradGradGradGradGradGradGradGradGradGradGradGradGradGradGrad

 Leave Link  103 at Tue Mar  1 20:47:57 2022, MaxMem=   104857600 cpu:               0.1 elap:               0.0
 (Enter /dades/curu/g16A03_MST/g16/l202.exe)
                          Input orientation:                          
 ---------------------------------------------------------------------
 Center     Atomic      Atomic             Coordinates (Angstroms)
 Number     Number       Type             X           Y           Z
 ---------------------------------------------------------------------
      1         17           0       -0.523000    4.063000    1.838000
      2          6           0       -1.157000    2.617000    1.153000
      3          6           0       -0.323000    1.515000    0.958000
      4          6           0       -0.794000    0.311000    0.383000
      5          6           0       -2.177000    0.235000    0.087000
      6          7           0       -2.852000   -0.889000   -0.410000
      7          6           0       -2.536000   -2.204000   -0.226000
      8          8           0       -3.225000   -3.076000   -0.750000
      9          6           0       -1.422000   -2.505000    0.716000
     10          6           0       -0.110000   -2.108000    0.132000
     11          8           0        0.668000   -2.999000   -0.225000
     12          7           0        0.167000   -0.733000    0.087000
     13          6           0        1.488000   -0.311000   -0.325000
     14          6           0        1.666000    0.769000   -1.200000
     15          6           0        2.946000    1.188000   -1.580000
     16          6           0        4.069000    0.526000   -1.099000
     17          6           0        3.913000   -0.569000   -0.250000
     18          6           0        2.633000   -0.983000    0.130000
     19          6           0       -2.996000    1.371000    0.253000
     20          6           0       -2.491000    2.555000    0.786000
     21          1           0        0.720000    1.607000    1.265000
     22          1           0       -3.739000   -0.759000   -0.890000
     23          1           0       -1.410000   -3.584000    0.911000
     24          1           0       -1.581000   -2.017000    1.685000
     25          1           0        0.809000    1.290000   -1.624000
     26          1           0        3.062000    2.031000   -2.258000
     27          1           0        5.065000    0.850000   -1.397000
     28          1           0        4.784000   -1.101000    0.115000
     29          1           0        2.550000   -1.835000    0.805000
     30          1           0       -4.058000    1.332000    0.003000
     31          1           0       -3.146000    3.412000    0.926000
 ---------------------------------------------------------------------
                    Distance matrix (angstroms):
                    1          2          3          4          5
     1  Cl   0.000000
     2  C    1.721074   0.000000
     3  C    2.703092   1.395702   0.000000
     4  C    4.033357   2.458110   1.414949   0.000000
     5  C    4.522754   2.801906   2.415441   1.416362   0.000000
     6  N    5.916084   4.196192   3.747864   2.510819   1.402145
     7  C    6.898373   5.200512   4.486668   3.119402   2.485070
     8  O    8.060017   6.348880   5.693518   4.320326   3.572337
     9  C    6.723519   5.147434   4.174538   2.904329   2.910887
    10  C    6.415781   4.946137   3.722066   2.526345   3.124766
    11  O    7.452939   6.063742   4.770510   3.669224   4.318579
    12  N    5.152059   3.756572   2.460131   1.449508   2.536013
    13  C    5.277743   4.213513   2.874037   2.468941   3.728282
    14  C    4.987144   4.113519   3.028135   2.960955   4.087808
    15  C    5.655290   5.132830   4.151474   4.313942   5.471035
    16  C    6.497908   6.062579   4.949650   5.088351   6.364259
    17  C    6.744869   6.150114   4.872988   4.830211   6.152080
    18  C    6.191907   5.326409   3.957717   3.671890   4.962003
    19  C    3.984322   2.396756   2.768156   2.447305   1.410253
    20  C    2.693286   1.384951   2.410686   2.842139   2.443276
    21  H    2.811639   2.134426   1.091129   2.179389   3.415066
    22  H    6.405960   4.715713   4.500582   3.382078   2.093420
    23  H    7.753883   6.210875   5.213787   3.978601   3.981460
    24  H    6.173263   4.683669   3.819178   2.781035   2.824947
    25  H    4.631328   3.652097   2.828210   2.748836   3.599547
    26  H    5.810204   5.456948   4.697567   4.980162   6.014296
    27  H    7.212097   6.952559   5.917668   6.147097   7.418022
    28  H    7.602623   7.084945   5.799617   5.760178   7.088103
    29  H    6.730291   5.803728   4.415885   3.995715   5.210082
    30  H    4.829266   3.374837   3.859500   3.441008   2.179134
    31  H    2.852310   2.153990   3.401318   3.929752   3.425815
                    6          7          8          9         10
     6  N    0.000000
     7  C    1.364895   0.000000
     8  O    2.244482   1.228691   0.000000
     9  C    2.433975   1.489618   2.392907   0.000000
    10  C    3.049310   2.454151   3.379079   1.489969   0.000000
    11  O    4.108129   3.301158   3.928995   2.344700   1.235562
    12  N    3.063610   3.093221   4.206647   2.461818   1.403346
    13  C    4.379145   4.448126   5.480713   3.790174   2.447787
    14  C    4.877027   5.238722   6.237660   4.891408   3.633941
    15  C    6.268942   6.587208   7.546644   6.163545   4.809750
    16  C    7.097689   7.200073   8.142398   6.529339   5.090909
    17  C    6.774454   6.653075   7.581958   5.757037   4.324231
    18  C    5.512319   5.323170   6.282612   4.370687   2.964739
    19  C    2.359641   3.636161   4.564456   4.208945   4.521845
    20  C    3.663587   4.865619   5.882705   5.172162   5.276405
    21  H    4.668493   5.229564   6.446219   4.668845   3.971626
    22  H    1.016892   1.994024   2.377453   3.316058   4.004239
    23  H    3.329779   2.113065   2.512212   1.096545   2.115518
    24  H    2.697564   2.144508   3.123050   1.096534   2.141012
    25  H    4.429984   5.035024   6.008243   4.985478   3.933764
    26  H    6.849591   7.307657   8.239046   7.037487   5.736288
    27  H    8.165610   8.274863   9.195444   7.602760   6.153717
    28  H    7.656962   7.410485   8.294150   6.391154   4.996556
    29  H    5.617183   5.202549   6.108087   4.029095   2.757364
    30  H    2.560829   3.856452   4.548776   4.709505   5.238029
    31  H    4.513306   5.765298   6.701445   6.166617   6.349656
                   11         12         13         14         15
    11  O    0.000000
    12  N    2.341602   0.000000
    13  C    2.812071   1.446675   0.000000
    14  C    4.018016   2.481809   1.401324   0.000000
    15  C    4.955429   3.767223   2.438809   1.399415   0.000000
    16  C    4.975571   4.268171   2.821561   2.417366   1.389509
    17  C    4.054078   3.764702   2.439839   2.782401   2.406458
    18  C    2.837518   2.479013   1.403436   2.402809   2.781243
    19  C    5.722786   3.802491   4.823843   4.920148   6.220992
    20  C    6.469028   4.285383   5.027993   4.941117   6.085032
    21  H    4.841285   2.677516   2.607038   2.770088   3.636573
    22  H    4.988133   4.026418   5.276501   5.625381   6.996866
    23  H    2.439427   3.360670   4.542976   5.732949   6.924724
    24  H    3.109731   2.694024   4.045899   5.160235   6.436302
    25  H    4.513602   2.726209   2.170632   1.088883   2.139885
    26  H    5.930027   4.638938   3.420370   2.158894   1.088021
    27  H    5.960033   5.357103   3.910503   3.405667   2.153577
    28  H    4.545268   4.631727   3.417794   3.866271   3.389807
    29  H    2.440844   2.721877   2.174240   3.403277   3.870862
    30  H    6.414407   4.703393   5.793544   5.876083   7.182106
    31  H    7.548001   5.372236   6.074511   5.887331   6.952602
                   16         17         18         19         20
    16  C    0.000000
    17  C    1.394332   0.000000
    18  C    2.418598   1.397926   0.000000
    19  C    7.242662   7.193809   6.102629   0.000000
    20  C    7.120651   7.200270   6.261242   1.393187   0.000000
    21  H    4.239441   4.150355   3.414073   3.858561   3.382110
    22  H    7.915792   7.681068   6.457009   2.528912   3.917790
    23  H    7.138042   6.226755   4.870422   5.244081   6.234702
    24  H    6.792643   6.002080   4.609227   3.940989   4.747577
    25  H    3.389236   3.870216   3.401473   4.243550   4.277654
    26  H    2.149966   3.393562   3.869209   6.590909   6.354236
    27  H    1.088943   2.157840   3.406794   8.244614   8.047711
    28  H    2.152243   1.083923   2.154286   8.164449   8.169590
    29  H    3.392182   2.138586   1.090146   6.429717   6.684620
    30  H    8.240884   8.198454   7.081302   1.091726   2.136424
    31  H    8.030308   8.189067   7.303868   2.154324   1.087692
                   21         22         23         24         25
    21  H    0.000000
    22  H    5.488594   0.000000
    23  H    5.622161   4.080253   0.000000
    24  H    4.313279   3.587500   1.756077   0.000000
    25  H    2.907702   5.041970   5.925037   5.253364   0.000000
    26  H    4.251620   7.477240   7.846628   7.313754   2.455004
    27  H    5.151535   8.964170   8.180027   7.866875   4.284701
    28  H    5.017157   8.588860   6.720457   6.619455   4.953951
    29  H    3.925285   6.601691   4.330339   4.227610   4.323974
    30  H    4.949500   2.295973   5.657157   4.492266   5.131918
    31  H    4.280059   4.587673   7.208185   5.700820   5.162113
                   26         27         28         29         30
    26  H    0.000000
    27  H    2.479534   0.000000
    28  H    4.290202   2.484252   0.000000
    29  H    4.958837   4.287570   2.450635   0.000000
    30  H    7.503008   9.242373   9.171314   7.371483   0.000000
    31  H    7.112263   8.909584   9.160229   7.745325   2.451545
                   31
    31  H    0.000000
 Stoichiometry    C15H11ClN2O2
 Framework group  C1[X(C15H11ClN2O2)]
 Deg. of freedom    87
 Full point group                 C1      NOp   1
 Largest Abelian subgroup         C1      NOp   1
 Largest concise Abelian subgroup C1      NOp   1
                         Standard orientation:                         
 ---------------------------------------------------------------------
 Center     Atomic      Atomic             Coordinates (Angstroms)
 Number     Number       Type             X           Y           Z
 ---------------------------------------------------------------------
      1         17           0        0.749677    4.147535   -0.642802
      2          6           0        1.206137    2.539732   -0.232056
      3          6           0        0.314022    1.487281   -0.442914
      4          6           0        0.637282    0.151698   -0.105569
      5          6           0        1.944849   -0.092616    0.380910
      6          7           0        2.485124   -1.347694    0.695379
      7          6           0        2.161213   -2.557773    0.153413
      8          8           0        2.719162   -3.575609    0.556383
      9          6           0        1.217357   -2.550234   -0.998993
     10          6           0       -0.161619   -2.202582   -0.554503
     11          8           0       -1.019461   -3.091799   -0.550696
     12          7           0       -0.395343   -0.858364   -0.226127
     13          6           0       -1.752579   -0.446140    0.058214
     14          6           0       -2.042434    0.413196    1.126499
     15          6           0       -3.353880    0.826852    1.386038
     16          6           0       -4.398597    0.378528    0.587098
     17          6           0       -4.135404   -0.499729   -0.463406
     18          6           0       -2.823789   -0.908533   -0.721746
     19          6           0        2.818338    0.987249    0.625289
     20          6           0        2.453666    2.296262    0.317927
     21          1           0       -0.656422    1.724494   -0.881697
     22          1           0        3.279632   -1.397848    1.328080
     23          1           0        1.202607   -3.551294   -1.446286
     24          1           0        1.558049   -1.865144   -1.784465
     25          1           0       -1.254485    0.757539    1.794503
     26          1           0       -3.556686    1.497064    2.218789
     27          1           0       -5.419535    0.697897    0.790778
     28          1           0       -4.947713   -0.867309   -1.079790
     29          1           0       -2.654291   -1.585727   -1.559061
     30          1           0        3.819144    0.813193    1.025234
     31          1           0        3.151746    3.111569    0.494087
 ---------------------------------------------------------------------
 Rotational constants (GHZ):           0.3250566           0.3186107           0.1755593
 Leave Link  202 at Tue Mar  1 20:47:57 2022, MaxMem=   104857600 cpu:               0.0 elap:               0.0
 (Enter /dades/curu/g16A03_MST/g16/l301.exe)
 Standard basis: 6-31G(d) (6D, 7F)
 Ernie: Thresh=  0.10000D-02 Tol=  0.10000D-05 Strict=F.
 There are   326 symmetry adapted cartesian basis functions of A   symmetry.
 There are   326 symmetry adapted basis functions of A   symmetry.
   326 basis functions,   628 primitive gaussians,   326 cartesian basis functions
    74 alpha electrons       74 beta electrons
       nuclear repulsion energy      1597.0352833668 Hartrees.
 IExCor=  402 DFT=T Ex+Corr=B3LYP ExCW=0 ScaHFX=  0.200000
 ScaDFX=  0.800000  0.720000  1.000000  0.810000 ScalE2=  1.000000  1.000000
 IRadAn=      5 IRanWt=     -1 IRanGd=            0 ICorTp=0 IEmpDi=  4
 NAtoms=   31 NActive=   31 NUniq=   31 SFac= 1.00D+00 NAtFMM=   60 NAOKFM=F Big=F
 Integral buffers will be    131072 words long.
 Raffenetti 2 integral format.
 Two-electron integral symmetry is turned on.
 Using the following non-standard input for PCM:
 MSTModel=DFT cav
 --- end of non-standard input.
 MST model for solvation energy: B3LYP parametrization.
 MST cavity parameters:
 ISph   IAn     Re0     Alpha   Atom Type   QCorr
 ------------------------------------------------
   1     17     1.80     1.25      Cl         F
   2      6     1.50     1.25      C          F
   3      6     1.50     1.25      CH         F
   4      6     1.50     1.25      C          F
   5      6     1.50     1.25      C          F
   6      7     1.40     1.25      NH         F
   7      6     1.50     1.25      C          F
   8      8     1.40     1.25      O          F
   9      6     1.50     1.25      CH2        F
  10      6     1.50     1.25      C          F
  11      8     1.40     1.25      O          F
  12      7     1.40     1.25      N          F
  13      6     1.50     1.25      C          F
  14      6     1.50     1.25      CH         F
  15      6     1.50     1.25      CH         F
  16      6     1.50     1.25      CH         F
  17      6     1.50     1.25      CH         F
  18      6     1.50     1.25      CH         F
  19      6     1.50     1.25      CH         F
  20      6     1.50     1.25      CH         F
  21      1     1.20     1.25      CH         F
  22      1     0.90     1.25      NH         F
  23      1     1.20     1.25      CH2        F
  24      1     1.20     1.25      CH2        F
  25      1     1.20     1.25      CH         F
  26      1     1.20     1.25      CH         F
  27      1     1.20     1.25      CH         F
  28      1     1.20     1.25      CH         F
  29      1     1.20     1.25      CH         F
  30      1     1.20     1.25      CH         F
  31      1     1.20     1.25      CH         F
 ------------------------------------------------------------------------------
 Polarizable Continuum Model (PCM)
 =================================
 Model                : PCM.
 Atomic radii         : MST.
 Polarization charges : Total charges.
 Charge compensation  : None.
 Solution method      : On-the-fly selection.
 Cavity type          : Scaled VdW (van der Waals Surface) (Alpha=1.250).
 Cavity algorithm     : GePol (No added spheres)
                        Default sphere list used, NSphG=   31.
                        Lebedev-Laikov grids with approx.  5.0 points / Ang**2.
                        Smoothing algorithm: York/Karplus (Gamma=1.0000).
                        Polarization charges: spherical gaussians, with
                                              point-specific exponents (IZeta= 3).
                        Self-potential: point-specific (ISelfS= 7).
                        Self-field    : sphere-specific E.n sum rule (ISelfD= 2).
 1st derivatives      : Analytical E(r).r(x)/FMM algorithm (CHGder, D1EAlg=3).
                        Cavity 1st derivative terms included.
 Solvent              : Water, Eps=  78.355300 Eps(inf)=   1.777849
 ------------------------------------------------------------------------------
 GePol: Number of generator spheres                  =      31
 GePol: Total number of spheres                      =      31
 GePol: Number of exposed spheres                    =      31 (100.00%)
 GePol: Number of points                             =    2494
 GePol: Average weight of points                     =       0.13
 GePol: Minimum weight of points                     =   0.18D-09
 GePol: Maximum weight of points                     =    0.22001
 GePol: Number of points with low weight             =     164
 GePol: Fraction of low-weight points (<1% of avg)   =       6.58%
 GePol: Cavity surface area                          =    318.479 Ang**2
 GePol: Cavity volume                                =    313.207 Ang**3
 Surface areas from nonelectrostatic (unscaled) cavity and vdw tensions:
 Sphere =    1 Type =  Cl  Surf =       32.251 Tension =       -0.112
 Sphere =    2 Type =  C   Surf =        5.222 Tension =       -0.101
 Sphere =    3 Type =  CH  Surf =        7.257 Tension =       -0.140
 Sphere =    4 Type =  C   Surf =        6.532 Tension =       -0.101
 Sphere =    5 Type =  C   Surf =        6.761 Tension =       -0.101
 Sphere =    6 Type =  NH  Surf =        7.301 Tension =       -0.159
 Sphere =    7 Type =  C   Surf =        6.981 Tension =       -0.101
 Sphere =    8 Type =  O   Surf =       16.467 Tension =       -0.117
 Sphere =    9 Type =  CH2 Surf =        3.663 Tension =       -0.139
 Sphere =   10 Type =  C   Surf =        6.803 Tension =       -0.101
 Sphere =   11 Type =  O   Surf =       15.516 Tension =       -0.117
 Sphere =   12 Type =  N   Surf =        4.537 Tension =       -0.105
 Sphere =   13 Type =  C   Surf =        6.005 Tension =       -0.101
 Sphere =   14 Type =  CH  Surf =        7.620 Tension =       -0.140
 Sphere =   15 Type =  CH  Surf =        7.781 Tension =       -0.140
 Sphere =   16 Type =  CH  Surf =        7.791 Tension =       -0.140
 Sphere =   17 Type =  CH  Surf =        7.792 Tension =       -0.140
 Sphere =   18 Type =  CH  Surf =        7.533 Tension =       -0.140
 Sphere =   19 Type =  CH  Surf =        7.696 Tension =       -0.140
 Sphere =   20 Type =  CH  Surf =        7.511 Tension =       -0.140
 Sphere =   21 Type =  CH  Surf =        9.686 Tension =       -0.140
 Sphere =   22 Type =  NH  Surf =        4.729 Tension =       -0.159
 Sphere =   23 Type =  CH2 Surf =        9.860 Tension =       -0.139
 Sphere =   24 Type =  CH2 Surf =       10.061 Tension =       -0.139
 Sphere =   25 Type =  CH  Surf =       10.213 Tension =       -0.140
 Sphere =   26 Type =  CH  Surf =       10.242 Tension =       -0.140
 Sphere =   27 Type =  CH  Surf =       10.254 Tension =       -0.140
 Sphere =   28 Type =  CH  Surf =       10.217 Tension =       -0.140
 Sphere =   29 Type =  CH  Surf =        9.646 Tension =       -0.140
 Sphere =   30 Type =  CH  Surf =       10.229 Tension =       -0.140
 Sphere =   31 Type =  CH  Surf =       10.111 Tension =       -0.140
 PCM non-electrostatic energy =         0.0037938211 Hartrees.
 Nuclear repulsion after PCM non-electrostatic terms =     1597.0390771878 Hartrees.
 Leave Link  301 at Tue Mar  1 20:47:57 2022, MaxMem=   104857600 cpu:               0.1 elap:               0.1
 (Enter /dades/curu/g16A03_MST/g16/l302.exe)
 NPDir=0 NMtPBC=     1 NCelOv=     1 NCel=       1 NClECP=     1 NCelD=      1
         NCelK=      1 NCelE2=     1 NClLst=     1 CellRange=     0.0.
 One-electron integrals computed using PRISM.
 One-electron integral symmetry used in STVInt
 NBasis=   326 RedAO= T EigKep=  3.53D-04  NBF=   326
 NBsUse=   326 1.00D-06 EigRej= -1.00D+00 NBFU=   326
 Precomputing XC quadrature grid using
 IXCGrd= 4 IRadAn=           5 IRanWt=          -1 IRanGd=           0 AccXCQ= 0.00D+00.
 Generated NRdTot=       0 NPtTot=           0 NUsed=           0 NTot=          32
 NSgBfM=   324   324   324   324   324 MxSgAt=    31 MxSgA2=    31.
 Leave Link  302 at Tue Mar  1 20:47:58 2022, MaxMem=   104857600 cpu:               3.7 elap:               1.0
 (Enter /dades/curu/g16A03_MST/g16/l303.exe)
 DipDrv:  MaxL=1.
 Leave Link  303 at Tue Mar  1 20:47:58 2022, MaxMem=   104857600 cpu:               0.1 elap:               0.1
 (Enter /dades/curu/g16A03_MST/g16/l401.exe)
 ExpMin= 1.43D-01 ExpMax= 2.52D+04 ExpMxC= 3.78D+03 IAcc=3 IRadAn=         5 AccDes= 0.00D+00
 Harris functional with IExCor=  402 and IRadAn=       5 diagonalized for initial guess.
 HarFok:  IExCor=  402 AccDes= 0.00D+00 IRadAn=         5 IDoV= 1 UseB2=F ITyADJ=14
 ICtDFT=  3500011 ScaDFX=  1.000000  1.000000  1.000000  1.000000
 FoFCou: FMM=F IPFlag=           0 FMFlag=      100000 FMFlg1=           0
         NFxFlg=           0 DoJE=T BraDBF=F KetDBF=T FulRan=T
         wScrn=  0.000000 ICntrl=       500 IOpCl=  0 I1Cent=   200000004 NGrid=           0
         NMat0=    1 NMatS0=      1 NMatT0=    0 NMatD0=    1 NMtDS0=    0 NMtDT0=    0
 Petite list used in FoFCou.
 Harris En= -1298.30617765314    
 JPrj=0 DoOrth=F DoCkMO=F.
 Leave Link  401 at Tue Mar  1 20:48:06 2022, MaxMem=   104857600 cpu:              31.8 elap:               8.0
 (Enter /dades/curu/g16A03_MST/g16/l502.exe)
 Integral symmetry usage will be decided dynamically.
 Closed shell SCF:
 Using DIIS extrapolation, IDIIS=  1040.
 NGot=   104857600 LenX=   104639574 LenY=   104532857
 Requested convergence on RMS density matrix=1.00D-08 within2000 cycles.
 Requested convergence on MAX density matrix=1.00D-06.
 Requested convergence on             energy=1.00D-06.
 No special actions if energy rises.

 Cycle   1  Pass 1  IDiag  1:
 FoFJK:  IHMeth= 1 ICntrl=       0 DoSepK=F KAlg= 0 I1Cent=           0 FoldK=F
 IRaf= 820000000 NMat=       1 IRICut=       1 DoRegI=T DoRafI=F ISym2E= 0 IDoP0=0 IntGTp=1.
 FoFCou: FMM=F IPFlag=           0 FMFlag=      100000 FMFlg1=           0
         NFxFlg=           0 DoJE=F BraDBF=F KetDBF=F FulRan=T
         wScrn=  0.000000 ICntrl=         0 IOpCl=  0 I1Cent=           0 NGrid=           0
         NMat0=    1 NMatS0=      1 NMatT0=    0 NMatD0=    1 NMtDS0=    0 NMtDT0=    0
 Symmetry not used in FoFCou.
 Inv3:  Mode=1 IEnd=    18660108.
 Iteration    1 A*A^-1 deviation from unit magnitude is 6.44D-15 for   2485.
 Iteration    1 A*A^-1 deviation from orthogonality  is 2.44D-15 for   1211    287.
 Iteration    1 A^-1*A deviation from unit magnitude is 6.00D-15 for   2485.
 Iteration    1 A^-1*A deviation from orthogonality  is 1.39D-15 for   2473   2344.
 E= -1297.94338433917    
 DIIS: error= 2.81D-02 at cycle   1 NSaved=   1.
 NSaved= 1 IEnMin= 1 EnMin= -1297.94338433917     IErMin= 1 ErrMin= 2.81D-02
 ErrMax= 2.81D-02  0.00D+00 EMaxC= 1.00D-01 BMatC= 5.04D-01 BMatP= 5.04D-01
 IDIUse=3 WtCom= 7.19D-01 WtEn= 2.81D-01
 Coeff-Com:  0.100D+01
 Coeff-En:   0.100D+01
 Coeff:      0.100D+01
 Gap=     0.305 Goal=   None    Shift=    0.000
 GapD=    0.305 DampG=1.000 DampE=0.500 DampFc=0.5000 IDamp=-1.
 Damping current iteration by 5.00D-01
 RMSDP=5.45D-03 MaxDP=2.31D-01              OVMax= 2.41D-01

 Cycle   2  Pass 1  IDiag  1:
 E= -1298.06774736575     Delta-E=       -0.124363026586 Rises=F Damp=T
 DIIS: error= 9.39D-03 at cycle   2 NSaved=   2.
 NSaved= 2 IEnMin= 2 EnMin= -1298.06774736575     IErMin= 2 ErrMin= 9.39D-03
 ErrMax= 9.39D-03  0.00D+00 EMaxC= 1.00D-01 BMatC= 9.07D-02 BMatP= 5.04D-01
 IDIUse=3 WtCom= 9.06D-01 WtEn= 9.39D-02
 Coeff-Com:  0.222D+00 0.778D+00
 Coeff-En:   0.342D+00 0.658D+00
 Coeff:      0.233D+00 0.767D+00
 Gap=     0.239 Goal=   None    Shift=    0.000
 RMSDP=1.86D-03 MaxDP=1.37D-01 DE=-1.24D-01 OVMax= 2.16D-01

 Cycle   3  Pass 1  IDiag  1:
 E= -1298.33320490328     Delta-E=       -0.265457537528 Rises=F Damp=F
 DIIS: error= 1.00D-02 at cycle   3 NSaved=   3.
 NSaved= 3 IEnMin= 3 EnMin= -1298.33320490328     IErMin= 2 ErrMin= 9.39D-03
 ErrMax= 1.00D-02  0.00D+00 EMaxC= 1.00D-01 BMatC= 7.67D-02 BMatP= 9.07D-02
 IDIUse=3 WtCom= 9.00D-01 WtEn= 1.00D-01
 Coeff-Com:  0.480D-01 0.472D+00 0.480D+00
 Coeff-En:   0.000D+00 0.000D+00 0.100D+01
 Coeff:      0.432D-01 0.424D+00 0.532D+00
 Gap=     0.189 Goal=   None    Shift=    0.000
 RMSDP=1.13D-03 MaxDP=6.17D-02 DE=-2.65D-01 OVMax= 8.44D-02

 Cycle   4  Pass 1  IDiag  1:
 E= -1298.39354369346     Delta-E=       -0.060338790181 Rises=F Damp=F
 DIIS: error= 4.01D-03 at cycle   4 NSaved=   4.
 NSaved= 4 IEnMin= 4 EnMin= -1298.39354369346     IErMin= 4 ErrMin= 4.01D-03
 ErrMax= 4.01D-03  0.00D+00 EMaxC= 1.00D-01 BMatC= 1.05D-02 BMatP= 7.67D-02
 IDIUse=3 WtCom= 9.60D-01 WtEn= 4.01D-02
 Coeff-Com:  0.405D-02 0.766D-01 0.288D+00 0.631D+00
 Coeff-En:   0.000D+00 0.000D+00 0.126D+00 0.874D+00
 Coeff:      0.389D-02 0.735D-01 0.281D+00 0.641D+00
 Gap=     0.187 Goal=   None    Shift=    0.000
 RMSDP=3.56D-04 MaxDP=2.11D-02 DE=-6.03D-02 OVMax= 2.93D-02

 Cycle   5  Pass 1  IDiag  1:
 E= -1298.40209039681     Delta-E=       -0.008546703352 Rises=F Damp=F
 DIIS: error= 7.25D-04 at cycle   5 NSaved=   5.
 NSaved= 5 IEnMin= 5 EnMin= -1298.40209039681     IErMin= 5 ErrMin= 7.25D-04
 ErrMax= 7.25D-04  0.00D+00 EMaxC= 1.00D-01 BMatC= 5.77D-04 BMatP= 1.05D-02
 IDIUse=3 WtCom= 9.93D-01 WtEn= 7.25D-03
 Coeff-Com: -0.803D-03 0.674D-02 0.112D+00 0.335D+00 0.547D+00
 Coeff-En:   0.000D+00 0.000D+00 0.000D+00 0.000D+00 0.100D+01
 Coeff:     -0.797D-03 0.669D-02 0.111D+00 0.333D+00 0.550D+00
 Gap=     0.186 Goal=   None    Shift=    0.000
 RMSDP=8.74D-05 MaxDP=4.51D-03 DE=-8.55D-03 OVMax= 7.37D-03

 Cycle   6  Pass 1  IDiag  1:
 E= -1298.40257289041     Delta-E=       -0.000482493598 Rises=F Damp=F
 DIIS: error= 3.15D-04 at cycle   6 NSaved=   6.
 NSaved= 6 IEnMin= 6 EnMin= -1298.40257289041     IErMin= 6 ErrMin= 3.15D-04
 ErrMax= 3.15D-04  0.00D+00 EMaxC= 1.00D-01 BMatC= 4.80D-05 BMatP= 5.77D-04
 IDIUse=3 WtCom= 9.97D-01 WtEn= 3.15D-03
 Coeff-Com: -0.586D-03-0.139D-02 0.391D-01 0.129D+00 0.296D+00 0.537D+00
 Coeff-En:   0.000D+00 0.000D+00 0.000D+00 0.000D+00 0.000D+00 0.100D+01
 Coeff:     -0.584D-03-0.139D-02 0.390D-01 0.129D+00 0.295D+00 0.539D+00
 Gap=     0.185 Goal=   None    Shift=    0.000
 RMSDP=2.50D-05 MaxDP=1.39D-03 DE=-4.82D-04 OVMax= 1.30D-03

 Cycle   7  Pass 1  IDiag  1:
 E= -1298.40260639434     Delta-E=       -0.000033503929 Rises=F Damp=F
 DIIS: error= 1.25D-04 at cycle   7 NSaved=   7.
 NSaved= 7 IEnMin= 7 EnMin= -1298.40260639434     IErMin= 7 ErrMin= 1.25D-04
 ErrMax= 1.25D-04  0.00D+00 EMaxC= 1.00D-01 BMatC= 7.01D-06 BMatP= 4.80D-05
 IDIUse=3 WtCom= 9.99D-01 WtEn= 1.25D-03
 Coeff-Com: -0.190D-03-0.143D-02 0.115D-01 0.408D-01 0.119D+00 0.328D+00
 Coeff-Com:  0.501D+00
 Coeff-En:   0.000D+00 0.000D+00 0.000D+00 0.000D+00 0.000D+00 0.774D-01
 Coeff-En:   0.923D+00
 Coeff:     -0.190D-03-0.143D-02 0.115D-01 0.408D-01 0.119D+00 0.328D+00
 Coeff:      0.502D+00
 Gap=     0.186 Goal=   None    Shift=    0.000
 RMSDP=8.90D-06 MaxDP=5.07D-04 DE=-3.35D-05 OVMax= 6.56D-04

 Cycle   8  Pass 1  IDiag  1:
 E= -1298.40261178426     Delta-E=       -0.000005389918 Rises=F Damp=F
 DIIS: error= 1.90D-05 at cycle   8 NSaved=   8.
 NSaved= 8 IEnMin= 8 EnMin= -1298.40261178426     IErMin= 8 ErrMin= 1.90D-05
 ErrMax= 1.90D-05  0.00D+00 EMaxC= 1.00D-01 BMatC= 4.35D-07 BMatP= 7.01D-06
 IDIUse=1 WtCom= 1.00D+00 WtEn= 0.00D+00
 Coeff-Com:  0.202D-06-0.708D-03 0.187D-02 0.715D-02 0.304D-01 0.112D+00
 Coeff-Com:  0.254D+00 0.596D+00
 Coeff:      0.202D-06-0.708D-03 0.187D-02 0.715D-02 0.304D-01 0.112D+00
 Coeff:      0.254D+00 0.596D+00
 Gap=     0.186 Goal=   None    Shift=    0.000
 RMSDP=2.50D-06 MaxDP=1.25D-04 DE=-5.39D-06 OVMax= 1.67D-04

 Cycle   9  Pass 1  IDiag  1:
 E= -1298.40261211737     Delta-E=       -0.000000333114 Rises=F Damp=F
 DIIS: error= 7.11D-06 at cycle   9 NSaved=   9.
 NSaved= 9 IEnMin= 9 EnMin= -1298.40261211737     IErMin= 9 ErrMin= 7.11D-06
 ErrMax= 7.11D-06  0.00D+00 EMaxC= 1.00D-01 BMatC= 6.24D-08 BMatP= 4.35D-07
 IDIUse=1 WtCom= 1.00D+00 WtEn= 0.00D+00
 Coeff-Com:  0.367D-04-0.227D-03-0.320D-03-0.111D-02 0.171D-02 0.200D-01
 Coeff-Com:  0.734D-01 0.321D+00 0.585D+00
 Coeff:      0.367D-04-0.227D-03-0.320D-03-0.111D-02 0.171D-02 0.200D-01
 Coeff:      0.734D-01 0.321D+00 0.585D+00
 Gap=     0.186 Goal=   None    Shift=    0.000
 RMSDP=9.77D-07 MaxDP=4.78D-05 DE=-3.33D-07 OVMax= 9.50D-05

 Cycle  10  Pass 1  IDiag  1:
 E= -1298.40261217396     Delta-E=       -0.000000056584 Rises=F Damp=F
 DIIS: error= 2.09D-06 at cycle  10 NSaved=  10.
 NSaved=10 IEnMin=10 EnMin= -1298.40261217396     IErMin=10 ErrMin= 2.09D-06
 ErrMax= 2.09D-06  0.00D+00 EMaxC= 1.00D-01 BMatC= 5.43D-09 BMatP= 6.24D-08
 IDIUse=1 WtCom= 1.00D+00 WtEn= 0.00D+00
 Coeff-Com:  0.227D-04-0.657D-04-0.311D-03-0.118D-02-0.167D-02 0.137D-02
 Coeff-Com:  0.172D-01 0.113D+00 0.307D+00 0.564D+00
 Coeff:      0.227D-04-0.657D-04-0.311D-03-0.118D-02-0.167D-02 0.137D-02
 Coeff:      0.172D-01 0.113D+00 0.307D+00 0.564D+00
 Gap=     0.186 Goal=   None    Shift=    0.000
 RMSDP=3.11D-07 MaxDP=1.23D-05 DE=-5.66D-08 OVMax= 2.68D-05

 Cycle  11  Pass 1  IDiag  1:
 E= -1298.40261217937     Delta-E=       -0.000000005416 Rises=F Damp=F
 DIIS: error= 6.36D-07 at cycle  11 NSaved=  11.
 NSaved=11 IEnMin=11 EnMin= -1298.40261217937     IErMin=11 ErrMin= 6.36D-07
 ErrMax= 6.36D-07  0.00D+00 EMaxC= 1.00D-01 BMatC= 4.78D-10 BMatP= 5.43D-09
 IDIUse=1 WtCom= 1.00D+00 WtEn= 0.00D+00
 Coeff-Com:  0.839D-05-0.800D-05-0.114D-03-0.459D-03-0.107D-02-0.154D-02
 Coeff-Com:  0.110D-04 0.164D-01 0.857D-01 0.276D+00 0.625D+00
 Coeff:      0.839D-05-0.800D-05-0.114D-03-0.459D-03-0.107D-02-0.154D-02
 Coeff:      0.110D-04 0.164D-01 0.857D-01 0.276D+00 0.625D+00
 Gap=     0.186 Goal=   None    Shift=    0.000
 RMSDP=8.97D-08 MaxDP=3.82D-06 DE=-5.42D-09 OVMax= 8.20D-06

 Cycle  12  Pass 1  IDiag  1:
 E= -1298.40261217982     Delta-E=       -0.000000000447 Rises=F Damp=F
 DIIS: error= 2.39D-07 at cycle  12 NSaved=  12.
 NSaved=12 IEnMin=12 EnMin= -1298.40261217982     IErMin=12 ErrMin= 2.39D-07
 ErrMax= 2.39D-07  0.00D+00 EMaxC= 1.00D-01 BMatC= 6.07D-11 BMatP= 4.78D-10
 IDIUse=1 WtCom= 1.00D+00 WtEn= 0.00D+00
 Coeff-Com:  0.150D-05 0.304D-05-0.190D-04-0.863D-04-0.351D-03-0.928D-03
 Coeff-Com: -0.216D-02-0.657D-02 0.591D-02 0.702D-01 0.316D+00 0.618D+00
 Coeff:      0.150D-05 0.304D-05-0.190D-04-0.863D-04-0.351D-03-0.928D-03
 Coeff:     -0.216D-02-0.657D-02 0.591D-02 0.702D-01 0.316D+00 0.618D+00
 Gap=     0.186 Goal=   None    Shift=    0.000
 RMSDP=3.18D-08 MaxDP=1.56D-06 DE=-4.47D-10 OVMax= 2.74D-06

 Cycle  13  Pass 1  IDiag  1:
 E= -1298.40261217986     Delta-E=       -0.000000000041 Rises=F Damp=F
 DIIS: error= 4.75D-08 at cycle  13 NSaved=  13.
 NSaved=13 IEnMin=13 EnMin= -1298.40261217986     IErMin=13 ErrMin= 4.75D-08
 ErrMax= 4.75D-08  0.00D+00 EMaxC= 1.00D-01 BMatC= 3.90D-12 BMatP= 6.07D-11
 IDIUse=1 WtCom= 1.00D+00 WtEn= 0.00D+00
 Coeff-Com:  0.459D-07 0.147D-05 0.299D-05 0.727D-05-0.473D-04-0.196D-03
 Coeff-Com: -0.807D-03-0.398D-02-0.421D-02 0.575D-02 0.745D-01 0.262D+00
 Coeff-Com:  0.667D+00
 Coeff:      0.459D-07 0.147D-05 0.299D-05 0.727D-05-0.473D-04-0.196D-03
 Coeff:     -0.807D-03-0.398D-02-0.421D-02 0.575D-02 0.745D-01 0.262D+00
 Coeff:      0.667D+00
 Gap=     0.186 Goal=   None    Shift=    0.000
 RMSDP=8.13D-09 MaxDP=3.12D-07 DE=-4.12D-11 OVMax= 8.21D-07

 Error on total polarization charges =  0.01862
 SCF Done:  E(RB3LYP) =  -1298.40261218     A.U. after   13 cycles
            NFock= 13  Conv=0.81D-08     -V/T= 2.0073
 KE= 1.289039172075D+03 PE=-6.235479177378D+03 EE= 2.050998315935D+03
 Leave Link  502 at Tue Mar  1 20:52:15 2022, MaxMem=   104857600 cpu:             969.6 elap:             249.6
 (Enter /dades/curu/g16A03_MST/g16/l601.exe)
 Copying SCF densities to generalized density rwf, IOpCl= 0 IROHF=0.

 **********************************************************************

            Population analysis using the SCF density.

 **********************************************************************

 Orbital symmetries:
       Occupied  (A) (A) (A) (A) (A) (A) (A) (A) (A) (A) (A) (A)
                 (A) (A) (A) (A) (A) (A) (A) (A) (A) (A) (A) (A)
                 (A) (A) (A) (A) (A) (A) (A) (A) (A) (A) (A) (A)
                 (A) (A) (A) (A) (A) (A) (A) (A) (A) (A) (A) (A)
                 (A) (A) (A) (A) (A) (A) (A) (A) (A) (A) (A) (A)
                 (A) (A) (A) (A) (A) (A) (A) (A) (A) (A) (A) (A)
                 (A) (A)
       Virtual   (A) (A) (A) (A) (A) (A) (A) (A) (A) (A) (A) (A)
                 (A) (A) (A) (A) (A) (A) (A) (A) (A) (A) (A) (A)
                 (A) (A) (A) (A) (A) (A) (A) (A) (A) (A) (A) (A)
                 (A) (A) (A) (A) (A) (A) (A) (A) (A) (A) (A) (A)
                 (A) (A) (A) (A) (A) (A) (A) (A) (A) (A) (A) (A)
                 (A) (A) (A) (A) (A) (A) (A) (A) (A) (A) (A) (A)
                 (A) (A) (A) (A) (A) (A) (A) (A) (A) (A) (A) (A)
                 (A) (A) (A) (A) (A) (A) (A) (A) (A) (A) (A) (A)
                 (A) (A) (A) (A) (A) (A) (A) (A) (A) (A) (A) (A)
                 (A) (A) (A) (A) (A) (A) (A) (A) (A) (A) (A) (A)
                 (A) (A) (A) (A) (A) (A) (A) (A) (A) (A) (A) (A)
                 (A) (A) (A) (A) (A) (A) (A) (A) (A) (A) (A) (A)
                 (A) (A) (A) (A) (A) (A) (A) (A) (A) (A) (A) (A)
                 (A) (A) (A) (A) (A) (A) (A) (A) (A) (A) (A) (A)
                 (A) (A) (A) (A) (A) (A) (A) (A) (A) (A) (A) (A)
                 (A) (A) (A) (A) (A) (A) (A) (A) (A) (A) (A) (A)
                 (A) (A) (A) (A) (A) (A) (A) (A) (A) (A) (A) (A)
                 (A) (A) (A) (A) (A) (A) (A) (A) (A) (A) (A) (A)
                 (A) (A) (A) (A) (A) (A) (A) (A) (A) (A) (A) (A)
                 (A) (A) (A) (A) (A) (A) (A) (A) (A) (A) (A) (A)
                 (A) (A) (A) (A) (A) (A) (A) (A) (A) (A) (A) (A)
 The electronic state is 1-A.
 Alpha  occ. eigenvalues -- -101.55886 -19.13820 -19.12907 -14.40557 -14.38172
 Alpha  occ. eigenvalues --  -10.31489 -10.30617 -10.26402 -10.25937 -10.25689
 Alpha  occ. eigenvalues --  -10.24281 -10.21562 -10.21032 -10.20858 -10.20712
 Alpha  occ. eigenvalues --  -10.19942 -10.19776 -10.19581 -10.19508 -10.19305
 Alpha  occ. eigenvalues --   -9.47564  -7.23950  -7.22992  -7.22957  -1.05638
 Alpha  occ. eigenvalues --   -1.04707  -0.97334  -0.94610  -0.90184  -0.85732
 Alpha  occ. eigenvalues --   -0.83997  -0.79103  -0.77040  -0.75295  -0.74930
 Alpha  occ. eigenvalues --   -0.73169  -0.66069  -0.64206  -0.61957  -0.61669
 Alpha  occ. eigenvalues --   -0.59721  -0.57295  -0.55073  -0.52991  -0.50899
 Alpha  occ. eigenvalues --   -0.50321  -0.48936  -0.48384  -0.47833  -0.45881
 Alpha  occ. eigenvalues --   -0.45015  -0.44760  -0.44081  -0.43063  -0.42387
 Alpha  occ. eigenvalues --   -0.41661  -0.40700  -0.40619  -0.39556  -0.38898
 Alpha  occ. eigenvalues --   -0.38330  -0.37228  -0.36103  -0.35872  -0.35232
 Alpha  occ. eigenvalues --   -0.32330  -0.31757  -0.29975  -0.28108  -0.27466
 Alpha  occ. eigenvalues --   -0.26536  -0.25397  -0.23504  -0.22038
 Alpha virt. eigenvalues --   -0.03482  -0.02882  -0.02289  -0.00517   0.01254
 Alpha virt. eigenvalues --    0.03100   0.03990   0.09106   0.10281   0.11235
 Alpha virt. eigenvalues --    0.13294   0.13462   0.14255   0.14726   0.15404
 Alpha virt. eigenvalues --    0.15890   0.16036   0.17006   0.18859   0.18948
 Alpha virt. eigenvalues --    0.19744   0.21151   0.21774   0.22359   0.25028
 Alpha virt. eigenvalues --    0.26560   0.28032   0.28382   0.30126   0.30500
 Alpha virt. eigenvalues --    0.31630   0.32107   0.33608   0.33927   0.36194
 Alpha virt. eigenvalues --    0.38485   0.38960   0.40166   0.42221   0.43127
 Alpha virt. eigenvalues --    0.43345   0.46315   0.46548   0.50168   0.51406
 Alpha virt. eigenvalues --    0.51516   0.51886   0.52997   0.53254   0.54057
 Alpha virt. eigenvalues --    0.54729   0.55710   0.55940   0.57478   0.58047
 Alpha virt. eigenvalues --    0.58198   0.58881   0.59219   0.59440   0.60139
 Alpha virt. eigenvalues --    0.60294   0.60669   0.60781   0.61768   0.62402
 Alpha virt. eigenvalues --    0.63237   0.63752   0.65152   0.65711   0.66846
 Alpha virt. eigenvalues --    0.66896   0.67810   0.68559   0.70469   0.74192
 Alpha virt. eigenvalues --    0.75748   0.77292   0.78275   0.79971   0.80495
 Alpha virt. eigenvalues --    0.81835   0.82099   0.83376   0.83868   0.84073
 Alpha virt. eigenvalues --    0.84516   0.84750   0.84978   0.86051   0.86472
 Alpha virt. eigenvalues --    0.87548   0.88312   0.89574   0.90044   0.90478
 Alpha virt. eigenvalues --    0.91989   0.92320   0.92760   0.93721   0.95338
 Alpha virt. eigenvalues --    0.95821   0.96713   0.99188   1.00551   1.00955
 Alpha virt. eigenvalues --    1.02606   1.03471   1.04603   1.05570   1.07098
 Alpha virt. eigenvalues --    1.09138   1.09470   1.11483   1.11823   1.13068
 Alpha virt. eigenvalues --    1.14302   1.15833   1.17145   1.17781   1.20043
 Alpha virt. eigenvalues --    1.22203   1.23528   1.26127   1.28985   1.30723
 Alpha virt. eigenvalues --    1.30792   1.34755   1.37276   1.37931   1.38970
 Alpha virt. eigenvalues --    1.41482   1.41969   1.42711   1.42809   1.45409
 Alpha virt. eigenvalues --    1.46242   1.47582   1.48593   1.49262   1.50729
 Alpha virt. eigenvalues --    1.52593   1.54284   1.54609   1.55933   1.61838
 Alpha virt. eigenvalues --    1.63739   1.67478   1.69170   1.72067   1.72594
 Alpha virt. eigenvalues --    1.73582   1.75609   1.75795   1.78200   1.79700
 Alpha virt. eigenvalues --    1.80087   1.81219   1.82610   1.83786   1.85041
 Alpha virt. eigenvalues --    1.86366   1.86876   1.87400   1.89352   1.90733
 Alpha virt. eigenvalues --    1.91377   1.92830   1.94803   1.95388   1.95804
 Alpha virt. eigenvalues --    1.97758   1.98537   1.99473   2.01620   2.05104
 Alpha virt. eigenvalues --    2.06241   2.08899   2.09026   2.11734   2.13388
 Alpha virt. eigenvalues --    2.13745   2.14953   2.15001   2.15764   2.17557
 Alpha virt. eigenvalues --    2.20523   2.22238   2.23253   2.24048   2.25161
 Alpha virt. eigenvalues --    2.28021   2.28501   2.30295   2.30518   2.31151
 Alpha virt. eigenvalues --    2.37171   2.38920   2.43514   2.45886   2.47395
 Alpha virt. eigenvalues --    2.52344   2.54968   2.57294   2.57993   2.58544
 Alpha virt. eigenvalues --    2.60102   2.61237   2.61791   2.63314   2.64225
 Alpha virt. eigenvalues --    2.65809   2.69632   2.70046   2.72168   2.72841
 Alpha virt. eigenvalues --    2.73526   2.75242   2.75616   2.77281   2.79833
 Alpha virt. eigenvalues --    2.85368   2.88101   2.93005   2.95273   2.99255
 Alpha virt. eigenvalues --    3.01045   3.03541   3.12610   3.20213   3.27434
 Alpha virt. eigenvalues --    3.39116   3.41725   3.99587   4.01876   4.05652
 Alpha virt. eigenvalues --    4.08263   4.08710   4.10569   4.12255   4.16294
 Alpha virt. eigenvalues --    4.17308   4.26497   4.29373   4.30785   4.34995
 Alpha virt. eigenvalues --    4.37011   4.37712   4.43219   4.51093   4.60511
 Alpha virt. eigenvalues --    4.73645   4.75833
          Condensed to atoms (all electrons):
               1          2          3          4          5          6
     1  Cl  16.918506   0.231112  -0.069215   0.003878   0.000562   0.000002
     2  C    0.231112   4.975992   0.498790  -0.017190  -0.033342   0.000086
     3  C   -0.069215   0.498790   5.122994   0.464171  -0.032498   0.006689
     4  C    0.003878  -0.017190   0.464171   4.723400   0.483695  -0.053554
     5  C    0.000562  -0.033342  -0.032498   0.483695   4.679818   0.209441
     6  N    0.000002   0.000086   0.006689  -0.053554   0.209441   7.272276
     7  C   -0.000000   0.000007   0.000356  -0.009379  -0.011690   0.262283
     8  O    0.000000  -0.000000   0.000001   0.000201   0.002707  -0.101449
     9  C   -0.000000   0.000001  -0.000898   0.006091   0.006245  -0.120894
    10  C    0.000000  -0.000020   0.004024  -0.017544  -0.008195   0.004301
    11  O   -0.000000   0.000000  -0.000065   0.001019   0.000199   0.000019
    12  N   -0.000083   0.005070  -0.067211   0.217369  -0.054844  -0.012033
    13  C   -0.000029   0.000157  -0.002444  -0.026341   0.002723  -0.000166
    14  C    0.000071  -0.000273  -0.007015  -0.002603   0.000525   0.000023
    15  C    0.000009  -0.000039  -0.000378   0.000032  -0.000002  -0.000000
    16  C   -0.000000  -0.000002  -0.000002   0.000022   0.000000   0.000000
    17  C   -0.000000   0.000001  -0.000056  -0.000017   0.000002   0.000000
    18  C   -0.000000   0.000005   0.000485   0.001605  -0.000187  -0.000003
    19  C    0.004970  -0.029279  -0.052220  -0.030133   0.489350  -0.067594
    20  C   -0.070159   0.515420  -0.031219  -0.036081  -0.015110   0.005769
    21  H   -0.000210  -0.039469   0.353520  -0.030064   0.004196  -0.000069
    22  H   -0.000000   0.000005  -0.000048   0.003073  -0.019069   0.285184
    23  H    0.000000  -0.000000   0.000003   0.000032   0.000088   0.005239
    24  H    0.000000  -0.000032   0.000203   0.004094   0.001520  -0.002228
    25  H   -0.000007  -0.000284   0.001066   0.006103  -0.000029  -0.000025
    26  H    0.000000   0.000000   0.000010  -0.000001  -0.000000   0.000000
    27  H   -0.000000   0.000000   0.000000  -0.000000   0.000000  -0.000000
    28  H    0.000000  -0.000000  -0.000000   0.000001  -0.000000  -0.000000
    29  H    0.000000  -0.000000   0.000023  -0.000044  -0.000001  -0.000000
    30  H   -0.000173   0.004354   0.000512   0.003351  -0.039331  -0.006398
    31  H   -0.000305  -0.043163   0.004470   0.000673   0.003499  -0.000106
               7          8          9         10         11         12
     1  Cl  -0.000000   0.000000  -0.000000   0.000000  -0.000000  -0.000083
     2  C    0.000007  -0.000000   0.000001  -0.000020   0.000000   0.005070
     3  C    0.000356   0.000001  -0.000898   0.004024  -0.000065  -0.067211
     4  C   -0.009379   0.000201   0.006091  -0.017544   0.001019   0.217369
     5  C   -0.011690   0.002707   0.006245  -0.008195   0.000199  -0.054844
     6  N    0.262283  -0.101449  -0.120894   0.004301   0.000019  -0.012033
     7  C    4.311843   0.608316   0.310313  -0.011905  -0.000262   0.002545
     8  O    0.608316   8.117719  -0.079242  -0.000253  -0.000045   0.000029
     9  C    0.310313  -0.079242   5.513925   0.315862  -0.081922  -0.104594
    10  C   -0.011905  -0.000253   0.315862   4.392079   0.573992   0.214827
    11  O   -0.000262  -0.000045  -0.081922   0.573992   8.127256  -0.085883
    12  N    0.002545   0.000029  -0.104594   0.214827  -0.085883   7.428305
    13  C   -0.000217   0.000000   0.004984  -0.019636   0.001741   0.209377
    14  C   -0.000012  -0.000000  -0.000260   0.001001  -0.000108  -0.059740
    15  C    0.000000   0.000000   0.000001  -0.000014  -0.000006   0.004828
    16  C    0.000000   0.000000   0.000000   0.000013   0.000004   0.000136
    17  C   -0.000000  -0.000000  -0.000001   0.000073  -0.000120   0.004870
    18  C    0.000014   0.000000   0.000328  -0.000985  -0.002874  -0.059905
    19  C    0.003634  -0.000185  -0.000389   0.000053   0.000001   0.005721
    20  C   -0.000150   0.000000   0.000016   0.000010  -0.000000  -0.000118
    21  H   -0.000001  -0.000000  -0.000006   0.000030  -0.000002  -0.010745
    22  H   -0.009940   0.008879   0.007501  -0.000089  -0.000001  -0.000151
    23  H   -0.020836   0.002257   0.344488  -0.020648   0.002295   0.004669
    24  H   -0.021803   0.001498   0.339038  -0.028090   0.002098   0.000412
    25  H    0.000003   0.000000  -0.000009  -0.000063  -0.000002  -0.008732
    26  H   -0.000000   0.000000  -0.000000  -0.000000  -0.000000  -0.000096
    27  H    0.000000   0.000000   0.000000   0.000000   0.000000   0.000004
    28  H    0.000000   0.000000  -0.000000  -0.000007  -0.000007  -0.000092
    29  H    0.000007  -0.000000  -0.000139   0.003582   0.006744  -0.009827
    30  H    0.000027  -0.000024  -0.000008  -0.000005  -0.000000  -0.000064
    31  H    0.000001  -0.000000  -0.000000   0.000000   0.000000   0.000003
              13         14         15         16         17         18
     1  Cl  -0.000029   0.000071   0.000009  -0.000000  -0.000000  -0.000000
     2  C    0.000157  -0.000273  -0.000039  -0.000002   0.000001   0.000005
     3  C   -0.002444  -0.007015  -0.000378  -0.000002  -0.000056   0.000485
     4  C   -0.026341  -0.002603   0.000032   0.000022  -0.000017   0.001605
     5  C    0.002723   0.000525  -0.000002   0.000000   0.000002  -0.000187
     6  N   -0.000166   0.000023  -0.000000   0.000000   0.000000  -0.000003
     7  C   -0.000217  -0.000012   0.000000   0.000000  -0.000000   0.000014
     8  O    0.000000  -0.000000   0.000000   0.000000  -0.000000   0.000000
     9  C    0.004984  -0.000260   0.000001   0.000000  -0.000001   0.000328
    10  C   -0.019636   0.001001  -0.000014   0.000013   0.000073  -0.000985
    11  O    0.001741  -0.000108  -0.000006   0.000004  -0.000120  -0.002874
    12  N    0.209377  -0.059740   0.004828   0.000136   0.004870  -0.059905
    13  C    4.624217   0.525723  -0.016509  -0.036745  -0.012969   0.535100
    14  C    0.525723   4.992345   0.524139  -0.038576  -0.043454  -0.060329
    15  C   -0.016509   0.524139   4.879909   0.545093  -0.029400  -0.042387
    16  C   -0.036745  -0.038576   0.545093   4.876987   0.539087  -0.037187
    17  C   -0.012969  -0.043454  -0.029400   0.539087   4.894216   0.519864
    18  C    0.535100  -0.060329  -0.042387  -0.037187   0.519864   4.973240
    19  C   -0.000042  -0.000038   0.000000  -0.000000  -0.000000   0.000002
    20  C    0.000036  -0.000007  -0.000001   0.000000  -0.000000   0.000001
    21  H    0.009255   0.001460  -0.000309   0.000039   0.000028   0.000827
    22  H   -0.000001   0.000001  -0.000000   0.000000   0.000000  -0.000000
    23  H   -0.000045   0.000002  -0.000000   0.000000  -0.000000  -0.000012
    24  H   -0.000002  -0.000006   0.000000   0.000000  -0.000001   0.000012
    25  H   -0.040269   0.356663  -0.038791   0.004751   0.000267   0.005499
    26  H    0.003446  -0.037002   0.362971  -0.041183   0.004568   0.000618
    27  H    0.000618   0.004852  -0.041761   0.362695  -0.041548   0.004687
    28  H    0.003439   0.000653   0.004591  -0.041329   0.363758  -0.037519
    29  H   -0.038152   0.005646   0.000225   0.004900  -0.041358   0.356234
    30  H    0.000001  -0.000000  -0.000000  -0.000000   0.000000  -0.000000
    31  H   -0.000000   0.000000   0.000000  -0.000000   0.000000   0.000000
              19         20         21         22         23         24
     1  Cl   0.004970  -0.070159  -0.000210  -0.000000   0.000000   0.000000
     2  C   -0.029279   0.515420  -0.039469   0.000005  -0.000000  -0.000032
     3  C   -0.052220  -0.031219   0.353520  -0.000048   0.000003   0.000203
     4  C   -0.030133  -0.036081  -0.030064   0.003073   0.000032   0.004094
     5  C    0.489350  -0.015110   0.004196  -0.019069   0.000088   0.001520
     6  N   -0.067594   0.005769  -0.000069   0.285184   0.005239  -0.002228
     7  C    0.003634  -0.000150  -0.000001  -0.009940  -0.020836  -0.021803
     8  O   -0.000185   0.000000  -0.000000   0.008879   0.002257   0.001498
     9  C   -0.000389   0.000016  -0.000006   0.007501   0.344488   0.339038
    10  C    0.000053   0.000010   0.000030  -0.000089  -0.020648  -0.028090
    11  O    0.000001  -0.000000  -0.000002  -0.000001   0.002295   0.002098
    12  N    0.005721  -0.000118  -0.010745  -0.000151   0.004669   0.000412
    13  C   -0.000042   0.000036   0.009255  -0.000001  -0.000045  -0.000002
    14  C   -0.000038  -0.000007   0.001460   0.000001   0.000002  -0.000006
    15  C    0.000000  -0.000001  -0.000309  -0.000000  -0.000000   0.000000
    16  C   -0.000000   0.000000   0.000039   0.000000   0.000000   0.000000
    17  C   -0.000000  -0.000000   0.000028   0.000000  -0.000000  -0.000001
    18  C    0.000002   0.000001   0.000827  -0.000000  -0.000012   0.000012
    19  C    5.030807   0.513199   0.000482  -0.005388   0.000004   0.000075
    20  C    0.513199   4.929104   0.004490   0.000106  -0.000000  -0.000011
    21  H    0.000482   0.004490   0.516986   0.000001   0.000000  -0.000002
    22  H   -0.005388   0.000106   0.000001   0.328701  -0.000137  -0.000142
    23  H    0.000004  -0.000000   0.000000  -0.000137   0.498717  -0.019678
    24  H    0.000075  -0.000011  -0.000002  -0.000142  -0.019678   0.498586
    25  H    0.000059   0.000034  -0.000218  -0.000001   0.000000   0.000000
    26  H   -0.000000  -0.000000  -0.000010  -0.000000   0.000000  -0.000000
    27  H   -0.000000  -0.000000   0.000001  -0.000000  -0.000000  -0.000000
    28  H    0.000000  -0.000000  -0.000001  -0.000000   0.000000   0.000000
    29  H    0.000000   0.000000   0.000025   0.000000   0.000019  -0.000025
    30  H    0.361148  -0.032852   0.000010   0.003808   0.000000  -0.000001
    31  H   -0.030889   0.362304  -0.000164  -0.000014   0.000000   0.000000
              25         26         27         28         29         30
     1  Cl  -0.000007   0.000000  -0.000000   0.000000   0.000000  -0.000173
     2  C   -0.000284   0.000000   0.000000  -0.000000  -0.000000   0.004354
     3  C    0.001066   0.000010   0.000000  -0.000000   0.000023   0.000512
     4  C    0.006103  -0.000001  -0.000000   0.000001  -0.000044   0.003351
     5  C   -0.000029  -0.000000   0.000000  -0.000000  -0.000001  -0.039331
     6  N   -0.000025   0.000000  -0.000000  -0.000000  -0.000000  -0.006398
     7  C    0.000003  -0.000000   0.000000   0.000000   0.000007   0.000027
     8  O    0.000000   0.000000   0.000000   0.000000  -0.000000  -0.000024
     9  C   -0.000009  -0.000000   0.000000  -0.000000  -0.000139  -0.000008
    10  C   -0.000063  -0.000000   0.000000  -0.000007   0.003582  -0.000005
    11  O   -0.000002  -0.000000   0.000000  -0.000007   0.006744  -0.000000
    12  N   -0.008732  -0.000096   0.000004  -0.000092  -0.009827  -0.000064
    13  C   -0.040269   0.003446   0.000618   0.003439  -0.038152   0.000001
    14  C    0.356663  -0.037002   0.004852   0.000653   0.005646  -0.000000
    15  C   -0.038791   0.362971  -0.041761   0.004591   0.000225  -0.000000
    16  C    0.004751  -0.041183   0.362695  -0.041329   0.004900  -0.000000
    17  C    0.000267   0.004568  -0.041548   0.363758  -0.041358   0.000000
    18  C    0.005499   0.000618   0.004687  -0.037519   0.356234  -0.000000
    19  C    0.000059  -0.000000  -0.000000   0.000000   0.000000   0.361148
    20  C    0.000034  -0.000000  -0.000000  -0.000000   0.000000  -0.032852
    21  H   -0.000218  -0.000010   0.000001  -0.000001   0.000025   0.000010
    22  H   -0.000001  -0.000000  -0.000000  -0.000000   0.000000   0.003808
    23  H    0.000000   0.000000  -0.000000   0.000000   0.000019   0.000000
    24  H    0.000000  -0.000000  -0.000000   0.000000  -0.000025  -0.000001
    25  H    0.555141  -0.005533  -0.000160   0.000013  -0.000138  -0.000001
    26  H   -0.005533   0.559178  -0.005224  -0.000181   0.000012  -0.000000
    27  H   -0.000160  -0.005224   0.568023  -0.005083  -0.000156   0.000000
    28  H    0.000013  -0.000181  -0.005083   0.559464  -0.005647  -0.000000
    29  H   -0.000138   0.000012  -0.000156  -0.005647   0.556475  -0.000000
    30  H   -0.000001  -0.000000   0.000000  -0.000000  -0.000000   0.526206
    31  H    0.000000   0.000000  -0.000000   0.000000   0.000000  -0.005279
              31
     1  Cl  -0.000305
     2  C   -0.043163
     3  C    0.004470
     4  C    0.000673
     5  C    0.003499
     6  N   -0.000106
     7  C    0.000001
     8  O   -0.000000
     9  C   -0.000000
    10  C    0.000000
    11  O    0.000000
    12  N    0.000003
    13  C   -0.000000
    14  C    0.000000
    15  C    0.000000
    16  C   -0.000000
    17  C    0.000000
    18  C    0.000000
    19  C   -0.030889
    20  C    0.362304
    21  H   -0.000164
    22  H   -0.000014
    23  H    0.000000
    24  H    0.000000
    25  H    0.000000
    26  H    0.000000
    27  H   -0.000000
    28  H    0.000000
    29  H    0.000000
    30  H   -0.005279
    31  H    0.531816
 Mulliken charges:
               1
     1  Cl  -0.018930
     2  C   -0.067907
     3  C   -0.194047
     4  C    0.304140
     5  C    0.329728
     6  N   -0.686793
     7  C    0.586843
     8  O   -0.560411
     9  C   -0.460430
    10  C    0.597608
    11  O   -0.544072
    12  N   -0.624047
    13  C    0.272748
    14  C   -0.163681
    15  C   -0.152201
    16  C   -0.138702
    17  C   -0.157810
    18  C   -0.157131
    19  C   -0.193345
    20  C   -0.144781
    21  H    0.189919
    22  H    0.397720
    23  H    0.203544
    24  H    0.224484
    25  H    0.164660
    26  H    0.158426
    27  H    0.153054
    28  H    0.157948
    29  H    0.161596
    30  H    0.184717
    31  H    0.177152
 Sum of Mulliken charges =  -0.00000
 Mulliken charges with hydrogens summed into heavy atoms:
               1
     1  Cl  -0.018930
     2  C   -0.067907
     3  C   -0.004128
     4  C    0.304140
     5  C    0.329728
     6  N   -0.289073
     7  C    0.586843
     8  O   -0.560411
     9  C   -0.032402
    10  C    0.597608
    11  O   -0.544072
    12  N   -0.624047
    13  C    0.272748
    14  C    0.000980
    15  C    0.006225
    16  C    0.014352
    17  C    0.000139
    18  C    0.004464
    19  C   -0.008628
    20  C    0.032371
 Electronic spatial extent (au):  <R**2>=           5927.6154
 Charge=             -0.0000 electrons
 Dipole moment (field-independent basis, Debye):
    X=              1.8285    Y=              5.7011    Z=              0.2110  Tot=              5.9909
 Quadrupole moment (field-independent basis, Debye-Ang):
   XX=           -103.2019   YY=           -153.6433   ZZ=           -114.2287
   XY=              4.2837   XZ=              2.4732   YZ=              8.7709
 Traceless Quadrupole moment (field-independent basis, Debye-Ang):
   XX=             20.4894   YY=            -29.9520   ZZ=              9.4626
   XY=              4.2837   XZ=              2.4732   YZ=              8.7709
 Octapole moment (field-independent basis, Debye-Ang**2):
  XXX=             -3.1000  YYY=             91.7383  ZZZ=             -0.9979  XYY=            -24.5954
  XXY=             51.1370  XXZ=             15.4818  XZZ=              5.8218  YZZ=             -8.6193
  YYZ=            -10.3728  XYZ=              6.0856
[...]
 Alpha virt. eigenvalues --    1.63749   1.67846   1.69555   1.70159   1.72303
 Alpha virt. eigenvalues --    1.73520   1.76500   1.78216   1.79729   1.80399
 Alpha virt. eigenvalues --    1.82129   1.82489   1.83703   1.84111   1.84545
 Alpha virt. eigenvalues --    1.86498   1.86878   1.87787   1.89199   1.90409
 Alpha virt. eigenvalues --    1.92125   1.92876   1.94428   1.95092   1.96997
 Alpha virt. eigenvalues --    1.97277   1.97678   1.98890   2.02384   2.06363
 Alpha virt. eigenvalues --    2.06385   2.09435   2.09691   2.10820   2.12564
 Alpha virt. eigenvalues --    2.14206   2.14661   2.15882   2.16723   2.17082
 Alpha virt. eigenvalues --    2.21788   2.22835   2.24869   2.25358   2.25730
 Alpha virt. eigenvalues --    2.28514   2.29344   2.30173   2.31615   2.33489
 Alpha virt. eigenvalues --    2.36085   2.38329   2.43417   2.48167   2.49510
 Alpha virt. eigenvalues --    2.51857   2.52569   2.56989   2.57740   2.58746
 Alpha virt. eigenvalues --    2.60361   2.61231   2.61564   2.63521   2.64666
 Alpha virt. eigenvalues --    2.67165   2.68670   2.70026   2.72130   2.72897
 Alpha virt. eigenvalues --    2.73982   2.74345   2.76618   2.79272   2.80273
 Alpha virt. eigenvalues --    2.86344   2.87335   2.93177   2.96091   3.00976
 Alpha virt. eigenvalues --    3.02188   3.04921   3.11731   3.19137   3.24364
 Alpha virt. eigenvalues --    3.39930   3.41853   3.99778   4.01894   4.04964
 Alpha virt. eigenvalues --    4.07830   4.08654   4.09959   4.12503   4.16595
 Alpha virt. eigenvalues --    4.18185   4.25336   4.29466   4.31297   4.36027
 Alpha virt. eigenvalues --    4.38306   4.40714   4.42176   4.48836   4.63936
 Alpha virt. eigenvalues --    4.73157   4.76328
          Condensed to atoms (all electrons):
               1          2          3          4          5          6
     1  Cl  16.924824   0.229210  -0.064690   0.003668   0.000677   0.000003
     2  C    0.229210   4.982837   0.497853  -0.012349  -0.035800  -0.000062
     3  C   -0.064690   0.497853   5.101381   0.479702  -0.047038   0.007406
     4  C    0.003668  -0.012349   0.479702   4.710180   0.490511  -0.052329
     5  C    0.000677  -0.035800  -0.047038   0.490511   4.698184   0.213192
     6  N    0.000003  -0.000062   0.007406  -0.052329   0.213192   7.266613
     7  C    0.000000   0.000016   0.000358  -0.013437  -0.015030   0.260079
     8  O    0.000000  -0.000000   0.000002   0.000203   0.001586  -0.094670
     9  C   -0.000000   0.000009  -0.001107   0.007868   0.010797  -0.128260
    10  C   -0.000000  -0.000020   0.004819  -0.017755  -0.013945   0.005988
    11  O   -0.000000   0.000001  -0.000080   0.001029   0.000293  -0.000051
    12  N   -0.000109   0.005721  -0.073432   0.228136  -0.058840  -0.014559
    13  C   -0.000008   0.000036   0.000671  -0.027647   0.002026  -0.000316
    14  C    0.000009  -0.000234  -0.000574   0.001579   0.000398   0.000090
    15  C    0.000001  -0.000015  -0.000132  -0.000176  -0.000003   0.000000
    16  C   -0.000000  -0.000001   0.000024   0.000027   0.000000   0.000000
    17  C   -0.000000   0.000003  -0.000282   0.000052   0.000005  -0.000000
    18  C   -0.000004   0.000136  -0.000646  -0.003584  -0.000268  -0.000007
    19  C    0.004360  -0.025200  -0.051336  -0.026050   0.498797  -0.076073
    20  C   -0.064257   0.512882  -0.036508  -0.037223  -0.015842   0.006051
    21  H   -0.000654  -0.038939   0.349290  -0.029850   0.004842  -0.000075
    22  H   -0.000000   0.000012  -0.000071   0.003257  -0.021278   0.288736
    23  H    0.000000  -0.000000   0.000003   0.000147   0.000217   0.005313
    24  H    0.000001  -0.000033   0.000302   0.004825   0.002789  -0.002561
    25  H    0.000001  -0.000035   0.000534   0.002530  -0.000067   0.000190
    26  H   -0.000000  -0.000000   0.000002   0.000002   0.000000  -0.000000
    27  H    0.000000  -0.000000   0.000000   0.000000   0.000000   0.000000
    28  H    0.000000  -0.000000  -0.000001  -0.000001  -0.000000  -0.000000
    29  H   -0.000000  -0.000004  -0.000045   0.000335  -0.000005   0.000000
    30  H   -0.000157   0.004329   0.000620   0.004112  -0.036970  -0.005449
    31  H   -0.000242  -0.041274   0.004080   0.000659   0.003284  -0.000100
               7          8          9         10         11         12
     1  Cl   0.000000   0.000000  -0.000000  -0.000000  -0.000000  -0.000109
     2  C    0.000016  -0.000000   0.000009  -0.000020   0.000001   0.005721
     3  C    0.000358   0.000002  -0.001107   0.004819  -0.000080  -0.073432
     4  C   -0.013437   0.000203   0.007868  -0.017755   0.001029   0.228136
     5  C   -0.015030   0.001586   0.010797  -0.013945   0.000293  -0.058840
     6  N    0.260079  -0.094670  -0.128260   0.005988  -0.000051  -0.014559
     7  C    4.312627   0.613198   0.316473  -0.014814  -0.000101   0.002844
     8  O    0.613198   8.097292  -0.077227  -0.000482  -0.000027   0.000001
     9  C    0.316473  -0.077227   5.515427   0.320718  -0.075618  -0.113593
    10  C   -0.014814  -0.000482   0.320718   4.374304   0.600650   0.211871
    11  O   -0.000101  -0.000027  -0.075618   0.600650   8.107858  -0.102329
    12  N    0.002844   0.000001  -0.113593   0.211871  -0.102329   7.430832
    13  C   -0.000270  -0.000000   0.005450  -0.015647   0.006928   0.203184
    14  C   -0.000002  -0.000000  -0.000283  -0.000696  -0.000948  -0.061317
    15  C    0.000001   0.000000   0.000001  -0.000050  -0.000039   0.005332
    16  C    0.000000  -0.000000   0.000000   0.000033   0.000027   0.000284
    17  C   -0.000000  -0.000000   0.000002  -0.000110  -0.000316   0.005401
    18  C    0.000012   0.000000   0.000171  -0.000797   0.002904  -0.059297
    19  C    0.003715  -0.000082  -0.000674   0.000134   0.000001   0.006809
    20  C   -0.000088   0.000000   0.000024   0.000011  -0.000000  -0.000008
    21  H   -0.000006  -0.000000   0.000005   0.000239  -0.000002  -0.011492
    22  H   -0.009642   0.006199   0.007301  -0.000135  -0.000003  -0.000119
    23  H   -0.020448   0.002469   0.341437  -0.019987   0.002730   0.005010
    24  H   -0.020092   0.001795   0.333051  -0.024786   0.001967  -0.000383
    25  H    0.000033  -0.000000  -0.000063   0.000407  -0.000028  -0.005841
    26  H   -0.000000   0.000000  -0.000000  -0.000002   0.000000  -0.000128
    27  H   -0.000000  -0.000000   0.000000   0.000000   0.000000   0.000003
    28  H    0.000000   0.000000  -0.000000  -0.000007  -0.000003  -0.000119
    29  H    0.000001  -0.000000  -0.000123   0.002739   0.000739  -0.007251
    30  H    0.000001  -0.000024   0.000016  -0.000008  -0.000000  -0.000091
    31  H   -0.000000  -0.000000  -0.000000   0.000000   0.000000   0.000003
              13         14         15         16         17         18
     1  Cl  -0.000008   0.000009   0.000001  -0.000000  -0.000000  -0.000004
     2  C    0.000036  -0.000234  -0.000015  -0.000001   0.000003   0.000136
     3  C    0.000671  -0.000574  -0.000132   0.000024  -0.000282  -0.000646
     4  C   -0.027647   0.001579  -0.000176   0.000027   0.000052  -0.003584
     5  C    0.002026   0.000398  -0.000003   0.000000   0.000005  -0.000268
     6  N   -0.000316   0.000090   0.000000   0.000000  -0.000000  -0.000007
     7  C   -0.000270  -0.000002   0.000001   0.000000  -0.000000   0.000012
     8  O   -0.000000  -0.000000   0.000000  -0.000000  -0.000000   0.000000
     9  C    0.005450  -0.000283   0.000001   0.000000   0.000002   0.000171
    10  C   -0.015647  -0.000696  -0.000050   0.000033  -0.000110  -0.000797
    11  O    0.006928  -0.000948  -0.000039   0.000027  -0.000316   0.002904
    12  N    0.203184  -0.061317   0.005332   0.000284   0.005401  -0.059297
    13  C    4.633419   0.546456  -0.016379  -0.036244  -0.013681   0.543111
    14  C    0.546456   4.950656   0.521025  -0.041124  -0.042949  -0.061693
    15  C   -0.016379   0.521025   4.888947   0.542664  -0.025828  -0.042530
    16  C   -0.036244  -0.041124   0.542664   4.874536   0.540617  -0.040021
    17  C   -0.013681  -0.042949  -0.025828   0.540617   4.896033   0.517511
    18  C    0.543111  -0.061693  -0.042530  -0.040021   0.517511   4.945943
    19  C   -0.000101  -0.000045   0.000001  -0.000000  -0.000000   0.000003
    20  C    0.000045   0.000007  -0.000000   0.000000   0.000000   0.000001
    21  H    0.010107   0.000232  -0.000243  -0.000019   0.000431   0.003806
    22  H   -0.000002   0.000003  -0.000000   0.000000   0.000000  -0.000000
    23  H   -0.000070   0.000002  -0.000000   0.000000  -0.000000  -0.000006
    24  H   -0.000065  -0.000007   0.000000   0.000000  -0.000000   0.000012
    25  H   -0.042046   0.357582  -0.038387   0.004633   0.000142   0.005680
    26  H    0.003590  -0.036339   0.361141  -0.040625   0.004372   0.000718
    27  H    0.000596   0.004664  -0.041248   0.364700  -0.041139   0.004613
    28  H    0.003438   0.000758   0.004357  -0.040568   0.361018  -0.036202
    29  H   -0.039758   0.005687   0.000154   0.004595  -0.039926   0.359387
    30  H    0.000001   0.000000  -0.000000  -0.000000   0.000000  -0.000000
    31  H   -0.000000   0.000000  -0.000000  -0.000000   0.000000   0.000000
              19         20         21         22         23         24
     1  Cl   0.004360  -0.064257  -0.000654  -0.000000   0.000000   0.000001
     2  C   -0.025200   0.512882  -0.038939   0.000012  -0.000000  -0.000033
     3  C   -0.051336  -0.036508   0.349290  -0.000071   0.000003   0.000302
     4  C   -0.026050  -0.037223  -0.029850   0.003257   0.000147   0.004825
     5  C    0.498797  -0.015842   0.004842  -0.021278   0.000217   0.002789
     6  N   -0.076073   0.006051  -0.000075   0.288736   0.005313  -0.002561
     7  C    0.003715  -0.000088  -0.000006  -0.009642  -0.020448  -0.020092
     8  O   -0.000082   0.000000  -0.000000   0.006199   0.002469   0.001795
     9  C   -0.000674   0.000024   0.000005   0.007301   0.341437   0.333051
    10  C    0.000134   0.000011   0.000239  -0.000135  -0.019987  -0.024786
    11  O    0.000001  -0.000000  -0.000002  -0.000003   0.002730   0.001967
    12  N    0.006809  -0.000008  -0.011492  -0.000119   0.005010  -0.000383
    13  C   -0.000101   0.000045   0.010107  -0.000002  -0.000070  -0.000065
    14  C   -0.000045   0.000007   0.000232   0.000003   0.000002  -0.000007
    15  C    0.000001  -0.000000  -0.000243  -0.000000  -0.000000   0.000000
    16  C   -0.000000   0.000000  -0.000019   0.000000   0.000000   0.000000
    17  C   -0.000000   0.000000   0.000431   0.000000  -0.000000  -0.000000
    18  C    0.000003   0.000001   0.003806  -0.000000  -0.000006   0.000012
    19  C    5.011507   0.510058   0.000301  -0.004585   0.000000   0.000245
    20  C    0.510058   4.933252   0.004207   0.000051  -0.000001  -0.000055
    21  H    0.000301   0.004207   0.521402   0.000002   0.000001  -0.000015
    22  H   -0.004585   0.000051   0.000002   0.331330  -0.000118  -0.000187
    23  H    0.000000  -0.000001   0.000001  -0.000118   0.500394  -0.016528
    24  H    0.000245  -0.000055  -0.000015  -0.000187  -0.016528   0.498810
    25  H    0.000029  -0.000008   0.000018  -0.000006   0.000000   0.000001
    26  H   -0.000000  -0.000000  -0.000001  -0.000000   0.000000  -0.000000
    27  H    0.000000  -0.000000  -0.000000  -0.000000  -0.000000  -0.000000
    28  H    0.000000  -0.000000  -0.000002  -0.000000   0.000000   0.000000
    29  H   -0.000000   0.000000   0.000291  -0.000000   0.000006  -0.000007
    30  H    0.357179  -0.034465   0.000012   0.003525   0.000000  -0.000002
    31  H   -0.029489   0.362961  -0.000150  -0.000009  -0.000000   0.000000
              25         26         27         28         29         30
     1  Cl   0.000001  -0.000000   0.000000   0.000000  -0.000000  -0.000157
     2  C   -0.000035  -0.000000  -0.000000  -0.000000  -0.000004   0.004329
     3  C    0.000534   0.000002   0.000000  -0.000001  -0.000045   0.000620
     4  C    0.002530   0.000002   0.000000  -0.000001   0.000335   0.004112
     5  C   -0.000067   0.000000   0.000000  -0.000000  -0.000005  -0.036970
     6  N    0.000190  -0.000000   0.000000  -0.000000   0.000000  -0.005449
     7  C    0.000033  -0.000000  -0.000000   0.000000   0.000001   0.000001
     8  O   -0.000000   0.000000  -0.000000   0.000000  -0.000000  -0.000024
     9  C   -0.000063  -0.000000   0.000000  -0.000000  -0.000123   0.000016
    10  C    0.000407  -0.000002   0.000000  -0.000007   0.002739  -0.000008
    11  O   -0.000028   0.000000   0.000000  -0.000003   0.000739  -0.000000
    12  N   -0.005841  -0.000128   0.000003  -0.000119  -0.007251  -0.000091
    13  C   -0.042046   0.003590   0.000596   0.003438  -0.039758   0.000001
    14  C    0.357582  -0.036339   0.004664   0.000758   0.005687   0.000000
    15  C   -0.038387   0.361141  -0.041248   0.004357   0.000154  -0.000000
    16  C    0.004633  -0.040625   0.364700  -0.040568   0.004595  -0.000000
    17  C    0.000142   0.004372  -0.041139   0.361018  -0.039926   0.000000
    18  C    0.005680   0.000718   0.004613  -0.036202   0.359387  -0.000000
    19  C    0.000029  -0.000000   0.000000   0.000000  -0.000000   0.357179
    20  C   -0.000008  -0.000000  -0.000000  -0.000000   0.000000  -0.034465
    21  H    0.000018  -0.000001  -0.000000  -0.000002   0.000291   0.000012
    22  H   -0.000006  -0.000000  -0.000000  -0.000000  -0.000000   0.003525
    23  H    0.000000   0.000000  -0.000000   0.000000   0.000006   0.000000
    24  H    0.000001  -0.000000  -0.000000   0.000000  -0.000007  -0.000002
    25  H    0.557710  -0.005234  -0.000150   0.000015  -0.000143  -0.000001
    26  H   -0.005234   0.557427  -0.005058  -0.000171   0.000014  -0.000000
    27  H   -0.000150  -0.005058   0.560761  -0.005032  -0.000149   0.000000
    28  H    0.000015  -0.000171  -0.005032   0.557550  -0.005153  -0.000000
    29  H   -0.000143   0.000014  -0.000149  -0.005153   0.556103  -0.000000
    30  H   -0.000001  -0.000000   0.000000  -0.000000  -0.000000   0.530959
    31  H    0.000000   0.000000  -0.000000   0.000000   0.000000  -0.005138
              31
     1  Cl  -0.000242
     2  C   -0.041274
     3  C    0.004080
     4  C    0.000659
     5  C    0.003284
     6  N   -0.000100
     7  C   -0.000000
     8  O   -0.000000
     9  C   -0.000000
    10  C    0.000000
    11  O    0.000000
    12  N    0.000003
    13  C   -0.000000
    14  C    0.000000
    15  C   -0.000000
    16  C   -0.000000
    17  C    0.000000
    18  C    0.000000
    19  C   -0.029489
    20  C    0.362961
    21  H   -0.000150
    22  H   -0.000009
    23  H   -0.000000
    24  H    0.000000
    25  H    0.000000
    26  H    0.000000
    27  H   -0.000000
    28  H    0.000000
    29  H    0.000000
    30  H   -0.005138
    31  H    0.524238
 Mulliken charges:
               1
     1  Cl  -0.032633
     2  C   -0.079079
     3  C   -0.171105
     4  C    0.281576
     5  C    0.317489
     6  N   -0.679150
     7  C    0.584573
     8  O   -0.550232
     9  C   -0.461804
    10  C    0.587331
    11  O   -0.545582
    12  N   -0.596525
    13  C    0.233175
    14  C   -0.142939
    15  C   -0.158592
    16  C   -0.133539
    17  C   -0.161356
    18  C   -0.138954
    19  C   -0.179503
    20  C   -0.141095
    21  H    0.186262
    22  H    0.395739
    23  H    0.199429
    24  H    0.220920
    25  H    0.162502
    26  H    0.160292
    27  H    0.157437
    28  H    0.160123
    29  H    0.162512
    30  H    0.181552
    31  H    0.181176
 Sum of Mulliken charges =  -0.00000
 Mulliken charges with hydrogens summed into heavy atoms:
               1
     1  Cl  -0.032633
     2  C   -0.079079
     3  C    0.015157
     4  C    0.281576
     5  C    0.317489
     6  N   -0.283411
     7  C    0.584573
     8  O   -0.550232
     9  C   -0.041455
    10  C    0.587331
    11  O   -0.545582
    12  N   -0.596525
    13  C    0.233175
    14  C    0.019564
    15  C    0.001700
    16  C    0.023898
    17  C   -0.001233
    18  C    0.023558
    19  C    0.002048
    20  C    0.040081
 Electronic spatial extent (au):  <R**2>=           5824.9983
 Charge=             -0.0000 electrons
 Dipole moment (field-independent basis, Debye):
    X=              2.5821    Y=              5.3082    Z=              1.3916  Tot=              6.0647
 Quadrupole moment (field-independent basis, Debye-Ang):
   XX=           -103.5615   YY=           -156.3212   ZZ=           -110.0084
   XY=             -7.2848   XZ=              2.7090   YZ=              1.9149
 Traceless Quadrupole moment (field-independent basis, Debye-Ang):
   XX=             19.7356   YY=            -33.0242   ZZ=             13.2886
   XY=             -7.2848   XZ=              2.7090   YZ=              1.9149
 Octapole moment (field-independent basis, Debye-Ang**2):
  XXX=             14.7174  YYY=             97.4786  ZZZ=              5.9121  XYY=            -19.1297
  XXY=             46.5107  XXZ=             26.6894  XZZ=             -0.3266  YZZ=             -9.9863
  YYZ=             -5.3197  XYZ=             10.3578
 Hexadecapole moment (field-independent basis, Debye-Ang**3):
 XXXX=          -3256.3902 YYYY=          -3954.1290 ZZZZ=           -574.8165 XXXY=           -103.4679
 XXXZ=             85.9175 YYYX=            130.9414 YYYZ=             45.8338 ZZZX=              8.6383
 ZZZY=             -5.1955 XXYY=          -1270.6980 XXZZ=           -636.9844 YYZZ=           -650.2207
 XXYZ=              5.4977 YYXZ=            -31.2190 ZZXY=            -48.1240
 N-N= 1.602213938597D+03 E-N=-6.246185683730D+03  KE= 1.289193169022D+03
 No NMR shielding tensors so no spin-rotation constants.
 Leave Link  601 at Tue Mar  1 22:37:01 2022, MaxMem=   104857600 cpu:               0.5 elap:               0.2
 (Enter /dades/curu/g16A03_MST/g16/l9999.exe)
 1\1\GINC-PIRINEUS10\SP\RB3LYP\6-31G(d)\C15H11Cl1N2O2\UBATOR01\01-Mar-2
 022\0\\#p b3lyp/6-31G(d) scrf=(iefpcm,read,solvent=water) geom=allchec
 k guess=read\\105.n.pdb.xyz\\0,1\Cl,0,-0.44709949,3.829572697,2.360191
 0095\C,0,-1.0993250947,2.4650545177,1.4655621094\C,0,-0.2697673677,1.3
 968921602,1.1663666907\C,0,-0.7631498083,0.3003902937,0.4432990267\C,0
 ,-2.120563976,0.2833181132,0.0615394988\N,0,-2.6875794983,-0.774672065
 4,-0.6728436539\C,0,-2.5345612214,-2.111037801,-0.4172208289\O,0,-3.16
 66216942,-2.968007438,-1.0245074\C,0,-1.5044635797,-2.4345103598,0.652
 2607586\C,0,-0.117297119,-2.0751191517,0.1526265757\O,0,0.6944061347,-
 2.9274153882,-0.1872061251\N,0,0.1567343205,-0.7222016802,0.0723785222
 \C,0,1.4706566668,-0.3167807539,-0.3656372218\C,0,1.5985654894,0.39178
 21998,-1.561894394\C,0,2.860698292,0.8023638076,-1.9897802691\C,0,3.99
 22006201,0.5001155546,-1.2295874669\C,0,3.8579489758,-0.2118189898,-0.
 0353453087\C,0,2.5976023217,-0.6189456084,0.4022251955\C,0,-2.93441112
 85,1.3785922915,0.3874764432\C,0,-2.4370538586,2.4770783225,1.07388561
 79\H,0,0.7693901757,1.4078623436,1.4664124166\H,0,-3.4617019627,-0.542
 9373985,-1.2892983989\H,0,-1.5310857406,-3.5040609619,0.8486192866\H,0
 ,-1.735747474,-1.8788493,1.5657949209\H,0,0.7149759745,0.6161355579,-2
 .1490179806\H,0,2.9584345923,1.352992414,-2.9194337474\H,0,4.973532064
 3,0.818304332,-1.5652282237\H,0,4.7332242274,-0.4469019791,0.560929543
 5\H,0,2.4850508941,-1.1668331203,1.3303185839\H,0,-3.9761942484,1.3595
 28756,0.0873351024\H,0,-3.0767974872,3.3191086351,1.3087797168\\Versio
 n=ES64L-G16RevA.03\State=1-A\HF=-1298.4131364\RMSD=9.982e-09\Dipole=-0
 .4788747,2.2989815,0.4225623\Quadrupole=14.8912827,-19.0049272,4.11364
 44,-6.0187129,-1.7333025,-12.4148138\PG=C01 [X(C15H11Cl1N2O2)]\\@


 NATURE GIVES TO EVERY TIME AND SEASON SOME BEAUTY OF ITS OWN.

                                                    --DICKENS
 Job cpu time:       0 days  0 hours 12 minutes 30.8 seconds.
 Elapsed time:       0 days  0 hours  3 minutes 14.8 seconds.
 File lengths (MBytes):  RWF=    173 Int=      0 D2E=      0 Chk=     19 Scr=      1
 Normal termination of Gaussian 16 at Tue Mar  1 22:37:01 2022.
