 Entering Gaussian System, Link 0=g16
 Input=114.n.pdb.xyz.mst.wat.gau
 Output=114.n.pdb.xyz.mst.wat.log
 Initial command:
 /dades/curu/g16A03_MST/g16/l1.exe "/tmp/ubator01/1955191/Gau-119686.inp" -scrdir="/tmp/ubator01/1955191/"
 Entering Link 1 = /dades/curu/g16A03_MST/g16/l1.exe PID=    119687.
  
 Copyright (c) 1988,1990,1992,1993,1995,1998,2003,2009,2016,
            Gaussian, Inc.  All Rights Reserved.
  
 This is part of the Gaussian(R) 16 program.  It is based on
 the Gaussian(R) 09 system (copyright 2009, Gaussian, Inc.),
 the Gaussian(R) 03 system (copyright 2003, Gaussian, Inc.),
 the Gaussian(R) 98 system (copyright 1998, Gaussian, Inc.),
 the Gaussian(R) 94 system (copyright 1995, Gaussian, Inc.),
 the Gaussian 92(TM) system (copyright 1992, Gaussian, Inc.),
 the Gaussian 90(TM) system (copyright 1990, Gaussian, Inc.),
 the Gaussian 88(TM) system (copyright 1988, Gaussian, Inc.),
 the Gaussian 86(TM) system (copyright 1986, Carnegie Mellon
 University), and the Gaussian 82(TM) system (copyright 1983,
 Carnegie Mellon University). Gaussian is a federally registered
 trademark of Gaussian, Inc.
  
 This software contains proprietary and confidential information,
 including trade secrets, belonging to Gaussian, Inc.
  
 This software is provided under written license and may be
 used, copied, transmitted, or stored only in accord with that
 written license.
  
 The following legend is applicable only to US Government
 contracts under FAR:
  
                    RESTRICTED RIGHTS LEGEND
  
 Use, reproduction and disclosure by the US Government is
 subject to restrictions as set forth in subparagraphs (a)
 and (c) of the Commercial Computer Software - Restricted
 Rights clause in FAR 52.227-19.
  
 Gaussian, Inc.
 340 Quinnipiac St., Bldg. 40, Wallingford CT 06492
  
  
 ---------------------------------------------------------------
 Warning -- This program may not be used in any manner that
 competes with the business of Gaussian, Inc. or will provide
 assistance to any competitor of Gaussian, Inc.  The licensee
 of this program is prohibited from giving any competitor of
 Gaussian, Inc. access to this program.  By using this program,
 the user acknowledges that Gaussian, Inc. is engaged in the
 business of creating and licensing software in the field of
 computational chemistry and represents and warrants to the
 licensee that it is not a competitor of Gaussian, Inc. and that
 it will not use this program in any manner prohibited above.
 ---------------------------------------------------------------
  

 Cite this work as:
 Gaussian 16, Revision A.03,
 M. J. Frisch, G. W. Trucks, H. B. Schlegel, G. E. Scuseria, 
 M. A. Robb, J. R. Cheeseman, G. Scalmani, V. Barone, 
 G. A. Petersson, H. Nakatsuji, X. Li, M. Caricato, A. V. Marenich, 
 J. Bloino, B. G. Janesko, R. Gomperts, B. Mennucci, H. P. Hratchian, 
 J. V. Ortiz, A. F. Izmaylov, J. L. Sonnenberg, D. Williams-Young, 
 F. Ding, F. Lipparini, F. Egidi, J. Goings, B. Peng, A. Petrone, 
 T. Henderson, D. Ranasinghe, V. G. Zakrzewski, J. Gao, N. Rega, 
 G. Zheng, W. Liang, M. Hada, M. Ehara, K. Toyota, R. Fukuda, 
 J. Hasegawa, M. Ishida, T. Nakajima, Y. Honda, O. Kitao, H. Nakai, 
 T. Vreven, K. Throssell, J. A. Montgomery, Jr., J. E. Peralta, 
 F. Ogliaro, M. J. Bearpark, J. J. Heyd, E. N. Brothers, K. N. Kudin, 
 V. N. Staroverov, T. A. Keith, R. Kobayashi, J. Normand, 
 K. Raghavachari, A. P. Rendell, J. C. Burant, S. S. Iyengar, 
 J. Tomasi, M. Cossi, J. M. Millam, M. Klene, C. Adamo, R. Cammi, 
 J. W. Ochterski, R. L. Martin, K. Morokuma, O. Farkas, 
 J. B. Foresman, and D. J. Fox, Gaussian, Inc., Wallingford CT, 2016.
 
 ******************************************
 Gaussian 16:  ES64L-G16RevA.03 25-Dec-2016
                 1-Mar-2022 
 ******************************************
 %nproc=4
 Will use up to    4 processors via shared memory.
 %Chk=114.n.pdb.xyz.mst.wat.chk
 %mem=800MB
 ----------------------------------------------------------------------
 #p b3lyp/6-31G(d) opt=(MaxStep=10,MaxCycles=1000) freq scf=(MaxCycle=2
 000,NoVarAcc,NoIncFock) scrf=(iefpcm,read,solvent=water)
 ----------------------------------------------------------------------
 1/6=1000,8=10,18=20,19=15,26=3,38=1,40=2/1,3;
 2/9=110,12=2,17=6,18=5,40=1/2;
 3/5=1,6=6,7=1,11=2,25=1,30=1,70=2203,71=1,72=1,74=-5/1,2,3;
 4//1;
 5/5=100002,7=2000,38=1,53=1/2;
 6/7=2,8=2,9=2,10=2,28=1/1;
 7//1,2,3,16;
 1/6=1000,8=10,18=20,19=15,26=3/3(2);
 2/9=110/2;
 99//99;
 2/9=110/2;
 3/5=1,6=6,7=1,11=2,25=1,30=1,70=2205,71=1,72=1,74=-5/1,2,3;
 4/5=5,16=3,69=1/1;
 5/5=100002,7=2000,38=1,53=1/2;
 7//1,2,3,16;
 1/6=1000,8=10,18=20,19=15,26=3/3(-5);
 2/9=110/2;
 6/7=2,8=2,9=2,10=2,19=2,28=1/1;
 99/9=1/99;
 Leave Link    1 at Tue Mar  1 20:45:40 2022, MaxMem=   104857600 cpu:               0.0 elap:               0.0
 (Enter /dades/curu/g16A03_MST/g16/l101.exe)
 -------------
 114.n.pdb.xyz
 -------------
 Symbolic Z-matrix:
 Charge =  0 Multiplicity = 1
 C                    -0.439     0.303    -0.402 
 C                     0.439    -0.303     0.402 
 H                    -0.614     1.373    -0.333 
 H                    -0.999    -0.257    -1.144 
 H                     0.614    -1.373     0.333 
 H                     0.999     0.257     1.144 
 
 ITRead=  0  0  0  0  0  0
 MicOpt= -1 -1 -1 -1 -1 -1
 NAtoms=      6 NQM=        6 NQMF=       0 NMMI=      0 NMMIF=      0
                NMic=       0 NMicF=      0.
                    Isotopes and Nuclear Properties:
 (Nuclear quadrupole moments (NQMom) in fm**2, nuclear magnetic moments (NMagM)
  in nuclear magnetons)

  Atom         1           2           3           4           5           6
 IAtWgt=          12          12           1           1           1           1
 AtmWgt=  12.0000000  12.0000000   1.0078250   1.0078250   1.0078250   1.0078250
 NucSpn=           0           0           1           1           1           1
 AtZEff=  -0.0000000  -0.0000000  -0.0000000  -0.0000000  -0.0000000  -0.0000000
 NQMom=    0.0000000   0.0000000   0.0000000   0.0000000   0.0000000   0.0000000
 NMagM=    0.0000000   0.0000000   2.7928460   2.7928460   2.7928460   2.7928460
 AtZNuc=   6.0000000   6.0000000   1.0000000   1.0000000   1.0000000   1.0000000
 Leave Link  101 at Tue Mar  1 20:45:40 2022, MaxMem=   104857600 cpu:               0.1 elap:               0.1
 (Enter /dades/curu/g16A03_MST/g16/l103.exe)

 GradGradGradGradGradGradGradGradGradGradGradGradGradGradGradGradGradGrad
 Berny optimization.
 Initialization pass.
                           ----------------------------
                           !    Initial Parameters    !
                           ! (Angstroms and Degrees)  !
 --------------------------                            --------------------------
 ! Name  Definition              Value          Derivative Info.                !
 --------------------------------------------------------------------------------
 ! R1    R(1,2)                  1.3359         estimate D2E/DX2                !
 ! R2    R(1,3)                  1.0864         estimate D2E/DX2                !
 ! R3    R(1,4)                  1.0852         estimate D2E/DX2                !
 ! R4    R(2,5)                  1.0864         estimate D2E/DX2                !
 ! R5    R(2,6)                  1.0852         estimate D2E/DX2                !
 ! A1    A(2,1,3)              120.9595         estimate D2E/DX2                !
 ! A2    A(2,1,4)              121.1021         estimate D2E/DX2                !
 ! A3    A(3,1,4)              117.9384         estimate D2E/DX2                !
 ! A4    A(1,2,5)              120.9595         estimate D2E/DX2                !
 ! A5    A(1,2,6)              121.1021         estimate D2E/DX2                !
 ! A6    A(5,2,6)              117.9384         estimate D2E/DX2                !
 ! D1    D(3,1,2,5)            180.0            estimate D2E/DX2                !
 ! D2    D(3,1,2,6)              0.0248         estimate D2E/DX2                !
 ! D3    D(4,1,2,5)             -0.0248         estimate D2E/DX2                !
 ! D4    D(4,1,2,6)            180.0            estimate D2E/DX2                !
 --------------------------------------------------------------------------------
 Trust Radius=1.00D-01 FncErr=1.00D-07 GrdErr=1.00D-06 EigMax=2.50D+02 EigMin=1.00D-04
 Number of steps in this run=    100 maximum allowed number of steps=    100.
 GradGradGradGradGradGradGradGradGradGradGradGradGradGradGradGradGradGrad

 Leave Link  103 at Tue Mar  1 20:45:40 2022, MaxMem=   104857600 cpu:               0.1 elap:               0.0
 (Enter /dades/curu/g16A03_MST/g16/l202.exe)
                          Input orientation:                          
 ---------------------------------------------------------------------
 Center     Atomic      Atomic             Coordinates (Angstroms)
 Number     Number       Type             X           Y           Z
 ---------------------------------------------------------------------
      1          6           0       -0.439000    0.303000   -0.402000
      2          6           0        0.439000   -0.303000    0.402000
      3          1           0       -0.614000    1.373000   -0.333000
      4          1           0       -0.999000   -0.257000   -1.144000
      5          1           0        0.614000   -1.373000    0.333000
      6          1           0        0.999000    0.257000    1.144000
 ---------------------------------------------------------------------
                    Distance matrix (angstroms):
                    1          2          3          4          5
     1  C    0.000000
     2  C    1.335865   0.000000
     3  H    1.086410   2.111400   0.000000
     4  H    1.085248   2.111889   1.860872   0.000000
     5  H    2.111400   1.086410   3.080918   2.455352   0.000000
     6  H    2.111889   1.085248   2.455352   3.080770   1.860872
                    6
     6  H    0.000000
 Stoichiometry    C2H4
 Framework group  CI[X(C2H4)]
 Deg. of freedom     6
 Full point group                 CI      NOp   2
 Largest Abelian subgroup         CI      NOp   2
 Largest concise Abelian subgroup CI      NOp   2
                         Standard orientation:                         
 ---------------------------------------------------------------------
 Center     Atomic      Atomic             Coordinates (Angstroms)
 Number     Number       Type             X           Y           Z
 ---------------------------------------------------------------------
      1          6           0       -0.439000    0.303000   -0.402000
      2          6           0        0.439000   -0.303000    0.402000
      3          1           0       -0.614000    1.373000   -0.333000
      4          1           0       -0.999000   -0.257000   -1.144000
      5          1           0        0.614000   -1.373000    0.333000
      6          1           0        0.999000    0.257000    1.144000
 ---------------------------------------------------------------------
 Rotational constants (GHZ):         144.8100114          30.1122984          24.9285658
 Leave Link  202 at Tue Mar  1 20:45:40 2022, MaxMem=   104857600 cpu:               0.1 elap:               0.0
 (Enter /dades/curu/g16A03_MST/g16/l301.exe)
 Standard basis: 6-31G(d) (6D, 7F)
 Ernie: Thresh=  0.10000D-02 Tol=  0.10000D-05 Strict=F.
 There are    19 symmetry adapted cartesian basis functions of AG  symmetry.
 There are    19 symmetry adapted cartesian basis functions of AU  symmetry.
 There are    19 symmetry adapted basis functions of AG  symmetry.
 There are    19 symmetry adapted basis functions of AU  symmetry.
    38 basis functions,    72 primitive gaussians,    38 cartesian basis functions
     8 alpha electrons        8 beta electrons
       nuclear repulsion energy        33.3147709289 Hartrees.
 IExCor=  402 DFT=T Ex+Corr=B3LYP ExCW=0 ScaHFX=  0.200000
 ScaDFX=  0.800000  0.720000  1.000000  0.810000 ScalE2=  1.000000  1.000000
 IRadAn=      5 IRanWt=     -1 IRanGd=            0 ICorTp=0 IEmpDi=  4
 NAtoms=    6 NActive=    6 NUniq=    3 SFac= 4.00D+00 NAtFMM=   60 NAOKFM=F Big=F
 Integral buffers will be    131072 words long.
 Raffenetti 2 integral format.
 Two-electron integral symmetry is turned on.
 Using the following non-standard input for PCM:
 MSTModel=DFT cav
 --- end of non-standard input.
 MST model for solvation energy: B3LYP parametrization.
 MST cavity parameters:
 ISph   IAn     Re0     Alpha   Atom Type   QCorr
 ------------------------------------------------
   1      6     1.50     1.25      CH2        F
   2      6     1.50     1.25      CH2        F
   3      1     1.20     1.25      CH2        F
   4      1     1.20     1.25      CH2        F
   5      1     1.20     1.25      CH2        F
   6      1     1.20     1.25      CH2        F
 ------------------------------------------------------------------------------
 Polarizable Continuum Model (PCM)
 =================================
 Model                : PCM.
 Atomic radii         : MST.
 Polarization charges : Total charges.
 Charge compensation  : None.
 Solution method      : On-the-fly selection.
 Cavity type          : Scaled VdW (van der Waals Surface) (Alpha=1.250).
 Cavity algorithm     : GePol (No added spheres)
                        Default sphere list used, NSphG=    6.
                        Lebedev-Laikov grids with approx.  5.0 points / Ang**2.
                        Smoothing algorithm: York/Karplus (Gamma=1.0000).
                        Polarization charges: spherical gaussians, with
                                              point-specific exponents (IZeta= 3).
                        Self-potential: point-specific (ISelfS= 7).
                        Self-field    : sphere-specific E.n sum rule (ISelfD= 2).
 1st derivatives      : Analytical E(r).r(x)/FMM algorithm (CHGder, D1EAlg=3).
                        Cavity 1st derivative terms included.
 Solvent              : Water, Eps=  78.355300 Eps(inf)=   1.777849
 ------------------------------------------------------------------------------
 Spheres list:
 ISph  on   Nord     Re0    Alpha      Xe            Ye            Ze
    1   C      1    1.5000  1.250     -0.439000      0.303000     -0.402000
    2   C      2    1.5000  1.250      0.439000     -0.303000      0.402000
    3   H      3    1.2000  1.250     -0.614000      1.373000     -0.333000
    4   H      4    1.2000  1.250     -0.999000     -0.257000     -1.144000
    5   H      5    1.2000  1.250      0.614000     -1.373000      0.333000
    6   H      6    1.2000  1.250      0.999000      0.257000      1.144000
 ------------------------------------------------------------------------------
 GePol: Number of generator spheres                  =       6
 GePol: Total number of spheres                      =       6
 GePol: Number of exposed spheres                    =       6 (100.00%)
 GePol: Number of points                             =     586
 GePol: Average weight of points                     =       0.14
 GePol: Minimum weight of points                     =   0.13D-06
 GePol: Maximum weight of points                     =    0.21416
 GePol: Number of points with low weight             =      26
 GePol: Fraction of low-weight points (<1% of avg)   =       4.44%
 GePol: Cavity surface area                          =     79.396 Ang**2
 GePol: Cavity volume                                =     57.300 Ang**3
 Surface areas from nonelectrostatic (unscaled) cavity and vdw tensions:
 Sphere =    1 Type =  CH2 Surf =        9.512 Tension =       -0.139
 Sphere =    2 Type =  CH2 Surf =        9.512 Tension =       -0.139
 Sphere =    3 Type =  CH2 Surf =       10.273 Tension =       -0.139
 Sphere =    4 Type =  CH2 Surf =       10.267 Tension =       -0.139
 Sphere =    5 Type =  CH2 Surf =       10.273 Tension =       -0.139
 Sphere =    6 Type =  CH2 Surf =       10.267 Tension =       -0.139
 PCM non-electrostatic energy =         0.0003188434 Hartrees.
 Nuclear repulsion after PCM non-electrostatic terms =       33.3150897723 Hartrees.
 Leave Link  301 at Tue Mar  1 20:45:40 2022, MaxMem=   104857600 cpu:               0.1 elap:               0.1
 (Enter /dades/curu/g16A03_MST/g16/l302.exe)
 NPDir=0 NMtPBC=     1 NCelOv=     1 NCel=       1 NClECP=     1 NCelD=      1
         NCelK=      1 NCelE2=     1 NClLst=     1 CellRange=     0.0.
 One-electron integrals computed using PRISM.
 One-electron integral symmetry used in STVInt
 NBasis=    38 RedAO= T EigKep=  7.69D-03  NBF=    19    19
 NBsUse=    38 1.00D-06 EigRej= -1.00D+00 NBFU=    19    19
 Precomputing XC quadrature grid using
 IXCGrd= 4 IRadAn=           5 IRanWt=          -1 IRanGd=           0 AccXCQ= 0.00D+00.
 Generated NRdTot=       0 NPtTot=           0 NUsed=           0 NTot=          32
 NSgBfM=    38    38    38    38    38 MxSgAt=     6 MxSgA2=     6.
 Leave Link  302 at Tue Mar  1 20:45:40 2022, MaxMem=   104857600 cpu:               0.4 elap:               0.1
 (Enter /dades/curu/g16A03_MST/g16/l303.exe)
 DipDrv:  MaxL=1.
 Leave Link  303 at Tue Mar  1 20:45:40 2022, MaxMem=   104857600 cpu:               0.1 elap:               0.0
 (Enter /dades/curu/g16A03_MST/g16/l401.exe)
 ExpMin= 1.61D-01 ExpMax= 3.05D+03 ExpMxC= 4.57D+02 IAcc=3 IRadAn=         5 AccDes= 0.00D+00
 Harris functional with IExCor=  402 and IRadAn=       5 diagonalized for initial guess.
 HarFok:  IExCor=  402 AccDes= 0.00D+00 IRadAn=         5 IDoV= 1 UseB2=F ITyADJ=14
 ICtDFT=  3500011 ScaDFX=  1.000000  1.000000  1.000000  1.000000
 FoFCou: FMM=F IPFlag=           0 FMFlag=      100000 FMFlg1=           0
         NFxFlg=           0 DoJE=T BraDBF=F KetDBF=T FulRan=T
         wScrn=  0.000000 ICntrl=       500 IOpCl=  0 I1Cent=   200000004 NGrid=           0
         NMat0=    1 NMatS0=      1 NMatT0=    0 NMatD0=    1 NMtDS0=    0 NMtDT0=    0
 Petite list used in FoFCou.
 Harris En= -78.6232672434427    
 JPrj=0 DoOrth=F DoCkMO=F.
 Initial guess orbital symmetries:
       Occupied  (AG) (AU) (AG) (AU) (AU) (AG) (AG) (AU)
       Virtual   (AG) (AG) (AU) (AU) (AG) (AU) (AG) (AU) (AU) (AG)
                 (AU) (AG) (AU) (AG) (AU) (AG) (AU) (AG) (AU) (AG)
                 (AU) (AG) (AU) (AG) (AU) (AG) (AG) (AU) (AG) (AU)
 The electronic state of the initial guess is 1-AG.
 Leave Link  401 at Tue Mar  1 20:45:40 2022, MaxMem=   104857600 cpu:               0.7 elap:               0.2
 (Enter /dades/curu/g16A03_MST/g16/l502.exe)
 Keep R1 ints in memory in symmetry-blocked form, NReq=3728719.
 FoFCou: FMM=F IPFlag=           0 FMFlag=           0 FMFlg1=           0
         NFxFlg=           0 DoJE=F BraDBF=F KetDBF=F FulRan=T
         wScrn=  0.000000 ICntrl=       600 IOpCl=  0 I1Cent=           0 NGrid=           0
         NMat0=    1 NMatS0=    741 NMatT0=    0 NMatD0=    1 NMtDS0=    0 NMtDT0=    0
 Petite list used in FoFCou.
 Closed shell SCF:
 Using DIIS extrapolation, IDIIS=  1040.
 NGot=   104857600 LenX=   104714281 LenY=   104712396
 Requested convergence on RMS density matrix=1.00D-08 within2000 cycles.
 Requested convergence on MAX density matrix=1.00D-06.
 Requested convergence on             energy=1.00D-06.
 No special actions if energy rises.

 Cycle   1  Pass 1  IDiag  1:
 Inv3:  Mode=1 IEnd=     1030188.
 Iteration    1 A*A^-1 deviation from unit magnitude is 2.33D-15 for    503.
 Iteration    1 A*A^-1 deviation from orthogonality  is 2.28D-15 for    456    204.
 Iteration    1 A^-1*A deviation from unit magnitude is 2.11D-15 for    503.
 Iteration    1 A^-1*A deviation from orthogonality  is 2.81D-14 for    398    325.
 E= -78.5029348438770    
 DIIS: error= 5.63D-02 at cycle   1 NSaved=   1.
 NSaved= 1 IEnMin= 1 EnMin= -78.5029348438770     IErMin= 1 ErrMin= 5.63D-02
 ErrMax= 5.63D-02  0.00D+00 EMaxC= 1.00D-01 BMatC= 7.41D-02 BMatP= 7.41D-02
 IDIUse=3 WtCom= 4.37D-01 WtEn= 5.63D-01
 Coeff-Com:  0.100D+01
 Coeff-En:   0.100D+01
 Coeff:      0.100D+01
 Gap=     0.280 Goal=   None    Shift=    0.000
 GapD=    0.280 DampG=1.000 DampE=0.500 DampFc=0.5000 IDamp=-1.
 Damping current iteration by 5.00D-01
 RMSDP=1.35D-02 MaxDP=1.12D-01              OVMax= 1.56D-01

 Cycle   2  Pass 1  IDiag  1:
 E= -78.5454725194672     Delta-E=       -0.042537675590 Rises=F Damp=T
 DIIS: error= 7.12D-03 at cycle   2 NSaved=   2.
 NSaved= 2 IEnMin= 2 EnMin= -78.5454725194672     IErMin= 2 ErrMin= 7.12D-03
 ErrMax= 7.12D-03  0.00D+00 EMaxC= 1.00D-01 BMatC= 1.90D-03 BMatP= 7.41D-02
 IDIUse=3 WtCom= 9.29D-01 WtEn= 7.12D-02
 Coeff-Com: -0.429D-03 0.100D+01
 Coeff-En:   0.000D+00 0.100D+01
 Coeff:     -0.398D-03 0.100D+01
 Gap=     0.288 Goal=   None    Shift=    0.000
 RMSDP=1.36D-03 MaxDP=7.59D-03 DE=-4.25D-02 OVMax= 7.75D-02

 Cycle   3  Pass 1  IDiag  1:
 E= -78.5885776289769     Delta-E=       -0.043105109510 Rises=F Damp=F
 DIIS: error= 9.21D-04 at cycle   3 NSaved=   3.
 NSaved= 3 IEnMin= 3 EnMin= -78.5885776289769     IErMin= 3 ErrMin= 9.21D-04
 ErrMax= 9.21D-04  0.00D+00 EMaxC= 1.00D-01 BMatC= 1.37D-05 BMatP= 1.90D-03
 IDIUse=3 WtCom= 9.91D-01 WtEn= 9.21D-03
 Coeff-Com: -0.733D-02 0.356D-01 0.972D+00
 Coeff-En:   0.000D+00 0.000D+00 0.100D+01
 Coeff:     -0.726D-02 0.353D-01 0.972D+00
 Gap=     0.285 Goal=   None    Shift=    0.000
 RMSDP=9.86D-05 MaxDP=5.22D-04 DE=-4.31D-02 OVMax= 1.67D-03

 Cycle   4  Pass 1  IDiag  1:
 E= -78.5885917052627     Delta-E=       -0.000014076286 Rises=F Damp=F
 DIIS: error= 1.77D-04 at cycle   4 NSaved=   4.
 NSaved= 4 IEnMin= 4 EnMin= -78.5885917052627     IErMin= 4 ErrMin= 1.77D-04
 ErrMax= 1.77D-04  0.00D+00 EMaxC= 1.00D-01 BMatC= 5.83D-07 BMatP= 1.37D-05
 IDIUse=3 WtCom= 9.98D-01 WtEn= 1.77D-03
 Coeff-Com: -0.149D-02 0.288D-02 0.184D+00 0.814D+00
 Coeff-En:   0.000D+00 0.000D+00 0.000D+00 0.100D+01
 Coeff:     -0.148D-02 0.287D-02 0.184D+00 0.815D+00
 Gap=     0.285 Goal=   None    Shift=    0.000
 RMSDP=1.88D-05 MaxDP=1.55D-04 DE=-1.41D-05 OVMax= 2.09D-04

 Cycle   5  Pass 1  IDiag  1:
 E= -78.5885922522720     Delta-E=       -0.000000547009 Rises=F Damp=F
 DIIS: error= 9.58D-06 at cycle   5 NSaved=   5.
 NSaved= 5 IEnMin= 5 EnMin= -78.5885922522720     IErMin= 5 ErrMin= 9.58D-06
 ErrMax= 9.58D-06  0.00D+00 EMaxC= 1.00D-01 BMatC= 2.89D-09 BMatP= 5.83D-07
 IDIUse=1 WtCom= 1.00D+00 WtEn= 0.00D+00
 Coeff-Com:  0.262D-04-0.651D-03-0.409D-02 0.410D-01 0.964D+00
 Coeff:      0.262D-04-0.651D-03-0.409D-02 0.410D-01 0.964D+00
 Gap=     0.285 Goal=   None    Shift=    0.000
 RMSDP=1.97D-06 MaxDP=1.49D-05 DE=-5.47D-07 OVMax= 2.23D-05

 Cycle   6  Pass 1  IDiag  1:
 E= -78.5885922554876     Delta-E=       -0.000000003216 Rises=F Damp=F
 DIIS: error= 7.00D-07 at cycle   6 NSaved=   6.
 NSaved= 6 IEnMin= 6 EnMin= -78.5885922554876     IErMin= 6 ErrMin= 7.00D-07
 ErrMax= 7.00D-07  0.00D+00 EMaxC= 1.00D-01 BMatC= 9.21D-12 BMatP= 2.89D-09
 IDIUse=1 WtCom= 1.00D+00 WtEn= 0.00D+00
 Coeff-Com:  0.115D-04-0.495D-06-0.127D-02-0.593D-02-0.495D-02 0.101D+01
 Coeff:      0.115D-04-0.495D-06-0.127D-02-0.593D-02-0.495D-02 0.101D+01
 Gap=     0.285 Goal=   None    Shift=    0.000
 RMSDP=2.21D-07 MaxDP=1.68D-06 DE=-3.22D-09 OVMax= 2.10D-06

 Cycle   7  Pass 1  IDiag  1:
 E= -78.5885922555052     Delta-E=       -0.000000000018 Rises=F Damp=F
 DIIS: error= 6.53D-08 at cycle   7 NSaved=   7.
 NSaved= 7 IEnMin= 7 EnMin= -78.5885922555052     IErMin= 7 ErrMin= 6.53D-08
 ErrMax= 6.53D-08  0.00D+00 EMaxC= 1.00D-01 BMatC= 3.77D-14 BMatP= 9.21D-12
 IDIUse=1 WtCom= 1.00D+00 WtEn= 0.00D+00
 Coeff-Com: -0.123D-05 0.236D-05 0.848D-04 0.169D-03-0.161D-02-0.640D-01
 Coeff-Com:  0.107D+01
 Coeff:     -0.123D-05 0.236D-05 0.848D-04 0.169D-03-0.161D-02-0.640D-01
 Coeff:      0.107D+01
 Gap=     0.285 Goal=   None    Shift=    0.000
 RMSDP=8.81D-09 MaxDP=8.36D-08 DE=-1.76D-11 OVMax= 1.48D-07

 Error on total polarization charges =  0.01124
 SCF Done:  E(RB3LYP) =  -78.5885922555     A.U. after    7 cycles
            NFock=  7  Conv=0.88D-08     -V/T= 2.0105
 KE= 7.777429729052D+01 PE=-2.480576382873D+02 EE= 5.837965896901D+01
 Leave Link  502 at Tue Mar  1 20:45:42 2022, MaxMem=   104857600 cpu:               6.1 elap:               2.0
 (Enter /dades/curu/g16A03_MST/g16/l601.exe)
 Copying SCF densities to generalized density rwf, IOpCl= 0 IROHF=0.

 **********************************************************************

            Population analysis using the SCF density.

 **********************************************************************

 Orbital symmetries:
       Occupied  (AG) (AU) (AG) (AU) (AU) (AG) (AG) (AU)
       Virtual   (AG) (AG) (AU) (AU) (AG) (AU) (AG) (AU) (AU) (AG)
                 (AG) (AU) (AU) (AG) (AU) (AG) (AU) (AG) (AU) (AG)
                 (AU) (AG) (AU) (AG) (AU) (AG) (AG) (AU) (AG) (AU)
 The electronic state is 1-AG.
 Alpha  occ. eigenvalues --  -10.18487 -10.18400  -0.75614  -0.57643  -0.46733
 Alpha  occ. eigenvalues --   -0.41287  -0.35506  -0.27007
 Alpha virt. eigenvalues --    0.01471   0.12412   0.14533   0.16283   0.24824
 Alpha virt. eigenvalues --    0.32949   0.47964   0.54301   0.57230   0.63370
 Alpha virt. eigenvalues --    0.64881   0.69625   0.85166   0.87478   0.93139
 Alpha virt. eigenvalues --    0.94005   1.10096   1.23191   1.45994   1.54362
 Alpha virt. eigenvalues --    1.82782   1.89422   1.98423   2.08750   2.29478
 Alpha virt. eigenvalues --    2.38009   2.67875   2.69969   4.09360   4.24660
          Condensed to atoms (all electrons):
               1          2          3          4          5          6
     1  C    4.955406   0.674094   0.379154   0.379285  -0.037025  -0.036900
     2  C    0.674094   4.955406  -0.037025  -0.036900   0.379154   0.379285
     3  H    0.379154  -0.037025   0.543764  -0.039373   0.004943  -0.008280
     4  H    0.379285  -0.036900  -0.039373   0.543140  -0.008280   0.004929
     5  H   -0.037025   0.379154   0.004943  -0.008280   0.543764  -0.039373
     6  H   -0.036900   0.379285  -0.008280   0.004929  -0.039373   0.543140
 Mulliken charges:
               1
     1  C   -0.314015
     2  C   -0.314015
     3  H    0.156816
     4  H    0.157198
     5  H    0.156816
     6  H    0.157198
 Sum of Mulliken charges =  -0.00000
 Mulliken charges with hydrogens summed into heavy atoms:
               1
     1  C   -0.000000
     2  C   -0.000000
 Electronic spatial extent (au):  <R**2>=             81.9417
 Charge=             -0.0000 electrons
 Dipole moment (field-independent basis, Debye):
    X=              0.0000    Y=             -0.0000    Z=             -0.0000  Tot=              0.0000
 Quadrupole moment (field-independent basis, Debye-Ang):
   XX=            -13.5808   YY=            -11.9968   ZZ=            -13.3322
   XY=             -0.3674   XZ=              1.5415   YZ=              0.3487
 Traceless Quadrupole moment (field-independent basis, Debye-Ang):
   XX=             -0.6108   YY=              0.9731   ZZ=             -0.3623
   XY=             -0.3674   XZ=              1.5415   YZ=              0.3487
 Octapole moment (field-independent basis, Debye-Ang**2):
  XXX=              0.0000  YYY=              0.0000  ZZZ=             -0.0000  XYY=              0.0000
  XXY=              0.0000  XXZ=             -0.0000  XZZ=              0.0000  YZZ=              0.0000
  YYZ=              0.0000  XYZ=              0.0000
 Hexadecapole moment (field-independent basis, Debye-Ang**3):
 XXXX=            -38.8822 YYYY=            -31.5582 ZZZZ=            -35.9855 XXXY=              7.1847
 XXXZ=            -10.0260 YYYX=              4.9844 YYYZ=              4.2249 ZZZX=             -9.5080
 ZZZY=              5.7531 XXYY=            -11.9249 XXZZ=            -11.3146 YYZZ=            -12.1559
 XXYZ=              2.0534 YYXZ=             -3.2028 ZZXY=              2.9392
 N-N= 3.331508977230D+01 E-N=-2.480576372570D+02  KE= 7.777429729052D+01
 Symmetry AG   KE= 3.948166677031D+01
 Symmetry AU   KE= 3.829263052021D+01
 No NMR shielding tensors so no spin-rotation constants.
 Leave Link  601 at Tue Mar  1 20:45:42 2022, MaxMem=   104857600 cpu:               0.3 elap:               0.1
 (Enter /dades/curu/g16A03_MST/g16/l701.exe)
 ... and contract with generalized density number  0.
 Compute integral first derivatives.
 D1PCM: PCM CHGder 1st derivatives, ID1Alg=3 FixD1E=F DoIter=F DoCFld=F I1PDM=0.
 GePol: Maximum number of non-zero 1st derivatives   =     209
 Leave Link  701 at Tue Mar  1 20:45:43 2022, MaxMem=   104857600 cpu:               1.4 elap:               0.4
 (Enter /dades/curu/g16A03_MST/g16/l702.exe)
 L702 exits ... SP integral derivatives will be done elsewhere.
 Leave Link  702 at Tue Mar  1 20:45:43 2022, MaxMem=   104857600 cpu:               0.1 elap:               0.0
 (Enter /dades/curu/g16A03_MST/g16/l703.exe)
 Integral derivatives from FoFJK, PRISM(SPDF).
 Compute integral first derivatives, UseDBF=F ICtDFT=           0.
 Calling FoFJK, ICntrl=      2127 FMM=F ISym2X=1 I1Cent= 0 IOpClX= 0 NMat=1 NMatS=1 NMatT=0.
 FoFJK:  IHMeth= 1 ICntrl=    2127 DoSepK=F KAlg= 0 I1Cent=           0 FoldK=F
 IRaf=         0 NMat=       1 IRICut=       1 DoRegI=T DoRafI=F ISym2E= 1 IDoP0=0 IntGTp=1.
 FoFCou: FMM=F IPFlag=           0 FMFlag=      100000 FMFlg1=         800
         NFxFlg=           0 DoJE=F BraDBF=F KetDBF=F FulRan=T
         wScrn=  0.000000 ICntrl=      2127 IOpCl=  0 I1Cent=           0 NGrid=           0
         NMat0=    1 NMatS0=      1 NMatT0=    0 NMatD0=    1 NMtDS0=    0 NMtDT0=    0
 Petite list used in FoFCou.
 Leave Link  703 at Tue Mar  1 20:45:43 2022, MaxMem=   104857600 cpu:               1.1 elap:               0.3
 (Enter /dades/curu/g16A03_MST/g16/l716.exe)
 Dipole        = 2.22044605D-16-1.11022302D-16 0.00000000D+00
 ***** Axes restored to original set *****
 -------------------------------------------------------------------
 Center     Atomic                   Forces (Hartrees/Bohr)
 Number     Number              X              Y              Z
 -------------------------------------------------------------------
      1        6           0.004796752   -0.002372270    0.004559691
      2        6          -0.004798317    0.002365795   -0.004562894
      3        1          -0.001495843   -0.000393406   -0.001701318
      4        1          -0.001196165    0.001569770   -0.000903492
      5        1           0.001497697    0.000410018    0.001707335
      6        1           0.001195877   -0.001579906    0.000900677
 -------------------------------------------------------------------
 Cartesian Forces:  Max     0.004798317 RMS     0.002570450
 Leave Link  716 at Tue Mar  1 20:45:43 2022, MaxMem=   104857600 cpu:               0.1 elap:               0.0
 (Enter /dades/curu/g16A03_MST/g16/l103.exe)

 GradGradGradGradGradGradGradGradGradGradGradGradGradGradGradGradGradGrad
 Berny optimization.
 FormGI is forming the generalized inverse of G from B-inverse, IUseBI=4.
 Internal  Forces:  Max     0.003102421 RMS     0.001584101
 Search for a local minimum.
 Step number   1 out of a maximum of  100
 All quantities printed in internal units (Hartrees-Bohrs-Radians)
 RMS Force = .15841D-02 SwitMx=.10000D-02 MixMth= 1
 Mixed Optimization -- RFO/linear search
 Second derivative matrix not updated -- first step.
 The second derivative matrix:
                          R1        R2        R3        R4        R5
           R1           0.58142
           R2           0.00000   0.35231
           R3           0.00000   0.00000   0.35368
           R4           0.00000   0.00000   0.00000   0.35231
           R5           0.00000   0.00000   0.00000   0.00000   0.35368
           A1           0.00000   0.00000   0.00000   0.00000   0.00000
           A2           0.00000   0.00000   0.00000   0.00000   0.00000
           A3           0.00000   0.00000   0.00000   0.00000   0.00000
           A4           0.00000   0.00000   0.00000   0.00000   0.00000
           A5           0.00000   0.00000   0.00000   0.00000   0.00000
           A6           0.00000   0.00000   0.00000   0.00000   0.00000
           D1           0.00000   0.00000   0.00000   0.00000   0.00000
           D2           0.00000   0.00000   0.00000   0.00000   0.00000
           D3           0.00000   0.00000   0.00000   0.00000   0.00000
           D4           0.00000   0.00000   0.00000   0.00000   0.00000
                          A1        A2        A3        A4        A5
           A1           0.16000
           A2           0.00000   0.16000
           A3           0.00000   0.00000   0.16000
           A4           0.00000   0.00000   0.00000   0.16000
           A5           0.00000   0.00000   0.00000   0.00000   0.16000
           A6           0.00000   0.00000   0.00000   0.00000   0.00000
           D1           0.00000   0.00000   0.00000   0.00000   0.00000
           D2           0.00000   0.00000   0.00000   0.00000   0.00000
           D3           0.00000   0.00000   0.00000   0.00000   0.00000
           D4           0.00000   0.00000   0.00000   0.00000   0.00000
                          A6        D1        D2        D3        D4
           A6           0.16000
           D1           0.00000   0.02937
           D2           0.00000   0.00000   0.02937
           D3           0.00000   0.00000   0.00000   0.02937
           D4           0.00000   0.00000   0.00000   0.00000   0.02937
 ITU=  0
     Eigenvalues ---    0.02937   0.02937   0.02937   0.16000   0.16000
     Eigenvalues ---    0.16000   0.16000   0.35231   0.35231   0.35368
     Eigenvalues ---    0.35368   0.58142
 RFO step:  Lambda=-1.89788928D-04 EMin= 2.93713543D-02
 Linear search not attempted -- first point.
 Iteration  1 RMS(Cart)=  0.00890192 RMS(Int)=  0.00004753
 Iteration  2 RMS(Cart)=  0.00004764 RMS(Int)=  0.00000004
 Iteration  3 RMS(Cart)=  0.00000000 RMS(Int)=  0.00000004
 ITry= 1 IFail=0 DXMaxC= 1.48D-02 DCOld= 1.00D+10 DXMaxT= 1.00D-01 DXLimC= 3.00D+00 Rises=F
 ClnCor:  largest displacement from symmetrization is 6.60D-05 for atom     6.
 Variable       Old X    -DE/DX   Delta X   Delta X   Delta X     New X
                                 (Linear)    (Quad)   (Total)
    R1        2.52442  -0.00310   0.00000  -0.00533  -0.00531   2.51911
    R2        2.05302  -0.00025   0.00000  -0.00072  -0.00072   2.05230
    R3        2.05082   0.00042   0.00000   0.00120   0.00120   2.05202
    R4        2.05302  -0.00027   0.00000  -0.00076  -0.00072   2.05230
    R5        2.05082   0.00042   0.00000   0.00118   0.00120   2.05202
    A1        2.11114   0.00166   0.00000   0.01039   0.01039   2.12153
    A2        2.11363   0.00135   0.00000   0.00845   0.00845   2.12209
    A3        2.05841  -0.00302   0.00000  -0.01885  -0.01885   2.03957
    A4        2.11114   0.00167   0.00000   0.01042   0.01039   2.12153
    A5        2.11363   0.00136   0.00000   0.00849   0.00845   2.12209
    A6        2.05841  -0.00303   0.00000  -0.01891  -0.01885   2.03957
    D1        3.14159   0.00000   0.00000   0.00000   0.00000   3.14159
    D2        0.00043  -0.00002   0.00000  -0.00064  -0.00063  -0.00020
    D3       -0.00043   0.00002   0.00000   0.00063   0.00063   0.00020
    D4        3.14159  -0.00000   0.00000  -0.00000   0.00000   3.14159
         Item               Value     Threshold  Converged?
 Maximum Force            0.003102     0.000450     NO 
 RMS     Force            0.001584     0.000300     NO 
 Maximum Displacement     0.014756     0.001800     NO 
 RMS     Displacement     0.008894     0.001200     NO 
 Predicted change in Energy=-9.499809D-05
 Lowest energy point so far.  Saving SCF results.
 GradGradGradGradGradGradGradGradGradGradGradGradGradGradGradGradGradGrad

 Leave Link  103 at Tue Mar  1 20:45:43 2022, MaxMem=   104857600 cpu:               0.1 elap:               0.0
 (Enter /dades/curu/g16A03_MST/g16/l202.exe)
                          Input orientation:                          
 ---------------------------------------------------------------------
 Center     Atomic      Atomic             Coordinates (Angstroms)
 Number     Number       Type             X           Y           Z
 ---------------------------------------------------------------------
      1          6           0       -0.437881    0.302788   -0.401047
      2          6           0        0.437881   -0.302788    0.401047
      3          1           0       -0.619995    1.371684   -0.339754
      4          1           0       -1.002842   -0.249192   -1.146216
      5          1           0        0.619995   -1.371684    0.339754
      6          1           0        1.002842    0.249192    1.146216
 ---------------------------------------------------------------------
                    Distance matrix (angstroms):
                    1          2          3          4          5
     1  C    0.000000
     2  C    1.333055   0.000000
     3  H    1.086030   2.114649   0.000000
     4  H    1.085882   2.114847   1.850457   0.000000
     5  H    2.114649   1.086030   3.086320   2.470160   0.000000
     6  H    2.114847   1.085882   2.470160   3.086486   1.850457
                    6
     6  H    0.000000
 Stoichiometry    C2H4
 Framework group  CI[X(C2H4)]
 Deg. of freedom     6
 Full point group                 CI      NOp   2
 RotChk:  IX=0 Diff= 0.00D+00
 Largest Abelian subgroup         CI      NOp   2
 Largest concise Abelian subgroup CI      NOp   2
                         Standard orientation:                         
 ---------------------------------------------------------------------
 Center     Atomic      Atomic             Coordinates (Angstroms)
 Number     Number       Type             X           Y           Z
 ---------------------------------------------------------------------
      1          6           0       -0.437881    0.302788   -0.401047
      2          6           0        0.437881   -0.302788    0.401047
      3          1           0       -0.619995    1.371684   -0.339754
      4          1           0       -1.002842   -0.249192   -1.146216
      5          1           0        0.619995   -1.371684    0.339754
      6          1           0        1.002842    0.249192    1.146216
 ---------------------------------------------------------------------
 Rotational constants (GHZ):         146.4448549          30.0612312          24.9414213
 Leave Link  202 at Tue Mar  1 20:45:43 2022, MaxMem=   104857600 cpu:               0.1 elap:               0.0
 (Enter /dades/curu/g16A03_MST/g16/l301.exe)
 Standard basis: 6-31G(d) (6D, 7F)
 Ernie: Thresh=  0.10000D-02 Tol=  0.10000D-05 Strict=F.
 There are    19 symmetry adapted cartesian basis functions of AG  symmetry.
 There are    19 symmetry adapted cartesian basis functions of AU  symmetry.
 There are    19 symmetry adapted basis functions of AG  symmetry.
 There are    19 symmetry adapted basis functions of AU  symmetry.
    38 basis functions,    72 primitive gaussians,    38 cartesian basis functions
     8 alpha electrons        8 beta electrons
       nuclear repulsion energy        33.3346376408 Hartrees.
 IExCor=  402 DFT=T Ex+Corr=B3LYP ExCW=0 ScaHFX=  0.200000
 ScaDFX=  0.800000  0.720000  1.000000  0.810000 ScalE2=  1.000000  1.000000
 IRadAn=      5 IRanWt=     -1 IRanGd=            0 ICorTp=0 IEmpDi=  4
 NAtoms=    6 NActive=    6 NUniq=    3 SFac= 4.00D+00 NAtFMM=   60 NAOKFM=F Big=F
 Integral buffers will be    131072 words long.
 Raffenetti 2 integral format.
 Two-electron integral symmetry is turned on.
 ------------------------------------------------------------------------------
 Polarizable Continuum Model (PCM)
 =================================
 Model                : PCM.
 Atomic radii         : MST.
 Polarization charges : Total charges.
 Charge compensation  : None.
 Solution method      : On-the-fly selection.
 Cavity type          : Scaled VdW (van der Waals Surface) (Alpha=1.250).
 Cavity algorithm     : GePol (No added spheres)
                        Default sphere list used, NSphG=    6.
                        Lebedev-Laikov grids with approx.  5.0 points / Ang**2.
                        Smoothing algorithm: York/Karplus (Gamma=1.0000).
                        Polarization charges: spherical gaussians, with
                                              point-specific exponents (IZeta= 3).
                        Self-potential: point-specific (ISelfS= 7).
                        Self-field    : sphere-specific E.n sum rule (ISelfD= 2).
 1st derivatives      : Analytical E(r).r(x)/FMM algorithm (CHGder, D1EAlg=3).
                        Cavity 1st derivative terms included.
 Solvent              : Water, Eps=  78.355300 Eps(inf)=   1.777849
 ------------------------------------------------------------------------------
 Spheres list:
 ISph  on   Nord     Re0    Alpha      Xe            Ye            Ze
    1   C      1    1.5000  1.250     -0.437881      0.302788     -0.401047
    2   C      2    1.5000  1.250      0.437881     -0.302788      0.401047
    3   H      3    1.2000  1.250     -0.619995      1.371684     -0.339754
    4   H      4    1.2000  1.250     -1.002842     -0.249192     -1.146216
    5   H      5    1.2000  1.250      0.619995     -1.371684      0.339754
    6   H      6    1.2000  1.250      1.002842      0.249192      1.146216
 ------------------------------------------------------------------------------
 GePol: Number of generator spheres                  =       6
 GePol: Total number of spheres                      =       6
 GePol: Number of exposed spheres                    =       6 (100.00%)
 GePol: Number of points                             =     586
 GePol: Average weight of points                     =       0.14
 GePol: Minimum weight of points                     =   0.11D-06
 GePol: Maximum weight of points                     =    0.21416
 GePol: Number of points with low weight             =      28
 GePol: Fraction of low-weight points (<1% of avg)   =       4.78%
 GePol: Cavity surface area                          =     79.406 Ang**2
 GePol: Cavity volume                                =     57.295 Ang**3
 Surface areas from nonelectrostatic (unscaled) cavity and vdw tensions:
 Sphere =    1 Type =  CH2 Surf =        9.497 Tension =       -0.139
 Sphere =    2 Type =  CH2 Surf =        9.497 Tension =       -0.139
 Sphere =    3 Type =  CH2 Surf =       10.273 Tension =       -0.139
 Sphere =    4 Type =  CH2 Surf =       10.273 Tension =       -0.139
 Sphere =    5 Type =  CH2 Surf =       10.273 Tension =       -0.139
 Sphere =    6 Type =  CH2 Surf =       10.273 Tension =       -0.139
 PCM non-electrostatic energy =         0.0003193147 Hartrees.
 Nuclear repulsion after PCM non-electrostatic terms =       33.3349569555 Hartrees.
 Leave Link  301 at Tue Mar  1 20:45:43 2022, MaxMem=   104857600 cpu:               0.1 elap:               0.1
 (Enter /dades/curu/g16A03_MST/g16/l302.exe)
 NPDir=0 NMtPBC=     1 NCelOv=     1 NCel=       1 NClECP=     1 NCelD=      1
         NCelK=      1 NCelE2=     1 NClLst=     1 CellRange=     0.0.
 One-electron integrals computed using PRISM.
 One-electron integral symmetry used in STVInt
 NBasis=    38 RedAO= T EigKep=  7.67D-03  NBF=    19    19
 NBsUse=    38 1.00D-06 EigRej= -1.00D+00 NBFU=    19    19
 Precomputing XC quadrature grid using
 IXCGrd= 4 IRadAn=           5 IRanWt=          -1 IRanGd=           0 AccXCQ= 0.00D+00.
 Generated NRdTot=       0 NPtTot=           0 NUsed=           0 NTot=          32
 NSgBfM=    38    38    38    38    38 MxSgAt=     6 MxSgA2=     6.
 Leave Link  302 at Tue Mar  1 20:45:43 2022, MaxMem=   104857600 cpu:               0.4 elap:               0.1
 (Enter /dades/curu/g16A03_MST/g16/l303.exe)
 DipDrv:  MaxL=1.
 Leave Link  303 at Tue Mar  1 20:45:43 2022, MaxMem=   104857600 cpu:               0.1 elap:               0.0
 (Enter /dades/curu/g16A03_MST/g16/l401.exe)
 Initial guess from the checkpoint file:  "114.n.pdb.xyz.mst.wat.chk"
 B after Tr=     0.000000    0.000000    0.000000
         Rot=    1.000000   -0.000066    0.000019    0.000087 Ang=  -0.01 deg.
 Guess basis will be translated and rotated to current coordinates.
 JPrj=2 DoOrth=T DoCkMO=T.
 Initial guess orbital symmetries:
       Occupied  (AG) (AU) (AG) (AU) (AU) (AG) (AG) (AU)
       Virtual   (AG) (AG) (AU) (AU) (AG) (AU) (AG) (AU) (AU) (AG)
                 (AG) (AU) (AU) (AG) (AU) (AG) (AU) (AG) (AU) (AG)
                 (AU) (AG) (AU) (AG) (AU) (AG) (AG) (AU) (AG) (AU)
 The electronic state of the initial guess is 1-AG.
 Leave Link  401 at Tue Mar  1 20:45:43 2022, MaxMem=   104857600 cpu:               0.1 elap:               0.1
 (Enter /dades/curu/g16A03_MST/g16/l502.exe)
 Keep R1 ints in memory in symmetry-blocked form, NReq=3728719.
 FoFCou: FMM=F IPFlag=           0 FMFlag=           0 FMFlg1=           0
         NFxFlg=           0 DoJE=F BraDBF=F KetDBF=F FulRan=T
         wScrn=  0.000000 ICntrl=       600 IOpCl=  0 I1Cent=           0 NGrid=           0
         NMat0=    1 NMatS0=    741 NMatT0=    0 NMatD0=    1 NMtDS0=    0 NMtDT0=    0
 Petite list used in FoFCou.
 Closed shell SCF:
 Using DIIS extrapolation, IDIIS=  1040.
 NGot=   104857600 LenX=   104714281 LenY=   104712396
 Requested convergence on RMS density matrix=1.00D-08 within2000 cycles.
 Requested convergence on MAX density matrix=1.00D-06.
 Requested convergence on             energy=1.00D-06.
 No special actions if energy rises.

 Cycle   1  Pass 1  IDiag  1:
 Inv3:  Mode=1 IEnd=     1030188.
 Iteration    1 A*A^-1 deviation from unit magnitude is 2.33D-15 for    185.
 Iteration    1 A*A^-1 deviation from orthogonality  is 2.82D-15 for    325     40.
 Iteration    1 A^-1*A deviation from unit magnitude is 2.22D-15 for    469.
 Iteration    1 A^-1*A deviation from orthogonality  is 2.18D-14 for    401    325.
 E= -78.5886986999090    
 DIIS: error= 6.60D-04 at cycle   1 NSaved=   1.
 NSaved= 1 IEnMin= 1 EnMin= -78.5886986999090     IErMin= 1 ErrMin= 6.60D-04
 ErrMax= 6.60D-04  0.00D+00 EMaxC= 1.00D-01 BMatC= 1.08D-05 BMatP= 1.08D-05
 IDIUse=3 WtCom= 9.93D-01 WtEn= 6.60D-03
 Coeff-Com:  0.100D+01
 Coeff-En:   0.100D+01
 Coeff:      0.100D+01
 Gap=     0.286 Goal=   None    Shift=    0.000
 RMSDP=1.13D-04 MaxDP=6.48D-04              OVMax= 1.43D-03

 Cycle   2  Pass 1  IDiag  1:
 E= -78.5887141879272     Delta-E=       -0.000015488018 Rises=F Damp=F
 DIIS: error= 1.04D-04 at cycle   2 NSaved=   2.
 NSaved= 2 IEnMin= 2 EnMin= -78.5887141879272     IErMin= 2 ErrMin= 1.04D-04
 ErrMax= 1.04D-04  0.00D+00 EMaxC= 1.00D-01 BMatC= 2.41D-07 BMatP= 1.08D-05
 IDIUse=3 WtCom= 9.99D-01 WtEn= 1.04D-03
 Coeff-Com:  0.189D-01 0.981D+00
 Coeff-En:   0.000D+00 0.100D+01
 Coeff:      0.188D-01 0.981D+00
 Gap=     0.286 Goal=   None    Shift=    0.000
 RMSDP=2.28D-05 MaxDP=1.91D-04 DE=-1.55D-05 OVMax= 3.13D-04

 Cycle   3  Pass 1  IDiag  1:
 E= -78.5887143273680     Delta-E=       -0.000000139441 Rises=F Damp=F
 DIIS: error= 7.69D-05 at cycle   3 NSaved=   3.
 NSaved= 3 IEnMin= 3 EnMin= -78.5887143273680     IErMin= 3 ErrMin= 7.69D-05
 ErrMax= 7.69D-05  0.00D+00 EMaxC= 1.00D-01 BMatC= 1.46D-07 BMatP= 2.41D-07
 IDIUse=1 WtCom= 1.00D+00 WtEn= 0.00D+00
 Coeff-Com: -0.141D-01 0.435D+00 0.580D+00
 Coeff:     -0.141D-01 0.435D+00 0.580D+00
 Gap=     0.286 Goal=   None    Shift=    0.000
 RMSDP=9.87D-06 MaxDP=8.49D-05 DE=-1.39D-07 OVMax= 1.13D-04

 Cycle   4  Pass 1  IDiag  1:
 E= -78.5887144823512     Delta-E=       -0.000000154983 Rises=F Damp=F
 DIIS: error= 1.12D-05 at cycle   4 NSaved=   4.
 NSaved= 4 IEnMin= 4 EnMin= -78.5887144823512     IErMin= 4 ErrMin= 1.12D-05
 ErrMax= 1.12D-05  0.00D+00 EMaxC= 1.00D-01 BMatC= 2.73D-09 BMatP= 1.46D-07
 IDIUse=1 WtCom= 1.00D+00 WtEn= 0.00D+00
 Coeff-Com: -0.607D-02 0.792D-01 0.174D+00 0.753D+00
 Coeff:     -0.607D-02 0.792D-01 0.174D+00 0.753D+00
 Gap=     0.286 Goal=   None    Shift=    0.000
 RMSDP=1.20D-06 MaxDP=9.40D-06 DE=-1.55D-07 OVMax= 1.70D-05

 Cycle   5  Pass 1  IDiag  1:
 E= -78.5887144850367     Delta-E=       -0.000000002685 Rises=F Damp=F
 DIIS: error= 5.02D-07 at cycle   5 NSaved=   5.
 NSaved= 5 IEnMin= 5 EnMin= -78.5887144850367     IErMin= 5 ErrMin= 5.02D-07
 ErrMax= 5.02D-07  0.00D+00 EMaxC= 1.00D-01 BMatC= 6.36D-12 BMatP= 2.73D-09
 IDIUse=1 WtCom= 1.00D+00 WtEn= 0.00D+00
 Coeff-Com:  0.810D-04-0.558D-02-0.361D-02 0.319D-01 0.977D+00
 Coeff:      0.810D-04-0.558D-02-0.361D-02 0.319D-01 0.977D+00
 Gap=     0.286 Goal=   None    Shift=    0.000
 RMSDP=1.13D-07 MaxDP=8.54D-07 DE=-2.69D-09 OVMax= 1.10D-06

 Cycle   6  Pass 1  IDiag  1:
 E= -78.5887144850444     Delta-E=       -0.000000000008 Rises=F Damp=F
 DIIS: error= 5.07D-08 at cycle   6 NSaved=   6.
 NSaved= 6 IEnMin= 6 EnMin= -78.5887144850444     IErMin= 6 ErrMin= 5.07D-08
 ErrMax= 5.07D-08  0.00D+00 EMaxC= 1.00D-01 BMatC= 2.96D-14 BMatP= 6.36D-12
 IDIUse=1 WtCom= 1.00D+00 WtEn= 0.00D+00
 Coeff-Com:  0.263D-04-0.328D-03-0.893D-03-0.200D-02-0.163D-01 0.102D+01
 Coeff:      0.263D-04-0.328D-03-0.893D-03-0.200D-02-0.163D-01 0.102D+01
 Gap=     0.286 Goal=   None    Shift=    0.000
 RMSDP=7.70D-09 MaxDP=3.92D-08 DE=-7.76D-12 OVMax= 1.11D-07

 Error on total polarization charges =  0.01123
 SCF Done:  E(RB3LYP) =  -78.5887144850     A.U. after    6 cycles
            NFock=  6  Conv=0.77D-08     -V/T= 2.0104
 KE= 7.777991707140D+01 PE=-2.480998054243D+02 EE= 5.839621691231D+01
 Leave Link  502 at Tue Mar  1 20:45:45 2022, MaxMem=   104857600 cpu:               5.4 elap:               1.8
 (Enter /dades/curu/g16A03_MST/g16/l701.exe)
 ... and contract with generalized density number  0.
 Compute integral first derivatives.
 D1PCM: PCM CHGder 1st derivatives, ID1Alg=3 FixD1E=F DoIter=F DoCFld=F I1PDM=0.
 GePol: Maximum number of non-zero 1st derivatives   =     207
 Leave Link  701 at Tue Mar  1 20:45:46 2022, MaxMem=   104857600 cpu:               1.5 elap:               0.4
 (Enter /dades/curu/g16A03_MST/g16/l702.exe)
 L702 exits ... SP integral derivatives will be done elsewhere.
 Leave Link  702 at Tue Mar  1 20:45:46 2022, MaxMem=   104857600 cpu:               0.1 elap:               0.0
 (Enter /dades/curu/g16A03_MST/g16/l703.exe)
 Integral derivatives from FoFJK, PRISM(SPDF).
 Compute integral first derivatives, UseDBF=F ICtDFT=           0.
 Calling FoFJK, ICntrl=      2127 FMM=F ISym2X=1 I1Cent= 0 IOpClX= 0 NMat=1 NMatS=1 NMatT=0.
 FoFJK:  IHMeth= 1 ICntrl=    2127 DoSepK=F KAlg= 0 I1Cent=           0 FoldK=F
 IRaf=         0 NMat=       1 IRICut=       1 DoRegI=T DoRafI=F ISym2E= 1 IDoP0=0 IntGTp=1.
 FoFCou: FMM=F IPFlag=           0 FMFlag=      100000 FMFlg1=         800
         NFxFlg=           0 DoJE=F BraDBF=F KetDBF=F FulRan=T
         wScrn=  0.000000 ICntrl=      2127 IOpCl=  0 I1Cent=           0 NGrid=           0
         NMat0=    1 NMatS0=      1 NMatT0=    0 NMatD0=    1 NMtDS0=    0 NMtDT0=    0
 Petite list used in FoFCou.
 Leave Link  703 at Tue Mar  1 20:45:46 2022, MaxMem=   104857600 cpu:               1.0 elap:               0.3
 (Enter /dades/curu/g16A03_MST/g16/l716.exe)
 Dipole        = 2.22044605D-16 5.55111512D-17 4.44089210D-16
 ***** Axes restored to original set *****
 -------------------------------------------------------------------
 Center     Atomic                   Forces (Hartrees/Bohr)
 Number     Number              X              Y              Z
 -------------------------------------------------------------------
      1        6           0.001579478   -0.000993744    0.001478346
      2        6          -0.001579664    0.000988025   -0.001479917
      3        1          -0.000530293    0.000114407   -0.000551159
      4        1          -0.000430669    0.000497472   -0.000352192
      5        1           0.000531336   -0.000100624    0.000555620
      6        1           0.000429811   -0.000505536    0.000349303
 -------------------------------------------------------------------
 Cartesian Forces:  Max     0.001579664 RMS     0.000870760
 Leave Link  716 at Tue Mar  1 20:45:46 2022, MaxMem=   104857600 cpu:               0.1 elap:               0.0
 (Enter /dades/curu/g16A03_MST/g16/l103.exe)

 GradGradGradGradGradGradGradGradGradGradGradGradGradGradGradGradGradGrad
 Berny optimization.
 Using GEDIIS/GDIIS optimizer.
 FormGI is forming the generalized inverse of G from B-inverse, IUseBI=4.
 Internal  Forces:  Max     0.001012562 RMS     0.000520032
 Search for a local minimum.
 Step number   2 out of a maximum of  100
 All quantities printed in internal units (Hartrees-Bohrs-Radians)
 RMS Force = .52003D-03 SwitMx=.10000D-02 MixMth= 2
 Mixed Optimization -- En-DIIS/RFO-DIIS
 Update second derivatives using D2CorX and points    1    2
 DE= -1.22D-04 DEPred=-9.50D-05 R= 1.29D+00
 TightC=F SS=  1.41D+00  RLast= 3.32D-02 DXNew= 1.6818D-01 9.9595D-02
 Trust test= 1.29D+00 RLast= 3.32D-02 DXMaxT set to 1.00D-01
 The second derivative matrix:
                          R1        R2        R3        R4        R5
           R1           0.56822
           R2           0.00314   0.35339
           R3           0.00329  -0.00014   0.35308
           R4           0.00319   0.00109  -0.00015   0.35341
           R5           0.00330  -0.00014  -0.00060  -0.00014   0.35308
           A1           0.00784  -0.00155  -0.00184  -0.00157  -0.00185
           A2           0.00697  -0.00114  -0.00156  -0.00116  -0.00156
           A3          -0.01481   0.00269   0.00340   0.00274   0.00341
           A4           0.00782  -0.00155  -0.00184  -0.00158  -0.00185
           A5           0.00694  -0.00115  -0.00155  -0.00117  -0.00156
           A6          -0.01476   0.00270   0.00339   0.00275   0.00341
           D1          -0.00000  -0.00000   0.00000  -0.00000   0.00000
           D2           0.00007   0.00005   0.00001   0.00005   0.00001
           D3          -0.00007  -0.00005  -0.00001  -0.00005  -0.00001
           D4           0.00000   0.00000  -0.00000   0.00000  -0.00000
                          A1        A2        A3        A4        A5
           A1           0.15540
           A2          -0.00405   0.15646
           A3           0.00865   0.00759   0.14376
           A4          -0.00459  -0.00404   0.00863   0.15542
           A5          -0.00404  -0.00353   0.00756  -0.00403   0.15649
           A6           0.00863   0.00757  -0.01620   0.00861   0.00754
           D1           0.00000   0.00000  -0.00000   0.00000   0.00000
           D2          -0.00003  -0.00002   0.00005  -0.00003  -0.00002
           D3           0.00003   0.00002  -0.00005   0.00003   0.00002
           D4          -0.00000  -0.00000   0.00000  -0.00000  -0.00000
                          A6        D1        D2        D3        D4
           A6           0.14384
           D1          -0.00000   0.02937
           D2           0.00005  -0.00000   0.02937
           D3          -0.00005   0.00000  -0.00000   0.02937
           D4           0.00000  -0.00000   0.00000  -0.00000   0.02937
 ITU=  1  0
 Use linear search instead of GDIIS.
     Eigenvalues ---    0.02937   0.02937   0.02937   0.10941   0.16000
     Eigenvalues ---    0.16000   0.16003   0.35231   0.35270   0.35368
     Eigenvalues ---    0.35462   0.56981
 RFO step:  Lambda=-1.50560239D-06 EMin= 2.93713543D-02
 Quartic linear search produced a step of  0.67119.
 Iteration  1 RMS(Cart)=  0.00632046 RMS(Int)=  0.00002285
 Iteration  2 RMS(Cart)=  0.00002292 RMS(Int)=  0.00000003
 Iteration  3 RMS(Cart)=  0.00000000 RMS(Int)=  0.00000003
 ITry= 1 IFail=0 DXMaxC= 1.02D-02 DCOld= 1.00D+10 DXMaxT= 1.00D-01 DXLimC= 3.00D+00 Rises=F
 ClnCor:  largest displacement from symmetrization is 4.19D-05 for atom     6.
 Variable       Old X    -DE/DX   Delta X   Delta X   Delta X     New X
                                 (Linear)    (Quad)   (Total)
    R1        2.51911  -0.00093  -0.00356   0.00070  -0.00286   2.51625
    R2        2.05230   0.00017  -0.00048   0.00125   0.00077   2.05307
    R3        2.05202   0.00021   0.00080   0.00027   0.00108   2.05310
    R4        2.05230   0.00016  -0.00048   0.00122   0.00077   2.05307
    R5        2.05202   0.00020   0.00080   0.00026   0.00108   2.05310
    A1        2.12153   0.00054   0.00697   0.00003   0.00700   2.12853
    A2        2.12209   0.00047   0.00567   0.00038   0.00605   2.12814
    A3        2.03957  -0.00101  -0.01265  -0.00040  -0.01305   2.02651
    A4        2.12153   0.00054   0.00697   0.00004   0.00700   2.12853
    A5        2.12209   0.00047   0.00567   0.00040   0.00605   2.12814
    A6        2.03957  -0.00101  -0.01265  -0.00044  -0.01305   2.02651
    D1        3.14159   0.00000   0.00000  -0.00000   0.00000   3.14159
    D2       -0.00020   0.00000  -0.00043   0.00015  -0.00028  -0.00048
    D3        0.00020  -0.00000   0.00043  -0.00015   0.00028   0.00048
    D4        3.14159  -0.00000   0.00000   0.00000   0.00000   3.14159
         Item               Value     Threshold  Converged?
 Maximum Force            0.001013     0.000450     NO 
 RMS     Force            0.000520     0.000300     NO 
 Maximum Displacement     0.010185     0.001800     NO 
 RMS     Displacement     0.006316     0.001200     NO 
 Predicted change in Energy=-1.361229D-05
 Lowest energy point so far.  Saving SCF results.
 GradGradGradGradGradGradGradGradGradGradGradGradGradGradGradGradGradGrad

 Leave Link  103 at Tue Mar  1 20:45:46 2022, MaxMem=   104857600 cpu:               0.0 elap:               0.0
 (Enter /dades/curu/g16A03_MST/g16/l202.exe)
                          Input orientation:                          
 ---------------------------------------------------------------------
 Center     Atomic      Atomic             Coordinates (Angstroms)
 Number     Number       Type             X           Y           Z
 ---------------------------------------------------------------------
      1          6           0       -0.437300    0.302629   -0.400546
      2          6           0        0.437300   -0.302629    0.400546
      3          1           0       -0.624395    1.371370   -0.344571
      4          1           0       -1.005717   -0.243802   -1.148002
      5          1           0        0.624395   -1.371370    0.344571
      6          1           0        1.005717    0.243802    1.148002
 ---------------------------------------------------------------------
                    Distance matrix (angstroms):
                    1          2          3          4          5
     1  C    0.000000
     2  C    1.331544   0.000000
     3  H    1.086436   2.117703   0.000000
     4  H    1.086451   2.117489   1.843824   0.000000
     5  H    2.117703   1.086436   3.091442   2.481220   0.000000
     6  H    2.117489   1.086451   2.481220   3.091159   1.843824
                    6
     6  H    0.000000
 Stoichiometry    C2H4
 Framework group  CI[X(C2H4)]
 Deg. of freedom     6
 Full point group                 CI      NOp   2
 RotChk:  IX=0 Diff= 0.00D+00
 Largest Abelian subgroup         CI      NOp   2
 Largest concise Abelian subgroup CI      NOp   2
                         Standard orientation:                         
 ---------------------------------------------------------------------
 Center     Atomic      Atomic             Coordinates (Angstroms)
 Number     Number       Type             X           Y           Z
 ---------------------------------------------------------------------
      1          6           0       -0.437300    0.302629   -0.400546
      2          6           0        0.437300   -0.302629    0.400546
      3          1           0       -0.624395    1.371370   -0.344571
      4          1           0       -1.005717   -0.243802   -1.148002
      5          1           0        0.624395   -1.371370    0.344571
      6          1           0        1.005717    0.243802    1.148002
 ---------------------------------------------------------------------
 Rotational constants (GHZ):         147.5003419          30.0058458          24.9336242
 Leave Link  202 at Tue Mar  1 20:45:46 2022, MaxMem=   104857600 cpu:               0.0 elap:               0.0
 (Enter /dades/curu/g16A03_MST/g16/l301.exe)
 Standard basis: 6-31G(d) (6D, 7F)
 Ernie: Thresh=  0.10000D-02 Tol=  0.10000D-05 Strict=F.
 There are    19 symmetry adapted cartesian basis functions of AG  symmetry.
 There are    19 symmetry adapted cartesian basis functions of AU  symmetry.
 There are    19 symmetry adapted basis functions of AG  symmetry.
 There are    19 symmetry adapted basis functions of AU  symmetry.
    38 basis functions,    72 primitive gaussians,    38 cartesian basis functions
     8 alpha electrons        8 beta electrons
       nuclear repulsion energy        33.3371252989 Hartrees.
 IExCor=  402 DFT=T Ex+Corr=B3LYP ExCW=0 ScaHFX=  0.200000
 ScaDFX=  0.800000  0.720000  1.000000  0.810000 ScalE2=  1.000000  1.000000
 IRadAn=      5 IRanWt=     -1 IRanGd=            0 ICorTp=0 IEmpDi=  4
 NAtoms=    6 NActive=    6 NUniq=    3 SFac= 4.00D+00 NAtFMM=   60 NAOKFM=F Big=F
 Integral buffers will be    131072 words long.
 Raffenetti 2 integral format.
 Two-electron integral symmetry is turned on.
 ------------------------------------------------------------------------------
 Polarizable Continuum Model (PCM)
 =================================
 Model                : PCM.
 Atomic radii         : MST.
 Polarization charges : Total charges.
 Charge compensation  : None.
 Solution method      : On-the-fly selection.
 Cavity type          : Scaled VdW (van der Waals Surface) (Alpha=1.250).
 Cavity algorithm     : GePol (No added spheres)
                        Default sphere list used, NSphG=    6.
                        Lebedev-Laikov grids with approx.  5.0 points / Ang**2.
                        Smoothing algorithm: York/Karplus (Gamma=1.0000).
                        Polarization charges: spherical gaussians, with
                                              point-specific exponents (IZeta= 3).
                        Self-potential: point-specific (ISelfS= 7).
                        Self-field    : sphere-specific E.n sum rule (ISelfD= 2).
 1st derivatives      : Analytical E(r).r(x)/FMM algorithm (CHGder, D1EAlg=3).
                        Cavity 1st derivative terms included.
 Solvent              : Water, Eps=  78.355300 Eps(inf)=   1.777849
 ------------------------------------------------------------------------------
 Spheres list:
 ISph  on   Nord     Re0    Alpha      Xe            Ye            Ze
    1   C      1    1.5000  1.250     -0.437300      0.302629     -0.400546
    2   C      2    1.5000  1.250      0.437300     -0.302629      0.400546
    3   H      3    1.2000  1.250     -0.624395      1.371370     -0.344571
    4   H      4    1.2000  1.250     -1.005717     -0.243802     -1.148002
    5   H      5    1.2000  1.250      0.624395     -1.371370      0.344571
    6   H      6    1.2000  1.250      1.005717      0.243802      1.148002
 ------------------------------------------------------------------------------
 GePol: Number of generator spheres                  =       6
 GePol: Total number of spheres                      =       6
 GePol: Number of exposed spheres                    =       6 (100.00%)
 GePol: Number of points                             =     588
 GePol: Average weight of points                     =       0.14
 GePol: Minimum weight of points                     =   0.16D-07
 GePol: Maximum weight of points                     =    0.21416
 GePol: Number of points with low weight             =      30
 GePol: Fraction of low-weight points (<1% of avg)   =       5.10%
 GePol: Cavity surface area                          =     79.432 Ang**2
 GePol: Cavity volume                                =     57.307 Ang**3
 Surface areas from nonelectrostatic (unscaled) cavity and vdw tensions:
 Sphere =    1 Type =  CH2 Surf =        9.492 Tension =       -0.139
 Sphere =    2 Type =  CH2 Surf =        9.492 Tension =       -0.139
 Sphere =    3 Type =  CH2 Surf =       10.277 Tension =       -0.139
 Sphere =    4 Type =  CH2 Surf =       10.277 Tension =       -0.139
 Sphere =    5 Type =  CH2 Surf =       10.277 Tension =       -0.139
 Sphere =    6 Type =  CH2 Surf =       10.277 Tension =       -0.139
 PCM non-electrostatic energy =         0.0003196627 Hartrees.
 Nuclear repulsion after PCM non-electrostatic terms =       33.3374449616 Hartrees.
 Leave Link  301 at Tue Mar  1 20:45:46 2022, MaxMem=   104857600 cpu:               0.1 elap:               0.1
 (Enter /dades/curu/g16A03_MST/g16/l302.exe)
 NPDir=0 NMtPBC=     1 NCelOv=     1 NCel=       1 NClECP=     1 NCelD=      1
         NCelK=      1 NCelE2=     1 NClLst=     1 CellRange=     0.0.
 One-electron integrals computed using PRISM.
 One-electron integral symmetry used in STVInt
 NBasis=    38 RedAO= T EigKep=  7.67D-03  NBF=    19    19
 NBsUse=    38 1.00D-06 EigRej= -1.00D+00 NBFU=    19    19
 Precomputing XC quadrature grid using
 IXCGrd= 4 IRadAn=           5 IRanWt=          -1 IRanGd=           0 AccXCQ= 0.00D+00.
 Generated NRdTot=       0 NPtTot=           0 NUsed=           0 NTot=          32
 NSgBfM=    38    38    38    38    38 MxSgAt=     6 MxSgA2=     6.
 Leave Link  302 at Tue Mar  1 20:45:46 2022, MaxMem=   104857600 cpu:               0.4 elap:               0.1
 (Enter /dades/curu/g16A03_MST/g16/l303.exe)
 DipDrv:  MaxL=1.
 Leave Link  303 at Tue Mar  1 20:45:46 2022, MaxMem=   104857600 cpu:               0.1 elap:               0.0
 (Enter /dades/curu/g16A03_MST/g16/l401.exe)
 Initial guess from the checkpoint file:  "114.n.pdb.xyz.mst.wat.chk"
 B after Tr=    -0.000000   -0.000000   -0.000000
         Rot=    1.000000   -0.000029    0.000008    0.000037 Ang=  -0.01 deg.
 Guess basis will be translated and rotated to current coordinates.
 JPrj=2 DoOrth=T DoCkMO=T.
 Initial guess orbital symmetries:
       Occupied  (AG) (AU) (AG) (AU) (AU) (AG) (AG) (AU)
       Virtual   (AG) (AG) (AU) (AU) (AG) (AU) (AG) (AU) (AU) (AG)
                 (AG) (AU) (AU) (AG) (AU) (AG) (AU) (AG) (AU) (AG)
                 (AU) (AG) (AU) (AG) (AU) (AG) (AG) (AU) (AG) (AU)
 The electronic state of the initial guess is 1-AG.
 Leave Link  401 at Tue Mar  1 20:45:46 2022, MaxMem=   104857600 cpu:               0.1 elap:               0.1
 (Enter /dades/curu/g16A03_MST/g16/l502.exe)
 Keep R1 ints in memory in symmetry-blocked form, NReq=3728719.
 FoFCou: FMM=F IPFlag=           0 FMFlag=           0 FMFlg1=           0
         NFxFlg=           0 DoJE=F BraDBF=F KetDBF=F FulRan=T
         wScrn=  0.000000 ICntrl=       600 IOpCl=  0 I1Cent=           0 NGrid=           0
         NMat0=    1 NMatS0=    741 NMatT0=    0 NMatD0=    1 NMtDS0=    0 NMtDT0=    0
 Petite list used in FoFCou.
 Closed shell SCF:
 Using DIIS extrapolation, IDIIS=  1040.
 NGot=   104857600 LenX=   104714281 LenY=   104712396
 Requested convergence on RMS density matrix=1.00D-08 within2000 cycles.
 Requested convergence on MAX density matrix=1.00D-06.
 Requested convergence on             energy=1.00D-06.
 No special actions if energy rises.

 Cycle   1  Pass 1  IDiag  1:
 Inv3:  Mode=1 IEnd=     1037232.
 Iteration    1 A*A^-1 deviation from unit magnitude is 2.89D-15 for    325.
 Iteration    1 A*A^-1 deviation from orthogonality  is 3.14D-15 for    325     40.
 Iteration    1 A^-1*A deviation from unit magnitude is 2.44D-15 for    562.
 Iteration    1 A^-1*A deviation from orthogonality  is 4.46D-14 for    377    325.
 E= -78.5887217048451    
 DIIS: error= 4.32D-04 at cycle   1 NSaved=   1.
 NSaved= 1 IEnMin= 1 EnMin= -78.5887217048451     IErMin= 1 ErrMin= 4.32D-04
 ErrMax= 4.32D-04  0.00D+00 EMaxC= 1.00D-01 BMatC= 4.96D-06 BMatP= 4.96D-06
 IDIUse=3 WtCom= 9.96D-01 WtEn= 4.32D-03
 Coeff-Com:  0.100D+01
 Coeff-En:   0.100D+01
 Coeff:      0.100D+01
 Gap=     0.286 Goal=   None    Shift=    0.000
 RMSDP=7.55D-05 MaxDP=4.35D-04              OVMax= 9.11D-04

 Cycle   2  Pass 1  IDiag  1:
 E= -78.5887288245008     Delta-E=       -0.000007119656 Rises=F Damp=F
 DIIS: error= 3.16D-05 at cycle   2 NSaved=   2.
 NSaved= 2 IEnMin= 2 EnMin= -78.5887288245008     IErMin= 2 ErrMin= 3.16D-05
 ErrMax= 3.16D-05  0.00D+00 EMaxC= 1.00D-01 BMatC= 3.60D-08 BMatP= 4.96D-06
 IDIUse=1 WtCom= 1.00D+00 WtEn= 0.00D+00
 Coeff-Com: -0.137D-01 0.101D+01
 Coeff:     -0.137D-01 0.101D+01
 Gap=     0.286 Goal=   None    Shift=    0.000
 RMSDP=9.19D-06 MaxDP=4.66D-05 DE=-7.12D-06 OVMax= 1.02D-04

 Cycle   3  Pass 1  IDiag  1:
 E= -78.5887288757415     Delta-E=       -0.000000051241 Rises=F Damp=F
 DIIS: error= 1.23D-05 at cycle   3 NSaved=   3.
 NSaved= 3 IEnMin= 3 EnMin= -78.5887288757415     IErMin= 3 ErrMin= 1.23D-05
 ErrMax= 1.23D-05  0.00D+00 EMaxC= 1.00D-01 BMatC= 3.95D-09 BMatP= 3.60D-08
 IDIUse=1 WtCom= 1.00D+00 WtEn= 0.00D+00
 Coeff-Com: -0.122D-01 0.215D+00 0.797D+00
 Coeff:     -0.122D-01 0.215D+00 0.797D+00
 Gap=     0.286 Goal=   None    Shift=    0.000
 RMSDP=1.67D-06 MaxDP=1.33D-05 DE=-5.12D-08 OVMax= 2.24D-05

 Cycle   4  Pass 1  IDiag  1:
 E= -78.5887288791133     Delta-E=       -0.000000003372 Rises=F Damp=F
 DIIS: error= 4.68D-06 at cycle   4 NSaved=   4.
 NSaved= 4 IEnMin= 4 EnMin= -78.5887288791133     IErMin= 4 ErrMin= 4.68D-06
 ErrMax= 4.68D-06  0.00D+00 EMaxC= 1.00D-01 BMatC= 4.98D-10 BMatP= 3.95D-09
 IDIUse=1 WtCom= 1.00D+00 WtEn= 0.00D+00
 Coeff-Com: -0.446D-02 0.574D-01 0.314D+00 0.633D+00
 Coeff:     -0.446D-02 0.574D-01 0.314D+00 0.633D+00
 Gap=     0.286 Goal=   None    Shift=    0.000
 RMSDP=6.54D-07 MaxDP=5.82D-06 DE=-3.37D-09 OVMax= 8.20D-06

 Cycle   5  Pass 1  IDiag  1:
 E= -78.5887288796314     Delta-E=       -0.000000000518 Rises=F Damp=F
 DIIS: error= 8.78D-07 at cycle   5 NSaved=   5.
 NSaved= 5 IEnMin= 5 EnMin= -78.5887288796314     IErMin= 5 ErrMin= 8.78D-07
 ErrMax= 8.78D-07  0.00D+00 EMaxC= 1.00D-01 BMatC= 2.28D-11 BMatP= 4.98D-10
 IDIUse=1 WtCom= 1.00D+00 WtEn= 0.00D+00
 Coeff-Com:  0.360D-04-0.553D-02 0.738D-02 0.185D+00 0.813D+00
 Coeff:      0.360D-04-0.553D-02 0.738D-02 0.185D+00 0.813D+00
 Gap=     0.286 Goal=   None    Shift=    0.000
 RMSDP=1.06D-07 MaxDP=7.23D-07 DE=-5.18D-10 OVMax= 1.54D-06

 Cycle   6  Pass 1  IDiag  1:
 E= -78.5887288796554     Delta-E=       -0.000000000024 Rises=F Damp=F
 DIIS: error= 3.80D-08 at cycle   6 NSaved=   6.
 NSaved= 6 IEnMin= 6 EnMin= -78.5887288796554     IErMin= 6 ErrMin= 3.80D-08
 ErrMax= 3.80D-08  0.00D+00 EMaxC= 1.00D-01 BMatC= 1.27D-14 BMatP= 2.28D-11
 IDIUse=1 WtCom= 1.00D+00 WtEn= 0.00D+00
 Coeff-Com:  0.306D-04-0.378D-03-0.205D-02-0.268D-02-0.174D-01 0.102D+01
 Coeff:      0.306D-04-0.378D-03-0.205D-02-0.268D-02-0.174D-01 0.102D+01
 Gap=     0.286 Goal=   None    Shift=    0.000
 RMSDP=4.76D-09 MaxDP=3.12D-08 DE=-2.41D-11 OVMax= 8.29D-08

 Error on total polarization charges =  0.01123
 SCF Done:  E(RB3LYP) =  -78.5887288797     A.U. after    6 cycles
            NFock=  6  Conv=0.48D-08     -V/T= 2.0104
 KE= 7.778041743801D+01 PE=-2.481038595407D+02 EE= 5.839726826145D+01
 Leave Link  502 at Tue Mar  1 20:45:48 2022, MaxMem=   104857600 cpu:               5.4 elap:               1.8
 (Enter /dades/curu/g16A03_MST/g16/l701.exe)
 ... and contract with generalized density number  0.
 Compute integral first derivatives.
 D1PCM: PCM CHGder 1st derivatives, ID1Alg=3 FixD1E=F DoIter=F DoCFld=F I1PDM=0.
 GePol: Maximum number of non-zero 1st derivatives   =     209
 Leave Link  701 at Tue Mar  1 20:45:49 2022, MaxMem=   104857600 cpu:               1.4 elap:               0.4
 (Enter /dades/curu/g16A03_MST/g16/l702.exe)
 L702 exits ... SP integral derivatives will be done elsewhere.
 Leave Link  702 at Tue Mar  1 20:45:49 2022, MaxMem=   104857600 cpu:               0.0 elap:               0.0
 (Enter /dades/curu/g16A03_MST/g16/l703.exe)
 Integral derivatives from FoFJK, PRISM(SPDF).
 Compute integral first derivatives, UseDBF=F ICtDFT=           0.
 Calling FoFJK, ICntrl=      2127 FMM=F ISym2X=1 I1Cent= 0 IOpClX= 0 NMat=1 NMatS=1 NMatT=0.
 FoFJK:  IHMeth= 1 ICntrl=    2127 DoSepK=F KAlg= 0 I1Cent=           0 FoldK=F
 IRaf=         0 NMat=       1 IRICut=       1 DoRegI=T DoRafI=F ISym2E= 1 IDoP0=0 IntGTp=1.
 FoFCou: FMM=F IPFlag=           0 FMFlag=      100000 FMFlg1=         800
         NFxFlg=           0 DoJE=F BraDBF=F KetDBF=F FulRan=T
         wScrn=  0.000000 ICntrl=      2127 IOpCl=  0 I1Cent=           0 NGrid=           0
         NMat0=    1 NMatS0=      1 NMatT0=    0 NMatD0=    1 NMtDS0=    0 NMtDT0=    0
 Petite list used in FoFCou.
 Leave Link  703 at Tue Mar  1 20:45:49 2022, MaxMem=   104857600 cpu:               1.1 elap:               0.3
 (Enter /dades/curu/g16A03_MST/g16/l716.exe)
 Dipole        =-2.22044605D-16 0.00000000D+00 0.00000000D+00
 ***** Axes restored to original set *****
 -------------------------------------------------------------------
 Center     Atomic                   Forces (Hartrees/Bohr)
 Number     Number              X              Y              Z
 -------------------------------------------------------------------
      1        6          -0.000422727    0.000165500   -0.000380261
      2        6           0.000423233   -0.000170729    0.000379540
      3        1           0.000211046    0.000033511    0.000224078
      4        1           0.000150901   -0.000223630    0.000095344
      5        1          -0.000210458   -0.000021554   -0.000220545
      6        1          -0.000151995    0.000216901   -0.000098155
 -------------------------------------------------------------------
 Cartesian Forces:  Max     0.000423233 RMS     0.000241975
 Leave Link  716 at Tue Mar  1 20:45:49 2022, MaxMem=   104857600 cpu:               0.1 elap:               0.0
 (Enter /dades/curu/g16A03_MST/g16/l103.exe)

 GradGradGradGradGradGradGradGradGradGradGradGradGradGradGradGradGradGrad
 Berny optimization.
 Using GEDIIS/GDIIS optimizer.
 FormGI is forming the generalized inverse of G from B-inverse, IUseBI=4.
 Internal  Forces:  Max     0.000406228 RMS     0.000182556
 Search for a local minimum.
 Step number   3 out of a maximum of  100
 All quantities printed in internal units (Hartrees-Bohrs-Radians)
 RMS Force = .18256D-03 SwitMx=.10000D-02 MixMth= 2
 Mixed Optimization -- En-DIIS/RFO-DIIS
 Swapping is turned off.
 Update second derivatives using D2CorX and points    1    2    3
 DE= -1.44D-05 DEPred=-1.36D-05 R= 1.06D+00
 TightC=F SS=  1.41D+00  RLast= 2.29D-02 DXNew= 1.6818D-01 6.8667D-02
 Trust test= 1.06D+00 RLast= 2.29D-02 DXMaxT set to 1.00D-01
 The second derivative matrix:
                          R1        R2        R3        R4        R5
           R1           0.56655
           R2           0.00308   0.35340
           R3           0.00331  -0.00012   0.35314
           R4           0.00313   0.00110  -0.00012   0.35342
           R5           0.00332  -0.00011  -0.00054  -0.00012   0.35313
           A1           0.00809  -0.00147  -0.00168  -0.00149  -0.00169
           A2           0.00761  -0.00110  -0.00151  -0.00112  -0.00152
           A3          -0.01570   0.00257   0.00319   0.00261   0.00321
           A4           0.00808  -0.00147  -0.00168  -0.00150  -0.00169
           A5           0.00759  -0.00110  -0.00151  -0.00112  -0.00151
           A6          -0.01566   0.00258   0.00319   0.00262   0.00320
           D1          -0.00000  -0.00000   0.00000  -0.00000   0.00000
           D2           0.00004   0.00005   0.00001   0.00005   0.00001
           D3          -0.00004  -0.00005  -0.00001  -0.00005  -0.00001
           D4           0.00000   0.00000  -0.00000   0.00000  -0.00000
                          A1        A2        A3        A4        A5
           A1           0.15583
           A2          -0.00399   0.15627
           A3           0.00816   0.00772   0.14413
           A4          -0.00416  -0.00398   0.00814   0.15585
           A5          -0.00398  -0.00372   0.00770  -0.00397   0.15629
           A6           0.00814   0.00770  -0.01584   0.00812   0.00768
           D1           0.00000   0.00000  -0.00000   0.00000   0.00000
           D2          -0.00002  -0.00001   0.00002  -0.00002  -0.00001
           D3           0.00002   0.00001  -0.00002   0.00002   0.00001
           D4          -0.00000  -0.00000   0.00000  -0.00000  -0.00000
                          A6        D1        D2        D3        D4
           A6           0.14420
           D1          -0.00000   0.02937
           D2           0.00003  -0.00000   0.02937
           D3          -0.00003   0.00000  -0.00000   0.02937
           D4           0.00000  -0.00000   0.00000  -0.00000   0.02937
 ITU=  1  1  0
     Eigenvalues ---    0.02937   0.02937   0.02937   0.11040   0.16000
     Eigenvalues ---    0.16000   0.16009   0.35231   0.35278   0.35368
     Eigenvalues ---    0.35461   0.56833
 En-DIIS/RFO-DIIS/Sim-DIIS IScMMF=       -3 using points:     3    2
 RFO step:  Lambda=-4.51325913D-06.
 NNeg= 0 NGDIIS= 2 SimSw=  2.50D-03 Rises=F DC= -1.44D-05 SmlDif=  1.00D-05
 NRisDI= 0 DoIntr=F SqrtH=F CThrHd= 10.0 CDAdj=  3.0
 RMS Error=  0.1653895787D-02 NUsed= 2 OKEnD=T EnDIS=F
 InvSVX:  RCond= 5.89D-04 Info=           0 Equed=N FErr=  1.17D-15 BErr=  8.91D-17
 DidBck=T Rises=F RFO-DIIS coefs:    0.72167    0.27833
 Iteration  1 RMS(Cart)=  0.00185330 RMS(Int)=  0.00000183
 Iteration  2 RMS(Cart)=  0.00000181 RMS(Int)=  0.00000001
 Iteration  3 RMS(Cart)=  0.00000000 RMS(Int)=  0.00000001
 ITry= 1 IFail=0 DXMaxC= 3.02D-03 DCOld= 1.00D+10 DXMaxT= 1.00D-01 DXLimC= 3.00D+00 Rises=F
 ClnCor:  largest displacement from symmetrization is 4.51D-05 for atom     6.
 Variable       Old X    -DE/DX   Delta X   Delta X   Delta X     New X
                                 (Linear)    (Quad)   (Total)
    R1        2.51625   0.00007   0.00079  -0.00037   0.00044   2.51669
    R2        2.05307   0.00001  -0.00021   0.00016  -0.00006   2.05301
    R3        2.05310  -0.00003  -0.00030   0.00010  -0.00020   2.05290
    R4        2.05307  -0.00000  -0.00021   0.00012  -0.00006   2.05301
    R5        2.05310  -0.00004  -0.00030   0.00008  -0.00020   2.05290
    A1        2.12853  -0.00024  -0.00195  -0.00011  -0.00206   2.12647
    A2        2.12814  -0.00017  -0.00169   0.00007  -0.00162   2.12652
    A3        2.02651   0.00041   0.00363   0.00005   0.00368   2.03019
    A4        2.12853  -0.00023  -0.00195  -0.00010  -0.00206   2.12647
    A5        2.12814  -0.00017  -0.00169   0.00009  -0.00162   2.12652
    A6        2.02651   0.00040   0.00363   0.00001   0.00368   2.03019
    D1        3.14159  -0.00000   0.00000   0.00000   0.00000   3.14159
    D2       -0.00048   0.00001   0.00008   0.00033   0.00041  -0.00008
    D3        0.00048  -0.00001  -0.00008  -0.00033  -0.00041   0.00008
    D4        3.14159   0.00000   0.00000  -0.00000   0.00000   3.14159
         Item               Value     Threshold  Converged?
 Maximum Force            0.000406     0.000450     YES
 RMS     Force            0.000183     0.000300     YES
 Maximum Displacement     0.003017     0.001800     NO 
 RMS     Displacement     0.001860     0.001200     NO 
 Predicted change in Energy=-2.256239D-06
 Lowest energy point so far.  Saving SCF results.
 GradGradGradGradGradGradGradGradGradGradGradGradGradGradGradGradGradGrad

 Leave Link  103 at Tue Mar  1 20:45:49 2022, MaxMem=   104857600 cpu:               0.1 elap:               0.0
 (Enter /dades/curu/g16A03_MST/g16/l202.exe)
                          Input orientation:                          
 ---------------------------------------------------------------------
 Center     Atomic      Atomic             Coordinates (Angstroms)
 Number     Number       Type             X           Y           Z
 ---------------------------------------------------------------------
      1          6           0       -0.437459    0.302584   -0.400598
      2          6           0        0.437459   -0.302584    0.400598
      3          1           0       -0.623076    1.371474   -0.343153
      4          1           0       -1.004883   -0.245398   -1.147521
      5          1           0        0.623076   -1.371474    0.343153
      6          1           0        1.004883    0.245398    1.147521
 ---------------------------------------------------------------------
                    Distance matrix (angstroms):
                    1          2          3          4          5
[...]
      2          6           0        0.437459   -0.302584    0.400598
      3          1           0       -0.623076    1.371474   -0.343153
      4          1           0       -1.004883   -0.245398   -1.147521
      5          1           0        0.623076   -1.371474    0.343153
      6          1           0        1.004883    0.245398    1.147521
 ---------------------------------------------------------------------
 Rotational constants (GHZ):         147.1812050          30.0281056          24.9398451
 Leave Link  202 at Tue Mar  1 20:46:04 2022, MaxMem=   104857600 cpu:               0.1 elap:               0.0
 (Enter /dades/curu/g16A03_MST/g16/l301.exe)
 Standard basis: 6-31G(d) (6D, 7F)
 Ernie: Thresh=  0.10000D-02 Tol=  0.10000D-05 Strict=F.
 There are    19 symmetry adapted cartesian basis functions of AG  symmetry.
 There are    19 symmetry adapted cartesian basis functions of AU  symmetry.
 There are    19 symmetry adapted basis functions of AG  symmetry.
 There are    19 symmetry adapted basis functions of AU  symmetry.
    38 basis functions,    72 primitive gaussians,    38 cartesian basis functions
     8 alpha electrons        8 beta electrons
       nuclear repulsion energy        33.3380637215 Hartrees.
 IExCor=  402 DFT=T Ex+Corr=B3LYP ExCW=0 ScaHFX=  0.200000
 ScaDFX=  0.800000  0.720000  1.000000  0.810000 ScalE2=  1.000000  1.000000
 IRadAn=      5 IRanWt=     -1 IRanGd=            0 ICorTp=0 IEmpDi=  4
 NAtoms=    6 NActive=    6 NUniq=    3 SFac= 4.00D+00 NAtFMM=   60 NAOKFM=F Big=F
 Integral buffers will be    131072 words long.
 Raffenetti 2 integral format.
 Two-electron integral symmetry is turned on.
 Using the following non-standard input for PCM:
 MSTModel=DFT cav g03defaults OFac=0.8 Rmin=0.3
 Warning! Using old PCM defaults because the g03defaults keyword was found.
 These settings can be overridden by following keywords.
 --- end of non-standard input.
 MST model for solvation energy: B3LYP parametrization.
 MST cavity parameters:
 ISph   IAn     Re0     Alpha   Atom Type   QCorr
 ------------------------------------------------
   1      6     1.50     1.25      CH2        F
   2      6     1.50     1.25      CH2        F
   3      1     1.20     1.25      CH2        F
   4      1     1.20     1.25      CH2        F
   5      1     1.20     1.25      CH2        F
   6      1     1.20     1.25      CH2        F
 ------------------------------------------------------------------------------
 Polarizable Continuum Model (PCM)
 =================================
 Model                : PCM.
 Atomic radii         : MST.
 Polarization charges : Total charges.
 Charge compensation  : None.
 Solution method      : On-the-fly selection.
 Cavity type          : Scaled SES (Solvent Excluding Surface) (Alpha=1.250).
 Cavity algorithm     : GePol (RMin=0.300 OFac=0.800).
                        Default sphere list used, NSphG=    6.
                        Tesserae with average area of 0.200 Ang**2.
                        Smoothing algorithm: None.
                        Polarization charges: point-like.
                        Self-potential: constant (ISelfS= 1).
                        Self-field    : global E.n sum rule (ISelfD= 3).
 Solvent              : Water, Eps=  78.355300 Eps(inf)=   1.777849
                        RSolv=   1.385000 Ang.
 ------------------------------------------------------------------------------
 Spheres list:
 ISph  on   Nord     Re0    Alpha      Xe            Ye            Ze
    1   C      1    1.5000  1.250     -0.437459      0.302584     -0.400598
    2   C      2    1.5000  1.250      0.437459     -0.302584      0.400598
    3   H      3    1.2000  1.250     -0.623076      1.371474     -0.343153
    4   H      4    1.2000  1.250     -1.004883     -0.245398     -1.147521
    5   H      5    1.2000  1.250      0.623076     -1.371474      0.343153
    6   H      6    1.2000  1.250      1.004883      0.245398      1.147521
 ------------------------------------------------------------------------------
 Using symmetry in molecular cavity generation.
 GePol: Number of generator spheres                  =       6
 GePol: Total number of spheres                      =       6
 GePol: Number of exposed spheres                    =       6 (100.00%)
 GePol: Number of tesserae                           =     484
 GePol: Average area of tesserae                     =       0.16 Ang**2
 GePol: Minimum area of tessera                      =   0.36D-02 Ang**2
 GePol: Maximum area of tessera                      =    0.26732 Ang**2
 GePol: Number of small tesserae                     =       0
 GePol: Fraction of small tesserae (<1% of avg)      =       0.00%
 GePol: Total count of vertices                      =    1614
 GePol: Maximum number of vertices in a tessera      =       5
 GePol: Cavity surface area                          =     79.602 Ang**2
 GePol: Cavity volume                                =     57.374 Ang**3
 Surface areas from nonelectrostatic (unscaled) cavity and vdw tensions:
 Sphere =    1 Type =  CH2 Surf =        9.403 Tension =       -0.139
 Sphere =    2 Type =  CH2 Surf =        9.403 Tension =       -0.139
 Sphere =    3 Type =  CH2 Surf =       10.332 Tension =       -0.139
 Sphere =    4 Type =  CH2 Surf =       10.332 Tension =       -0.139
 Sphere =    5 Type =  CH2 Surf =       10.332 Tension =       -0.139
 Sphere =    6 Type =  CH2 Surf =       10.332 Tension =       -0.139
 PCM non-electrostatic energy =         0.0003245689 Hartrees.
 Nuclear repulsion after PCM non-electrostatic terms =       33.3383882905 Hartrees.
 Leave Link  301 at Tue Mar  1 20:46:04 2022, MaxMem=   104857600 cpu:               0.1 elap:               0.1
 (Enter /dades/curu/g16A03_MST/g16/l302.exe)
 NPDir=0 NMtPBC=     1 NCelOv=     1 NCel=       1 NClECP=     1 NCelD=      1
         NCelK=      1 NCelE2=     1 NClLst=     1 CellRange=     0.0.
 One-electron integrals computed using PRISM.
 One-electron integral symmetry used in STVInt
 NBasis=    38 RedAO= T EigKep=  7.67D-03  NBF=    19    19
 NBsUse=    38 1.00D-06 EigRej= -1.00D+00 NBFU=    19    19
 Precomputing XC quadrature grid using
 IXCGrd= 4 IRadAn=           5 IRanWt=          -1 IRanGd=           0 AccXCQ= 0.00D+00.
 Generated NRdTot=       0 NPtTot=           0 NUsed=           0 NTot=          32
 NSgBfM=    38    38    38    38    38 MxSgAt=     6 MxSgA2=     6.
 Leave Link  302 at Tue Mar  1 20:46:04 2022, MaxMem=   104857600 cpu:               0.4 elap:               0.1
 (Enter /dades/curu/g16A03_MST/g16/l303.exe)
 DipDrv:  MaxL=1.
 Leave Link  303 at Tue Mar  1 20:46:04 2022, MaxMem=   104857600 cpu:               0.1 elap:               0.0
 (Enter /dades/curu/g16A03_MST/g16/l401.exe)
 Initial guess from the checkpoint file:  "114.n.pdb.xyz.mst.wat.chk"
 B after Tr=     0.000000    0.000000    0.000000
         Rot=    1.000000    0.000000    0.000000    0.000000 Ang=   0.00 deg.
 Guess basis will be translated and rotated to current coordinates.
 JPrj=2 DoOrth=T DoCkMO=T.
 Initial guess orbital symmetries:
       Occupied  (AG) (AU) (AG) (AU) (AU) (AG) (AG) (AU)
       Virtual   (AG) (AG) (AU) (AU) (AG) (AU) (AG) (AU) (AU) (AG)
                 (AG) (AU) (AU) (AG) (AU) (AG) (AU) (AG) (AU) (AG)
                 (AU) (AG) (AU) (AG) (AU) (AG) (AG) (AU) (AG) (AU)
 The electronic state of the initial guess is 1-AG.
 Leave Link  401 at Tue Mar  1 20:46:04 2022, MaxMem=   104857600 cpu:               0.1 elap:               0.1
 (Enter /dades/curu/g16A03_MST/g16/l502.exe)
 Keep R1 ints in memory in symmetry-blocked form, NReq=3728719.
 FoFCou: FMM=F IPFlag=           0 FMFlag=           0 FMFlg1=           0
         NFxFlg=           0 DoJE=F BraDBF=F KetDBF=F FulRan=T
         wScrn=  0.000000 ICntrl=       600 IOpCl=  0 I1Cent=           0 NGrid=           0
         NMat0=    1 NMatS0=    741 NMatT0=    0 NMatD0=    1 NMtDS0=    0 NMtDT0=    0
 Petite list used in FoFCou.
 Closed shell SCF:
 Using DIIS extrapolation, IDIIS=  1040.
 NGot=   104857600 LenX=   104714281 LenY=   104712396
 Requested convergence on RMS density matrix=1.00D-08 within 128 cycles.
 Requested convergence on MAX density matrix=1.00D-06.
 Requested convergence on             energy=1.00D-06.
 No special actions if energy rises.

 Cycle   1  Pass 1  IDiag  1:
 Inv3:  Mode=1 IEnd=      702768.
 Iteration    1 A*A^-1 deviation from unit magnitude is 3.55D-15 for    236.
 Iteration    1 A*A^-1 deviation from orthogonality  is 2.66D-15 for    156    103.
 Iteration    1 A^-1*A deviation from unit magnitude is 3.22D-15 for    239.
 Iteration    1 A^-1*A deviation from orthogonality  is 1.46D-15 for    156    103.
 E= -78.5886497148445    
 DIIS: error= 1.22D-03 at cycle   1 NSaved=   1.
 NSaved= 1 IEnMin= 1 EnMin= -78.5886497148445     IErMin= 1 ErrMin= 1.22D-03
 ErrMax= 1.22D-03  0.00D+00 EMaxC= 1.00D-01 BMatC= 4.15D-05 BMatP= 4.15D-05
 IDIUse=3 WtCom= 9.88D-01 WtEn= 1.22D-02
 Coeff-Com:  0.100D+01
 Coeff-En:   0.100D+01
 Coeff:      0.100D+01
 Gap=     0.287 Goal=   None    Shift=    0.000
 GapD=    0.287 DampG=1.000 DampE=1.000 DampFc=1.0000 IDamp=-1.
 RMSDP=7.58D-04 MaxDP=6.61D-03              OVMax= 4.71D-03

 Cycle   2  Pass 1  IDiag  1:
 E= -78.5887309316957     Delta-E=       -0.000081216851 Rises=F Damp=F
 DIIS: error= 8.73D-04 at cycle   2 NSaved=   2.
 NSaved= 2 IEnMin= 2 EnMin= -78.5887309316957     IErMin= 2 ErrMin= 8.73D-04
 ErrMax= 8.73D-04  0.00D+00 EMaxC= 1.00D-01 BMatC= 1.52D-05 BMatP= 4.15D-05
 IDIUse=3 WtCom= 9.91D-01 WtEn= 8.73D-03
 Coeff-Com:  0.324D+00 0.676D+00
 Coeff-En:   0.000D+00 0.100D+01
 Coeff:      0.321D+00 0.679D+00
 Gap=     0.286 Goal=   None    Shift=    0.000
 RMSDP=1.11D-04 MaxDP=1.02D-03 DE=-8.12D-05 OVMax= 1.63D-03

 Cycle   3  Pass 1  IDiag  1:
 E= -78.5887451584924     Delta-E=       -0.000014226797 Rises=F Damp=F
 DIIS: error= 2.80D-04 at cycle   3 NSaved=   3.
 NSaved= 3 IEnMin= 3 EnMin= -78.5887451584924     IErMin= 3 ErrMin= 2.80D-04
 ErrMax= 2.80D-04  0.00D+00 EMaxC= 1.00D-01 BMatC= 1.94D-06 BMatP= 1.52D-05
 IDIUse=3 WtCom= 9.97D-01 WtEn= 2.80D-03
 Coeff-Com: -0.305D-01 0.250D+00 0.780D+00
 Coeff-En:   0.000D+00 0.351D-02 0.996D+00
 Coeff:     -0.304D-01 0.250D+00 0.781D+00
 Gap=     0.286 Goal=   None    Shift=    0.000
 RMSDP=4.45D-05 MaxDP=3.11D-04 DE=-1.42D-05 OVMax= 4.65D-04

 Cycle   4  Pass 1  IDiag  1:
 E= -78.5887473103521     Delta-E=       -0.000002151860 Rises=F Damp=F
 DIIS: error= 1.24D-05 at cycle   4 NSaved=   4.
 NSaved= 4 IEnMin= 4 EnMin= -78.5887473103521     IErMin= 4 ErrMin= 1.24D-05
 ErrMax= 1.24D-05  0.00D+00 EMaxC= 1.00D-01 BMatC= 1.68D-09 BMatP= 1.94D-06
 IDIUse=1 WtCom= 1.00D+00 WtEn= 0.00D+00
 Coeff-Com: -0.429D-02 0.997D-03 0.158D-01 0.988D+00
 Coeff:     -0.429D-02 0.997D-03 0.158D-01 0.988D+00
 Gap=     0.286 Goal=   None    Shift=    0.000
 RMSDP=1.69D-06 MaxDP=1.22D-05 DE=-2.15D-06 OVMax= 3.02D-05

 Cycle   5  Pass 1  IDiag  1:
 E= -78.5887473127068     Delta-E=       -0.000000002355 Rises=F Damp=F
 DIIS: error= 1.77D-06 at cycle   5 NSaved=   5.
 NSaved= 5 IEnMin= 5 EnMin= -78.5887473127068     IErMin= 5 ErrMin= 1.77D-06
 ErrMax= 1.77D-06  0.00D+00 EMaxC= 1.00D-01 BMatC= 1.07D-10 BMatP= 1.68D-09
 IDIUse=1 WtCom= 1.00D+00 WtEn= 0.00D+00
 Coeff-Com: -0.400D-03-0.134D-02-0.511D-02 0.192D+00 0.815D+00
 Coeff:     -0.400D-03-0.134D-02-0.511D-02 0.192D+00 0.815D+00
 Gap=     0.286 Goal=   None    Shift=    0.000
 RMSDP=2.40D-07 MaxDP=1.72D-06 DE=-2.35D-09 OVMax= 3.29D-06

 Cycle   6  Pass 1  IDiag  1:
 E= -78.5887473128142     Delta-E=       -0.000000000107 Rises=F Damp=F
 DIIS: error= 1.18D-07 at cycle   6 NSaved=   6.
 NSaved= 6 IEnMin= 6 EnMin= -78.5887473128142     IErMin= 6 ErrMin= 1.18D-07
 ErrMax= 1.18D-07  0.00D+00 EMaxC= 1.00D-01 BMatC= 2.06D-13 BMatP= 1.07D-10
 IDIUse=1 WtCom= 1.00D+00 WtEn= 0.00D+00
 Coeff-Com:  0.322D-04-0.476D-04-0.419D-03-0.733D-02 0.791D-02 0.100D+01
 Coeff:      0.322D-04-0.476D-04-0.419D-03-0.733D-02 0.791D-02 0.100D+01
 Gap=     0.286 Goal=   None    Shift=    0.000
 RMSDP=1.30D-08 MaxDP=1.09D-07 DE=-1.07D-10 OVMax= 1.71D-07

 Cycle   7  Pass 1  IDiag  1:
 E= -78.5887473128149     Delta-E=       -0.000000000001 Rises=F Damp=F
 DIIS: error= 9.31D-09 at cycle   7 NSaved=   7.
 NSaved= 7 IEnMin= 7 EnMin= -78.5887473128149     IErMin= 7 ErrMin= 9.31D-09
 ErrMax= 9.31D-09  0.00D+00 EMaxC= 1.00D-01 BMatC= 1.32D-15 BMatP= 2.06D-13
 IDIUse=1 WtCom= 1.00D+00 WtEn= 0.00D+00
 Coeff-Com:  0.128D-05-0.288D-05 0.863D-05-0.767D-03-0.159D-02 0.357D-01
 Coeff-Com:  0.967D+00
 Coeff:      0.128D-05-0.288D-05 0.863D-05-0.767D-03-0.159D-02 0.357D-01
 Coeff:      0.967D+00
 Gap=     0.286 Goal=   None    Shift=    0.000
 RMSDP=1.28D-09 MaxDP=8.02D-09 DE=-7.11D-13 OVMax= 1.81D-08

 Error on total polarization charges =  0.01067
 SCF Done:  E(RB3LYP) =  -78.5887473128     A.U. after    7 cycles
            NFock=  7  Conv=0.13D-08     -V/T= 2.0104
 KE= 7.778051770837D+01 PE=-2.481066014097D+02 EE= 5.839894809807D+01
 --------------------------------------------------------------------
 Variational PCM results
 =======================
 <psi(f)|   H    |psi(f)>                     (a.u.) =     -78.587350
 <psi(f)|H+V(f)/2|psi(f)>                     (a.u.) =     -78.589072
 Total free energy in solution:
 - with all non electrostatic terms           (a.u.) =     -78.588747
 --------------------------------------------------------------------
 (Polarized solute)-Solvent               (kcal/mol) =      -1.08
 --------------------------------------------------------------------
 Cavitation energy                        (kcal/mol) =       8.56
 MST dispersion + repulsion energy        (kcal/mol) =      -8.36
 Total non electrostatic                  (kcal/mol) =       0.20
 --------------------------------------------------------------------
 Partition over spheres:
 Sphere  on Atom  Surface  Charge   GEl     GCav    GDR
    1      C1      12.28   0.052   -0.36    1.24   -1.31
    2      C2      12.28   0.052   -0.36    1.24   -1.31
    3      H3      13.76  -0.028   -0.09    1.52   -1.44
    4      H4      13.76  -0.029   -0.09    1.52   -1.44
    5      H5      13.76  -0.028   -0.09    1.52   -1.44
    6      H6      13.76  -0.029   -0.09    1.52   -1.44
 --------------------------------------------------------------------
 Partition over spheres of the perturbative electrostatic energy:
(Contribution of added spheres asigned to closest sphere)
 Sphere  on Atom  Surface  Charge   GElSph
    1      C1      12.28   0.052   -0.34
    2      C2      12.28   0.052   -0.34
    3      H3      13.76  -0.028   -0.08
    4      H4      13.76  -0.029   -0.08
    5      H5      13.76  -0.028   -0.08
    6      H6      13.76  -0.029   -0.08
 --------------------------------------------------------------------
 After PCM corrections, the energy is  -78.5887473128     a.u.
 --------------------------------------------------------------------
 Leave Link  502 at Tue Mar  1 20:46:06 2022, MaxMem=   104857600 cpu:               5.6 elap:               1.6
 (Enter /dades/curu/g16A03_MST/g16/l601.exe)
 Copying SCF densities to generalized density rwf, IOpCl= 0 IROHF=0.

 **********************************************************************

            Population analysis using the SCF density.

 **********************************************************************

 Orbital symmetries:
       Occupied  (AG) (AU) (AG) (AU) (AU) (AG) (AG) (AU)
       Virtual   (AG) (AG) (AU) (AU) (AG) (AU) (AG) (AU) (AU) (AG)
                 (AG) (AU) (AU) (AG) (AU) (AG) (AU) (AG) (AU) (AG)
                 (AU) (AG) (AU) (AG) (AU) (AG) (AG) (AU) (AG) (AU)
 The electronic state is 1-AG.
 Alpha  occ. eigenvalues --  -10.18515 -10.18426  -0.75677  -0.57791  -0.46526
 Alpha  occ. eigenvalues --   -0.41685  -0.35306  -0.27111
 Alpha virt. eigenvalues --    0.01510   0.12589   0.14376   0.16163   0.24850
 Alpha virt. eigenvalues --    0.33324   0.47940   0.54208   0.56691   0.63367
 Alpha virt. eigenvalues --    0.65169   0.69706   0.84973   0.87391   0.93420
 Alpha virt. eigenvalues --    0.94248   1.10163   1.21456   1.45999   1.54281
 Alpha virt. eigenvalues --    1.83004   1.88940   1.98838   2.08591   2.28458
 Alpha virt. eigenvalues --    2.38296   2.70103   2.70322   4.09492   4.24546
          Condensed to atoms (all electrons):
               1          2          3          4          5          6
     1  C    4.952097   0.676723   0.378932   0.378937  -0.036363  -0.036365
     2  C    0.676723   4.952097  -0.036363  -0.036365   0.378932   0.378937
     3  H    0.378932  -0.036363   0.544673  -0.040966   0.004878  -0.008130
     4  H    0.378937  -0.036365  -0.040966   0.544661  -0.008130   0.004878
     5  H   -0.036363   0.378932   0.004878  -0.008130   0.544673  -0.040966
     6  H   -0.036365   0.378937  -0.008130   0.004878  -0.040966   0.544661
 Mulliken charges:
               1
     1  C   -0.313962
     2  C   -0.313962
     3  H    0.156977
     4  H    0.156985
     5  H    0.156977
     6  H    0.156985
 Sum of Mulliken charges =   0.00000
 Mulliken charges with hydrogens summed into heavy atoms:
               1
     1  C    0.000000
     2  C    0.000000
 Electronic spatial extent (au):  <R**2>=             81.9925
 Charge=              0.0000 electrons
 Dipole moment (field-independent basis, Debye):
    X=              0.0000    Y=              0.0000    Z=             -0.0000  Tot=              0.0000
 Quadrupole moment (field-independent basis, Debye-Ang):
   XX=            -13.5289   YY=            -12.0342   ZZ=            -13.3040
   XY=             -0.4190   XZ=              1.5712   YZ=              0.2811
 Traceless Quadrupole moment (field-independent basis, Debye-Ang):
   XX=             -0.5732   YY=              0.9215   ZZ=             -0.3483
   XY=             -0.4190   XZ=              1.5712   YZ=              0.2811
 Octapole moment (field-independent basis, Debye-Ang**2):
  XXX=             -0.0000  YYY=              0.0000  ZZZ=             -0.0000  XYY=              0.0000
  XXY=              0.0000  XXZ=              0.0000  XZZ=             -0.0000  YZZ=             -0.0000
  YYZ=              0.0000  XYZ=              0.0000
 Hexadecapole moment (field-independent basis, Debye-Ang**3):
 XXXX=            -38.8780 YYYY=            -31.5668 ZZZZ=            -35.9877 XXXY=              7.1758
 XXXZ=            -10.0065 YYYX=              4.9891 YYYZ=              4.2176 ZZZX=             -9.5048
 ZZZY=              5.7581 XXYY=            -11.8912 XXZZ=            -11.2776 YYZZ=            -12.1399
 XXYZ=              2.0197 YYXZ=             -3.1931 ZZXY=              2.9033
 N-N= 3.333838829046D+01 E-N=-2.481066011074D+02  KE= 7.778051770837D+01
 Symmetry AG   KE= 3.948883445675D+01
 Symmetry AU   KE= 3.829168325163D+01
 No NMR shielding tensors so no spin-rotation constants.
 Leave Link  601 at Tue Mar  1 20:46:06 2022, MaxMem=   104857600 cpu:               0.3 elap:               0.1
 (Enter /dades/curu/g16A03_MST/g16/l9999.exe)
 1\1\GINC-PIRINEUS2\SP\RB3LYP\6-31G(d)\C2H4\UBATOR01\01-Mar-2022\0\\#p 
 b3lyp/6-31G(d) scrf=(iefpcm,read,solvent=water) geom=allcheck guess=re
 ad\\114.n.pdb.xyz\\0,1\C,0,-0.4374587669,0.3025840991,-0.4005981285\C,
 0,0.4374587669,-0.3025840991,0.4005981285\H,0,-0.6230763202,1.37147360
 21,-0.3431525036\H,0,-1.0048828831,-0.2453984313,-1.1475205445\H,0,0.6
 230763202,-1.3714736021,0.3431525036\H,0,1.0048828831,0.2453984313,1.1
 475205445\\Version=ES64L-G16RevA.03\State=1-AG\HF=-78.5887473\RMSD=1.2
 76e-09\Dipole=0.,0.,0.\Quadrupole=-0.426158,0.6851237,-0.2589657,-0.31
 15202,1.1681586,0.2089792\PG=CI [X(C2H4)]\\@


 THE FIRST AND LAST THING REQUIRED OF GENIUS IS THE LOVE OF TRUTH.

                          -- GOETHE
 Job cpu time:       0 days  0 hours  0 minutes  6.9 seconds.
 Elapsed time:       0 days  0 hours  0 minutes  2.3 seconds.
 File lengths (MBytes):  RWF=     11 Int=      0 D2E=      0 Chk=      3 Scr=      1
 Normal termination of Gaussian 16 at Tue Mar  1 20:46:06 2022.
