 Entering Gaussian System, Link 0=g16
 Input=123.n.pdb.xyz.mst.wat.gau
 Output=123.n.pdb.xyz.mst.wat.log
 Initial command:
 /dades/curu/g16A03_MST/g16/l1.exe "/tmp/ubator01/1955096/Gau-74903.inp" -scrdir="/tmp/ubator01/1955096/"
 Entering Link 1 = /dades/curu/g16A03_MST/g16/l1.exe PID=     74904.
  
 Copyright (c) 1988,1990,1992,1993,1995,1998,2003,2009,2016,
            Gaussian, Inc.  All Rights Reserved.
  
 This is part of the Gaussian(R) 16 program.  It is based on
 the Gaussian(R) 09 system (copyright 2009, Gaussian, Inc.),
 the Gaussian(R) 03 system (copyright 2003, Gaussian, Inc.),
 the Gaussian(R) 98 system (copyright 1998, Gaussian, Inc.),
 the Gaussian(R) 94 system (copyright 1995, Gaussian, Inc.),
 the Gaussian 92(TM) system (copyright 1992, Gaussian, Inc.),
 the Gaussian 90(TM) system (copyright 1990, Gaussian, Inc.),
 the Gaussian 88(TM) system (copyright 1988, Gaussian, Inc.),
 the Gaussian 86(TM) system (copyright 1986, Carnegie Mellon
 University), and the Gaussian 82(TM) system (copyright 1983,
 Carnegie Mellon University). Gaussian is a federally registered
 trademark of Gaussian, Inc.
  
 This software contains proprietary and confidential information,
 including trade secrets, belonging to Gaussian, Inc.
  
 This software is provided under written license and may be
 used, copied, transmitted, or stored only in accord with that
 written license.
  
 The following legend is applicable only to US Government
 contracts under FAR:
  
                    RESTRICTED RIGHTS LEGEND
  
 Use, reproduction and disclosure by the US Government is
 subject to restrictions as set forth in subparagraphs (a)
 and (c) of the Commercial Computer Software - Restricted
 Rights clause in FAR 52.227-19.
  
 Gaussian, Inc.
 340 Quinnipiac St., Bldg. 40, Wallingford CT 06492
  
  
 ---------------------------------------------------------------
 Warning -- This program may not be used in any manner that
 competes with the business of Gaussian, Inc. or will provide
 assistance to any competitor of Gaussian, Inc.  The licensee
 of this program is prohibited from giving any competitor of
 Gaussian, Inc. access to this program.  By using this program,
 the user acknowledges that Gaussian, Inc. is engaged in the
 business of creating and licensing software in the field of
 computational chemistry and represents and warrants to the
 licensee that it is not a competitor of Gaussian, Inc. and that
 it will not use this program in any manner prohibited above.
 ---------------------------------------------------------------
  

 Cite this work as:
 Gaussian 16, Revision A.03,
 M. J. Frisch, G. W. Trucks, H. B. Schlegel, G. E. Scuseria, 
 M. A. Robb, J. R. Cheeseman, G. Scalmani, V. Barone, 
 G. A. Petersson, H. Nakatsuji, X. Li, M. Caricato, A. V. Marenich, 
 J. Bloino, B. G. Janesko, R. Gomperts, B. Mennucci, H. P. Hratchian, 
 J. V. Ortiz, A. F. Izmaylov, J. L. Sonnenberg, D. Williams-Young, 
 F. Ding, F. Lipparini, F. Egidi, J. Goings, B. Peng, A. Petrone, 
 T. Henderson, D. Ranasinghe, V. G. Zakrzewski, J. Gao, N. Rega, 
 G. Zheng, W. Liang, M. Hada, M. Ehara, K. Toyota, R. Fukuda, 
 J. Hasegawa, M. Ishida, T. Nakajima, Y. Honda, O. Kitao, H. Nakai, 
 T. Vreven, K. Throssell, J. A. Montgomery, Jr., J. E. Peralta, 
 F. Ogliaro, M. J. Bearpark, J. J. Heyd, E. N. Brothers, K. N. Kudin, 
 V. N. Staroverov, T. A. Keith, R. Kobayashi, J. Normand, 
 K. Raghavachari, A. P. Rendell, J. C. Burant, S. S. Iyengar, 
 J. Tomasi, M. Cossi, J. M. Millam, M. Klene, C. Adamo, R. Cammi, 
 J. W. Ochterski, R. L. Martin, K. Morokuma, O. Farkas, 
 J. B. Foresman, and D. J. Fox, Gaussian, Inc., Wallingford CT, 2016.
 
 ******************************************
 Gaussian 16:  ES64L-G16RevA.03 25-Dec-2016
                 1-Mar-2022 
 ******************************************
 %nproc=4
 Will use up to    4 processors via shared memory.
 %Chk=123.n.pdb.xyz.mst.wat.chk
 %mem=800MB
 ----------------------------------------------------------------------
 #p b3lyp/6-31G(d) opt=(MaxStep=10,MaxCycles=1000) freq scf=(MaxCycle=2
 000,NoVarAcc,NoIncFock) scrf=(iefpcm,read,solvent=water)
 ----------------------------------------------------------------------
 1/6=1000,8=10,18=20,19=15,26=3,38=1,40=2/1,3;
 2/9=110,12=2,17=6,18=5,40=1/2;
 3/5=1,6=6,7=1,11=2,25=1,30=1,70=2203,71=1,72=1,74=-5/1,2,3;
 4//1;
 5/5=100002,7=2000,38=1,53=1/2;
 6/7=2,8=2,9=2,10=2,28=1/1;
 7//1,2,3,16;
 1/6=1000,8=10,18=20,19=15,26=3/3(2);
 2/9=110/2;
 99//99;
 2/9=110/2;
 3/5=1,6=6,7=1,11=2,25=1,30=1,70=2205,71=1,72=1,74=-5/1,2,3;
 4/5=5,16=3,69=1/1;
 5/5=100002,7=2000,38=1,53=1/2;
 7//1,2,3,16;
 1/6=1000,8=10,18=20,19=15,26=3/3(-5);
 2/9=110/2;
 6/7=2,8=2,9=2,10=2,19=2,28=1/1;
 99/9=1/99;
 Leave Link    1 at Tue Mar  1 17:06:21 2022, MaxMem=   104857600 cpu:               0.0 elap:               0.0
 (Enter /dades/curu/g16A03_MST/g16/l101.exe)
 -------------
 123.n.pdb.xyz
 -------------
 Symbolic Z-matrix:
 Charge =  0 Multiplicity = 1
 C                    -1.324    -0.259    -0.032 
 C                     0.031     0.07      0.573 
 C                     1.104     0.157    -0.497 
 Br                    2.819     0.58      0.322 
 H                    -1.297    -1.222    -0.553 
 H                    -2.085    -0.318     0.752 
 H                    -1.632     0.511    -0.747 
 H                     0.291    -0.699     1.31 
 H                    -0.041     1.02      1.118 
 H                     1.235    -0.792    -1.024 
 H                     0.899     0.952    -1.22 
 
 ITRead=  0  0  0  0  0  0  0  0  0  0  0
 MicOpt= -1 -1 -1 -1 -1 -1 -1 -1 -1 -1 -1
 NAtoms=     11 NQM=       11 NQMF=       0 NMMI=      0 NMMIF=      0
                NMic=       0 NMicF=      0.
                    Isotopes and Nuclear Properties:
 (Nuclear quadrupole moments (NQMom) in fm**2, nuclear magnetic moments (NMagM)
  in nuclear magnetons)

  Atom         1           2           3           4           5           6           7           8           9          10
 IAtWgt=          12          12          12          79           1           1           1           1           1           1
 AtmWgt=  12.0000000  12.0000000  12.0000000  78.9183361   1.0078250   1.0078250   1.0078250   1.0078250   1.0078250   1.0078250
 NucSpn=           0           0           0           3           1           1           1           1           1           1
 AtZEff=  -0.0000000  -0.0000000  -0.0000000  -0.0000000  -0.0000000  -0.0000000  -0.0000000  -0.0000000  -0.0000000  -0.0000000
 NQMom=    0.0000000   0.0000000   0.0000000  31.3000000   0.0000000   0.0000000   0.0000000   0.0000000   0.0000000   0.0000000
 NMagM=    0.0000000   0.0000000   0.0000000   2.1063990   2.7928460   2.7928460   2.7928460   2.7928460   2.7928460   2.7928460
 AtZNuc=   6.0000000   6.0000000   6.0000000  35.0000000   1.0000000   1.0000000   1.0000000   1.0000000   1.0000000   1.0000000

  Atom        11
 IAtWgt=           1
 AtmWgt=   1.0078250
 NucSpn=           1
 AtZEff=  -0.0000000
 NQMom=    0.0000000
 NMagM=    2.7928460
 AtZNuc=   1.0000000
 Leave Link  101 at Tue Mar  1 17:06:21 2022, MaxMem=   104857600 cpu:               0.1 elap:               0.1
 (Enter /dades/curu/g16A03_MST/g16/l103.exe)

 GradGradGradGradGradGradGradGradGradGradGradGradGradGradGradGradGradGrad
 Berny optimization.
 Initialization pass.
                           ----------------------------
                           !    Initial Parameters    !
                           ! (Angstroms and Degrees)  !
 --------------------------                            --------------------------
 ! Name  Definition              Value          Derivative Info.                !
 --------------------------------------------------------------------------------
 ! R1    R(1,2)                  1.52           estimate D2E/DX2                !
 ! R2    R(1,5)                  1.0952         estimate D2E/DX2                !
 ! R3    R(1,6)                  1.0942         estimate D2E/DX2                !
 ! R4    R(1,7)                  1.095          estimate D2E/DX2                !
 ! R5    R(2,3)                  1.5178         estimate D2E/DX2                !
 ! R6    R(2,8)                  1.0964         estimate D2E/DX2                !
 ! R7    R(2,9)                  1.0976         estimate D2E/DX2                !
 ! R8    R(3,4)                  1.947          estimate D2E/DX2                !
 ! R9    R(3,10)                 1.0934         estimate D2E/DX2                !
 ! R10   R(3,11)                 1.094          estimate D2E/DX2                !
 ! A1    A(2,1,5)              110.9582         estimate D2E/DX2                !
 ! A2    A(2,1,6)              110.2723         estimate D2E/DX2                !
 ! A3    A(2,1,7)              111.0052         estimate D2E/DX2                !
 ! A4    A(5,1,6)              108.094          estimate D2E/DX2                !
 ! A5    A(5,1,7)              108.3378         estimate D2E/DX2                !
 ! A6    A(6,1,7)              108.0685         estimate D2E/DX2                !
 ! A7    A(1,2,3)              111.2241         estimate D2E/DX2                !
 ! A8    A(1,2,8)              109.0953         estimate D2E/DX2                !
 ! A9    A(1,2,9)              109.057          estimate D2E/DX2                !
 ! A10   A(3,2,8)              110.2689         estimate D2E/DX2                !
 ! A11   A(3,2,9)              110.2918         estimate D2E/DX2                !
 ! A12   A(8,2,9)              106.789          estimate D2E/DX2                !
 ! A13   A(2,3,4)              109.792          estimate D2E/DX2                !
 ! A14   A(2,3,10)             112.0076         estimate D2E/DX2                !
 ! A15   A(2,3,11)             112.0294         estimate D2E/DX2                !
 ! A16   A(4,3,10)             106.6053         estimate D2E/DX2                !
 ! A17   A(4,3,11)             106.5695         estimate D2E/DX2                !
 ! A18   A(10,3,11)            109.5514         estimate D2E/DX2                !
 ! D1    D(5,1,2,3)             60.2571         estimate D2E/DX2                !
 ! D2    D(5,1,2,8)            -61.5943         estimate D2E/DX2                !
 ! D3    D(5,1,2,9)           -177.8884         estimate D2E/DX2                !
 ! D4    D(6,1,2,3)            179.9939         estimate D2E/DX2                !
 ! D5    D(6,1,2,8)             58.1424         estimate D2E/DX2                !
 ! D6    D(6,1,2,9)            -58.1517         estimate D2E/DX2                !
 ! D7    D(7,1,2,3)            -60.2709         estimate D2E/DX2                !
 ! D8    D(7,1,2,8)            177.8776         estimate D2E/DX2                !
 ! D9    D(7,1,2,9)             61.5835         estimate D2E/DX2                !
 ! D10   D(1,2,3,4)            179.981          estimate D2E/DX2                !
 ! D11   D(1,2,3,10)           -61.7874         estimate D2E/DX2                !
 ! D12   D(1,2,3,11)            61.7803         estimate D2E/DX2                !
 ! D13   D(8,2,3,4)            -58.8524         estimate D2E/DX2                !
 ! D14   D(8,2,3,10)            59.3792         estimate D2E/DX2                !
 ! D15   D(8,2,3,11)          -177.053          estimate D2E/DX2                !
 ! D16   D(9,2,3,4)             58.8471         estimate D2E/DX2                !
 ! D17   D(9,2,3,10)           177.0788         estimate D2E/DX2                !
 ! D18   D(9,2,3,11)           -59.3535         estimate D2E/DX2                !
 --------------------------------------------------------------------------------
 Trust Radius=1.00D-01 FncErr=1.00D-07 GrdErr=1.00D-06 EigMax=2.50D+02 EigMin=1.00D-04
 Number of steps in this run=    100 maximum allowed number of steps=    100.
 GradGradGradGradGradGradGradGradGradGradGradGradGradGradGradGradGradGrad

 Leave Link  103 at Tue Mar  1 17:06:21 2022, MaxMem=   104857600 cpu:               0.1 elap:               0.0
 (Enter /dades/curu/g16A03_MST/g16/l202.exe)
                          Input orientation:                          
 ---------------------------------------------------------------------
 Center     Atomic      Atomic             Coordinates (Angstroms)
 Number     Number       Type             X           Y           Z
 ---------------------------------------------------------------------
      1          6           0       -1.324000   -0.259000   -0.032000
      2          6           0        0.031000    0.070000    0.573000
      3          6           0        1.104000    0.157000   -0.497000
      4         35           0        2.819000    0.580000    0.322000
      5          1           0       -1.297000   -1.222000   -0.553000
      6          1           0       -2.085000   -0.318000    0.752000
      7          1           0       -1.632000    0.511000   -0.747000
      8          1           0        0.291000   -0.699000    1.310000
      9          1           0       -0.041000    1.020000    1.118000
     10          1           0        1.235000   -0.792000   -1.024000
     11          1           0        0.899000    0.952000   -1.220000
 ---------------------------------------------------------------------
                    Distance matrix (angstroms):
                    1          2          3          4          5
     1  C    0.000000
     2  C    1.519964   0.000000
     3  C    2.506884   1.517827   0.000000
     4  Br   4.241897   2.845355   1.947027   0.000000
     5  H    1.095235   2.168115   2.769400   4.577585   0.000000
     6  H    1.094193   2.158713   3.457651   5.004050   1.772339
     7  H    1.094984   2.168513   2.770110   4.578092   1.775711
     8  H    2.145411   1.096417   2.158461   3.000461   2.503206
     9  H    2.145794   1.097592   2.159634   3.001136   3.065345
    10  H    2.795824   2.177859   1.093385   2.490614   2.611085
    11  H    2.796354   2.178577   1.093974   2.490492   3.161263
                    6          7          8          9         10
     6  H    0.000000
     7  H    1.771850   0.000000
     8  H    2.470203   3.064846   0.000000
     9  H    2.470250   2.503715   1.761263   0.000000
    10  H    3.794898   3.161365   2.519393   3.082156   0.000000
    11  H    3.795516   2.612311   3.081617   2.520807   1.786854
                   11
    11  H    0.000000
 Stoichiometry    C3H7Br
 Framework group  C1[X(C3H7Br)]
 Deg. of freedom    27
 Full point group                 C1      NOp   1
 Largest Abelian subgroup         C1      NOp   1
 Largest concise Abelian subgroup C1      NOp   1
                         Standard orientation:                         
 ---------------------------------------------------------------------
 Center     Atomic      Atomic             Coordinates (Angstroms)
 Number     Number       Type             X           Y           Z
 ---------------------------------------------------------------------
      1          6           0       -2.971893    0.025927    0.000120
      2          6           0       -1.542412   -0.490673   -0.000292
      3          6           0       -0.544760    0.653219   -0.000054
      4         35           0        1.269249   -0.054088    0.000014
      5          1           0       -3.168010    0.636587   -0.887671
      6          1           0       -3.677296   -0.810531   -0.000168
      7          1           0       -3.168593    0.635760    0.888040
      8          1           0       -1.391057   -1.126487   -0.880612
      9          1           0       -1.391320   -1.127712    0.880651
     10          1           0       -0.636763    1.277307   -0.893106
     11          1           0       -0.636297    1.277332    0.893748
 ---------------------------------------------------------------------
 Rotational constants (GHZ):          24.8690849           1.6660699           1.6087924
 Leave Link  202 at Tue Mar  1 17:06:21 2022, MaxMem=   104857600 cpu:               0.0 elap:               0.0
 (Enter /dades/curu/g16A03_MST/g16/l301.exe)
 Standard basis: 6-31G(d) (6D, 7F)
 Ernie: Thresh=  0.10000D-02 Tol=  0.10000D-05 Strict=F.
 There are    89 symmetry adapted cartesian basis functions of A   symmetry.
 There are    89 symmetry adapted basis functions of A   symmetry.
    89 basis functions,   195 primitive gaussians,    89 cartesian basis functions
    30 alpha electrons       30 beta electrons
       nuclear repulsion energy       237.4858072250 Hartrees.
 IExCor=  402 DFT=T Ex+Corr=B3LYP ExCW=0 ScaHFX=  0.200000
 ScaDFX=  0.800000  0.720000  1.000000  0.810000 ScalE2=  1.000000  1.000000
 IRadAn=      5 IRanWt=     -1 IRanGd=            0 ICorTp=0 IEmpDi=  4
 NAtoms=   11 NActive=   11 NUniq=   11 SFac= 1.00D+00 NAtFMM=   60 NAOKFM=F Big=F
 Integral buffers will be    131072 words long.
 Raffenetti 2 integral format.
 Two-electron integral symmetry is turned on.
 Using the following non-standard input for PCM:
 MSTModel=DFT cav
 --- end of non-standard input.
 Warning! Using default X atom type for sphere   4 on atom   4 in MST parametrization.
 MST model for solvation energy: B3LYP parametrization.
 MST cavity parameters:
 ISph   IAn     Re0     Alpha   Atom Type   QCorr
 ------------------------------------------------
   1      6     1.50     1.25      CH3        F
   2      6     1.50     1.25      CH2        F
   3      6     1.50     1.25      CH2        F
   4     35     1.95     1.25      X          F
   5      1     1.20     1.25      CH3        F
   6      1     1.20     1.25      CH3        F
   7      1     1.20     1.25      CH3        F
   8      1     1.20     1.25      CH2        F
   9      1     1.20     1.25      CH2        F
  10      1     1.20     1.25      CH2        F
  11      1     1.20     1.25      CH2        F
 ------------------------------------------------------------------------------
 Polarizable Continuum Model (PCM)
 =================================
 Model                : PCM.
 Atomic radii         : MST.
 Polarization charges : Total charges.
 Charge compensation  : None.
 Solution method      : On-the-fly selection.
 Cavity type          : Scaled VdW (van der Waals Surface) (Alpha=1.250).
 Cavity algorithm     : GePol (No added spheres)
                        Default sphere list used, NSphG=   11.
                        Lebedev-Laikov grids with approx.  5.0 points / Ang**2.
                        Smoothing algorithm: York/Karplus (Gamma=1.0000).
                        Polarization charges: spherical gaussians, with
                                              point-specific exponents (IZeta= 3).
                        Self-potential: point-specific (ISelfS= 7).
                        Self-field    : sphere-specific E.n sum rule (ISelfD= 2).
 1st derivatives      : Analytical E(r).r(x)/FMM algorithm (CHGder, D1EAlg=3).
                        Cavity 1st derivative terms included.
 Solvent              : Water, Eps=  78.355300 Eps(inf)=   1.777849
 ------------------------------------------------------------------------------
 Spheres list:
 ISph  on   Nord     Re0    Alpha      Xe            Ye            Ze
    1   C      1    1.5000  1.250     -2.971893      0.025927      0.000120
    2   C      2    1.5000  1.250     -1.542412     -0.490673     -0.000292
    3   C      3    1.5000  1.250     -0.544760      0.653219     -0.000054
    4  Br      4    1.9500  1.250      1.269249     -0.054088      0.000014
    5   H      5    1.2000  1.250     -3.168010      0.636587     -0.887671
    6   H      6    1.2000  1.250     -3.677296     -0.810531     -0.000168
    7   H      7    1.2000  1.250     -3.168593      0.635760      0.888040
    8   H      8    1.2000  1.250     -1.391057     -1.126487     -0.880612
    9   H      9    1.2000  1.250     -1.391320     -1.127712      0.880651
   10   H     10    1.2000  1.250     -0.636763      1.277307     -0.893106
   11   H     11    1.2000  1.250     -0.636297      1.277332      0.893748
 ------------------------------------------------------------------------------
 GePol: Number of generator spheres                  =      11
 GePol: Total number of spheres                      =      11
 GePol: Number of exposed spheres                    =      11 (100.00%)
 GePol: Number of points                             =     982
 GePol: Average weight of points                     =       0.15
 GePol: Minimum weight of points                     =   0.22D-10
 GePol: Maximum weight of points                     =    0.21416
 GePol: Number of points with low weight             =      28
 GePol: Fraction of low-weight points (<1% of avg)   =       2.85%
 GePol: Cavity surface area                          =    148.312 Ang**2
 GePol: Cavity volume                                =    130.130 Ang**3
 Warning! Using default X atom type for sphere   4 on atom   4 in MST parametrization.
 Surface areas from nonelectrostatic (unscaled) cavity and vdw tensions:
 Sphere =    1 Type =  CH3 Surf =        5.133 Tension =       -0.140
 Sphere =    2 Type =  CH2 Surf =        3.363 Tension =       -0.139
 Sphere =    3 Type =  CH2 Surf =        3.151 Tension =       -0.139
 Sphere =    4 Type =  X   Surf =       38.850 Tension =       -0.101
 Sphere =    5 Type =  CH3 Surf =       10.145 Tension =       -0.140
 Sphere =    6 Type =  CH3 Surf =       10.131 Tension =       -0.140
 Sphere =    7 Type =  CH3 Surf =       10.144 Tension =       -0.140
 Sphere =    8 Type =  CH2 Surf =        9.894 Tension =       -0.139
 Sphere =    9 Type =  CH2 Surf =        9.902 Tension =       -0.139
 Sphere =   10 Type =  CH2 Surf =        9.743 Tension =       -0.139
 Sphere =   11 Type =  CH2 Surf =        9.746 Tension =       -0.139
 PCM non-electrostatic energy =         0.0018074362 Hartrees.
 Nuclear repulsion after PCM non-electrostatic terms =      237.4876146612 Hartrees.
 Leave Link  301 at Tue Mar  1 17:06:21 2022, MaxMem=   104857600 cpu:               0.1 elap:               0.1
 (Enter /dades/curu/g16A03_MST/g16/l302.exe)
 NPDir=0 NMtPBC=     1 NCelOv=     1 NCel=       1 NClECP=     1 NCelD=      1
         NCelK=      1 NCelE2=     1 NClLst=     1 CellRange=     0.0.
 One-electron integrals computed using PRISM.
 One-electron integral symmetry used in STVInt
 NBasis=    89 RedAO= T EigKep=  7.52D-04  NBF=    89
 NBsUse=    89 1.00D-06 EigRej= -1.00D+00 NBFU=    89
 Precomputing XC quadrature grid using
 IXCGrd= 4 IRadAn=           5 IRanWt=          -1 IRanGd=           0 AccXCQ= 0.00D+00.
 Generated NRdTot=       0 NPtTot=           0 NUsed=           0 NTot=          32
 NSgBfM=    89    89    89    89    89 MxSgAt=    11 MxSgA2=    11.
 Leave Link  302 at Tue Mar  1 17:06:21 2022, MaxMem=   104857600 cpu:               0.5 elap:               0.3
 (Enter /dades/curu/g16A03_MST/g16/l303.exe)
 DipDrv:  MaxL=1.
 Leave Link  303 at Tue Mar  1 17:06:22 2022, MaxMem=   104857600 cpu:               0.1 elap:               0.0
 (Enter /dades/curu/g16A03_MST/g16/l401.exe)
 ExpMin= 1.43D-01 ExpMax= 5.74D+05 ExpMxC= 5.74D+03 IAcc=3 IRadAn=         5 AccDes= 0.00D+00
 Harris functional with IExCor=  402 and IRadAn=       5 diagonalized for initial guess.
 HarFok:  IExCor=  402 AccDes= 0.00D+00 IRadAn=         5 IDoV= 1 UseB2=F ITyADJ=14
 ICtDFT=  3500011 ScaDFX=  1.000000  1.000000  1.000000  1.000000
 FoFCou: FMM=F IPFlag=           0 FMFlag=      100000 FMFlg1=           0
         NFxFlg=           0 DoJE=T BraDBF=F KetDBF=T FulRan=T
         wScrn=  0.000000 ICntrl=       500 IOpCl=  0 I1Cent=   200000004 NGrid=           0
         NMat0=    1 NMatS0=      1 NMatT0=    0 NMatD0=    1 NMtDS0=    0 NMtDT0=    0
 Petite list used in FoFCou.
 Harris En= -2690.39091637206    
 JPrj=0 DoOrth=F DoCkMO=F.
 Leave Link  401 at Tue Mar  1 17:06:23 2022, MaxMem=   104857600 cpu:               3.2 elap:               1.3
 (Enter /dades/curu/g16A03_MST/g16/l502.exe)
 Keep R1 ints in memory in canonical form, NReq=11674747.
 FoFCou: FMM=F IPFlag=           0 FMFlag=           0 FMFlg1=           0
         NFxFlg=           0 DoJE=F BraDBF=F KetDBF=F FulRan=T
         wScrn=  0.000000 ICntrl=       600 IOpCl=  0 I1Cent=           0 NGrid=           0
         NMat0=    1 NMatS0=   4005 NMatT0=    0 NMatD0=    1 NMtDS0=    0 NMtDT0=    0
 Symmetry not used in FoFCou.
 Two-electron integral symmetry not used.
 Closed shell SCF:
 Using DIIS extrapolation, IDIIS=  1040.
 NGot=   104857600 LenX=    96818035 LenY=    96809673
 Requested convergence on RMS density matrix=1.00D-08 within2000 cycles.
 Requested convergence on MAX density matrix=1.00D-06.
 Requested convergence on             energy=1.00D-06.
 No special actions if energy rises.

 Cycle   1  Pass 1  IDiag  1:
 Inv3:  Mode=1 IEnd=     2892972.
 Iteration    1 A*A^-1 deviation from unit magnitude is 3.66D-15 for    965.
 Iteration    1 A*A^-1 deviation from orthogonality  is 1.44D-15 for    509     30.
 Iteration    1 A^-1*A deviation from unit magnitude is 3.66D-15 for    965.
 Iteration    1 A^-1*A deviation from orthogonality  is 1.59D-15 for    937    114.
 E= -2690.10915305379    
 DIIS: error= 1.96D-01 at cycle   1 NSaved=   1.
 NSaved= 1 IEnMin= 1 EnMin= -2690.10915305379     IErMin= 1 ErrMin= 1.96D-01
 ErrMax= 1.96D-01  0.00D+00 EMaxC= 1.00D-01 BMatC= 4.74D-01 BMatP= 4.74D-01
 IDIUse=3 WtCom= 0.00D+00 WtEn= 1.00D+00
 Coeff-Com:  0.100D+01
 Coeff-En:   0.100D+01
 Coeff:      0.100D+01
 Gap=     0.343 Goal=   None    Shift=    0.000
 GapD=    0.343 DampG=1.000 DampE=0.250 DampFc=0.2500 IDamp=-1.
 Damping current iteration by 2.50D-01
 RMSDP=9.63D-03 MaxDP=1.47D-01              OVMax= 1.66D-01

 Cycle   2  Pass 1  IDiag  1:
 E= -2690.16055063541     Delta-E=       -0.051397581624 Rises=F Damp=T
 DIIS: error= 1.45D-01 at cycle   2 NSaved=   2.
 NSaved= 2 IEnMin= 2 EnMin= -2690.16055063541     IErMin= 2 ErrMin= 1.45D-01
 ErrMax= 1.45D-01  0.00D+00 EMaxC= 1.00D-01 BMatC= 2.18D-01 BMatP= 4.74D-01
 IDIUse=3 WtCom= 0.00D+00 WtEn= 1.00D+00
 Coeff-Com: -0.159D+01 0.259D+01
 Coeff-En:   0.000D+00 0.100D+01
 Coeff:      0.000D+00 0.100D+01
 Gap=     0.316 Goal=   None    Shift=    0.000
 RMSDP=5.22D-03 MaxDP=1.14D-01 DE=-5.14D-02 OVMax= 5.35D-02

 Cycle   3  Pass 1  IDiag  1:
 E= -2690.21446708824     Delta-E=       -0.053916452824 Rises=F Damp=F
 DIIS: error= 2.29D-02 at cycle   3 NSaved=   3.
 NSaved= 3 IEnMin= 3 EnMin= -2690.21446708824     IErMin= 3 ErrMin= 2.29D-02
 ErrMax= 2.29D-02  0.00D+00 EMaxC= 1.00D-01 BMatC= 3.36D-02 BMatP= 2.18D-01
 IDIUse=3 WtCom= 7.71D-01 WtEn= 2.29D-01
 EnCoef did   100 forward-backward iterations
 Coeff-Com:  0.203D+01-0.267D+01 0.164D+01
 Coeff-En:   0.166D+00 0.241D-02 0.832D+00
 Coeff:      0.161D+01-0.206D+01 0.146D+01
 Gap=     0.297 Goal=   None    Shift=    0.000
 RMSDP=2.31D-03 MaxDP=4.01D-02 DE=-5.39D-02 OVMax= 5.37D-02

 Cycle   4  Pass 1  IDiag  1:
 E= -2690.24821011870     Delta-E=       -0.033743030468 Rises=F Damp=F
 DIIS: error= 4.39D-03 at cycle   4 NSaved=   4.
 NSaved= 4 IEnMin= 4 EnMin= -2690.24821011870     IErMin= 4 ErrMin= 4.39D-03
 ErrMax= 4.39D-03  0.00D+00 EMaxC= 1.00D-01 BMatC= 1.16D-03 BMatP= 3.36D-02
 IDIUse=3 WtCom= 9.56D-01 WtEn= 4.39D-02
 Coeff-Com:  0.375D+00-0.490D+00 0.421D+00 0.694D+00
 Coeff-En:   0.000D+00 0.000D+00 0.000D+00 0.100D+01
 Coeff:      0.358D+00-0.468D+00 0.402D+00 0.707D+00
 Gap=     0.287 Goal=   None    Shift=    0.000
 RMSDP=3.87D-04 MaxDP=9.43D-03 DE=-3.37D-02 OVMax= 8.79D-03

 Cycle   5  Pass 1  IDiag  1:
 E= -2690.24931626581     Delta-E=       -0.001106147107 Rises=F Damp=F
 DIIS: error= 7.20D-04 at cycle   5 NSaved=   5.
 NSaved= 5 IEnMin= 5 EnMin= -2690.24931626581     IErMin= 5 ErrMin= 7.20D-04
 ErrMax= 7.20D-04  0.00D+00 EMaxC= 1.00D-01 BMatC= 7.61D-05 BMatP= 1.16D-03
 IDIUse=3 WtCom= 9.93D-01 WtEn= 7.20D-03
 Coeff-Com: -0.200D-01 0.287D-01 0.454D-01 0.363D+00 0.583D+00
 Coeff-En:   0.000D+00 0.000D+00 0.000D+00 0.000D+00 0.100D+01
 Coeff:     -0.199D-01 0.285D-01 0.451D-01 0.360D+00 0.586D+00
 Gap=     0.287 Goal=   None    Shift=    0.000
 RMSDP=8.21D-05 MaxDP=1.55D-03 DE=-1.11D-03 OVMax= 2.00D-03

 Cycle   6  Pass 1  IDiag  1:
 E= -2690.24939100079     Delta-E=       -0.000074734979 Rises=F Damp=F
 DIIS: error= 4.56D-05 at cycle   6 NSaved=   6.
 NSaved= 6 IEnMin= 6 EnMin= -2690.24939100079     IErMin= 6 ErrMin= 4.56D-05
 ErrMax= 4.56D-05  0.00D+00 EMaxC= 1.00D-01 BMatC= 2.81D-07 BMatP= 7.61D-05
 IDIUse=1 WtCom= 1.00D+00 WtEn= 0.00D+00
 Coeff-Com: -0.472D-02 0.672D-02 0.120D-01 0.934D-01 0.166D+00 0.726D+00
 Coeff:     -0.472D-02 0.672D-02 0.120D-01 0.934D-01 0.166D+00 0.726D+00
 Gap=     0.287 Goal=   None    Shift=    0.000
 RMSDP=8.94D-06 MaxDP=1.97D-04 DE=-7.47D-05 OVMax= 1.33D-04

 Cycle   7  Pass 1  IDiag  1:
 E= -2690.24939125500     Delta-E=       -0.000000254214 Rises=F Damp=F
 DIIS: error= 1.60D-05 at cycle   7 NSaved=   7.
 NSaved= 7 IEnMin= 7 EnMin= -2690.24939125500     IErMin= 7 ErrMin= 1.60D-05
 ErrMax= 1.60D-05  0.00D+00 EMaxC= 1.00D-01 BMatC= 3.22D-08 BMatP= 2.81D-07
 IDIUse=1 WtCom= 1.00D+00 WtEn= 0.00D+00
 Coeff-Com: -0.475D-03 0.685D-03 0.187D-02 0.138D-01 0.294D-01 0.281D+00
 Coeff-Com:  0.674D+00
 Coeff:     -0.475D-03 0.685D-03 0.187D-02 0.138D-01 0.294D-01 0.281D+00
 Coeff:      0.674D+00
 Gap=     0.287 Goal=   None    Shift=    0.000
 RMSDP=2.17D-06 MaxDP=4.97D-05 DE=-2.54D-07 OVMax= 4.55D-05

 Cycle   8  Pass 1  IDiag  1:
 E= -2690.24939128275     Delta-E=       -0.000000027746 Rises=F Damp=F
 DIIS: error= 4.50D-06 at cycle   8 NSaved=   8.
 NSaved= 8 IEnMin= 8 EnMin= -2690.24939128275     IErMin= 8 ErrMin= 4.50D-06
 ErrMax= 4.50D-06  0.00D+00 EMaxC= 1.00D-01 BMatC= 3.24D-09 BMatP= 3.22D-08
 IDIUse=1 WtCom= 1.00D+00 WtEn= 0.00D+00
 Coeff-Com:  0.557D-03-0.748D-03 0.156D-03-0.117D-02-0.252D-03 0.578D-01
 Coeff-Com:  0.288D+00 0.655D+00
 Coeff:      0.557D-03-0.748D-03 0.156D-03-0.117D-02-0.252D-03 0.578D-01
 Coeff:      0.288D+00 0.655D+00
 Gap=     0.287 Goal=   None    Shift=    0.000
 RMSDP=7.23D-07 MaxDP=1.19D-05 DE=-2.77D-08 OVMax= 2.03D-05

 Cycle   9  Pass 1  IDiag  1:
 E= -2690.24939128614     Delta-E=       -0.000000003386 Rises=F Damp=F
 DIIS: error= 6.90D-07 at cycle   9 NSaved=   9.
 NSaved= 9 IEnMin= 9 EnMin= -2690.24939128614     IErMin= 9 ErrMin= 6.90D-07
 ErrMax= 6.90D-07  0.00D+00 EMaxC= 1.00D-01 BMatC= 8.24D-11 BMatP= 3.24D-09
 IDIUse=1 WtCom= 1.00D+00 WtEn= 0.00D+00
 Coeff-Com:  0.206D-03-0.280D-03-0.339D-04-0.969D-03-0.158D-02 0.495D-02
 Coeff-Com:  0.587D-01 0.214D+00 0.725D+00
 Coeff:      0.206D-03-0.280D-03-0.339D-04-0.969D-03-0.158D-02 0.495D-02
 Coeff:      0.587D-01 0.214D+00 0.725D+00
 Gap=     0.287 Goal=   None    Shift=    0.000
 RMSDP=1.67D-07 MaxDP=4.20D-06 DE=-3.39D-09 OVMax= 2.32D-06

 Cycle  10  Pass 1  IDiag  1:
 E= -2690.24939128621     Delta-E=       -0.000000000076 Rises=F Damp=F
 DIIS: error= 1.02D-07 at cycle  10 NSaved=  10.
 NSaved=10 IEnMin=10 EnMin= -2690.24939128621     IErMin=10 ErrMin= 1.02D-07
 ErrMax= 1.02D-07  0.00D+00 EMaxC= 1.00D-01 BMatC= 2.28D-12 BMatP= 8.24D-11
 IDIUse=1 WtCom= 1.00D+00 WtEn= 0.00D+00
 Coeff-Com:  0.238D-04-0.329D-04-0.356D-04-0.295D-03-0.600D-03-0.136D-02
 Coeff-Com:  0.328D-02 0.333D-01 0.155D+00 0.810D+00
 Coeff:      0.238D-04-0.329D-04-0.356D-04-0.295D-03-0.600D-03-0.136D-02
 Coeff:      0.328D-02 0.333D-01 0.155D+00 0.810D+00
 Gap=     0.287 Goal=   None    Shift=    0.000
 RMSDP=2.78D-08 MaxDP=3.44D-07 DE=-7.59D-11 OVMax= 5.50D-07

 Cycle  11  Pass 1  IDiag  1:
 E= -2690.24939128620     Delta-E=        0.000000000010 Rises=F Damp=F
 DIIS: error= 2.66D-08 at cycle  11 NSaved=  11.
 NSaved=11 IEnMin=10 EnMin= -2690.24939128621     IErMin=11 ErrMin= 2.66D-08
 ErrMax= 2.66D-08  0.00D+00 EMaxC= 1.00D-01 BMatC= 1.21D-13 BMatP= 2.28D-12
 IDIUse=1 WtCom= 1.00D+00 WtEn= 0.00D+00
 Coeff-Com: -0.828D-07-0.248D-07-0.799D-05-0.476D-04-0.118D-03-0.588D-03
 Coeff-Com: -0.126D-02 0.211D-02 0.135D-01 0.235D+00 0.751D+00
 Coeff:     -0.828D-07-0.248D-07-0.799D-05-0.476D-04-0.118D-03-0.588D-03
 Coeff:     -0.126D-02 0.211D-02 0.135D-01 0.235D+00 0.751D+00
 Gap=     0.287 Goal=   None    Shift=    0.000
 RMSDP=6.93D-09 MaxDP=1.58D-07 DE= 9.55D-12 OVMax= 1.11D-07

 Error on total polarization charges =  0.00985
 SCF Done:  E(RB3LYP) =  -2690.24939129     A.U. after   11 cycles
            NFock= 11  Conv=0.69D-08     -V/T= 2.0063
 KE= 2.673432566482D+03 PE=-6.882826554973D+03 EE= 1.281656982543D+03
 Leave Link  502 at Tue Mar  1 17:06:41 2022, MaxMem=   104857600 cpu:              54.1 elap:              18.1
 (Enter /dades/curu/g16A03_MST/g16/l601.exe)
 Copying SCF densities to generalized density rwf, IOpCl= 0 IROHF=0.

 **********************************************************************

            Population analysis using the SCF density.

 **********************************************************************

 Orbital symmetries:
       Occupied  (A) (A) (A) (A) (A) (A) (A) (A) (A) (A) (A) (A)
                 (A) (A) (A) (A) (A) (A) (A) (A) (A) (A) (A) (A)
                 (A) (A) (A) (A) (A) (A)
       Virtual   (A) (A) (A) (A) (A) (A) (A) (A) (A) (A) (A) (A)
                 (A) (A) (A) (A) (A) (A) (A) (A) (A) (A) (A) (A)
                 (A) (A) (A) (A) (A) (A) (A) (A) (A) (A) (A) (A)
                 (A) (A) (A) (A) (A) (A) (A) (A) (A) (A) (A) (A)
                 (A) (A) (A) (A) (A) (A) (A) (A) (A) (A) (A)
 The electronic state is 1-A.
 Alpha  occ. eigenvalues -- -482.89532 -61.85808 -56.37867 -56.37516 -56.37509
 Alpha  occ. eigenvalues --  -10.23403 -10.18823 -10.17472  -8.57002  -6.52335
 Alpha  occ. eigenvalues --   -6.51147  -6.51137  -2.63917  -2.63579  -2.63571
 Alpha  occ. eigenvalues --   -2.62623  -2.62623  -0.81993  -0.75329  -0.65846
 Alpha  occ. eigenvalues --   -0.59048  -0.47766  -0.43261  -0.41203  -0.40413
 Alpha  occ. eigenvalues --   -0.35327  -0.34267  -0.33823  -0.27332  -0.27257
 Alpha virt. eigenvalues --    0.01394   0.10366   0.13569   0.13688   0.15593
 Alpha virt. eigenvalues --    0.18189   0.18387   0.19244   0.21844   0.24168
 Alpha virt. eigenvalues --    0.29521   0.43225   0.44005   0.45548   0.47010
 Alpha virt. eigenvalues --    0.47677   0.49832   0.51253   0.53370   0.55763
 Alpha virt. eigenvalues --    0.58450   0.62524   0.67119   0.67198   0.77708
 Alpha virt. eigenvalues --    0.79503   0.82315   0.86333   0.86856   0.90639
 Alpha virt. eigenvalues --    0.91032   0.93725   0.95633   0.98137   1.05679
 Alpha virt. eigenvalues --    1.13302   1.39233   1.46832   1.52451   1.57214
 Alpha virt. eigenvalues --    1.62650   1.75145   1.88307   1.92630   1.96345
 Alpha virt. eigenvalues --    2.02138   2.06840   2.20141   2.22049   2.32543
 Alpha virt. eigenvalues --    2.38556   2.39901   2.56840   2.69069   4.12349
 Alpha virt. eigenvalues --    4.25849   4.45617   8.61831  72.84735
          Condensed to atoms (all electrons):
               1          2          3          4          5          6
     1  C    5.087775   0.353553  -0.045753   0.005416   0.378890   0.374198
     2  C    0.353553   4.986190   0.366569  -0.054324  -0.035290  -0.026423
     3  C   -0.045753   0.366569   5.061630   0.240490  -0.004715   0.004405
     4  Br   0.005416  -0.054324   0.240490  35.077331  -0.000006  -0.000179
     5  H    0.378890  -0.035290  -0.004715  -0.000006   0.563491  -0.028934
     6  H    0.374198  -0.026423   0.004405  -0.000179  -0.028934   0.554993
     7  H    0.378946  -0.035226  -0.004708  -0.000006  -0.031252  -0.028991
     8  H   -0.037080   0.382487  -0.040597   0.001153  -0.004590  -0.003171
     9  H   -0.037128   0.382410  -0.040535   0.001142   0.005161  -0.003167
    10  H   -0.001707  -0.035575   0.370576  -0.039291   0.004297  -0.000077
    11  H   -0.001704  -0.035546   0.370569  -0.039343  -0.000395  -0.000077
               7          8          9         10         11
     1  C    0.378946  -0.037080  -0.037128  -0.001707  -0.001704
     2  C   -0.035226   0.382487   0.382410  -0.035575  -0.035546
     3  C   -0.004708  -0.040597  -0.040535   0.370576   0.370569
     4  Br  -0.000006   0.001153   0.001142  -0.039291  -0.039343
     5  H   -0.031252  -0.004590   0.005161   0.004297  -0.000395
     6  H   -0.028991  -0.003171  -0.003167  -0.000077  -0.000077
     7  H    0.563318   0.005158  -0.004589  -0.000394   0.004285
     8  H    0.005158   0.577051  -0.036822  -0.005261   0.005192
     9  H   -0.004589  -0.036822   0.577443   0.005188  -0.005255
    10  H   -0.000394  -0.005261   0.005188   0.537240  -0.033901
    11  H    0.004285   0.005192  -0.005255  -0.033901   0.537391
 Mulliken charges:
               1
     1  C   -0.455406
     2  C   -0.248824
     3  C   -0.277929
     4  Br  -0.192383
     5  H    0.153342
     6  H    0.157423
     7  H    0.153459
     8  H    0.156480
     9  H    0.156150
    10  H    0.198906
    11  H    0.198783
 Sum of Mulliken charges =   0.00000
 Mulliken charges with hydrogens summed into heavy atoms:
               1
     1  C    0.008818
     2  C    0.063805
     3  C    0.119760
     4  Br  -0.192383
 Electronic spatial extent (au):  <R**2>=            727.0998
 Charge=              0.0000 electrons
 Dipole moment (field-independent basis, Debye):
    X=             -2.5943    Y=              0.7116    Z=             -0.0006  Tot=              2.6901
 Quadrupole moment (field-independent basis, Debye-Ang):
   XX=            -38.3533   YY=            -37.7424   ZZ=            -38.1771
   XY=             -0.5427   XZ=             -0.0001   YZ=              0.0004
 Traceless Quadrupole moment (field-independent basis, Debye-Ang):
   XX=             -0.2624   YY=              0.3485   ZZ=             -0.0861
   XY=             -0.5427   XZ=             -0.0001   YZ=              0.0004
 Octapole moment (field-independent basis, Debye-Ang**2):
  XXX=             38.3236  YYY=             -0.3726  ZZZ=             -0.0015  XYY=             10.9336
  XXY=             -3.7217  XXZ=              0.0073  XZZ=             10.6375  YZZ=              0.8114
  YYZ=             -0.0010  XYZ=             -0.0001
 Hexadecapole moment (field-independent basis, Debye-Ang**3):
 XXXX=           -734.7093 YYYY=            -93.4043 ZZZZ=            -60.9875 XXXY=             -0.4995
 XXXZ=             -0.0299 YYYX=             -1.9098 YYYZ=              0.0005 ZZZX=              0.0005
 ZZZY=              0.0033 XXYY=           -136.7795 XXZZ=           -133.9978 YYZZ=            -23.4168
 XXYZ=              0.0015 YYXZ=              0.0024 ZZXY=             -2.4176
 N-N= 2.374876146612D+02 E-N=-6.882826565161D+03  KE= 2.673432566482D+03
 No NMR shielding tensors so no spin-rotation constants.
 Leave Link  601 at Tue Mar  1 17:06:41 2022, MaxMem=   104857600 cpu:               0.3 elap:               0.1
 (Enter /dades/curu/g16A03_MST/g16/l701.exe)
 ... and contract with generalized density number  0.
 Compute integral first derivatives.
 D1PCM: PCM CHGder 1st derivatives, ID1Alg=3 FixD1E=F DoIter=F DoCFld=F I1PDM=0.
 GePol: Maximum number of non-zero 1st derivatives   =     367
 Warning! Using default X atom type for sphere   4 on atom   4 in MST parametrization.
 Leave Link  701 at Tue Mar  1 17:06:42 2022, MaxMem=   104857600 cpu:               2.6 elap:               1.3
 (Enter /dades/curu/g16A03_MST/g16/l702.exe)
 L702 exits ... SP integral derivatives will be done elsewhere.
 Leave Link  702 at Tue Mar  1 17:06:42 2022, MaxMem=   104857600 cpu:               0.0 elap:               0.0
 (Enter /dades/curu/g16A03_MST/g16/l703.exe)
 Integral derivatives from FoFJK, PRISM(SPDF).
 Compute integral first derivatives, UseDBF=F ICtDFT=           0.
 Calling FoFJK, ICntrl=      2127 FMM=F ISym2X=0 I1Cent= 0 IOpClX= 0 NMat=1 NMatS=1 NMatT=0.
 FoFJK:  IHMeth= 1 ICntrl=    2127 DoSepK=F KAlg= 0 I1Cent=           0 FoldK=F
 IRaf=         0 NMat=       1 IRICut=       1 DoRegI=T DoRafI=F ISym2E= 0 IDoP0=0 IntGTp=1.
 FoFCou: FMM=F IPFlag=           0 FMFlag=      100000 FMFlg1=         800
         NFxFlg=           0 DoJE=F BraDBF=F KetDBF=F FulRan=T
         wScrn=  0.000000 ICntrl=      2127 IOpCl=  0 I1Cent=           0 NGrid=           0
         NMat0=    1 NMatS0=      1 NMatT0=    0 NMatD0=    1 NMtDS0=    0 NMtDT0=    0
 Symmetry not used in FoFCou.
 Leave Link  703 at Tue Mar  1 17:06:45 2022, MaxMem=   104857600 cpu:               8.8 elap:               3.1
 (Enter /dades/curu/g16A03_MST/g16/l716.exe)
 Dipole        =-1.02066997D+00 2.79973531D-01-2.53609753D-04
 ***** Axes restored to original set *****
 -------------------------------------------------------------------
 Center     Atomic                   Forces (Hartrees/Bohr)
 Number     Number              X              Y              Z
 -------------------------------------------------------------------
      1        6          -0.004906242   -0.001358153   -0.003019867
      2        6          -0.002141644    0.000711433    0.004570975
      3        6          -0.010774702   -0.002843193   -0.004121884
      4       35           0.012117631    0.002358671    0.002490006
      5        1          -0.001269848    0.000347138   -0.000408311
      6        1          -0.000441504   -0.000181664   -0.000689123
      7        1          -0.000933197   -0.000845260   -0.000254792
      8        1           0.002608326    0.001118672   -0.001126644
      9        1           0.003009338   -0.000950594   -0.001357637
     10        1           0.001032340    0.003688466    0.002043320
     11        1           0.001699503   -0.002045516    0.001873957
 -------------------------------------------------------------------
 Cartesian Forces:  Max     0.012117631 RMS     0.003548794
 Leave Link  716 at Tue Mar  1 17:06:46 2022, MaxMem=   104857600 cpu:               0.0 elap:               0.0
 (Enter /dades/curu/g16A03_MST/g16/l103.exe)

 GradGradGradGradGradGradGradGradGradGradGradGradGradGradGradGradGradGrad
 Berny optimization.
 FormGI is forming the generalized inverse of G from B-inverse, IUseBI=4.
 Internal  Forces:  Max     0.012232700 RMS     0.002851492
 Search for a local minimum.
 Step number   1 out of a maximum of  100
 All quantities printed in internal units (Hartrees-Bohrs-Radians)
 RMS Force = .28515D-02 SwitMx=.10000D-02 MixMth= 1
 Mixed Optimization -- RFO/linear search
 Second derivative matrix not updated -- first step.
 ITU=  0
     Eigenvalues ---    0.00502   0.00530   0.03786   0.04973   0.05614
     Eigenvalues ---    0.05649   0.05707   0.05782   0.08179   0.12066
     Eigenvalues ---    0.16000   0.16000   0.16000   0.16000   0.16000
     Eigenvalues ---    0.16134   0.21882   0.22267   0.30370   0.30577
     Eigenvalues ---    0.33950   0.34081   0.34215   0.34243   0.34333
     Eigenvalues ---    0.34357   0.34424
 RFO step:  Lambda=-1.98209994D-03 EMin= 5.01860170D-03
 Linear search not attempted -- first point.
 Maximum step size (   0.100) exceeded in Quadratic search.
    -- Step size scaled by   0.977
 Iteration  1 RMS(Cart)=  0.02371455 RMS(Int)=  0.00021303
 Iteration  2 RMS(Cart)=  0.00023258 RMS(Int)=  0.00012033
 Iteration  3 RMS(Cart)=  0.00000006 RMS(Int)=  0.00012033
 ITry= 1 IFail=0 DXMaxC= 1.07D-01 DCOld= 1.00D+10 DXMaxT= 1.00D-01 DXLimC= 3.00D+00 Rises=F
 Variable       Old X    -DE/DX   Delta X   Delta X   Delta X     New X
                                 (Linear)    (Quad)   (Total)
    R1        2.87232   0.00891   0.00000   0.02848   0.02848   2.90080
    R2        2.06969  -0.00014   0.00000  -0.00041  -0.00041   2.06929
    R3        2.06772  -0.00018   0.00000  -0.00050  -0.00050   2.06723
    R4        2.06922  -0.00017   0.00000  -0.00047  -0.00047   2.06875
    R5        2.86828   0.00134   0.00000   0.00425   0.00425   2.87252
    R6        2.07193  -0.00092   0.00000  -0.00263  -0.00263   2.06930
    R7        2.07415  -0.00169   0.00000  -0.00485  -0.00485   2.06930
    R8        3.67935   0.01223   0.00000   0.07318   0.07318   3.75253
    R9        2.06620  -0.00406   0.00000  -0.01146  -0.01146   2.05474
   R10        2.06731  -0.00304   0.00000  -0.00860  -0.00860   2.05871
    A1        1.93659   0.00148   0.00000   0.00893   0.00891   1.94549
    A2        1.92461   0.00061   0.00000   0.00369   0.00368   1.92829
    A3        1.93741   0.00131   0.00000   0.00784   0.00781   1.94522
    A4        1.88660  -0.00107   0.00000  -0.00638  -0.00640   1.88019
    A5        1.89085  -0.00148   0.00000  -0.00895  -0.00898   1.88187
    A6        1.88615  -0.00100   0.00000  -0.00608  -0.00609   1.88006
    A7        1.94123   0.00118   0.00000   0.00618   0.00629   1.94751
    A8        1.90407   0.00133   0.00000   0.01862   0.01863   1.92270
    A9        1.90340   0.00141   0.00000   0.01930   0.01931   1.92271
   A10        1.92456  -0.00203   0.00000  -0.02107  -0.02122   1.90334
   A11        1.92496  -0.00210   0.00000  -0.02157  -0.02172   1.90323
   A12        1.86382   0.00023   0.00000  -0.00096  -0.00160   1.86222
   A13        1.91623   0.00723   0.00000   0.03147   0.03138   1.94761
   A14        1.95490   0.00008   0.00000   0.00140   0.00138   1.95628
   A15        1.95528   0.00004   0.00000   0.00288   0.00281   1.95810
   A16        1.86061  -0.00380   0.00000  -0.01951  -0.01955   1.84106
   A17        1.85999  -0.00336   0.00000  -0.01342  -0.01355   1.84644
   A18        1.91203  -0.00051   0.00000  -0.00447  -0.00447   1.90757
    D1        1.05169   0.00001   0.00000   0.00008   0.00008   1.05177
    D2       -1.07502   0.00089   0.00000   0.00997   0.01003  -1.06499
    D3       -3.10474  -0.00091   0.00000  -0.00999  -0.01004  -3.11477
    D4        3.14149   0.00002   0.00000   0.00027   0.00027  -3.14143
    D5        1.01478   0.00090   0.00000   0.01016   0.01022   1.02499
    D6       -1.01494  -0.00090   0.00000  -0.00980  -0.00985  -1.02479
    D7       -1.05193   0.00001   0.00000   0.00014   0.00013  -1.05180
    D8        3.10455   0.00090   0.00000   0.01003   0.01008   3.11463
    D9        1.07484  -0.00091   0.00000  -0.00993  -0.00999   1.06485
   D10        3.14126   0.00019   0.00000   0.00316   0.00318  -3.13874
   D11       -1.07839   0.00022   0.00000   0.00023   0.00025  -1.07815
   D12        1.07827  -0.00036   0.00000  -0.00243  -0.00247   1.07580
   D13       -1.02717   0.00129   0.00000   0.01653   0.01640  -1.01077
   D14        1.03636   0.00132   0.00000   0.01360   0.01346   1.04982
   D15       -3.09016   0.00073   0.00000   0.01093   0.01074  -3.07941
   D16        1.02708  -0.00095   0.00000  -0.01073  -0.01055   1.01652
   D17        3.09061  -0.00092   0.00000  -0.01366  -0.01349   3.07712
   D18       -1.03591  -0.00151   0.00000  -0.01632  -0.01621  -1.05212
         Item               Value     Threshold  Converged?
 Maximum Force            0.012233     0.000450     NO 
 RMS     Force            0.002851     0.000300     NO 
 Maximum Displacement     0.107411     0.001800     NO 
 RMS     Displacement     0.023821     0.001200     NO 
 Predicted change in Energy=-1.001084D-03
 Lowest energy point so far.  Saving SCF results.
 GradGradGradGradGradGradGradGradGradGradGradGradGradGradGradGradGradGrad

 Leave Link  103 at Tue Mar  1 17:06:46 2022, MaxMem=   104857600 cpu:               0.1 elap:               0.0
 (Enter /dades/curu/g16A03_MST/g16/l202.exe)
                          Input orientation:                          
 ---------------------------------------------------------------------
 Center     Atomic      Atomic             Coordinates (Angstroms)
 Number     Number       Type             X           Y           Z
 ---------------------------------------------------------------------
      1          6           0       -1.343563   -0.263639   -0.036358
      2          6           0        0.023437    0.069692    0.577267
      3          6           0        1.106393    0.160179   -0.485580
      4         35           0        2.875839    0.586241    0.308610
      5          1           0       -1.324139   -1.225238   -0.559825
      6          1           0       -2.108595   -0.324171    0.743221
      7          1           0       -1.658059    0.501747   -0.753100
      8          1           0        0.304587   -0.693975    1.309963
      9          1           0       -0.027211    1.020707    1.117722
     10          1           0        1.243278   -0.781856   -1.011028
     11          1           0        0.908034    0.950313   -1.208893
 ---------------------------------------------------------------------
                    Distance matrix (angstroms):
                    1          2          3          4          5
     1  C    0.000000
     2  C    1.535035   0.000000
     3  C    2.526600   1.520074   0.000000
     4  Br   4.317946   2.911220   1.985751   0.000000
     5  H    1.095020   2.187644   2.798639   4.655691   0.000000
     6  H    1.093929   2.174449   3.475729   5.085501   1.767830
     7  H    1.094734   2.187230   2.798291   4.657317   1.769558
     8  H    2.171214   1.095024   2.143933   3.041874   2.535961
     9  H    2.171227   1.095027   2.143861   3.044852   3.088763
    10  H    2.812522   2.176196   1.087319   2.505671   2.644202
    11  H    2.813931   2.179076   1.089421   2.511498   3.183851
                    6          7          8          9         10
     6  H    0.000000
     7  H    1.767513   0.000000
     8  H    2.506272   3.088360   0.000000
     9  H    2.506214   2.535539   1.757038   0.000000
    10  H    3.810764   3.183068   2.505167   3.065118   0.000000
    11  H    3.812494   2.644578   3.067974   2.508540   1.775373
                   11
    11  H    0.000000
 Stoichiometry    C3H7Br
 Framework group  C1[X(C3H7Br)]
 Deg. of freedom    27
 Full point group                 C1      NOp   1
 RotChk:  IX=0 Diff= 6.97D-03
 Largest Abelian subgroup         C1      NOp   1
 Largest concise Abelian subgroup C1      NOp   1
                         Standard orientation:                         
 ---------------------------------------------------------------------
 Center     Atomic      Atomic             Coordinates (Angstroms)
 Number     Number       Type             X           Y           Z
 ---------------------------------------------------------------------
      1          6           0       -3.021844    0.033196   -0.001356
      2          6           0       -1.581483   -0.497543    0.001719
      3          6           0       -0.568066    0.635423    0.001057
      4         35           0        1.295282   -0.050975   -0.000228
      5          1           0       -3.221842    0.644409   -0.887635
      6          1           0       -3.735349   -0.796015   -0.000667
      7          1           0       -3.224072    0.647501    0.881920
      8          1           0       -1.410598   -1.130511   -0.875337
      9          1           0       -1.413084   -1.127121    0.881696
     10          1           0       -0.649382    1.256172   -0.887944
     11          1           0       -0.652177    1.263226    0.887413
 ---------------------------------------------------------------------
 Rotational constants (GHZ):          25.2828125           1.6042279           1.5522682
 Leave Link  202 at Tue Mar  1 17:06:46 2022, MaxMem=   104857600 cpu:               0.0 elap:               0.0
 (Enter /dades/curu/g16A03_MST/g16/l301.exe)
 Standard basis: 6-31G(d) (6D, 7F)
 Ernie: Thresh=  0.10000D-02 Tol=  0.10000D-05 Strict=F.
 There are    89 symmetry adapted cartesian basis functions of A   symmetry.
 There are    89 symmetry adapted basis functions of A   symmetry.
    89 basis functions,   195 primitive gaussians,    89 cartesian basis functions
    30 alpha electrons       30 beta electrons
       nuclear repulsion energy       234.2867319769 Hartrees.
 IExCor=  402 DFT=T Ex+Corr=B3LYP ExCW=0 ScaHFX=  0.200000
 ScaDFX=  0.800000  0.720000  1.000000  0.810000 ScalE2=  1.000000  1.000000
 IRadAn=      5 IRanWt=     -1 IRanGd=            0 ICorTp=0 IEmpDi=  4
 NAtoms=   11 NActive=   11 NUniq=   11 SFac= 1.00D+00 NAtFMM=   60 NAOKFM=F Big=F
 Integral buffers will be    131072 words long.
 Raffenetti 2 integral format.
 Two-electron integral symmetry is turned on.
 ------------------------------------------------------------------------------
 Polarizable Continuum Model (PCM)
 =================================
 Model                : PCM.
 Atomic radii         : MST.
 Polarization charges : Total charges.
 Charge compensation  : None.
 Solution method      : On-the-fly selection.
 Cavity type          : Scaled VdW (van der Waals Surface) (Alpha=1.250).
 Cavity algorithm     : GePol (No added spheres)
                        Default sphere list used, NSphG=   11.
                        Lebedev-Laikov grids with approx.  5.0 points / Ang**2.
                        Smoothing algorithm: York/Karplus (Gamma=1.0000).
                        Polarization charges: spherical gaussians, with
                                              point-specific exponents (IZeta= 3).
                        Self-potential: point-specific (ISelfS= 7).
                        Self-field    : sphere-specific E.n sum rule (ISelfD= 2).
 1st derivatives      : Analytical E(r).r(x)/FMM algorithm (CHGder, D1EAlg=3).
                        Cavity 1st derivative terms included.
 Solvent              : Water, Eps=  78.355300 Eps(inf)=   1.777849
 ------------------------------------------------------------------------------
 Spheres list:
 ISph  on   Nord     Re0    Alpha      Xe            Ye            Ze
    1   C      1    1.5000  1.250     -3.021844      0.033196     -0.001356
    2   C      2    1.5000  1.250     -1.581483     -0.497543      0.001719
    3   C      3    1.5000  1.250     -0.568066      0.635423      0.001057
    4  Br      4    1.9500  1.250      1.295282     -0.050975     -0.000228
    5   H      5    1.2000  1.250     -3.221842      0.644409     -0.887635
    6   H      6    1.2000  1.250     -3.735349     -0.796015     -0.000667
    7   H      7    1.2000  1.250     -3.224072      0.647501      0.881920
    8   H      8    1.2000  1.250     -1.410598     -1.130511     -0.875337
    9   H      9    1.2000  1.250     -1.413084     -1.127121      0.881696
   10   H     10    1.2000  1.250     -0.649382      1.256172     -0.887944
   11   H     11    1.2000  1.250     -0.652177      1.263226      0.887413
 ------------------------------------------------------------------------------
 GePol: Number of generator spheres                  =      11
 GePol: Total number of spheres                      =      11
 GePol: Number of exposed spheres                    =      11 (100.00%)
 GePol: Number of points                             =     992
 GePol: Average weight of points                     =       0.15
 GePol: Minimum weight of points                     =   0.71D-08
 GePol: Maximum weight of points                     =    0.21416
 GePol: Number of points with low weight             =      31
 GePol: Fraction of low-weight points (<1% of avg)   =       3.13%
 GePol: Cavity surface area                          =    149.520 Ang**2
 GePol: Cavity volume                                =    130.794 Ang**3
 Warning! Using default X atom type for sphere   4 on atom   4 in MST parametrization.
 Surface areas from nonelectrostatic (unscaled) cavity and vdw tensions:
 Sphere =    1 Type =  CH3 Surf =        5.232 Tension =       -0.140
 Sphere =    2 Type =  CH2 Surf =        3.563 Tension =       -0.139
 Sphere =    3 Type =  CH2 Surf =        3.234 Tension =       -0.139
 Sphere =    4 Type =  X   Surf =       39.238 Tension =       -0.101
 Sphere =    5 Type =  CH3 Surf =       10.152 Tension =       -0.140
 Sphere =    6 Type =  CH3 Surf =       10.135 Tension =       -0.140
 Sphere =    7 Type =  CH3 Surf =       10.150 Tension =       -0.140
 Sphere =    8 Type =  CH2 Surf =        9.933 Tension =       -0.139
 Sphere =    9 Type =  CH2 Surf =        9.938 Tension =       -0.139
 Sphere =   10 Type =  CH2 Surf =        9.697 Tension =       -0.139
 Sphere =   11 Type =  CH2 Surf =        9.727 Tension =       -0.139
 PCM non-electrostatic energy =         0.0018140025 Hartrees.
 Nuclear repulsion after PCM non-electrostatic terms =      234.2885459793 Hartrees.
 Leave Link  301 at Tue Mar  1 17:06:46 2022, MaxMem=   104857600 cpu:               0.1 elap:               0.1
 (Enter /dades/curu/g16A03_MST/g16/l302.exe)
 NPDir=0 NMtPBC=     1 NCelOv=     1 NCel=       1 NClECP=     1 NCelD=      1
         NCelK=      1 NCelE2=     1 NClLst=     1 CellRange=     0.0.
 One-electron integrals computed using PRISM.
 One-electron integral symmetry used in STVInt
 NBasis=    89 RedAO= T EigKep=  7.53D-04  NBF=    89
 NBsUse=    89 1.00D-06 EigRej= -1.00D+00 NBFU=    89
 Precomputing XC quadrature grid using
 IXCGrd= 4 IRadAn=           5 IRanWt=          -1 IRanGd=           0 AccXCQ= 0.00D+00.
 Generated NRdTot=       0 NPtTot=           0 NUsed=           0 NTot=          32
 NSgBfM=    89    89    89    89    89 MxSgAt=    11 MxSgA2=    11.
 Leave Link  302 at Tue Mar  1 17:06:46 2022, MaxMem=   104857600 cpu:               0.5 elap:               0.3
 (Enter /dades/curu/g16A03_MST/g16/l303.exe)
 DipDrv:  MaxL=1.
 Leave Link  303 at Tue Mar  1 17:06:46 2022, MaxMem=   104857600 cpu:               0.0 elap:               0.0
 (Enter /dades/curu/g16A03_MST/g16/l401.exe)
 Initial guess from the checkpoint file:  "123.n.pdb.xyz.mst.wat.chk"
 B after Tr=    -0.000000    0.000000   -0.000000
         Rot=    1.000000    0.000852    0.000037   -0.000247 Ang=   0.10 deg.
 Guess basis will be translated and rotated to current coordinates.
 JPrj=2 DoOrth=T DoCkMO=T.
 Generating alternative initial guess.
 ExpMin= 1.43D-01 ExpMax= 5.74D+05 ExpMxC= 5.74D+03 IAcc=2 IRadAn=         4 AccDes= 0.00D+00
 Harris functional with IExCor=  402 and IRadAn=       4 diagonalized for initial guess.
 HarFok:  IExCor=  402 AccDes= 0.00D+00 IRadAn=         4 IDoV= 1 UseB2=F ITyADJ=14
 ICtDFT=  3500011 ScaDFX=  1.000000  1.000000  1.000000  1.000000
 FoFCou: FMM=F IPFlag=           0 FMFlag=      100000 FMFlg1=           0
         NFxFlg=           0 DoJE=T BraDBF=F KetDBF=T FulRan=T
         wScrn=  0.000000 ICntrl=       500 IOpCl=  0 I1Cent=   200000004 NGrid=           0
         NMat0=    1 NMatS0=      1 NMatT0=    0 NMatD0=    1 NMtDS0=    0 NMtDT0=    0
 Petite list used in FoFCou.
 Harris En= -2690.39166839960    
 Leave Link  401 at Tue Mar  1 17:06:47 2022, MaxMem=   104857600 cpu:               1.6 elap:               0.9
 (Enter /dades/curu/g16A03_MST/g16/l502.exe)
 Keep R1 ints in memory in canonical form, NReq=11674747.
 FoFCou: FMM=F IPFlag=           0 FMFlag=           0 FMFlg1=           0
         NFxFlg=           0 DoJE=F BraDBF=F KetDBF=F FulRan=T
         wScrn=  0.000000 ICntrl=       600 IOpCl=  0 I1Cent=           0 NGrid=           0
         NMat0=    1 NMatS0=   4005 NMatT0=    0 NMatD0=    1 NMtDS0=    0 NMtDT0=    0
 Symmetry not used in FoFCou.
 Two-electron integral symmetry not used.
 Closed shell SCF:
 Using DIIS extrapolation, IDIIS=  1040.
 NGot=   104857600 LenX=    96818035 LenY=    96809673
 Requested convergence on RMS density matrix=1.00D-08 within2000 cycles.
 Requested convergence on MAX density matrix=1.00D-06.
 Requested convergence on             energy=1.00D-06.
 No special actions if energy rises.

 Cycle   1  Pass 1  IDiag  1:
 Inv3:  Mode=1 IEnd=     2952192.
 Iteration    1 A*A^-1 deviation from unit magnitude is 2.89D-15 for    987.
 Iteration    1 A*A^-1 deviation from orthogonality  is 1.99D-15 for    508     57.
 Iteration    1 A^-1*A deviation from unit magnitude is 2.89D-15 for    987.
 Iteration    1 A^-1*A deviation from orthogonality  is 1.46D-15 for    516    158.
 E= -2690.24990216263    
 DIIS: error= 4.64D-03 at cycle   1 NSaved=   1.
 NSaved= 1 IEnMin= 1 EnMin= -2690.24990216263     IErMin= 1 ErrMin= 4.64D-03
 ErrMax= 4.64D-03  0.00D+00 EMaxC= 1.00D-01 BMatC= 2.11D-03 BMatP= 2.11D-03
 IDIUse=3 WtCom= 9.54D-01 WtEn= 4.64D-02
 Coeff-Com:  0.100D+01
 Coeff-En:   0.100D+01
 Coeff:      0.100D+01
 Gap=     1.862 Goal=   None    Shift=    0.000
 GapD=    1.862 DampG=2.000 DampE=1.000 DampFc=2.0000 IDamp=-1.
 RMSDP=3.86D-04 MaxDP=5.40D-03              OVMax= 9.92D-03

 Cycle   2  Pass 1  IDiag  1:
 E= -2690.25037727316     Delta-E=       -0.000475110528 Rises=F Damp=F
 DIIS: error= 3.01D-04 at cycle   2 NSaved=   2.
 NSaved= 2 IEnMin= 2 EnMin= -2690.25037727316     IErMin= 2 ErrMin= 3.01D-04
 ErrMax= 3.01D-04  0.00D+00 EMaxC= 1.00D-01 BMatC= 1.52D-05 BMatP= 2.11D-03
 IDIUse=3 WtCom= 9.97D-01 WtEn= 3.01D-03
 Coeff-Com:  0.811D-02 0.992D+00
 Coeff-En:   0.000D+00 0.100D+01
 Coeff:      0.808D-02 0.992D+00
 Gap=     0.277 Goal=   None    Shift=    0.000
 RMSDP=9.94D-05 MaxDP=1.83D-03 DE=-4.75D-04 OVMax= 2.15D-03

 Cycle   3  Pass 1  IDiag  1:
 E= -2690.25037185834     Delta-E=        0.000005414813 Rises=F Damp=F
 DIIS: error= 4.85D-04 at cycle   3 NSaved=   3.
 NSaved= 3 IEnMin= 2 EnMin= -2690.25037727316     IErMin= 2 ErrMin= 3.01D-04
 ErrMax= 4.85D-04  0.00D+00 EMaxC= 1.00D-01 BMatC= 2.15D-05 BMatP= 1.52D-05
 IDIUse=3 WtCom= 3.12D-01 WtEn= 6.88D-01
 Coeff-Com: -0.171D-02 0.546D+00 0.455D+00
 Coeff-En:   0.000D+00 0.568D+00 0.432D+00
 Coeff:     -0.534D-03 0.561D+00 0.439D+00
 Gap=     0.278 Goal=   None    Shift=    0.000
 RMSDP=5.45D-05 MaxDP=1.08D-03 DE= 5.41D-06 OVMax= 1.69D-03

 Cycle   4  Pass 1  IDiag  1:
 E= -2690.25039497035     Delta-E=       -0.000023112003 Rises=F Damp=F
 DIIS: error= 5.11D-05 at cycle   4 NSaved=   4.
 NSaved= 4 IEnMin= 4 EnMin= -2690.25039497035     IErMin= 4 ErrMin= 5.11D-05
 ErrMax= 5.11D-05  0.00D+00 EMaxC= 1.00D-01 BMatC= 2.46D-07 BMatP= 1.52D-05
 IDIUse=1 WtCom= 1.00D+00 WtEn= 0.00D+00
 Coeff-Com: -0.112D-02 0.102D+00 0.136D+00 0.763D+00
 Coeff:     -0.112D-02 0.102D+00 0.136D+00 0.763D+00
 Gap=     0.278 Goal=   None    Shift=    0.000
 RMSDP=6.91D-06 MaxDP=1.05D-04 DE=-2.31D-05 OVMax= 1.66D-04

 Cycle   5  Pass 1  IDiag  1:
 E= -2690.25039522704     Delta-E=       -0.000000256694 Rises=F Damp=F
 DIIS: error= 1.21D-05 at cycle   5 NSaved=   5.
 NSaved= 5 IEnMin= 5 EnMin= -2690.25039522704     IErMin= 5 ErrMin= 1.21D-05
 ErrMax= 1.21D-05  0.00D+00 EMaxC= 1.00D-01 BMatC= 1.90D-08 BMatP= 2.46D-07
 IDIUse=1 WtCom= 1.00D+00 WtEn= 0.00D+00
 Coeff-Com: -0.296D-03 0.658D-02 0.265D-01 0.254D+00 0.713D+00
 Coeff:     -0.296D-03 0.658D-02 0.265D-01 0.254D+00 0.713D+00
 Gap=     0.278 Goal=   None    Shift=    0.000
 RMSDP=1.99D-06 MaxDP=4.00D-05 DE=-2.57D-07 OVMax= 4.17D-05

 Cycle   6  Pass 1  IDiag  1:
 E= -2690.25039524481     Delta-E=       -0.000000017768 Rises=F Damp=F
 DIIS: error= 5.99D-06 at cycle   6 NSaved=   6.
 NSaved= 6 IEnMin= 6 EnMin= -2690.25039524481     IErMin= 6 ErrMin= 5.99D-06
 ErrMax= 5.99D-06  0.00D+00 EMaxC= 1.00D-01 BMatC= 3.23D-09 BMatP= 1.90D-08
 IDIUse=1 WtCom= 1.00D+00 WtEn= 0.00D+00
 Coeff-Com:  0.397D-05-0.996D-02-0.433D-02 0.236D-01 0.321D+00 0.670D+00
 Coeff:      0.397D-05-0.996D-02-0.433D-02 0.236D-01 0.321D+00 0.670D+00
 Gap=     0.278 Goal=   None    Shift=    0.000
 RMSDP=6.74D-07 MaxDP=1.54D-05 DE=-1.78D-08 OVMax= 1.43D-05

 Cycle   7  Pass 1  IDiag  1:
 E= -2690.25039524801     Delta-E=       -0.000000003201 Rises=F Damp=F
 DIIS: error= 5.49D-07 at cycle   7 NSaved=   7.
 NSaved= 7 IEnMin= 7 EnMin= -2690.25039524801     IErMin= 7 ErrMin= 5.49D-07
 ErrMax= 5.49D-07  0.00D+00 EMaxC= 1.00D-01 BMatC= 7.53D-11 BMatP= 3.23D-09
 IDIUse=1 WtCom= 1.00D+00 WtEn= 0.00D+00
 Coeff-Com:  0.112D-04-0.343D-02-0.223D-02 0.864D-03 0.858D-01 0.236D+00
 Coeff-Com:  0.683D+00
 Coeff:      0.112D-04-0.343D-02-0.223D-02 0.864D-03 0.858D-01 0.236D+00
 Coeff:      0.683D+00
 Gap=     0.278 Goal=   None    Shift=    0.000
 RMSDP=1.36D-07 MaxDP=1.96D-06 DE=-3.20D-09 OVMax= 4.20D-06

 Cycle   8  Pass 1  IDiag  1:
 E= -2690.25039524806     Delta-E=       -0.000000000050 Rises=F Damp=F
 DIIS: error= 1.11D-07 at cycle   8 NSaved=   8.
 NSaved= 8 IEnMin= 8 EnMin= -2690.25039524806     IErMin= 8 ErrMin= 1.11D-07
 ErrMax= 1.11D-07  0.00D+00 EMaxC= 1.00D-01 BMatC= 1.59D-12 BMatP= 7.53D-11
 IDIUse=1 WtCom= 1.00D+00 WtEn= 0.00D+00
 Coeff-Com:  0.225D-05-0.250D-03-0.253D-03-0.105D-02 0.249D-02 0.178D-01
 Coeff-Com:  0.140D+00 0.841D+00
 Coeff:      0.225D-05-0.250D-03-0.253D-03-0.105D-02 0.249D-02 0.178D-01
 Coeff:      0.140D+00 0.841D+00
 Gap=     0.278 Goal=   None    Shift=    0.000
 RMSDP=2.72D-08 MaxDP=5.24D-07 DE=-5.05D-11 OVMax= 7.26D-07

 Cycle   9  Pass 1  IDiag  1:
 E= -2690.25039524811     Delta-E=       -0.000000000049 Rises=F Damp=F
 DIIS: error= 3.02D-08 at cycle   9 NSaved=   9.
 NSaved= 9 IEnMin= 9 EnMin= -2690.25039524811     IErMin= 9 ErrMin= 3.02D-08
 ErrMax= 3.02D-08  0.00D+00 EMaxC= 1.00D-01 BMatC= 1.42D-13 BMatP= 1.59D-12
 IDIUse=1 WtCom= 1.00D+00 WtEn= 0.00D+00
 Coeff-Com:  0.165D-06 0.958D-04 0.349D-04-0.429D-03-0.392D-02-0.747D-02
 Coeff-Com:  0.872D-02 0.258D+00 0.745D+00
 Coeff:      0.165D-06 0.958D-04 0.349D-04-0.429D-03-0.392D-02-0.747D-02
 Coeff:      0.872D-02 0.258D+00 0.745D+00
 Gap=     0.278 Goal=   None    Shift=    0.000
 RMSDP=8.63D-09 MaxDP=1.77D-07 DE=-4.87D-11 OVMax= 1.83D-07

 Error on total polarization charges =  0.00984
 SCF Done:  E(RB3LYP) =  -2690.25039525     A.U. after    9 cycles
            NFock=  9  Conv=0.86D-08     -V/T= 2.0063
 KE= 2.673373362076D+03 PE=-6.876406288568D+03 EE= 1.278493985265D+03
 Leave Link  502 at Tue Mar  1 17:07:03 2022, MaxMem=   104857600 cpu:              45.7 elap:              15.9
 (Enter /dades/curu/g16A03_MST/g16/l701.exe)
 ... and contract with generalized density number  0.
 Compute integral first derivatives.
 D1PCM: PCM CHGder 1st derivatives, ID1Alg=3 FixD1E=F DoIter=F DoCFld=F I1PDM=0.
 GePol: Maximum number of non-zero 1st derivatives   =     367
 Warning! Using default X atom type for sphere   4 on atom   4 in MST parametrization.
 Leave Link  701 at Tue Mar  1 17:07:04 2022, MaxMem=   104857600 cpu:               2.6 elap:               1.3
 (Enter /dades/curu/g16A03_MST/g16/l702.exe)
 L702 exits ... SP integral derivatives will be done elsewhere.
 Leave Link  702 at Tue Mar  1 17:07:04 2022, MaxMem=   104857600 cpu:               0.0 elap:               0.0
 (Enter /dades/curu/g16A03_MST/g16/l703.exe)
 Integral derivatives from FoFJK, PRISM(SPDF).
 Compute integral first derivatives, UseDBF=F ICtDFT=           0.
 Calling FoFJK, ICntrl=      2127 FMM=F ISym2X=0 I1Cent= 0 IOpClX= 0 NMat=1 NMatS=1 NMatT=0.
 FoFJK:  IHMeth= 1 ICntrl=    2127 DoSepK=F KAlg= 0 I1Cent=           0 FoldK=F
 IRaf=         0 NMat=       1 IRICut=       1 DoRegI=T DoRafI=F ISym2E= 0 IDoP0=0 IntGTp=1.
 FoFCou: FMM=F IPFlag=           0 FMFlag=      100000 FMFlg1=         800
         NFxFlg=           0 DoJE=F BraDBF=F KetDBF=F FulRan=T
         wScrn=  0.000000 ICntrl=      2127 IOpCl=  0 I1Cent=           0 NGrid=           0
         NMat0=    1 NMatS0=      1 NMatT0=    0 NMatD0=    1 NMtDS0=    0 NMtDT0=    0
 Symmetry not used in FoFCou.
 Leave Link  703 at Tue Mar  1 17:07:08 2022, MaxMem=   104857600 cpu:               8.5 elap:               4.3
 (Enter /dades/curu/g16A03_MST/g16/l716.exe)
 Dipole        =-1.08682294D+00 2.84640787D-01-4.71935002D-04
 ***** Axes restored to original set *****
 -------------------------------------------------------------------
 Center     Atomic                   Forces (Hartrees/Bohr)
 Number     Number              X              Y              Z
 -------------------------------------------------------------------
      1        6           0.000774739    0.000062146   -0.000704563
      2        6           0.001120786    0.000481857    0.001690766
      3        6          -0.005725810   -0.001344322   -0.001963289
      4       35          -0.000355099   -0.000133990   -0.000268751
      5        1           0.000379997    0.000139888    0.000154000
      6        1           0.000440060    0.000118889    0.000317353
      7        1           0.000379822    0.000063969    0.000140610
      8        1          -0.000354019   -0.000161412   -0.000201185
      9        1          -0.000424995   -0.000057192   -0.000185508
     10        1           0.001999095    0.000094427    0.000547967
     11        1           0.001765423    0.000735741    0.000472600
 -------------------------------------------------------------------
 Cartesian Forces:  Max     0.005725810 RMS     0.001271742
 Leave Link  716 at Tue Mar  1 17:07:09 2022, MaxMem=   104857600 cpu:               0.0 elap:               0.0
 (Enter /dades/curu/g16A03_MST/g16/l103.exe)

 GradGradGradGradGradGradGradGradGradGradGradGradGradGradGradGradGradGrad
 Berny optimization.
 Using GEDIIS/GDIIS optimizer.
 FormGI is forming the generalized inverse of G from B-inverse, IUseBI=4.
 Internal  Forces:  Max     0.001843154 RMS     0.000712117
 Search for a local minimum.
 Step number   2 out of a maximum of  100
 All quantities printed in internal units (Hartrees-Bohrs-Radians)
 RMS Force = .71212D-03 SwitMx=.10000D-02 MixMth= 2
 Mixed Optimization -- En-DIIS/RFO-DIIS
 Update second derivatives using D2CorX and points    1    2
 DE= -1.00D-03 DEPred=-1.00D-03 R= 1.00D+00
 TightC=F SS=  1.41D+00  RLast= 1.08D-01 DXNew= 1.6818D-01 3.2505D-01
 Trust test= 1.00D+00 RLast= 1.08D-01 DXMaxT set to 1.68D-01
 ITU=  1  0
 Use linear search instead of GDIIS.
     Eigenvalues ---    0.00502   0.00530   0.03750   0.04964   0.05428
     Eigenvalues ---    0.05531   0.05596   0.05647   0.08518   0.12112
     Eigenvalues ---    0.14580   0.16000   0.16000   0.16000   0.16010
     Eigenvalues ---    0.17469   0.21663   0.23449   0.30523   0.32619
     Eigenvalues ---    0.33932   0.34070   0.34199   0.34236   0.34326
     Eigenvalues ---    0.34371   0.34500
 RFO step:  Lambda=-1.78071586D-04 EMin= 5.01860399D-03
 Quartic linear search produced a step of -0.05252.
 Iteration  1 RMS(Cart)=  0.00461828 RMS(Int)=  0.00007795
 Iteration  2 RMS(Cart)=  0.00006125 RMS(Int)=  0.00006133
 Iteration  3 RMS(Cart)=  0.00000000 RMS(Int)=  0.00006133
 ITry= 1 IFail=0 DXMaxC= 1.78D-02 DCOld= 1.00D+10 DXMaxT= 1.68D-01 DXLimC= 3.00D+00 Rises=F
 Variable       Old X    -DE/DX   Delta X   Delta X   Delta X     New X
                                 (Linear)    (Quad)   (Total)
    R1        2.90080  -0.00180  -0.00150  -0.00127  -0.00276   2.89803
    R2        2.06929  -0.00019   0.00002  -0.00058  -0.00056   2.06873
    R3        2.06723  -0.00009   0.00003  -0.00032  -0.00030   2.06693
    R4        2.06875  -0.00016   0.00002  -0.00050  -0.00048   2.06827
    R5        2.87252  -0.00084  -0.00022  -0.00197  -0.00219   2.87033
    R6        2.06930  -0.00011   0.00014  -0.00071  -0.00058   2.06872
    R7        2.06930  -0.00012   0.00025  -0.00108  -0.00082   2.06848
    R8        3.75253  -0.00045  -0.00384   0.00916   0.00532   3.75784
    R9        2.05474  -0.00010   0.00060  -0.00200  -0.00140   2.05334
   R10        2.05871  -0.00010   0.00045  -0.00159  -0.00114   2.05757
    A1        1.94549  -0.00035  -0.00047  -0.00059  -0.00105   1.94444
    A2        1.92829  -0.00061  -0.00019  -0.00307  -0.00327   1.92502
    A3        1.94522  -0.00033  -0.00041  -0.00063  -0.00104   1.94418
    A4        1.88019   0.00049   0.00034   0.00181   0.00214   1.88234
    A5        1.88187   0.00037   0.00047   0.00086   0.00134   1.88320
    A6        1.88006   0.00049   0.00032   0.00187   0.00218   1.88225
    A7        1.94751  -0.00184  -0.00033  -0.00833  -0.00867   1.93884
    A8        1.92270   0.00032  -0.00098   0.00252   0.00154   1.92423
    A9        1.92271   0.00028  -0.00101   0.00254   0.00152   1.92424
   A10        1.90334   0.00071   0.00111  -0.00018   0.00094   1.90428
   A11        1.90323   0.00077   0.00114   0.00043   0.00158   1.90481
   A12        1.86222  -0.00015   0.00008   0.00350   0.00362   1.86583
   A13        1.94761  -0.00078  -0.00165  -0.00293  -0.00453   1.94308
   A14        1.95628   0.00158  -0.00007   0.01214   0.01192   1.96820
   A15        1.95810   0.00147  -0.00015   0.01195   0.01166   1.96976
   A16        1.84106  -0.00113   0.00103  -0.01718  -0.01611   1.82495
   A17        1.84644  -0.00103   0.00071  -0.01514  -0.01438   1.83206
   A18        1.90757  -0.00041   0.00023   0.00810   0.00804   1.91561
    D1        1.05177  -0.00001  -0.00000  -0.00011  -0.00012   1.05165
    D2       -1.06499   0.00011  -0.00053   0.00396   0.00343  -1.06156
    D3       -3.11477  -0.00007   0.00053  -0.00339  -0.00287  -3.11764
    D4       -3.14143  -0.00002  -0.00001  -0.00027  -0.00028   3.14147
    D5        1.02499   0.00010  -0.00054   0.00380   0.00326   1.02825
    D6       -1.02479  -0.00008   0.00052  -0.00355  -0.00303  -1.02783
    D7       -1.05180  -0.00002  -0.00001  -0.00038  -0.00039  -1.05218
    D8        3.11463   0.00009  -0.00053   0.00369   0.00316   3.11779
    D9        1.06485  -0.00009   0.00052  -0.00366  -0.00314   1.06171
   D10       -3.13874   0.00001  -0.00017   0.00079   0.00062  -3.13813
   D11       -1.07815  -0.00090  -0.00001  -0.01488  -0.01498  -1.09312
   D12        1.07580   0.00087   0.00013   0.01400   0.01421   1.09001
   D13       -1.01077  -0.00031  -0.00086  -0.00160  -0.00245  -1.01322
   D14        1.04982  -0.00122  -0.00071  -0.01727  -0.01805   1.03178
   D15       -3.07941   0.00055  -0.00056   0.01161   0.01114  -3.06828
   D16        1.01652   0.00034   0.00055   0.00273   0.00327   1.01980
   D17        3.07712  -0.00057   0.00071  -0.01294  -0.01232   3.06480
   D18       -1.05212   0.00120   0.00085   0.01594   0.01686  -1.03526
         Item               Value     Threshold  Converged?
 Maximum Force            0.001843     0.000450     NO 
 RMS     Force            0.000712     0.000300     NO 
 Maximum Displacement     0.017844     0.001800     NO 
 RMS     Displacement     0.004614     0.001200     NO 
 Predicted change in Energy=-9.197949D-05
 Lowest energy point so far.  Saving SCF results.
 GradGradGradGradGradGradGradGradGradGradGradGradGradGradGradGradGradGrad

 Leave Link  103 at Tue Mar  1 17:07:09 2022, MaxMem=   104857600 cpu:               0.1 elap:               0.0
 (Enter /dades/curu/g16A03_MST/g16/l202.exe)
                          Input orientation:                          
 ---------------------------------------------------------------------
 Center     Atomic      Atomic             Coordinates (Angstroms)
 Number     Number       Type             X           Y           Z
 ---------------------------------------------------------------------
      1          6           0       -1.342912   -0.263460   -0.036202
      2          6           0        0.021143    0.069855    0.580325
      3          6           0        1.096950    0.158246   -0.488285
      4         35           0        2.870397    0.583995    0.304188
      5          1           0       -1.320701   -1.224694   -0.559607
      6          1           0       -2.107223   -0.324048    0.743859
      7          1           0       -1.655063    0.502641   -0.752820
      8          1           0        0.303770   -0.694822    1.310943
      9          1           0       -0.028832    1.021526    1.118802
     10          1           0        1.249648   -0.782514   -1.010115
     11          1           0        0.912822    0.953274   -1.209088
 ---------------------------------------------------------------------
                    Distance matrix (angstroms):
                    1          2          3          4          5
     1  C    0.000000
     2  C    1.533574   0.000000
     3  C    2.516970   1.518915   0.000000
     4  Br   4.311150   2.908409   1.988565   0.000000
     5  H    1.094722   2.185371   2.786152   4.645729   0.000000
     6  H    1.093773   2.170678   3.466628   5.078833   1.768843
     7  H    1.094481   2.185004   2.786066   4.647975   1.769976
     8  H    2.170814   1.094720   2.143381   3.039161   2.533501
     9  H    2.170721   1.094593   2.143681   3.043117   3.087311
    10  H    2.817675   2.182947   1.086578   2.494307   2.646729
    11  H    2.818588   2.185754   1.088820   2.501693   3.186533
                    6          7          8          9         10
     6  H    0.000000
     7  H    1.768590   0.000000
     8  H    2.504385   3.087080   0.000000
     9  H    2.504168   2.533147   1.758805   0.000000
    10  H    3.815128   3.186718   2.507924   3.069424   0.000000
    11  H    3.816572   2.646750   3.072087   2.512059   1.779326
                   11
    11  H    0.000000
 Stoichiometry    C3H7Br
 Framework group  C1[X(C3H7Br)]
 Deg. of freedom    27
 Full point group                 C1      NOp   1
 RotChk:  IX=2 Diff= 2.01D-03
 Largest Abelian subgroup         C1      NOp   1
 Largest concise Abelian subgroup C1      NOp   1
                         Standard orientation:                         
 ---------------------------------------------------------------------
 Center     Atomic      Atomic             Coordinates (Angstroms)
 Number     Number       Type             X           Y           Z
 ---------------------------------------------------------------------
      1          6           0       -3.016769    0.035002   -0.001648
      2          6           0       -1.579861   -0.500843    0.002087
      3          6           0       -0.572624    0.636071    0.001324
      4         35           0        1.293526   -0.050860   -0.000268
      5          1           0       -3.212919    0.646427   -0.888271
      6          1           0       -3.730699   -0.793637   -0.001185
      7          1           0       -3.215901    0.649765    0.881699
      8          1           0       -1.408530   -1.131958   -0.875837
      9          1           0       -1.411862   -1.128514    0.882961
     10          1           0       -0.636936    1.254279   -0.889931
     11          1           0       -0.641028    1.262346    0.889373
 ---------------------------------------------------------------------
 Rotational constants (GHZ):          25.2044919           1.6086886           1.5562519
 Leave Link  202 at Tue Mar  1 17:07:09 2022, MaxMem=   104857600 cpu:               0.0 elap:               0.0
 (Enter /dades/curu/g16A03_MST/g16/l301.exe)
 Standard basis: 6-31G(d) (6D, 7F)
 Ernie: Thresh=  0.10000D-02 Tol=  0.10000D-05 Strict=F.
 There are    89 symmetry adapted cartesian basis functions of A   symmetry.
 There are    89 symmetry adapted basis functions of A   symmetry.
    89 basis functions,   195 primitive gaussians,    89 cartesian basis functions
    30 alpha electrons       30 beta electrons
       nuclear repulsion energy       234.4391921563 Hartrees.
 IExCor=  402 DFT=T Ex+Corr=B3LYP ExCW=0 ScaHFX=  0.200000
 ScaDFX=  0.800000  0.720000  1.000000  0.810000 ScalE2=  1.000000  1.000000
 IRadAn=      5 IRanWt=     -1 IRanGd=            0 ICorTp=0 IEmpDi=  4
 NAtoms=   11 NActive=   11 NUniq=   11 SFac= 1.00D+00 NAtFMM=   60 NAOKFM=F Big=F
 Integral buffers will be    131072 words long.
 Raffenetti 2 integral format.
 Two-electron integral symmetry is turned on.
 ------------------------------------------------------------------------------
 Polarizable Continuum Model (PCM)
 =================================
 Model                : PCM.
 Atomic radii         : MST.
 Polarization charges : Total charges.
 Charge compensation  : None.
 Solution method      : On-the-fly selection.
 Cavity type          : Scaled VdW (van der Waals Surface) (Alpha=1.250).
 Cavity algorithm     : GePol (No added spheres)
                        Default sphere list used, NSphG=   11.
                        Lebedev-Laikov grids with approx.  5.0 points / Ang**2.
                        Smoothing algorithm: York/Karplus (Gamma=1.0000).
                        Polarization charges: spherical gaussians, with
                                              point-specific exponents (IZeta= 3).
                        Self-potential: point-specific (ISelfS= 7).
                        Self-field    : sphere-specific E.n sum rule (ISelfD= 2).
 1st derivatives      : Analytical E(r).r(x)/FMM algorithm (CHGder, D1EAlg=3).
                        Cavity 1st derivative terms included.
 Solvent              : Water, Eps=  78.355300 Eps(inf)=   1.777849
[...]
 GePol: Fraction of small tesserae (<1% of avg)      =       0.62%
 GePol: Total count of vertices                      =    3901
 GePol: Maximum number of vertices in a tessera      =       8
 GePol: Cavity surface area                          =    145.455 Ang**2
 GePol: Cavity volume                                =    133.123 Ang**3
 Warning! Using default X atom type for sphere   4 on atom   4 in MST parametrization.
 Surface areas from nonelectrostatic (unscaled) cavity and vdw tensions:
 Sphere =    1 Type =  CH3 Surf =        4.670 Tension =       -0.140
 Sphere =    2 Type =  CH2 Surf =        3.108 Tension =       -0.139
 Sphere =    3 Type =  CH2 Surf =        2.923 Tension =       -0.139
 Sphere =    4 Type =  X   Surf =       39.415 Tension =       -0.101
 Sphere =    5 Type =  CH3 Surf =       10.383 Tension =       -0.140
 Sphere =    6 Type =  CH3 Surf =       10.369 Tension =       -0.140
 Sphere =    7 Type =  CH3 Surf =       10.383 Tension =       -0.140
 Sphere =    8 Type =  CH2 Surf =       10.220 Tension =       -0.139
 Sphere =    9 Type =  CH2 Surf =       10.227 Tension =       -0.139
 Sphere =   10 Type =  CH2 Surf =        9.840 Tension =       -0.139
 Sphere =   11 Type =  CH2 Surf =        9.883 Tension =       -0.139
 PCM non-electrostatic energy =         0.0018547124 Hartrees.
 Nuclear repulsion after PCM non-electrostatic terms =      234.3983246499 Hartrees.
 Leave Link  301 at Tue Mar  1 17:09:29 2022, MaxMem=   104857600 cpu:               0.1 elap:               0.1
 (Enter /dades/curu/g16A03_MST/g16/l302.exe)
 NPDir=0 NMtPBC=     1 NCelOv=     1 NCel=       1 NClECP=     1 NCelD=      1
         NCelK=      1 NCelE2=     1 NClLst=     1 CellRange=     0.0.
 One-electron integrals computed using PRISM.
 One-electron integral symmetry used in STVInt
 NBasis=    89 RedAO= T EigKep=  7.53D-04  NBF=    89
 NBsUse=    89 1.00D-06 EigRej= -1.00D+00 NBFU=    89
 Precomputing XC quadrature grid using
 IXCGrd= 4 IRadAn=           5 IRanWt=          -1 IRanGd=           0 AccXCQ= 0.00D+00.
 Generated NRdTot=       0 NPtTot=           0 NUsed=           0 NTot=          32
 NSgBfM=    89    89    89    89    89 MxSgAt=    11 MxSgA2=    11.
 Leave Link  302 at Tue Mar  1 17:09:29 2022, MaxMem=   104857600 cpu:               0.6 elap:               0.3
 (Enter /dades/curu/g16A03_MST/g16/l303.exe)
 DipDrv:  MaxL=1.
 Leave Link  303 at Tue Mar  1 17:09:29 2022, MaxMem=   104857600 cpu:               0.0 elap:               0.0
 (Enter /dades/curu/g16A03_MST/g16/l401.exe)
 Initial guess from the checkpoint file:  "123.n.pdb.xyz.mst.wat.chk"
 B after Tr=    -0.000000    0.000000    0.000000
         Rot=    1.000000   -0.000000   -0.000000   -0.000000 Ang=   0.00 deg.
 Guess basis will be translated and rotated to current coordinates.
 JPrj=2 DoOrth=T DoCkMO=T.
 Leave Link  401 at Tue Mar  1 17:09:29 2022, MaxMem=   104857600 cpu:               0.1 elap:               0.1
 (Enter /dades/curu/g16A03_MST/g16/l502.exe)
 Keep R1 ints in memory in canonical form, NReq=11674747.
 FoFCou: FMM=F IPFlag=           0 FMFlag=           0 FMFlg1=           0
         NFxFlg=           0 DoJE=F BraDBF=F KetDBF=F FulRan=T
         wScrn=  0.000000 ICntrl=       600 IOpCl=  0 I1Cent=           0 NGrid=           0
         NMat0=    1 NMatS0=   4005 NMatT0=    0 NMatD0=    1 NMtDS0=    0 NMtDT0=    0
 Symmetry not used in FoFCou.
 Two-electron integral symmetry not used.
 Closed shell SCF:
 Using DIIS extrapolation, IDIIS=  1040.
 NGot=   104857600 LenX=    96818035 LenY=    96809673
 Requested convergence on RMS density matrix=1.00D-08 within 128 cycles.
 Requested convergence on MAX density matrix=1.00D-06.
 Requested convergence on             energy=1.00D-06.
 No special actions if energy rises.

 Cycle   1  Pass 1  IDiag  1:
 Inv3:  Mode=1 IEnd=     3864675.
 Iteration    1 A*A^-1 deviation from unit magnitude is 5.11D-15 for    607.
 Iteration    1 A*A^-1 deviation from orthogonality  is 1.86D-15 for   1123   1099.
 Iteration    1 A^-1*A deviation from unit magnitude is 4.88D-15 for   1120.
 Iteration    1 A^-1*A deviation from orthogonality  is 2.44D-15 for   1135   1114.
 E= -2690.24984892667    
 DIIS: error= 1.35D-03 at cycle   1 NSaved=   1.
 NSaved= 1 IEnMin= 1 EnMin= -2690.24984892667     IErMin= 1 ErrMin= 1.35D-03
 ErrMax= 1.35D-03  0.00D+00 EMaxC= 1.00D-01 BMatC= 1.26D-04 BMatP= 1.26D-04
 IDIUse=3 WtCom= 9.86D-01 WtEn= 1.35D-02
 Coeff-Com:  0.100D+01
 Coeff-En:   0.100D+01
 Coeff:      0.100D+01
 Gap=     0.278 Goal=   None    Shift=    0.000
 GapD=    0.278 DampG=1.000 DampE=1.000 DampFc=1.0000 IDamp=-1.
 RMSDP=6.21D-04 MaxDP=8.18D-03              OVMax= 1.60D-02

 Cycle   2  Pass 1  IDiag  1:
 E= -2690.25018026188     Delta-E=       -0.000331335204 Rises=F Damp=F
 DIIS: error= 6.76D-04 at cycle   2 NSaved=   2.
 NSaved= 2 IEnMin= 2 EnMin= -2690.25018026188     IErMin= 2 ErrMin= 6.76D-04
 ErrMax= 6.76D-04  0.00D+00 EMaxC= 1.00D-01 BMatC= 7.84D-05 BMatP= 1.26D-04
 IDIUse=3 WtCom= 9.93D-01 WtEn= 6.76D-03
 Coeff-Com:  0.415D+00 0.585D+00
 Coeff-En:   0.000D+00 0.100D+01
 Coeff:      0.412D+00 0.588D+00
 Gap=     0.275 Goal=   None    Shift=    0.000
 RMSDP=1.92D-04 MaxDP=4.76D-03 DE=-3.31D-04 OVMax= 4.69D-03

 Cycle   3  Pass 1  IDiag  1:
 E= -2690.25026210223     Delta-E=       -0.000081840357 Rises=F Damp=F
 DIIS: error= 4.14D-04 at cycle   3 NSaved=   3.
 NSaved= 3 IEnMin= 3 EnMin= -2690.25026210223     IErMin= 3 ErrMin= 4.14D-04
 ErrMax= 4.14D-04  0.00D+00 EMaxC= 1.00D-01 BMatC= 1.62D-05 BMatP= 7.84D-05
 IDIUse=3 WtCom= 9.96D-01 WtEn= 4.14D-03
 Coeff-Com:  0.556D-01 0.295D+00 0.650D+00
 Coeff-En:   0.000D+00 0.984D-01 0.902D+00
 Coeff:      0.554D-01 0.294D+00 0.651D+00
 Gap=     0.276 Goal=   None    Shift=    0.000
 RMSDP=5.10D-05 MaxDP=1.12D-03 DE=-8.18D-05 OVMax= 1.70D-03

 Cycle   4  Pass 1  IDiag  1:
 E= -2690.25027833244     Delta-E=       -0.000016230205 Rises=F Damp=F
 DIIS: error= 1.09D-04 at cycle   4 NSaved=   4.
 NSaved= 4 IEnMin= 4 EnMin= -2690.25027833244     IErMin= 4 ErrMin= 1.09D-04
 ErrMax= 1.09D-04  0.00D+00 EMaxC= 1.00D-01 BMatC= 8.68D-07 BMatP= 1.62D-05
 IDIUse=3 WtCom= 9.99D-01 WtEn= 1.09D-03
 Coeff-Com: -0.103D-01 0.522D-01 0.226D+00 0.732D+00
 Coeff-En:   0.000D+00 0.000D+00 0.000D+00 0.100D+01
 Coeff:     -0.102D-01 0.521D-01 0.226D+00 0.732D+00
 Gap=     0.276 Goal=   None    Shift=    0.000
 RMSDP=1.36D-05 MaxDP=3.09D-04 DE=-1.62D-05 OVMax= 2.46D-04

 Cycle   5  Pass 1  IDiag  1:
 E= -2690.25027918534     Delta-E=       -0.000000852902 Rises=F Damp=F
 DIIS: error= 2.01D-05 at cycle   5 NSaved=   5.
 NSaved= 5 IEnMin= 5 EnMin= -2690.25027918534     IErMin= 5 ErrMin= 2.01D-05
 ErrMax= 2.01D-05  0.00D+00 EMaxC= 1.00D-01 BMatC= 6.51D-08 BMatP= 8.68D-07
 IDIUse=1 WtCom= 1.00D+00 WtEn= 0.00D+00
 Coeff-Com: -0.595D-02 0.755D-02 0.509D-01 0.278D+00 0.670D+00
 Coeff:     -0.595D-02 0.755D-02 0.509D-01 0.278D+00 0.670D+00
 Gap=     0.276 Goal=   None    Shift=    0.000
 RMSDP=3.73D-06 MaxDP=6.33D-05 DE=-8.53D-07 OVMax= 6.63D-05

 Cycle   6  Pass 1  IDiag  1:
 E= -2690.25027924257     Delta-E=       -0.000000057227 Rises=F Damp=F
 DIIS: error= 8.56D-06 at cycle   6 NSaved=   6.
 NSaved= 6 IEnMin= 6 EnMin= -2690.25027924257     IErMin= 6 ErrMin= 8.56D-06
 ErrMax= 8.56D-06  0.00D+00 EMaxC= 1.00D-01 BMatC= 5.70D-09 BMatP= 6.51D-08
 IDIUse=1 WtCom= 1.00D+00 WtEn= 0.00D+00
 Coeff-Com: -0.202D-02 0.493D-03 0.875D-02 0.766D-01 0.295D+00 0.621D+00
 Coeff:     -0.202D-02 0.493D-03 0.875D-02 0.766D-01 0.295D+00 0.621D+00
 Gap=     0.276 Goal=   None    Shift=    0.000
 RMSDP=8.84D-07 MaxDP=1.95D-05 DE=-5.72D-08 OVMax= 1.83D-05

 Cycle   7  Pass 1  IDiag  1:
 E= -2690.25027924827     Delta-E=       -0.000000005705 Rises=F Damp=F
 DIIS: error= 1.45D-06 at cycle   7 NSaved=   7.
 NSaved= 7 IEnMin= 7 EnMin= -2690.25027924827     IErMin= 7 ErrMin= 1.45D-06
 ErrMax= 1.45D-06  0.00D+00 EMaxC= 1.00D-01 BMatC= 2.13D-10 BMatP= 5.70D-09
 IDIUse=1 WtCom= 1.00D+00 WtEn= 0.00D+00
 Coeff-Com: -0.124D-03-0.512D-03-0.119D-02 0.206D-02 0.405D-01 0.201D+00
 Coeff-Com:  0.758D+00
 Coeff:     -0.124D-03-0.512D-03-0.119D-02 0.206D-02 0.405D-01 0.201D+00
 Coeff:      0.758D+00
 Gap=     0.276 Goal=   None    Shift=    0.000
 RMSDP=2.12D-07 MaxDP=3.59D-06 DE=-5.70D-09 OVMax= 3.74D-06

 Cycle   8  Pass 1  IDiag  1:
 E= -2690.25027924850     Delta-E=       -0.000000000223 Rises=F Damp=F
 DIIS: error= 2.22D-07 at cycle   8 NSaved=   8.
 NSaved= 8 IEnMin= 8 EnMin= -2690.25027924850     IErMin= 8 ErrMin= 2.22D-07
 ErrMax= 2.22D-07  0.00D+00 EMaxC= 1.00D-01 BMatC= 7.25D-12 BMatP= 2.13D-10
 IDIUse=1 WtCom= 1.00D+00 WtEn= 0.00D+00
 Coeff-Com:  0.132D-04-0.195D-03-0.427D-03-0.138D-02 0.240D-02 0.410D-01
 Coeff-Com:  0.233D+00 0.725D+00
 Coeff:      0.132D-04-0.195D-03-0.427D-03-0.138D-02 0.240D-02 0.410D-01
 Coeff:      0.233D+00 0.725D+00
 Gap=     0.276 Goal=   None    Shift=    0.000
 RMSDP=4.82D-08 MaxDP=1.07D-06 DE=-2.23D-10 OVMax= 7.90D-07

 Cycle   9  Pass 1  IDiag  1:
 E= -2690.25027924846     Delta-E=        0.000000000032 Rises=F Damp=F
 DIIS: error= 5.13D-08 at cycle   9 NSaved=   9.
 NSaved= 9 IEnMin= 8 EnMin= -2690.25027924850     IErMin= 9 ErrMin= 5.13D-08
 ErrMax= 5.13D-08  0.00D+00 EMaxC= 1.00D-01 BMatC= 3.14D-13 BMatP= 7.25D-12
 IDIUse=1 WtCom= 1.00D+00 WtEn= 0.00D+00
 Coeff-Com:  0.783D-05-0.550D-04-0.771D-04-0.541D-03-0.879D-03 0.438D-02
 Coeff-Com:  0.375D-01 0.211D+00 0.749D+00
 Coeff:      0.783D-05-0.550D-04-0.771D-04-0.541D-03-0.879D-03 0.438D-02
 Coeff:      0.375D-01 0.211D+00 0.749D+00
 Gap=     0.276 Goal=   None    Shift=    0.000
 RMSDP=8.39D-09 MaxDP=1.40D-07 DE= 3.23D-11 OVMax= 1.50D-07

 Error on total polarization charges =  0.00910
 SCF Done:  E(RB3LYP) =  -2690.25027925     A.U. after    9 cycles
            NFock=  9  Conv=0.84D-08     -V/T= 2.0063
 KE= 2.673384746317D+03 PE=-6.876671572044D+03 EE= 1.278638221829D+03
 --------------------------------------------------------------------
 Variational PCM results
 =======================
 <psi(f)|   H    |psi(f)>                     (a.u.) =   -2690.248293
 <psi(f)|H+V(f)/2|psi(f)>                     (a.u.) =   -2690.252134
 Total free energy in solution:
 - with all non electrostatic terms           (a.u.) =   -2690.250279
 --------------------------------------------------------------------
 (Polarized solute)-Solvent               (kcal/mol) =      -2.41
 --------------------------------------------------------------------
 Cavitation energy                        (kcal/mol) =      16.58
 MST dispersion + repulsion energy        (kcal/mol) =     -15.42
 Total non electrostatic                  (kcal/mol) =       1.16
 --------------------------------------------------------------------
 Partition over spheres:
 Sphere  on Atom  Surface  Charge   GEl     GCav    GDR
    1      C1       3.31   0.002    0.01    0.62   -0.65
    2      C2       0.57  -0.001   -0.00    0.41   -0.43
    3      C3       0.61  -0.003   -0.03    0.39   -0.41
    4     Br4      51.99   0.171   -1.25    4.67   -3.98
    5      H5      10.98  -0.013   -0.08    1.53   -1.45
    6      H6      13.18  -0.016   -0.08    1.53   -1.45
    7      H7      10.98  -0.013   -0.08    1.53   -1.45
    8      H8       9.81  -0.018   -0.07    1.50   -1.42
    9      H9       9.83  -0.019   -0.07    1.51   -1.42
   10      H10      9.31  -0.040   -0.26    1.45   -1.37
   11      H11      9.36  -0.040   -0.26    1.46   -1.37
 Added spheres:    15.52  -0.021   -0.24    0.00    0.00
 --------------------------------------------------------------------
 Partition over spheres of the perturbative electrostatic energy:
(Contribution of added spheres asigned to closest sphere)
 Sphere  on Atom  Surface  Charge   GElSph
    1      C1       3.31   0.002    0.00
    2      C2       0.57  -0.001   -0.00
    3      C3       0.61  -0.003   -0.02
    4     Br4      51.99   0.171   -1.08
    5      H5      10.98  -0.013   -0.09
    6      H6      13.18  -0.016   -0.08
    7      H7      10.98  -0.013   -0.09
    8      H8       9.81  -0.018   -0.09
    9      H9       9.83  -0.019   -0.10
   10      H10      9.31  -0.040   -0.27
   11      H11      9.36  -0.040   -0.26
 Added spheres:    15.52  -0.021    0.00
 --------------------------------------------------------------------
 After PCM corrections, the energy is  -2690.25027925     a.u.
 --------------------------------------------------------------------
 Leave Link  502 at Tue Mar  1 17:09:48 2022, MaxMem=   104857600 cpu:              49.1 elap:              18.2
 (Enter /dades/curu/g16A03_MST/g16/l601.exe)
 Copying SCF densities to generalized density rwf, IOpCl= 0 IROHF=0.

 **********************************************************************

            Population analysis using the SCF density.

 **********************************************************************

 Orbital symmetries:
       Occupied  (A) (A) (A) (A) (A) (A) (A) (A) (A) (A) (A) (A)
                 (A) (A) (A) (A) (A) (A) (A) (A) (A) (A) (A) (A)
                 (A) (A) (A) (A) (A) (A)
       Virtual   (A) (A) (A) (A) (A) (A) (A) (A) (A) (A) (A) (A)
                 (A) (A) (A) (A) (A) (A) (A) (A) (A) (A) (A) (A)
                 (A) (A) (A) (A) (A) (A) (A) (A) (A) (A) (A) (A)
                 (A) (A) (A) (A) (A) (A) (A) (A) (A) (A) (A) (A)
                 (A) (A) (A) (A) (A) (A) (A) (A) (A) (A) (A)
 The electronic state is 1-A.
 Alpha  occ. eigenvalues -- -482.89435 -61.85702 -56.37758 -56.37413 -56.37406
 Alpha  occ. eigenvalues --  -10.23663 -10.19121 -10.17786  -8.56867  -6.52191
 Alpha  occ. eigenvalues --   -6.51019  -6.51006  -2.63768  -2.63441  -2.63431
 Alpha  occ. eigenvalues --   -2.62497  -2.62497  -0.81525  -0.75095  -0.66211
 Alpha  occ. eigenvalues --   -0.59335  -0.47880  -0.43276  -0.40934  -0.40513
 Alpha  occ. eigenvalues --   -0.35563  -0.34157  -0.34019  -0.27351  -0.27331
 Alpha virt. eigenvalues --    0.00256   0.10232   0.13673   0.13715   0.15419
 Alpha virt. eigenvalues --    0.18088   0.18325   0.19202   0.21676   0.23974
 Alpha virt. eigenvalues --    0.29322   0.43046   0.43812   0.45658   0.46741
 Alpha virt. eigenvalues --    0.47939   0.49798   0.51317   0.53111   0.55062
 Alpha virt. eigenvalues --    0.58077   0.61509   0.66675   0.67158   0.76591
 Alpha virt. eigenvalues --    0.78956   0.82394   0.86234   0.86972   0.90503
 Alpha virt. eigenvalues --    0.90844   0.93552   0.95586   0.97916   1.04680
 Alpha virt. eigenvalues --    1.12564   1.38045   1.46455   1.52766   1.56483
 Alpha virt. eigenvalues --    1.62729   1.74536   1.87905   1.91468   1.95933
 Alpha virt. eigenvalues --    2.00770   2.05546   2.19819   2.22246   2.32814
 Alpha virt. eigenvalues --    2.38671   2.39324   2.56069   2.68187   4.11919
 Alpha virt. eigenvalues --    4.25650   4.45374   8.61917  72.82246
          Condensed to atoms (all electrons):
               1          2          3          4          5          6
     1  C    5.085933   0.352588  -0.044386   0.004695   0.378831   0.374707
     2  C    0.352588   4.983026   0.363723  -0.048027  -0.034223  -0.025842
     3  C   -0.044386   0.363723   5.069092   0.237739  -0.004354   0.004160
     4  Br   0.004695  -0.048027   0.237739  35.084855  -0.000019  -0.000146
     5  H    0.378831  -0.034223  -0.004354  -0.000019   0.560210  -0.028908
     6  H    0.374707  -0.025842   0.004160  -0.000146  -0.028908   0.550093
     7  H    0.378818  -0.034206  -0.004358  -0.000018  -0.031671  -0.028916
     8  H   -0.034715   0.381969  -0.041135   0.001242  -0.004236  -0.002925
     9  H   -0.034718   0.381950  -0.041122   0.001186   0.004804  -0.002926
    10  H   -0.001690  -0.035149   0.370903  -0.038434   0.004019  -0.000073
    11  H   -0.001659  -0.035084   0.370592  -0.037835  -0.000371  -0.000073
               7          8          9         10         11
     1  C    0.378818  -0.034715  -0.034718  -0.001690  -0.001659
     2  C   -0.034206   0.381969   0.381950  -0.035149  -0.035084
     3  C   -0.004358  -0.041135  -0.041122   0.370903   0.370592
     4  Br  -0.000018   0.001242   0.001186  -0.038434  -0.037835
     5  H   -0.031671  -0.004236   0.004804   0.004019  -0.000371
     6  H   -0.028916  -0.002925  -0.002926  -0.000073  -0.000073
     7  H    0.560164   0.004804  -0.004235  -0.000370   0.004019
     8  H    0.004804   0.572379  -0.036540  -0.005383   0.005226
     9  H   -0.004235  -0.036540   0.572370   0.005247  -0.005338
    10  H   -0.000370  -0.005383   0.005247   0.532445  -0.033696
    11  H    0.004019   0.005226  -0.005338  -0.033696   0.532554
 Mulliken charges:
               1
     1  C   -0.458403
     2  C   -0.250726
     3  C   -0.280854
     4  Br  -0.205237
     5  H    0.155918
     6  H    0.160849
     7  H    0.155970
     8  H    0.159313
     9  H    0.159323
    10  H    0.202182
    11  H    0.201666
 Sum of Mulliken charges =  -0.00000
 Mulliken charges with hydrogens summed into heavy atoms:
               1
     1  C    0.014333
     2  C    0.067909
     3  C    0.122995
     4  Br  -0.205237
 Electronic spatial extent (au):  <R**2>=            746.6249
 Charge=             -0.0000 electrons
 Dipole moment (field-independent basis, Debye):
    X=             -2.8010    Y=              0.7170    Z=             -0.0015  Tot=              2.8913
 Quadrupole moment (field-independent basis, Debye-Ang):
   XX=            -37.9930   YY=            -37.7793   ZZ=            -38.1925
   XY=             -0.5370   XZ=             -0.0085   YZ=              0.0043
 Traceless Quadrupole moment (field-independent basis, Debye-Ang):
   XX=             -0.0047   YY=              0.2090   ZZ=             -0.2043
   XY=             -0.5370   XZ=             -0.0085   YZ=              0.0043
 Octapole moment (field-independent basis, Debye-Ang**2):
  XXX=             36.9169  YYY=             -0.2612  ZZZ=             -0.0155  XYY=             10.9958
  XXY=             -3.4261  XXZ=             -0.0025  XZZ=             10.7575  YZZ=              0.8320
  YYZ=              0.0071  XYZ=             -0.0039
 Hexadecapole moment (field-independent basis, Debye-Ang**3):
 XXXX=           -750.3148 YYYY=            -92.6898 ZZZZ=            -60.8332 XXXY=             -0.5223
 XXXZ=             -0.0651 YYYX=             -1.8365 YYYZ=              0.0299 ZZZX=             -0.0125
 ZZZY=             -0.0111 XXYY=           -140.6179 XXZZ=           -137.8992 YYZZ=            -23.2446
 XXYZ=              0.0147 YYXZ=             -0.0250 ZZXY=             -2.4240
 N-N= 2.343983246499D+02 E-N=-6.876671575805D+03  KE= 2.673384746317D+03
 No NMR shielding tensors so no spin-rotation constants.
 Leave Link  601 at Tue Mar  1 17:09:48 2022, MaxMem=   104857600 cpu:               0.3 elap:               0.1
 (Enter /dades/curu/g16A03_MST/g16/l9999.exe)
 1\1\GINC-PIRINEUS27\SP\RB3LYP\6-31G(d)\C3H7Br1\UBATOR01\01-Mar-2022\0\
 \#p b3lyp/6-31G(d) scrf=(iefpcm,read,solvent=water) geom=allcheck gues
 s=read\\123.n.pdb.xyz\\0,1\C,0,-1.3424144708,-0.2631787836,-0.03551991
 87\C,0,0.021421581,0.0697862066,0.580160334\C,0,1.0938115356,0.1572603
 235,-0.4899680878\Br,0,2.86971999,0.5844643566,0.3052057964\H,0,-1.318
 5622517,-1.2243032424,-0.5587436532\H,0,-2.1070632565,-0.3238811046,0.
 7443513633\H,0,-1.652986102,0.5036309754,-0.7518699286\H,0,0.302822582
 ,-0.6957959562,1.3100621037\H,0,-0.0298955607,1.0216874049,1.117958309
 \H,0,1.2504110438,-0.7837820586,-1.0102149424\H,0,0.9127349093,0.95411
 18784,-1.2094213755\\Version=ES64L-G16RevA.03\State=1-A\HF=-2690.25027
 92\RMSD=8.385e-09\Dipole=-1.0565282,-0.2415405,-0.3454963\Quadrupole=-
 0.0672893,-0.1319159,0.1992052,0.0510671,0.3718923,0.1064031\PG=C01 [X
 (C3H7Br1)]\\@


 You never know when you're making a memory.
                        -- Rickie Lee Jones
 Job cpu time:       0 days  0 hours  0 minutes 50.5 seconds.
 Elapsed time:       0 days  0 hours  0 minutes 19.1 seconds.
 File lengths (MBytes):  RWF=     29 Int=      0 D2E=      0 Chk=      5 Scr=      1
 Normal termination of Gaussian 16 at Tue Mar  1 17:09:48 2022.
