 Entering Gaussian System, Link 0=g16
 Input=126.n.pdb.xyz.mst.wat.gau
 Output=126.n.pdb.xyz.mst.wat.log
 Initial command:
 /dades/curu/g16A03_MST/g16/l1.exe "/tmp/ubator01/1955268/Gau-143820.inp" -scrdir="/tmp/ubator01/1955268/"
 Entering Link 1 = /dades/curu/g16A03_MST/g16/l1.exe PID=    143821.
  
 Copyright (c) 1988,1990,1992,1993,1995,1998,2003,2009,2016,
            Gaussian, Inc.  All Rights Reserved.
  
 This is part of the Gaussian(R) 16 program.  It is based on
 the Gaussian(R) 09 system (copyright 2009, Gaussian, Inc.),
 the Gaussian(R) 03 system (copyright 2003, Gaussian, Inc.),
 the Gaussian(R) 98 system (copyright 1998, Gaussian, Inc.),
 the Gaussian(R) 94 system (copyright 1995, Gaussian, Inc.),
 the Gaussian 92(TM) system (copyright 1992, Gaussian, Inc.),
 the Gaussian 90(TM) system (copyright 1990, Gaussian, Inc.),
 the Gaussian 88(TM) system (copyright 1988, Gaussian, Inc.),
 the Gaussian 86(TM) system (copyright 1986, Carnegie Mellon
 University), and the Gaussian 82(TM) system (copyright 1983,
 Carnegie Mellon University). Gaussian is a federally registered
 trademark of Gaussian, Inc.
  
 This software contains proprietary and confidential information,
 including trade secrets, belonging to Gaussian, Inc.
  
 This software is provided under written license and may be
 used, copied, transmitted, or stored only in accord with that
 written license.
  
 The following legend is applicable only to US Government
 contracts under FAR:
  
                    RESTRICTED RIGHTS LEGEND
  
 Use, reproduction and disclosure by the US Government is
 subject to restrictions as set forth in subparagraphs (a)
 and (c) of the Commercial Computer Software - Restricted
 Rights clause in FAR 52.227-19.
  
 Gaussian, Inc.
 340 Quinnipiac St., Bldg. 40, Wallingford CT 06492
  
  
 ---------------------------------------------------------------
 Warning -- This program may not be used in any manner that
 competes with the business of Gaussian, Inc. or will provide
 assistance to any competitor of Gaussian, Inc.  The licensee
 of this program is prohibited from giving any competitor of
 Gaussian, Inc. access to this program.  By using this program,
 the user acknowledges that Gaussian, Inc. is engaged in the
 business of creating and licensing software in the field of
 computational chemistry and represents and warrants to the
 licensee that it is not a competitor of Gaussian, Inc. and that
 it will not use this program in any manner prohibited above.
 ---------------------------------------------------------------
  

 Cite this work as:
 Gaussian 16, Revision A.03,
 M. J. Frisch, G. W. Trucks, H. B. Schlegel, G. E. Scuseria, 
 M. A. Robb, J. R. Cheeseman, G. Scalmani, V. Barone, 
 G. A. Petersson, H. Nakatsuji, X. Li, M. Caricato, A. V. Marenich, 
 J. Bloino, B. G. Janesko, R. Gomperts, B. Mennucci, H. P. Hratchian, 
 J. V. Ortiz, A. F. Izmaylov, J. L. Sonnenberg, D. Williams-Young, 
 F. Ding, F. Lipparini, F. Egidi, J. Goings, B. Peng, A. Petrone, 
 T. Henderson, D. Ranasinghe, V. G. Zakrzewski, J. Gao, N. Rega, 
 G. Zheng, W. Liang, M. Hada, M. Ehara, K. Toyota, R. Fukuda, 
 J. Hasegawa, M. Ishida, T. Nakajima, Y. Honda, O. Kitao, H. Nakai, 
 T. Vreven, K. Throssell, J. A. Montgomery, Jr., J. E. Peralta, 
 F. Ogliaro, M. J. Bearpark, J. J. Heyd, E. N. Brothers, K. N. Kudin, 
 V. N. Staroverov, T. A. Keith, R. Kobayashi, J. Normand, 
 K. Raghavachari, A. P. Rendell, J. C. Burant, S. S. Iyengar, 
 J. Tomasi, M. Cossi, J. M. Millam, M. Klene, C. Adamo, R. Cammi, 
 J. W. Ochterski, R. L. Martin, K. Morokuma, O. Farkas, 
 J. B. Foresman, and D. J. Fox, Gaussian, Inc., Wallingford CT, 2016.
 
 ******************************************
 Gaussian 16:  ES64L-G16RevA.03 25-Dec-2016
                 2-Mar-2022 
 ******************************************
 %nproc=4
 Will use up to    4 processors via shared memory.
 %Chk=126.n.pdb.xyz.mst.wat.chk
 %mem=800MB
 ----------------------------------------------------------------------
 #p b3lyp/6-31G(d) opt=(MaxStep=10,MaxCycles=1000) freq scf=(MaxCycle=2
 000,NoVarAcc,NoIncFock) scrf=(iefpcm,read,solvent=water)
 ----------------------------------------------------------------------
 1/6=1000,8=10,18=20,19=15,26=3,38=1,40=2/1,3;
 2/9=110,12=2,17=6,18=5,40=1/2;
 3/5=1,6=6,7=1,11=2,25=1,30=1,70=2203,71=1,72=1,74=-5/1,2,3;
 4//1;
 5/5=100002,7=2000,38=1,53=1/2;
 6/7=2,8=2,9=2,10=2,28=1/1;
 7//1,2,3,16;
 1/6=1000,8=10,18=20,19=15,26=3/3(2);
 2/9=110/2;
 99//99;
 2/9=110/2;
 3/5=1,6=6,7=1,11=2,25=1,30=1,70=2205,71=1,72=1,74=-5/1,2,3;
 4/5=5,16=3,69=1/1;
 5/5=100002,7=2000,38=1,53=1/2;
 7//1,2,3,16;
 1/6=1000,8=10,18=20,19=15,26=3/3(-5);
 2/9=110/2;
 6/7=2,8=2,9=2,10=2,19=2,28=1/1;
 99/9=1/99;
 Leave Link    1 at Wed Mar  2 00:02:46 2022, MaxMem=   104857600 cpu:               0.0 elap:               0.0
 (Enter /dades/curu/g16A03_MST/g16/l101.exe)
 -------------
 126.n.pdb.xyz
 -------------
 Symbolic Z-matrix:
 Charge =  0 Multiplicity = 1
 C                    -1.932     0.16      0.239 
 O                    -0.614     0.685     0.277 
 C                     0.339    -0.26     -0.207 
 F                     0.183    -1.422     0.475 
 F                     0.025    -0.513    -1.505 
 C                     1.775     0.274    -0.103 
 Cl                    2.959    -0.835    -0.862 
 Cl                    2.269     0.559     1.597 
 H                    -2.216    -0.112    -0.782 
 H                    -2.026    -0.705     0.902 
 H                    -2.618     0.936     0.591 
 H                     1.856     1.234    -0.621 
 
 ITRead=  0  0  0  0  0  0  0  0  0  0  0  0
 MicOpt= -1 -1 -1 -1 -1 -1 -1 -1 -1 -1 -1 -1
 NAtoms=     12 NQM=       12 NQMF=       0 NMMI=      0 NMMIF=      0
                NMic=       0 NMicF=      0.
                    Isotopes and Nuclear Properties:
 (Nuclear quadrupole moments (NQMom) in fm**2, nuclear magnetic moments (NMagM)
  in nuclear magnetons)

  Atom         1           2           3           4           5           6           7           8           9          10
 IAtWgt=          12          16          12          19          19          12          35          35           1           1
 AtmWgt=  12.0000000  15.9949146  12.0000000  18.9984032  18.9984032  12.0000000  34.9688527  34.9688527   1.0078250   1.0078250
 NucSpn=           0           0           0           1           1           0           3           3           1           1
 AtZEff=  -0.0000000  -0.0000000  -0.0000000  -0.0000000  -0.0000000  -0.0000000  -0.0000000  -0.0000000  -0.0000000  -0.0000000
 NQMom=    0.0000000   0.0000000   0.0000000   0.0000000   0.0000000   0.0000000  -8.1650000  -8.1650000   0.0000000   0.0000000
 NMagM=    0.0000000   0.0000000   0.0000000   2.6288670   2.6288670   0.0000000   0.8218740   0.8218740   2.7928460   2.7928460
 AtZNuc=   6.0000000   8.0000000   6.0000000   9.0000000   9.0000000   6.0000000  17.0000000  17.0000000   1.0000000   1.0000000

  Atom        11          12
 IAtWgt=           1           1
 AtmWgt=   1.0078250   1.0078250
 NucSpn=           1           1
 AtZEff=  -0.0000000  -0.0000000
 NQMom=    0.0000000   0.0000000
 NMagM=    2.7928460   2.7928460
 AtZNuc=   1.0000000   1.0000000
 Leave Link  101 at Wed Mar  2 00:02:46 2022, MaxMem=   104857600 cpu:               0.1 elap:               0.1
 (Enter /dades/curu/g16A03_MST/g16/l103.exe)

 GradGradGradGradGradGradGradGradGradGradGradGradGradGradGradGradGradGrad
 Berny optimization.
 Initialization pass.
                           ----------------------------
                           !    Initial Parameters    !
                           ! (Angstroms and Degrees)  !
 --------------------------                            --------------------------
 ! Name  Definition              Value          Derivative Info.                !
 --------------------------------------------------------------------------------
 ! R1    R(1,2)                  1.4192         estimate D2E/DX2                !
 ! R2    R(1,9)                  1.0941         estimate D2E/DX2                !
 ! R3    R(1,10)                 1.0939         estimate D2E/DX2                !
 ! R4    R(1,11)                 1.0939         estimate D2E/DX2                !
 ! R5    R(2,3)                  1.4267         estimate D2E/DX2                !
 ! R6    R(3,4)                  1.3564         estimate D2E/DX2                !
 ! R7    R(3,5)                  1.3592         estimate D2E/DX2                !
 ! R8    R(3,6)                  1.5356         estimate D2E/DX2                !
 ! R9    R(6,7)                  1.791          estimate D2E/DX2                !
 ! R10   R(6,8)                  1.7931         estimate D2E/DX2                !
 ! R11   R(6,12)                 1.0938         estimate D2E/DX2                !
 ! A1    A(2,1,9)              110.9779         estimate D2E/DX2                !
 ! A2    A(2,1,10)             110.8601         estimate D2E/DX2                !
 ! A3    A(2,1,11)             108.1403         estimate D2E/DX2                !
 ! A4    A(9,1,10)             110.2855         estimate D2E/DX2                !
 ! A5    A(9,1,11)             108.2914         estimate D2E/DX2                !
 ! A6    A(10,1,11)            108.181          estimate D2E/DX2                !
 ! A7    A(1,2,3)              111.483          estimate D2E/DX2                !
 ! A8    A(2,3,4)              108.6659         estimate D2E/DX2                !
 ! A9    A(2,3,5)              107.0345         estimate D2E/DX2                !
 ! A10   A(2,3,6)              111.798          estimate D2E/DX2                !
 ! A11   A(4,3,5)              107.1061         estimate D2E/DX2                !
 ! A12   A(4,3,6)              111.803          estimate D2E/DX2                !
 ! A13   A(5,3,6)              110.2087         estimate D2E/DX2                !
 ! A14   A(3,6,7)              111.9729         estimate D2E/DX2                !
 ! A15   A(3,6,8)              112.1548         estimate D2E/DX2                !
 ! A16   A(3,6,12)             110.0215         estimate D2E/DX2                !
 ! A17   A(7,6,8)              108.5458         estimate D2E/DX2                !
 ! A18   A(7,6,12)             107.0852         estimate D2E/DX2                !
 ! A19   A(8,6,12)             106.8026         estimate D2E/DX2                !
 ! D1    D(9,1,2,3)            -59.6537         estimate D2E/DX2                !
 ! D2    D(10,1,2,3)            63.2659         estimate D2E/DX2                !
 ! D3    D(11,1,2,3)          -178.2953         estimate D2E/DX2                !
 ! D4    D(1,2,3,4)            -53.2501         estimate D2E/DX2                !
 ! D5    D(1,2,3,5)             62.1047         estimate D2E/DX2                !
 ! D6    D(1,2,3,6)           -177.1216         estimate D2E/DX2                !
 ! D7    D(2,3,6,7)           -174.1241         estimate D2E/DX2                !
 ! D8    D(2,3,6,8)             63.559          estimate D2E/DX2                !
 ! D9    D(2,3,6,12)           -55.1634         estimate D2E/DX2                !
 ! D10   D(4,3,6,7)             63.7867         estimate D2E/DX2                !
 ! D11   D(4,3,6,8)            -58.5301         estimate D2E/DX2                !
 ! D12   D(4,3,6,12)          -177.2526         estimate D2E/DX2                !
 ! D13   D(5,3,6,7)            -55.2152         estimate D2E/DX2                !
 ! D14   D(5,3,6,8)           -177.532          estimate D2E/DX2                !
 ! D15   D(5,3,6,12)            63.7455         estimate D2E/DX2                !
 --------------------------------------------------------------------------------
 Trust Radius=1.00D-01 FncErr=1.00D-07 GrdErr=1.00D-06 EigMax=2.50D+02 EigMin=1.00D-04
 Number of steps in this run=    100 maximum allowed number of steps=    100.
 GradGradGradGradGradGradGradGradGradGradGradGradGradGradGradGradGradGrad

 Leave Link  103 at Wed Mar  2 00:02:46 2022, MaxMem=   104857600 cpu:               0.1 elap:               0.0
 (Enter /dades/curu/g16A03_MST/g16/l202.exe)
                          Input orientation:                          
 ---------------------------------------------------------------------
 Center     Atomic      Atomic             Coordinates (Angstroms)
 Number     Number       Type             X           Y           Z
 ---------------------------------------------------------------------
      1          6           0       -1.932000    0.160000    0.239000
      2          8           0       -0.614000    0.685000    0.277000
      3          6           0        0.339000   -0.260000   -0.207000
      4          9           0        0.183000   -1.422000    0.475000
      5          9           0        0.025000   -0.513000   -1.505000
      6          6           0        1.775000    0.274000   -0.103000
      7         17           0        2.959000   -0.835000   -0.862000
      8         17           0        2.269000    0.559000    1.597000
      9          1           0       -2.216000   -0.112000   -0.782000
     10          1           0       -2.026000   -0.705000    0.902000
     11          1           0       -2.618000    0.936000    0.591000
     12          1           0        1.856000    1.234000   -0.621000
 ---------------------------------------------------------------------
                    Distance matrix (angstroms):
                    1          2          3          4          5
     1  C    0.000000
     2  O    1.419223   0.000000
     3  C    2.352181   1.426706   0.000000
     4  F    2.651725   2.261385   1.356357   0.000000
     5  F    2.706347   2.240323   1.359194   2.184410   0.000000
     6  C    3.724488   2.453700   1.535600   2.396865   2.376441
     7  Cl   5.111175   4.046486   2.761168   3.136609   3.020842
     8  Cl   4.433031   3.173321   2.765877   3.087821   3.975817
     9  H    1.094112   2.079205   2.623081   3.008546   2.388642
    10  H    1.093906   2.077611   2.649742   2.361377   3.168140
    11  H    1.093927   2.043921   3.288019   3.663225   3.671276
    12  H    4.030139   2.684903   2.169037   3.324828   2.680676
                    6          7          8          9         10
     6  C    0.000000
     7  Cl   1.791038   0.000000
     8  Cl   1.793115   2.909642   0.000000
     9  H    4.066708   5.225874   5.121045   0.000000
    10  H    4.051675   5.289501   4.530756   1.795440   0.000000
    11  H    4.496480   6.029144   5.003692   1.773425   1.772023
    12  H    1.093840   2.357000   2.354935   4.291715   4.598823
                   11         12
    11  H    0.000000
    12  H    4.644828   0.000000
 Stoichiometry    C3H4Cl2F2O
 Framework group  C1[X(C3H4Cl2F2O)]
 Deg. of freedom    30
 Full point group                 C1      NOp   1
 Largest Abelian subgroup         C1      NOp   1
 Largest concise Abelian subgroup C1      NOp   1
                         Standard orientation:                         
 ---------------------------------------------------------------------
 Center     Atomic      Atomic             Coordinates (Angstroms)
 Number     Number       Type             X           Y           Z
 ---------------------------------------------------------------------
      1          6           0       -2.938940    0.308098   -0.037183
      2          8           0       -1.649490    0.597084   -0.554869
      3          6           0       -0.661386   -0.279293   -0.015328
      4          9           0       -0.739152   -0.240349    1.338238
      5          9           0       -0.995068   -1.539839   -0.398851
      6          6           0        0.747094    0.072182   -0.516044
      7         17           0        1.967268   -1.123603    0.021627
      8         17           0        1.269143    1.701045    0.022037
      9          1           0       -3.234563   -0.718625   -0.272827
     10          1           0       -2.970746    0.473329    1.043704
     11          1           0       -3.655096    0.988140   -0.507651
     12          1           0        0.764709    0.079735   -1.609716
 ---------------------------------------------------------------------
 Rotational constants (GHZ):           2.0201870           1.0936224           0.8233288
 Leave Link  202 at Wed Mar  2 00:02:46 2022, MaxMem=   104857600 cpu:               0.0 elap:               0.0
 (Enter /dades/curu/g16A03_MST/g16/l301.exe)
 Standard basis: 6-31G(d) (6D, 7F)
 Ernie: Thresh=  0.10000D-02 Tol=  0.10000D-05 Strict=F.
 There are   136 symmetry adapted cartesian basis functions of A   symmetry.
 There are   136 symmetry adapted basis functions of A   symmetry.
   136 basis functions,   288 primitive gaussians,   136 cartesian basis functions
    41 alpha electrons       41 beta electrons
       nuclear repulsion energy       586.2522531446 Hartrees.
 IExCor=  402 DFT=T Ex+Corr=B3LYP ExCW=0 ScaHFX=  0.200000
 ScaDFX=  0.800000  0.720000  1.000000  0.810000 ScalE2=  1.000000  1.000000
 IRadAn=      5 IRanWt=     -1 IRanGd=            0 ICorTp=0 IEmpDi=  4
 NAtoms=   12 NActive=   12 NUniq=   12 SFac= 1.00D+00 NAtFMM=   60 NAOKFM=F Big=F
 Integral buffers will be    131072 words long.
 Raffenetti 2 integral format.
 Two-electron integral symmetry is turned on.
 Using the following non-standard input for PCM:
 MSTModel=DFT cav
 --- end of non-standard input.
 MST model for solvation energy: B3LYP parametrization.
 MST cavity parameters:
 ISph   IAn     Re0     Alpha   Atom Type   QCorr
 ------------------------------------------------
   1      6     1.50     1.25      CH3        F
   2      8     1.40     1.25      O          F
   3      6     1.50     1.25      C          F
   4      9     1.35     1.25      F          F
   5      9     1.35     1.25      F          F
   6      6     1.50     1.25      CH         F
   7     17     1.80     1.25      Cl         F
   8     17     1.80     1.25      Cl         F
   9      1     1.20     1.25      CH3        F
  10      1     1.20     1.25      CH3        F
  11      1     1.20     1.25      CH3        F
  12      1     1.20     1.25      CH         F
 ------------------------------------------------------------------------------
 Polarizable Continuum Model (PCM)
 =================================
 Model                : PCM.
 Atomic radii         : MST.
 Polarization charges : Total charges.
 Charge compensation  : None.
 Solution method      : On-the-fly selection.
 Cavity type          : Scaled VdW (van der Waals Surface) (Alpha=1.250).
 Cavity algorithm     : GePol (No added spheres)
                        Default sphere list used, NSphG=   12.
                        Lebedev-Laikov grids with approx.  5.0 points / Ang**2.
                        Smoothing algorithm: York/Karplus (Gamma=1.0000).
                        Polarization charges: spherical gaussians, with
                                              point-specific exponents (IZeta= 3).
                        Self-potential: point-specific (ISelfS= 7).
                        Self-field    : sphere-specific E.n sum rule (ISelfD= 2).
 1st derivatives      : Analytical E(r).r(x)/FMM algorithm (CHGder, D1EAlg=3).
                        Cavity 1st derivative terms included.
 Solvent              : Water, Eps=  78.355300 Eps(inf)=   1.777849
 ------------------------------------------------------------------------------
 Spheres list:
 ISph  on   Nord     Re0    Alpha      Xe            Ye            Ze
    1   C      1    1.5000  1.250     -2.938940      0.308098     -0.037183
    2   O      2    1.4000  1.250     -1.649490      0.597084     -0.554869
    3   C      3    1.5000  1.250     -0.661386     -0.279293     -0.015328
    4   F      4    1.3500  1.250     -0.739152     -0.240349      1.338238
    5   F      5    1.3500  1.250     -0.995068     -1.539839     -0.398851
    6   C      6    1.5000  1.250      0.747094      0.072182     -0.516044
    7  Cl      7    1.8000  1.250      1.967268     -1.123603      0.021627
    8  Cl      8    1.8000  1.250      1.269143      1.701045      0.022037
    9   H      9    1.2000  1.250     -3.234563     -0.718625     -0.272827
   10   H     10    1.2000  1.250     -2.970746      0.473329      1.043704
   11   H     11    1.2000  1.250     -3.655096      0.988140     -0.507651
   12   H     12    1.2000  1.250      0.764709      0.079735     -1.609716
 ------------------------------------------------------------------------------
 GePol: Number of generator spheres                  =      12
 GePol: Total number of spheres                      =      12
 GePol: Number of exposed spheres                    =      12 (100.00%)
 GePol: Number of points                             =    1251
 GePol: Average weight of points                     =       0.14
 GePol: Minimum weight of points                     =   0.28D-08
 GePol: Maximum weight of points                     =    0.22001
 GePol: Number of points with low weight             =      46
 GePol: Fraction of low-weight points (<1% of avg)   =       3.68%
 GePol: Cavity surface area                          =    179.404 Ang**2
 GePol: Cavity volume                                =    166.609 Ang**3
 Surface areas from nonelectrostatic (unscaled) cavity and vdw tensions:
 Sphere =    1 Type =  CH3 Surf =        5.191 Tension =       -0.140
 Sphere =    2 Type =  O   Surf =       10.596 Tension =       -0.117
 Sphere =    3 Type =  C   Surf =        2.241 Tension =       -0.101
 Sphere =    4 Type =  F   Surf =       14.445 Tension =       -0.078
 Sphere =    5 Type =  F   Surf =       14.451 Tension =       -0.078
 Sphere =    6 Type =  CH  Surf =        1.778 Tension =       -0.140
 Sphere =    7 Type =  Cl  Surf =       31.168 Tension =       -0.112
 Sphere =    8 Type =  Cl  Surf =       31.285 Tension =       -0.112
 Sphere =    9 Type =  CH3 Surf =        9.688 Tension =       -0.140
 Sphere =   10 Type =  CH3 Surf =        9.636 Tension =       -0.140
 Sphere =   11 Type =  CH3 Surf =       10.146 Tension =       -0.140
 Sphere =   12 Type =  CH  Surf =        9.513 Tension =       -0.140
 PCM non-electrostatic energy =         0.0045772558 Hartrees.
 Nuclear repulsion after PCM non-electrostatic terms =      586.2568304004 Hartrees.
 Leave Link  301 at Wed Mar  2 00:02:46 2022, MaxMem=   104857600 cpu:               0.1 elap:               0.1
 (Enter /dades/curu/g16A03_MST/g16/l302.exe)
 NPDir=0 NMtPBC=     1 NCelOv=     1 NCel=       1 NClECP=     1 NCelD=      1
         NCelK=      1 NCelE2=     1 NClLst=     1 CellRange=     0.0.
 One-electron integrals computed using PRISM.
 One-electron integral symmetry used in STVInt
 NBasis=   136 RedAO= T EigKep=  1.96D-03  NBF=   136
 NBsUse=   136 1.00D-06 EigRej= -1.00D+00 NBFU=   136
 Precomputing XC quadrature grid using
 IXCGrd= 4 IRadAn=           5 IRanWt=          -1 IRanGd=           0 AccXCQ= 0.00D+00.
 Generated NRdTot=       0 NPtTot=           0 NUsed=           0 NTot=          32
 NSgBfM=   136   136   136   136   136 MxSgAt=    12 MxSgA2=    12.
 Leave Link  302 at Wed Mar  2 00:02:47 2022, MaxMem=   104857600 cpu:               0.6 elap:               0.2
 (Enter /dades/curu/g16A03_MST/g16/l303.exe)
 DipDrv:  MaxL=1.
 Leave Link  303 at Wed Mar  2 00:02:47 2022, MaxMem=   104857600 cpu:               0.1 elap:               0.0
 (Enter /dades/curu/g16A03_MST/g16/l401.exe)
 ExpMin= 1.43D-01 ExpMax= 2.52D+04 ExpMxC= 3.78D+03 IAcc=3 IRadAn=         5 AccDes= 0.00D+00
 Harris functional with IExCor=  402 and IRadAn=       5 diagonalized for initial guess.
 HarFok:  IExCor=  402 AccDes= 0.00D+00 IRadAn=         5 IDoV= 1 UseB2=F ITyADJ=14
 ICtDFT=  3500011 ScaDFX=  1.000000  1.000000  1.000000  1.000000
 FoFCou: FMM=F IPFlag=           0 FMFlag=      100000 FMFlg1=           0
         NFxFlg=           0 DoJE=T BraDBF=F KetDBF=T FulRan=T
         wScrn=  0.000000 ICntrl=       500 IOpCl=  0 I1Cent=   200000004 NGrid=           0
         NMat0=    1 NMatS0=      1 NMatT0=    0 NMatD0=    1 NMtDS0=    0 NMtDT0=    0
 Petite list used in FoFCou.
 Harris En= -1311.83830844785    
 JPrj=0 DoOrth=F DoCkMO=F.
 Leave Link  401 at Wed Mar  2 00:02:48 2022, MaxMem=   104857600 cpu:               4.8 elap:               1.2
 (Enter /dades/curu/g16A03_MST/g16/l502.exe)
 Keep R1 ints in memory in canonical form, NReq=47249868.
 FoFCou: FMM=F IPFlag=           0 FMFlag=           0 FMFlg1=           0
         NFxFlg=           0 DoJE=F BraDBF=F KetDBF=F FulRan=T
         wScrn=  0.000000 ICntrl=       600 IOpCl=  0 I1Cent=           0 NGrid=           0
         NMat0=    1 NMatS0=   9316 NMatT0=    0 NMatD0=    1 NMtDS0=    0 NMtDT0=    0
 Symmetry not used in FoFCou.
 Two-electron integral symmetry not used.
 Closed shell SCF:
 Using DIIS extrapolation, IDIIS=  1040.
 NGot=   104857600 LenX=    61419668 LenY=    61400731
 Requested convergence on RMS density matrix=1.00D-08 within2000 cycles.
 Requested convergence on MAX density matrix=1.00D-06.
 Requested convergence on             energy=1.00D-06.
 No special actions if energy rises.

 Cycle   1  Pass 1  IDiag  1:
 Inv3:  Mode=1 IEnd=     4695003.
 Iteration    1 A*A^-1 deviation from unit magnitude is 5.66D-15 for    506.
 Iteration    1 A*A^-1 deviation from orthogonality  is 2.70D-15 for    578    169.
 Iteration    1 A^-1*A deviation from unit magnitude is 5.44D-15 for    506.
 Iteration    1 A^-1*A deviation from orthogonality  is 1.61D-15 for   1248   1127.
 E= -1311.89807826851    
 DIIS: error= 2.94D-02 at cycle   1 NSaved=   1.
 NSaved= 1 IEnMin= 1 EnMin= -1311.89807826851     IErMin= 1 ErrMin= 2.94D-02
 ErrMax= 2.94D-02  0.00D+00 EMaxC= 1.00D-01 BMatC= 1.51D-01 BMatP= 1.51D-01
 IDIUse=3 WtCom= 7.06D-01 WtEn= 2.94D-01
 Coeff-Com:  0.100D+01
 Coeff-En:   0.100D+01
 Coeff:      0.100D+01
 Gap=     0.311 Goal=   None    Shift=    0.000
 GapD=    0.311 DampG=1.000 DampE=0.500 DampFc=0.5000 IDamp=-1.
 Damping current iteration by 5.00D-01
 RMSDP=4.56D-03 MaxDP=1.05D-01              OVMax= 1.23D-01

 Cycle   2  Pass 1  IDiag  1:
 E= -1311.93807499864     Delta-E=       -0.039996730128 Rises=F Damp=T
 DIIS: error= 1.08D-02 at cycle   2 NSaved=   2.
 NSaved= 2 IEnMin= 2 EnMin= -1311.93807499864     IErMin= 2 ErrMin= 1.08D-02
 ErrMax= 1.08D-02  0.00D+00 EMaxC= 1.00D-01 BMatC= 1.39D-02 BMatP= 1.51D-01
 IDIUse=3 WtCom= 8.92D-01 WtEn= 1.08D-01
 Coeff-Com:  0.122D+00 0.878D+00
 Coeff-En:   0.239D+00 0.761D+00
 Coeff:      0.135D+00 0.865D+00
 Gap=     0.283 Goal=   None    Shift=    0.000
 RMSDP=1.02D-03 MaxDP=2.58D-02 DE=-4.00D-02 OVMax= 7.86D-02

 Cycle   3  Pass 1  IDiag  1:
 E= -1312.00290583840     Delta-E=       -0.064830839762 Rises=F Damp=F
 DIIS: error= 3.36D-03 at cycle   3 NSaved=   3.
 NSaved= 3 IEnMin= 3 EnMin= -1312.00290583840     IErMin= 3 ErrMin= 3.36D-03
 ErrMax= 3.36D-03  0.00D+00 EMaxC= 1.00D-01 BMatC= 4.11D-03 BMatP= 1.39D-02
 IDIUse=3 WtCom= 9.66D-01 WtEn= 3.36D-02
 Coeff-Com: -0.237D-01 0.317D+00 0.706D+00
 Coeff-En:   0.000D+00 0.000D+00 0.100D+01
 Coeff:     -0.229D-01 0.307D+00 0.716D+00
 Gap=     0.280 Goal=   None    Shift=    0.000
 RMSDP=5.33D-04 MaxDP=1.10D-02 DE=-6.48D-02 OVMax= 1.29D-02

 Cycle   4  Pass 1  IDiag  1:
 E= -1312.00521171113     Delta-E=       -0.002305872729 Rises=F Damp=F
 DIIS: error= 2.84D-03 at cycle   4 NSaved=   4.
 NSaved= 4 IEnMin= 4 EnMin= -1312.00521171113     IErMin= 4 ErrMin= 2.84D-03
 ErrMax= 2.84D-03  0.00D+00 EMaxC= 1.00D-01 BMatC= 1.06D-03 BMatP= 4.11D-03
 IDIUse=3 WtCom= 9.72D-01 WtEn= 2.84D-02
 Coeff-Com: -0.230D-01 0.915D-01 0.388D+00 0.543D+00
 Coeff-En:   0.000D+00 0.000D+00 0.215D+00 0.785D+00
 Coeff:     -0.223D-01 0.889D-01 0.383D+00 0.550D+00
 Gap=     0.282 Goal=   None    Shift=    0.000
 RMSDP=2.33D-04 MaxDP=5.87D-03 DE=-2.31D-03 OVMax= 6.48D-03

 Cycle   5  Pass 1  IDiag  1:
 E= -1312.00614919097     Delta-E=       -0.000937479838 Rises=F Damp=F
 DIIS: error= 3.71D-04 at cycle   5 NSaved=   5.
 NSaved= 5 IEnMin= 5 EnMin= -1312.00614919097     IErMin= 5 ErrMin= 3.71D-04
 ErrMax= 3.71D-04  0.00D+00 EMaxC= 1.00D-01 BMatC= 4.04D-05 BMatP= 1.06D-03
 IDIUse=3 WtCom= 9.96D-01 WtEn= 3.71D-03
 Coeff-Com: -0.912D-02 0.239D-01 0.134D+00 0.254D+00 0.598D+00
 Coeff-En:   0.000D+00 0.000D+00 0.000D+00 0.000D+00 0.100D+01
 Coeff:     -0.909D-02 0.239D-01 0.133D+00 0.253D+00 0.599D+00
 Gap=     0.280 Goal=   None    Shift=    0.000
 RMSDP=5.20D-05 MaxDP=1.33D-03 DE=-9.37D-04 OVMax= 1.45D-03

 Cycle   6  Pass 1  IDiag  1:
 E= -1312.00618254695     Delta-E=       -0.000033355983 Rises=F Damp=F
 DIIS: error= 1.33D-04 at cycle   6 NSaved=   6.
 NSaved= 6 IEnMin= 6 EnMin= -1312.00618254695     IErMin= 6 ErrMin= 1.33D-04
 ErrMax= 1.33D-04  0.00D+00 EMaxC= 1.00D-01 BMatC= 3.42D-06 BMatP= 4.04D-05
 IDIUse=3 WtCom= 9.99D-01 WtEn= 1.33D-03
 Coeff-Com: -0.334D-02 0.647D-02 0.432D-01 0.956D-01 0.309D+00 0.549D+00
 Coeff-En:   0.000D+00 0.000D+00 0.000D+00 0.000D+00 0.000D+00 0.100D+01
 Coeff:     -0.334D-02 0.646D-02 0.431D-01 0.955D-01 0.309D+00 0.550D+00
 Gap=     0.280 Goal=   None    Shift=    0.000
 RMSDP=1.28D-05 MaxDP=2.83D-04 DE=-3.34D-05 OVMax= 3.08D-04

 Cycle   7  Pass 1  IDiag  1:
 E= -1312.00618557576     Delta-E=       -0.000003028808 Rises=F Damp=F
 DIIS: error= 1.74D-05 at cycle   7 NSaved=   7.
 NSaved= 7 IEnMin= 7 EnMin= -1312.00618557576     IErMin= 7 ErrMin= 1.74D-05
 ErrMax= 1.74D-05  0.00D+00 EMaxC= 1.00D-01 BMatC= 7.05D-08 BMatP= 3.42D-06
 IDIUse=1 WtCom= 1.00D+00 WtEn= 0.00D+00
 Coeff-Com: -0.657D-03 0.973D-03 0.658D-02 0.186D-01 0.714D-01 0.180D+00
 Coeff-Com:  0.723D+00
 Coeff:     -0.657D-03 0.973D-03 0.658D-02 0.186D-01 0.714D-01 0.180D+00
 Coeff:      0.723D+00
 Gap=     0.280 Goal=   None    Shift=    0.000
 RMSDP=2.57D-06 MaxDP=6.92D-05 DE=-3.03D-06 OVMax= 5.56D-05

 Cycle   8  Pass 1  IDiag  1:
 E= -1312.00618563338     Delta-E=       -0.000000057620 Rises=F Damp=F
 DIIS: error= 5.21D-06 at cycle   8 NSaved=   8.
 NSaved= 8 IEnMin= 8 EnMin= -1312.00618563338     IErMin= 8 ErrMin= 5.21D-06
 ErrMax= 5.21D-06  0.00D+00 EMaxC= 1.00D-01 BMatC= 1.05D-08 BMatP= 7.05D-08
 IDIUse=1 WtCom= 1.00D+00 WtEn= 0.00D+00
 Coeff-Com: -0.521D-04-0.624D-04-0.487D-03 0.911D-03 0.629D-02 0.333D-01
 Coeff-Com:  0.321D+00 0.639D+00
 Coeff:     -0.521D-04-0.624D-04-0.487D-03 0.911D-03 0.629D-02 0.333D-01
 Coeff:      0.321D+00 0.639D+00
 Gap=     0.280 Goal=   None    Shift=    0.000
 RMSDP=8.24D-07 MaxDP=2.23D-05 DE=-5.76D-08 OVMax= 1.89D-05

 Cycle   9  Pass 1  IDiag  1:
 E= -1312.00618564202     Delta-E=       -0.000000008643 Rises=F Damp=F
 DIIS: error= 1.36D-06 at cycle   9 NSaved=   9.
 NSaved= 9 IEnMin= 9 EnMin= -1312.00618564202     IErMin= 9 ErrMin= 1.36D-06
 ErrMax= 1.36D-06  0.00D+00 EMaxC= 1.00D-01 BMatC= 4.76D-10 BMatP= 1.05D-08
 IDIUse=1 WtCom= 1.00D+00 WtEn= 0.00D+00
 Coeff-Com:  0.970D-05-0.770D-04-0.601D-03-0.618D-03-0.125D-02 0.503D-02
 Coeff-Com:  0.101D+00 0.257D+00 0.640D+00
 Coeff:      0.970D-05-0.770D-04-0.601D-03-0.618D-03-0.125D-02 0.503D-02
 Coeff:      0.101D+00 0.257D+00 0.640D+00
 Gap=     0.280 Goal=   None    Shift=    0.000
 RMSDP=2.02D-07 MaxDP=4.07D-06 DE=-8.64D-09 OVMax= 4.76D-06

 Cycle  10  Pass 1  IDiag  1:
 E= -1312.00618564232     Delta-E=       -0.000000000302 Rises=F Damp=F
 DIIS: error= 5.18D-07 at cycle  10 NSaved=  10.
 NSaved=10 IEnMin=10 EnMin= -1312.00618564232     IErMin=10 ErrMin= 5.18D-07
 ErrMax= 5.18D-07  0.00D+00 EMaxC= 1.00D-01 BMatC= 1.26D-10 BMatP= 4.76D-10
 IDIUse=1 WtCom= 1.00D+00 WtEn= 0.00D+00
 Coeff-Com:  0.106D-04-0.328D-04-0.273D-03-0.433D-03-0.141D-02-0.959D-03
 Coeff-Com:  0.191D-01 0.669D-01 0.375D+00 0.542D+00
 Coeff:      0.106D-04-0.328D-04-0.273D-03-0.433D-03-0.141D-02-0.959D-03
 Coeff:      0.191D-01 0.669D-01 0.375D+00 0.542D+00
 Gap=     0.280 Goal=   None    Shift=    0.000
 RMSDP=6.66D-08 MaxDP=1.57D-06 DE=-3.02D-10 OVMax= 1.63D-06

 Cycle  11  Pass 1  IDiag  1:
 E= -1312.00618564241     Delta-E=       -0.000000000083 Rises=F Damp=F
 DIIS: error= 9.62D-08 at cycle  11 NSaved=  11.
 NSaved=11 IEnMin=11 EnMin= -1312.00618564241     IErMin=11 ErrMin= 9.62D-08
 ErrMax= 9.62D-08  0.00D+00 EMaxC= 1.00D-01 BMatC= 2.67D-12 BMatP= 1.26D-10
 IDIUse=1 WtCom= 1.00D+00 WtEn= 0.00D+00
 Coeff-Com:  0.320D-05-0.589D-05-0.592D-04-0.123D-03-0.450D-03-0.649D-03
 Coeff-Com:  0.813D-03 0.680D-02 0.102D+00 0.197D+00 0.694D+00
 Coeff:      0.320D-05-0.589D-05-0.592D-04-0.123D-03-0.450D-03-0.649D-03
 Coeff:      0.813D-03 0.680D-02 0.102D+00 0.197D+00 0.694D+00
 Gap=     0.280 Goal=   None    Shift=    0.000
 RMSDP=1.37D-08 MaxDP=2.80D-07 DE=-8.34D-11 OVMax= 3.24D-07

 Cycle  12  Pass 1  IDiag  1:
 E= -1312.00618564242     Delta-E=       -0.000000000018 Rises=F Damp=F
 DIIS: error= 2.50D-08 at cycle  12 NSaved=  12.
 NSaved=12 IEnMin=12 EnMin= -1312.00618564242     IErMin=12 ErrMin= 2.50D-08
 ErrMax= 2.50D-08  0.00D+00 EMaxC= 1.00D-01 BMatC= 2.00D-13 BMatP= 2.67D-12
 IDIUse=1 WtCom= 1.00D+00 WtEn= 0.00D+00
 Coeff-Com:  0.429D-06-0.693D-07-0.245D-05-0.156D-04-0.665D-04-0.165D-03
 Coeff-Com: -0.105D-02-0.265D-02 0.113D-01 0.340D-01 0.261D+00 0.698D+00
 Coeff:      0.429D-06-0.693D-07-0.245D-05-0.156D-04-0.665D-04-0.165D-03
 Coeff:     -0.105D-02-0.265D-02 0.113D-01 0.340D-01 0.261D+00 0.698D+00
 Gap=     0.280 Goal=   None    Shift=    0.000
 RMSDP=3.77D-09 MaxDP=1.11D-07 DE=-1.84D-11 OVMax= 8.10D-08

 Error on total polarization charges =  0.00870
 SCF Done:  E(RB3LYP) =  -1312.00618564     A.U. after   12 cycles
            NFock= 12  Conv=0.38D-08     -V/T= 2.0045
 KE= 1.306136264962D+03 PE=-4.283189885413D+03 EE= 1.078790604408D+03
 Leave Link  502 at Wed Mar  2 00:03:14 2022, MaxMem=   104857600 cpu:              99.9 elap:              26.3
 (Enter /dades/curu/g16A03_MST/g16/l601.exe)
 Copying SCF densities to generalized density rwf, IOpCl= 0 IROHF=0.

 **********************************************************************

            Population analysis using the SCF density.

 **********************************************************************

 Orbital symmetries:
       Occupied  (A) (A) (A) (A) (A) (A) (A) (A) (A) (A) (A) (A)
                 (A) (A) (A) (A) (A) (A) (A) (A) (A) (A) (A) (A)
                 (A) (A) (A) (A) (A) (A) (A) (A) (A) (A) (A) (A)
                 (A) (A) (A) (A) (A)
       Virtual   (A) (A) (A) (A) (A) (A) (A) (A) (A) (A) (A) (A)
                 (A) (A) (A) (A) (A) (A) (A) (A) (A) (A) (A) (A)
                 (A) (A) (A) (A) (A) (A) (A) (A) (A) (A) (A) (A)
                 (A) (A) (A) (A) (A) (A) (A) (A) (A) (A) (A) (A)
                 (A) (A) (A) (A) (A) (A) (A) (A) (A) (A) (A) (A)
                 (A) (A) (A) (A) (A) (A) (A) (A) (A) (A) (A) (A)
                 (A) (A) (A) (A) (A) (A) (A) (A) (A) (A) (A) (A)
                 (A) (A) (A) (A) (A) (A) (A) (A) (A) (A) (A)
 The electronic state is 1-A.
 Alpha  occ. eigenvalues -- -101.57020-101.56886 -24.73421 -24.73311 -19.19219
 Alpha  occ. eigenvalues --  -10.43134 -10.33491 -10.23592  -9.48700  -9.48561
 Alpha  occ. eigenvalues --   -7.25159  -7.25019  -7.24080  -7.24055  -7.23942
 Alpha  occ. eigenvalues --   -7.23918  -1.28843  -1.22229  -1.06353  -0.92597
 Alpha  occ. eigenvalues --   -0.84004  -0.76670  -0.68735  -0.64533  -0.58450
 Alpha  occ. eigenvalues --   -0.56664  -0.55524  -0.49017  -0.47499  -0.46540
 Alpha  occ. eigenvalues --   -0.45497  -0.43670  -0.42239  -0.41710  -0.41211
 Alpha  occ. eigenvalues --   -0.35650  -0.34953  -0.33814  -0.32426  -0.31926
 Alpha  occ. eigenvalues --   -0.30463
 Alpha virt. eigenvalues --   -0.02430  -0.00393   0.09164   0.12523   0.13548
 Alpha virt. eigenvalues --    0.14937   0.15939   0.17605   0.20269   0.20689
 Alpha virt. eigenvalues --    0.22786   0.31763   0.37171   0.40722   0.41561
 Alpha virt. eigenvalues --    0.41827   0.43766   0.46090   0.49336   0.49855
 Alpha virt. eigenvalues --    0.52082   0.52576   0.54187   0.56131   0.57228
 Alpha virt. eigenvalues --    0.58897   0.64501   0.74216   0.77547   0.80435
 Alpha virt. eigenvalues --    0.82566   0.83590   0.84209   0.85553   0.86664
 Alpha virt. eigenvalues --    0.87623   0.91207   0.92362   0.93300   0.95065
 Alpha virt. eigenvalues --    0.98501   1.02335   1.02753   1.07258   1.08041
 Alpha virt. eigenvalues --    1.12543   1.17196   1.18789   1.28293   1.32032
 Alpha virt. eigenvalues --    1.34175   1.34427   1.35680   1.38021   1.40172
 Alpha virt. eigenvalues --    1.41778   1.45976   1.64839   1.67419   1.69704
 Alpha virt. eigenvalues --    1.76359   1.77549   1.80681   1.83511   1.87025
 Alpha virt. eigenvalues --    1.89874   1.92794   2.00079   2.02270   2.04890
 Alpha virt. eigenvalues --    2.07692   2.10996   2.11611   2.15417   2.16883
 Alpha virt. eigenvalues --    2.27939   2.31730   2.36734   2.45387   2.47086
 Alpha virt. eigenvalues --    2.56911   2.69732   2.74625   2.87044   2.93375
 Alpha virt. eigenvalues --    3.03330   3.07244   3.92885   4.05333   4.23777
 Alpha virt. eigenvalues --    4.26461   4.28141   4.42769   4.45708   5.43599
          Condensed to atoms (all electrons):
               1          2          3          4          5          6
     1  C    4.912056   0.219248  -0.017337  -0.000648  -0.002410   0.004263
     2  O    0.219248   8.267316   0.256311  -0.047600  -0.051114  -0.052961
     3  C   -0.017337   0.256311   4.203362   0.267256   0.268989   0.273281
     4  F   -0.000648  -0.047600   0.267256   9.126433  -0.037474  -0.051411
     5  F   -0.002410  -0.051114   0.268989  -0.037474   9.127161  -0.042900
     6  C    0.004263  -0.052961   0.273281  -0.051411  -0.042900   5.508121
     7  Cl  -0.000162   0.002589  -0.035934   0.002711   0.002927   0.213003
     8  Cl  -0.000400   0.002961  -0.037580   0.004005   0.001790   0.207074
     9  H    0.371713  -0.036712  -0.007310  -0.000844   0.010593   0.000133
    10  H    0.373504  -0.036058  -0.008871   0.009991  -0.000486   0.000342
    11  H    0.382548  -0.028163   0.004367   0.000200   0.000092  -0.000072
    12  H   -0.000145   0.001783  -0.025086   0.001883   0.000725   0.345707
               7          8          9         10         11         12
     1  C   -0.000162  -0.000400   0.371713   0.373504   0.382548  -0.000145
     2  O    0.002589   0.002961  -0.036712  -0.036058  -0.028163   0.001783
     3  C   -0.035934  -0.037580  -0.007310  -0.008871   0.004367  -0.025086
     4  F    0.002711   0.004005  -0.000844   0.009991   0.000200   0.001883
     5  F    0.002927   0.001790   0.010593  -0.000486   0.000092   0.000725
     6  C    0.213003   0.207074   0.000133   0.000342  -0.000072   0.345707
     7  Cl  16.921167  -0.072238   0.000005   0.000001   0.000002  -0.042133
     8  Cl  -0.072238  16.931073   0.000005  -0.000005  -0.000020  -0.041477
     9  H    0.000005   0.000005   0.558749  -0.038079  -0.030330  -0.000012
    10  H    0.000001  -0.000005  -0.038079   0.556455  -0.030594   0.000011
    11  H    0.000002  -0.000020  -0.030330  -0.030594   0.515824  -0.000013
    12  H   -0.042133  -0.041477  -0.000012   0.000011  -0.000013   0.465420
 Mulliken charges:
               1
     1  C   -0.242230
     2  O   -0.497600
     3  C    0.858553
     4  F   -0.274501
     5  F   -0.277893
     6  C   -0.404581
     7  Cl   0.008063
     8  Cl   0.004813
     9  H    0.172090
    10  H    0.173788
    11  H    0.186160
    12  H    0.293337
 Sum of Mulliken charges =  -0.00000
 Mulliken charges with hydrogens summed into heavy atoms:
               1
     1  C    0.289808
     2  O   -0.497600
     3  C    0.858553
     4  F   -0.274501
     5  F   -0.277893
     6  C   -0.111244
     7  Cl   0.008063
     8  Cl   0.004813
 Electronic spatial extent (au):  <R**2>=           1354.1905
 Charge=             -0.0000 electrons
 Dipole moment (field-independent basis, Debye):
    X=             -2.0104    Y=             -0.1105    Z=             -1.1811  Tot=              2.3343
 Quadrupole moment (field-independent basis, Debye-Ang):
   XX=            -52.1353   YY=            -61.2279   ZZ=            -57.6621
   XY=             -0.6596   XZ=             -1.7204   YZ=              0.4694
 Traceless Quadrupole moment (field-independent basis, Debye-Ang):
   XX=              4.8731   YY=             -4.2195   ZZ=             -0.6537
   XY=             -0.6596   XZ=             -1.7204   YZ=              0.4694
 Octapole moment (field-independent basis, Debye-Ang**2):
  XXX=            -42.2113  YYY=             -6.7018  ZZZ=              0.5545  XYY=             -1.2668
  XXY=             -1.1660  XXZ=              2.9556  XZZ=             -0.5192  YZZ=             -2.8528
  YYZ=              4.4221  XYZ=             -0.9261
 Hexadecapole moment (field-independent basis, Debye-Ang**3):
 XXXX=           -920.1893 YYYY=           -448.0497 ZZZZ=           -135.6075 XXXY=            -12.9242
 XXXZ=              5.5618 YYYX=             10.4218 YYYZ=              3.6740 ZZZX=             -6.9981
 ZZZY=              1.9818 XXYY=           -236.2973 XXZZ=           -194.1223 YYZZ=           -101.2638
 XXYZ=             -1.5574 YYXZ=              4.2587 ZZXY=              2.4947
 N-N= 5.862568304004D+02 E-N=-4.283189890855D+03  KE= 1.306136264962D+03
 No NMR shielding tensors so no spin-rotation constants.
 Leave Link  601 at Wed Mar  2 00:03:14 2022, MaxMem=   104857600 cpu:               0.3 elap:               0.1
 (Enter /dades/curu/g16A03_MST/g16/l701.exe)
 ... and contract with generalized density number  0.
 Compute integral first derivatives.
 D1PCM: PCM CHGder 1st derivatives, ID1Alg=3 FixD1E=F DoIter=F DoCFld=F I1PDM=0.
 GePol: Maximum number of non-zero 1st derivatives   =     328
 Leave Link  701 at Wed Mar  2 00:03:15 2022, MaxMem=   104857600 cpu:               3.6 elap:               0.9
 (Enter /dades/curu/g16A03_MST/g16/l702.exe)
 L702 exits ... SP integral derivatives will be done elsewhere.
 Leave Link  702 at Wed Mar  2 00:03:15 2022, MaxMem=   104857600 cpu:               0.0 elap:               0.0
 (Enter /dades/curu/g16A03_MST/g16/l703.exe)
 Integral derivatives from FoFJK, PRISM(SPDF).
 Compute integral first derivatives, UseDBF=F ICtDFT=           0.
 Calling FoFJK, ICntrl=      2127 FMM=F ISym2X=0 I1Cent= 0 IOpClX= 0 NMat=1 NMatS=1 NMatT=0.
 FoFJK:  IHMeth= 1 ICntrl=    2127 DoSepK=F KAlg= 0 I1Cent=           0 FoldK=F
 IRaf=         0 NMat=       1 IRICut=       1 DoRegI=T DoRafI=F ISym2E= 0 IDoP0=0 IntGTp=1.
 FoFCou: FMM=F IPFlag=           0 FMFlag=      100000 FMFlg1=         800
         NFxFlg=           0 DoJE=F BraDBF=F KetDBF=F FulRan=T
         wScrn=  0.000000 ICntrl=      2127 IOpCl=  0 I1Cent=           0 NGrid=           0
         NMat0=    1 NMatS0=      1 NMatT0=    0 NMatD0=    1 NMtDS0=    0 NMtDT0=    0
 Symmetry not used in FoFCou.
 Leave Link  703 at Wed Mar  2 00:03:20 2022, MaxMem=   104857600 cpu:              17.3 elap:               4.4
 (Enter /dades/curu/g16A03_MST/g16/l716.exe)
 Dipole        =-7.90958256D-01-4.34733714D-02-4.64661435D-01
 ***** Axes restored to original set *****
 -------------------------------------------------------------------
 Center     Atomic                   Forces (Hartrees/Bohr)
 Number     Number              X              Y              Z
 -------------------------------------------------------------------
      1        6          -0.018921581   -0.004207643    0.001451065
      2        8           0.043047585   -0.014374992   -0.007509265
      3        6          -0.041744782    0.020090988    0.012819105
      4        9           0.008218488   -0.002100858   -0.002843921
      5        9           0.010541139   -0.004354646   -0.001802431
      6        6           0.004747849    0.011343255   -0.000499930
      7       17          -0.004627419   -0.002485048   -0.003773759
      8       17          -0.005872197    0.000681291    0.001340215
      9        1           0.000895029   -0.001015457    0.001246731
     10        1           0.000322315    0.000394869   -0.002138465
     11        1           0.005897255    0.001601935   -0.000335064
     12        1          -0.002503681   -0.005573695    0.002045719
 -------------------------------------------------------------------
 Cartesian Forces:  Max     0.043047585 RMS     0.012173703
 Leave Link  716 at Wed Mar  2 00:03:20 2022, MaxMem=   104857600 cpu:               0.0 elap:               0.0
 (Enter /dades/curu/g16A03_MST/g16/l103.exe)

 GradGradGradGradGradGradGradGradGradGradGradGradGradGradGradGradGradGrad
 Berny optimization.
 FormGI is forming the generalized inverse of G from B-inverse, IUseBI=4.
 Internal  Forces:  Max     0.034962466 RMS     0.008537180
 Search for a local minimum.
 Step number   1 out of a maximum of  100
 All quantities printed in internal units (Hartrees-Bohrs-Radians)
 RMS Force = .85372D-02 SwitMx=.10000D-02 MixMth= 1
 Mixed Optimization -- RFO/linear search
 Second derivative matrix not updated -- first step.
 ITU=  0
     Eigenvalues ---    0.00295   0.01339   0.01438   0.05927   0.06780
     Eigenvalues ---    0.07241   0.08180   0.10088   0.10500   0.16000
     Eigenvalues ---    0.16000   0.16000   0.16000   0.18007   0.21685
     Eigenvalues ---    0.23402   0.24227   0.25000   0.25000   0.26667
     Eigenvalues ---    0.26836   0.28912   0.34342   0.34363   0.34365
     Eigenvalues ---    0.34373   0.41466   0.42578   0.53111   0.53691
 RFO step:  Lambda=-1.16355740D-02 EMin= 2.95025019D-03
 Linear search not attempted -- first point.
 Maximum step size (   0.100) exceeded in Quadratic search.
    -- Step size scaled by   0.498
 Iteration  1 RMS(Cart)=  0.04615643 RMS(Int)=  0.00089941
 Iteration  2 RMS(Cart)=  0.00111984 RMS(Int)=  0.00025693
 Iteration  3 RMS(Cart)=  0.00000037 RMS(Int)=  0.00025693
 ITry= 1 IFail=0 DXMaxC= 1.34D-01 DCOld= 1.00D+10 DXMaxT= 1.00D-01 DXLimC= 3.00D+00 Rises=F
 Variable       Old X    -DE/DX   Delta X   Delta X   Delta X     New X
                                 (Linear)    (Quad)   (Total)
    R1        2.68194   0.01213   0.00000   0.01380   0.01380   2.69574
    R2        2.06757  -0.00115   0.00000  -0.00161  -0.00161   2.06597
    R3        2.06718  -0.00165   0.00000  -0.00231  -0.00231   2.06488
    R4        2.06722  -0.00266   0.00000  -0.00373  -0.00373   2.06349
    R5        2.69608  -0.03496   0.00000  -0.04081  -0.04081   2.65528
    R6        2.56314  -0.00057   0.00000  -0.00052  -0.00052   2.56262
    R7        2.56850   0.00010   0.00000   0.00009   0.00009   2.56859
    R8        2.90186  -0.00641   0.00000  -0.01061  -0.01061   2.89125
    R9        3.38457   0.00009   0.00000   0.00015   0.00015   3.38473
   R10        3.38850  -0.00024   0.00000  -0.00043  -0.00043   3.38807
   R11        2.06706  -0.00606   0.00000  -0.00848  -0.00848   2.05858
    A1        1.93693   0.00091   0.00000   0.00272   0.00271   1.93964
    A2        1.93487   0.00159   0.00000   0.00495   0.00495   1.93982
    A3        1.88740  -0.00819   0.00000  -0.02417  -0.02417   1.86323
    A4        1.92484  -0.00073   0.00000  -0.00135  -0.00137   1.92348
    A5        1.89004   0.00312   0.00000   0.00837   0.00835   1.89839
    A6        1.88812   0.00326   0.00000   0.00931   0.00931   1.89743
    A7        1.94575   0.01373   0.00000   0.02611   0.02611   1.97185
    A8        1.89658   0.01416   0.00000   0.03245   0.03193   1.92850
    A9        1.86810   0.01694   0.00000   0.04246   0.04197   1.91008
   A10        1.95124  -0.02067   0.00000  -0.03842  -0.03838   1.91286
   A11        1.86935   0.00043   0.00000   0.00078  -0.00006   1.86929
   A12        1.95133  -0.00276   0.00000  -0.01373  -0.01363   1.93770
   A13        1.92351  -0.00619   0.00000  -0.01901  -0.01881   1.90470
   A14        1.95430  -0.01071   0.00000  -0.02065  -0.02075   1.93355
   A15        1.95747  -0.00936   0.00000  -0.01743  -0.01751   1.93996
   A16        1.92024   0.00016   0.00000  -0.00343  -0.00349   1.91675
   A17        1.89448   0.01243   0.00000   0.02591   0.02578   1.92026
   A18        1.86899   0.00454   0.00000   0.00851   0.00843   1.87742
   A19        1.86406   0.00435   0.00000   0.00990   0.00985   1.87391
    D1       -1.04115  -0.00037   0.00000   0.00045   0.00046  -1.04070
    D2        1.10420   0.00046   0.00000   0.00411   0.00412   1.10832
    D3       -3.11184   0.00034   0.00000   0.00355   0.00353  -3.10831
    D4       -0.92939  -0.00821   0.00000  -0.02538  -0.02624  -0.95563
    D5        1.08393   0.00815   0.00000   0.01376   0.01470   1.09863
    D6       -3.09135  -0.00078   0.00000  -0.00497  -0.00505  -3.09641
    D7       -3.03904  -0.00004   0.00000  -0.00219  -0.00218  -3.04121
    D8        1.10931  -0.00150   0.00000  -0.00800  -0.00802   1.10130
    D9       -0.96278  -0.00109   0.00000  -0.00700  -0.00699  -0.96978
   D10        1.11329  -0.00147   0.00000  -0.00657  -0.00662   1.10667
   D11       -1.02154  -0.00293   0.00000  -0.01238  -0.01246  -1.03401
   D12       -3.09364  -0.00252   0.00000  -0.01139  -0.01144  -3.10508
   D13       -0.96369   0.00386   0.00000   0.01385   0.01392  -0.94977
   D14       -3.09852   0.00240   0.00000   0.00804   0.00807  -3.09044
   D15        1.11257   0.00281   0.00000   0.00903   0.00910   1.12167
         Item               Value     Threshold  Converged?
 Maximum Force            0.034962     0.000450     NO 
 RMS     Force            0.008537     0.000300     NO 
 Maximum Displacement     0.134492     0.001800     NO 
 RMS     Displacement     0.046449     0.001200     NO 
 Predicted change in Energy=-4.424841D-03
 Lowest energy point so far.  Saving SCF results.
 GradGradGradGradGradGradGradGradGradGradGradGradGradGradGradGradGradGrad

 Leave Link  103 at Wed Mar  2 00:03:20 2022, MaxMem=   104857600 cpu:               0.1 elap:               0.0
 (Enter /dades/curu/g16A03_MST/g16/l202.exe)
                          Input orientation:                          
 ---------------------------------------------------------------------
 Center     Atomic      Atomic             Coordinates (Angstroms)
 Number     Number       Type             X           Y           Z
 ---------------------------------------------------------------------
      1          6           0       -1.928240    0.168520    0.246962
      2          8           0       -0.585714    0.650349    0.267803
      3          6           0        0.341074   -0.286865   -0.219059
      4          9           0        0.230818   -1.458126    0.455440
      5          9           0        0.073545   -0.551086   -1.525257
      6          6           0        1.756334    0.282583   -0.102331
      7         17           0        2.948111   -0.815272   -0.865543
      8         17           0        2.197830    0.572278    1.611030
      9          1           0       -2.238084   -0.091180   -0.768801
     10          1           0       -2.048578   -0.691753    0.909842
     11          1           0       -2.560198    0.981662    0.609995
     12          1           0        1.813103    1.239890   -0.619080
 ---------------------------------------------------------------------
                    Distance matrix (angstroms):
                    1          2          3          4          5
     1  C    0.000000
     2  O    1.426524   0.000000
     3  C    2.361004   1.405112   0.000000
     4  F    2.711268   2.268832   1.356082   0.000000
     5  F    2.768707   2.256797   1.359241   2.184174   0.000000
     6  C    3.702851   2.399466   1.529986   2.380835   2.356162
     7  Cl   5.097481   3.990042   2.737480   3.089003   2.961106
     8  Cl   4.364419   3.091677   2.744976   3.054024   3.951054
     9  H    1.093262   2.086802   2.644346   3.076165   2.475353
    10  H    1.092685   2.086486   2.673722   2.447336   3.233095
    11  H    1.091954   2.031121   3.273205   3.710287   3.720917
    12  H    3.986917   2.624584   2.158209   3.307191   2.656090
                    6          7          8          9         10
     6  C    0.000000
     7  Cl   1.791120   0.000000
     8  Cl   1.792888   2.936261   0.000000
     9  H    4.066849   5.237394   5.077510   0.000000
    10  H    4.056005   5.304163   4.485690   1.792888   0.000000
    11  H    4.430414   5.978935   4.879395   1.776465   1.775382
    12  H    1.089353   2.360653   2.359472   4.266882   4.580549
                   11         12
    11  H    0.000000
    12  H    4.550063   0.000000
 Stoichiometry    C3H4Cl2F2O
 Framework group  C1[X(C3H4Cl2F2O)]
 Deg. of freedom    30
 Full point group                 C1      NOp   1
 RotChk:  IX=0 Diff= 1.81D-02
 Largest Abelian subgroup         C1      NOp   1
 Largest concise Abelian subgroup C1      NOp   1
                         Standard orientation:                         
 ---------------------------------------------------------------------
 Center     Atomic      Atomic             Coordinates (Angstroms)
 Number     Number       Type             X           Y           Z
 ---------------------------------------------------------------------
      1          6           0       -2.934045    0.289103   -0.054890
      2          8           0       -1.619439    0.559168   -0.538467
      3          6           0       -0.649820   -0.305916   -0.003856
      4          9           0       -0.687431   -0.281685    1.351487
      5          9           0       -0.920066   -1.581280   -0.388498
      6          6           0        0.733940    0.091447   -0.521706
      7         17           0        1.973148   -1.089335    0.005769
      8         17           0        1.181943    1.738233    0.027691
      9          1           0       -3.242906   -0.730311   -0.301107
     10          1           0       -2.998728    0.453013    1.023493
     11          1           0       -3.604226    0.990146   -0.556647
     12          1           0        0.731848    0.101413   -1.611011
 ---------------------------------------------------------------------
 Rotational constants (GHZ):           1.9850298           1.1252573           0.8359307
 Leave Link  202 at Wed Mar  2 00:03:20 2022, MaxMem=   104857600 cpu:               0.0 elap:               0.0
 (Enter /dades/curu/g16A03_MST/g16/l301.exe)
 Standard basis: 6-31G(d) (6D, 7F)
 Ernie: Thresh=  0.10000D-02 Tol=  0.10000D-05 Strict=F.
 There are   136 symmetry adapted cartesian basis functions of A   symmetry.
 There are   136 symmetry adapted basis functions of A   symmetry.
   136 basis functions,   288 primitive gaussians,   136 cartesian basis functions
    41 alpha electrons       41 beta electrons
       nuclear repulsion energy       588.4435996602 Hartrees.
 IExCor=  402 DFT=T Ex+Corr=B3LYP ExCW=0 ScaHFX=  0.200000
 ScaDFX=  0.800000  0.720000  1.000000  0.810000 ScalE2=  1.000000  1.000000
 IRadAn=      5 IRanWt=     -1 IRanGd=            0 ICorTp=0 IEmpDi=  4
 NAtoms=   12 NActive=   12 NUniq=   12 SFac= 1.00D+00 NAtFMM=   60 NAOKFM=F Big=F
 Integral buffers will be    131072 words long.
 Raffenetti 2 integral format.
 Two-electron integral symmetry is turned on.
 ------------------------------------------------------------------------------
 Polarizable Continuum Model (PCM)
 =================================
 Model                : PCM.
 Atomic radii         : MST.
 Polarization charges : Total charges.
 Charge compensation  : None.
 Solution method      : On-the-fly selection.
 Cavity type          : Scaled VdW (van der Waals Surface) (Alpha=1.250).
 Cavity algorithm     : GePol (No added spheres)
                        Default sphere list used, NSphG=   12.
                        Lebedev-Laikov grids with approx.  5.0 points / Ang**2.
                        Smoothing algorithm: York/Karplus (Gamma=1.0000).
                        Polarization charges: spherical gaussians, with
                                              point-specific exponents (IZeta= 3).
                        Self-potential: point-specific (ISelfS= 7).
                        Self-field    : sphere-specific E.n sum rule (ISelfD= 2).
 1st derivatives      : Analytical E(r).r(x)/FMM algorithm (CHGder, D1EAlg=3).
                        Cavity 1st derivative terms included.
 Solvent              : Water, Eps=  78.355300 Eps(inf)=   1.777849
 ------------------------------------------------------------------------------
 Spheres list:
 ISph  on   Nord     Re0    Alpha      Xe            Ye            Ze
    1   C      1    1.5000  1.250     -2.934045      0.289103     -0.054890
    2   O      2    1.4000  1.250     -1.619439      0.559168     -0.538467
    3   C      3    1.5000  1.250     -0.649820     -0.305916     -0.003856
    4   F      4    1.3500  1.250     -0.687431     -0.281685      1.351487
    5   F      5    1.3500  1.250     -0.920066     -1.581280     -0.388498
    6   C      6    1.5000  1.250      0.733940      0.091447     -0.521706
    7  Cl      7    1.8000  1.250      1.973148     -1.089335      0.005769
    8  Cl      8    1.8000  1.250      1.181943      1.738233      0.027691
    9   H      9    1.2000  1.250     -3.242906     -0.730311     -0.301107
   10   H     10    1.2000  1.250     -2.998728      0.453013      1.023493
   11   H     11    1.2000  1.250     -3.604226      0.990146     -0.556647
   12   H     12    1.2000  1.250      0.731848      0.101413     -1.611011
 ------------------------------------------------------------------------------
 GePol: Number of generator spheres                  =      12
 GePol: Total number of spheres                      =      12
 GePol: Number of exposed spheres                    =      12 (100.00%)
 GePol: Number of points                             =    1248
 GePol: Average weight of points                     =       0.14
 GePol: Minimum weight of points                     =   0.40D-07
 GePol: Maximum weight of points                     =    0.22001
 GePol: Number of points with low weight             =      46
 GePol: Fraction of low-weight points (<1% of avg)   =       3.69%
 GePol: Cavity surface area                          =    179.952 Ang**2
 GePol: Cavity volume                                =    166.631 Ang**3
 Surface areas from nonelectrostatic (unscaled) cavity and vdw tensions:
 Sphere =    1 Type =  CH3 Surf =        5.340 Tension =       -0.140
 Sphere =    2 Type =  O   Surf =       10.290 Tension =       -0.117
 Sphere =    3 Type =  C   Surf =        2.110 Tension =       -0.101
 Sphere =    4 Type =  F   Surf =       14.635 Tension =       -0.078
 Sphere =    5 Type =  F   Surf =       14.597 Tension =       -0.078
 Sphere =    6 Type =  CH  Surf =        1.683 Tension =       -0.140
 Sphere =    7 Type =  Cl  Surf =       31.063 Tension =       -0.112
 Sphere =    8 Type =  Cl  Surf =       31.201 Tension =       -0.112
 Sphere =    9 Type =  CH3 Surf =        9.931 Tension =       -0.140
 Sphere =   10 Type =  CH3 Surf =        9.878 Tension =       -0.140
 Sphere =   11 Type =  CH3 Surf =       10.123 Tension =       -0.140
 Sphere =   12 Type =  CH  Surf =        9.508 Tension =       -0.140
 PCM non-electrostatic energy =         0.0045955586 Hartrees.
 Nuclear repulsion after PCM non-electrostatic terms =      588.4481952189 Hartrees.
 Leave Link  301 at Wed Mar  2 00:03:20 2022, MaxMem=   104857600 cpu:               0.1 elap:               0.1
 (Enter /dades/curu/g16A03_MST/g16/l302.exe)
 NPDir=0 NMtPBC=     1 NCelOv=     1 NCel=       1 NClECP=     1 NCelD=      1
         NCelK=      1 NCelE2=     1 NClLst=     1 CellRange=     0.0.
 One-electron integrals computed using PRISM.
 One-electron integral symmetry used in STVInt
 NBasis=   136 RedAO= T EigKep=  2.01D-03  NBF=   136
 NBsUse=   136 1.00D-06 EigRej= -1.00D+00 NBFU=   136
 Precomputing XC quadrature grid using
 IXCGrd= 4 IRadAn=           5 IRanWt=          -1 IRanGd=           0 AccXCQ= 0.00D+00.
 Generated NRdTot=       0 NPtTot=           0 NUsed=           0 NTot=          32
 NSgBfM=   136   136   136   136   136 MxSgAt=    12 MxSgA2=    12.
 Leave Link  302 at Wed Mar  2 00:03:20 2022, MaxMem=   104857600 cpu:               0.7 elap:               0.2
 (Enter /dades/curu/g16A03_MST/g16/l303.exe)
 DipDrv:  MaxL=1.
 Leave Link  303 at Wed Mar  2 00:03:20 2022, MaxMem=   104857600 cpu:               0.1 elap:               0.0
 (Enter /dades/curu/g16A03_MST/g16/l401.exe)
 Initial guess from the checkpoint file:  "126.n.pdb.xyz.mst.wat.chk"
 B after Tr=    -0.000000    0.000000   -0.000000
         Rot=    0.999929   -0.002169   -0.000957   -0.011641 Ang=  -1.36 deg.
 Guess basis will be translated and rotated to current coordinates.
 JPrj=2 DoOrth=T DoCkMO=T.
 Generating alternative initial guess.
 ExpMin= 1.43D-01 ExpMax= 2.52D+04 ExpMxC= 3.78D+03 IAcc=2 IRadAn=         4 AccDes= 0.00D+00
 Harris functional with IExCor=  402 and IRadAn=       4 diagonalized for initial guess.
 HarFok:  IExCor=  402 AccDes= 0.00D+00 IRadAn=         4 IDoV= 1 UseB2=F ITyADJ=14
 ICtDFT=  3500011 ScaDFX=  1.000000  1.000000  1.000000  1.000000
 FoFCou: FMM=F IPFlag=           0 FMFlag=      100000 FMFlg1=           0
         NFxFlg=           0 DoJE=T BraDBF=F KetDBF=T FulRan=T
         wScrn=  0.000000 ICntrl=       500 IOpCl=  0 I1Cent=   200000004 NGrid=           0
         NMat0=    1 NMatS0=      1 NMatT0=    0 NMatD0=    1 NMtDS0=    0 NMtDT0=    0
 Petite list used in FoFCou.
 Harris En= -1311.84409323362    
 Leave Link  401 at Wed Mar  2 00:03:21 2022, MaxMem=   104857600 cpu:               2.4 elap:               0.7
 (Enter /dades/curu/g16A03_MST/g16/l502.exe)
 Keep R1 ints in memory in canonical form, NReq=47249868.
 FoFCou: FMM=F IPFlag=           0 FMFlag=           0 FMFlg1=           0
         NFxFlg=           0 DoJE=F BraDBF=F KetDBF=F FulRan=T
         wScrn=  0.000000 ICntrl=       600 IOpCl=  0 I1Cent=           0 NGrid=           0
         NMat0=    1 NMatS0=   9316 NMatT0=    0 NMatD0=    1 NMtDS0=    0 NMtDT0=    0
 Symmetry not used in FoFCou.
 Two-electron integral symmetry not used.
 Closed shell SCF:
 Using DIIS extrapolation, IDIIS=  1040.
 NGot=   104857600 LenX=    61419668 LenY=    61400731
 Requested convergence on RMS density matrix=1.00D-08 within2000 cycles.
 Requested convergence on MAX density matrix=1.00D-06.
 Requested convergence on             energy=1.00D-06.
 No special actions if energy rises.

 Cycle   1  Pass 1  IDiag  1:
 Inv3:  Mode=1 IEnd=     4672512.
 Iteration    1 A*A^-1 deviation from unit magnitude is 4.22D-15 for    513.
 Iteration    1 A*A^-1 deviation from orthogonality  is 1.85D-15 for   1111    495.
 Iteration    1 A^-1*A deviation from unit magnitude is 4.88D-15 for    513.
 Iteration    1 A^-1*A deviation from orthogonality  is 1.31D-15 for    537     34.
 E= -1312.00793769208    
 DIIS: error= 1.84D-03 at cycle   1 NSaved=   1.
 NSaved= 1 IEnMin= 1 EnMin= -1312.00793769208     IErMin= 1 ErrMin= 1.84D-03
 ErrMax= 1.84D-03  0.00D+00 EMaxC= 1.00D-01 BMatC= 1.45D-03 BMatP= 1.45D-03
 IDIUse=3 WtCom= 9.82D-01 WtEn= 1.84D-02
 Coeff-Com:  0.100D+01
 Coeff-En:   0.100D+01
 Coeff:      0.100D+01
 Gap=     1.350 Goal=   None    Shift=    0.000
 GapD=    1.350 DampG=2.000 DampE=1.000 DampFc=2.0000 IDamp=-1.
 RMSDP=4.96D-04 MaxDP=7.15D-03              OVMax= 1.49D-02

 Cycle   2  Pass 1  IDiag  1:
 E= -1312.01055034454     Delta-E=       -0.002612652464 Rises=F Damp=F
 DIIS: error= 3.26D-04 at cycle   2 NSaved=   2.
 NSaved= 2 IEnMin= 2 EnMin= -1312.01055034454     IErMin= 2 ErrMin= 3.26D-04
 ErrMax= 3.26D-04  0.00D+00 EMaxC= 1.00D-01 BMatC= 4.99D-05 BMatP= 1.45D-03
 IDIUse=3 WtCom= 9.97D-01 WtEn= 3.26D-03
 Coeff-Com: -0.177D-01 0.102D+01
 Coeff-En:   0.000D+00 0.100D+01
 Coeff:     -0.176D-01 0.102D+01
 Gap=     0.284 Goal=   None    Shift=    0.000
 RMSDP=9.30D-05 MaxDP=2.67D-03 DE=-2.61D-03 OVMax= 2.65D-03

 Cycle   3  Pass 1  IDiag  1:
 E= -1312.01054794388     Delta-E=        0.000002400663 Rises=F Damp=F
 DIIS: error= 4.83D-04 at cycle   3 NSaved=   3.
 NSaved= 3 IEnMin= 2 EnMin= -1312.01055034454     IErMin= 2 ErrMin= 3.26D-04
 ErrMax= 4.83D-04  0.00D+00 EMaxC= 1.00D-01 BMatC= 7.49D-05 BMatP= 4.99D-05
 IDIUse=3 WtCom= 3.13D-01 WtEn= 6.87D-01
 Coeff-Com: -0.411D-01 0.585D+00 0.456D+00
 Coeff-En:   0.000D+00 0.514D+00 0.486D+00
 Coeff:     -0.128D-01 0.536D+00 0.477D+00
 Gap=     0.286 Goal=   None    Shift=    0.000
 RMSDP=5.64D-05 MaxDP=2.02D-03 DE= 2.40D-06 OVMax= 1.77D-03

 Cycle   4  Pass 1  IDiag  1:
 E= -1312.01059909930     Delta-E=       -0.000051155419 Rises=F Damp=F
 DIIS: error= 1.11D-04 at cycle   4 NSaved=   4.
 NSaved= 4 IEnMin= 4 EnMin= -1312.01059909930     IErMin= 4 ErrMin= 1.11D-04
 ErrMax= 1.11D-04  0.00D+00 EMaxC= 1.00D-01 BMatC= 4.55D-06 BMatP= 4.99D-05
 IDIUse=3 WtCom= 9.99D-01 WtEn= 1.11D-03
 Coeff-Com: -0.134D-01 0.139D+00 0.240D+00 0.634D+00
 Coeff-En:   0.000D+00 0.000D+00 0.000D+00 0.100D+01
 Coeff:     -0.134D-01 0.139D+00 0.240D+00 0.635D+00
 Gap=     0.285 Goal=   None    Shift=    0.000
 RMSDP=1.23D-05 MaxDP=4.10D-04 DE=-5.12D-05 OVMax= 4.09D-04

 Cycle   5  Pass 1  IDiag  1:
 E= -1312.01060223365     Delta-E=       -0.000003134353 Rises=F Damp=F
 DIIS: error= 1.49D-05 at cycle   5 NSaved=   5.
 NSaved= 5 IEnMin= 5 EnMin= -1312.01060223365     IErMin= 5 ErrMin= 1.49D-05
 ErrMax= 1.49D-05  0.00D+00 EMaxC= 1.00D-01 BMatC= 1.01D-07 BMatP= 4.55D-06
 IDIUse=1 WtCom= 1.00D+00 WtEn= 0.00D+00
 Coeff-Com: -0.309D-02 0.230D-01 0.729D-01 0.255D+00 0.652D+00
 Coeff:     -0.309D-02 0.230D-01 0.729D-01 0.255D+00 0.652D+00
 Gap=     0.285 Goal=   None    Shift=    0.000
 RMSDP=2.60D-06 MaxDP=8.08D-05 DE=-3.13D-06 OVMax= 5.71D-05

 Cycle   6  Pass 1  IDiag  1:
 E= -1312.01060231439     Delta-E=       -0.000000080740 Rises=F Damp=F
 DIIS: error= 5.64D-06 at cycle   6 NSaved=   6.
 NSaved= 6 IEnMin= 6 EnMin= -1312.01060231439     IErMin= 6 ErrMin= 5.64D-06
 ErrMax= 5.64D-06  0.00D+00 EMaxC= 1.00D-01 BMatC= 7.53D-09 BMatP= 1.01D-07
 IDIUse=1 WtCom= 1.00D+00 WtEn= 0.00D+00
 Coeff-Com: -0.363D-04-0.399D-02 0.838D-02 0.493D-01 0.259D+00 0.687D+00
 Coeff:     -0.363D-04-0.399D-02 0.838D-02 0.493D-01 0.259D+00 0.687D+00
 Gap=     0.285 Goal=   None    Shift=    0.000
 RMSDP=6.42D-07 MaxDP=1.82D-05 DE=-8.07D-08 OVMax= 1.41D-05

 Cycle   7  Pass 1  IDiag  1:
 E= -1312.01060232058     Delta-E=       -0.000000006186 Rises=F Damp=F
 DIIS: error= 1.48D-06 at cycle   7 NSaved=   7.
 NSaved= 7 IEnMin= 7 EnMin= -1312.01060232058     IErMin= 7 ErrMin= 1.48D-06
 ErrMax= 1.48D-06  0.00D+00 EMaxC= 1.00D-01 BMatC= 7.29D-10 BMatP= 7.53D-09
 IDIUse=1 WtCom= 1.00D+00 WtEn= 0.00D+00
 Coeff-Com:  0.152D-03-0.323D-02-0.303D-03 0.862D-02 0.824D-01 0.317D+00
 Coeff-Com:  0.595D+00
 Coeff:      0.152D-03-0.323D-02-0.303D-03 0.862D-02 0.824D-01 0.317D+00
 Coeff:      0.595D+00
 Gap=     0.285 Goal=   None    Shift=    0.000
 RMSDP=2.00D-07 MaxDP=4.11D-06 DE=-6.19D-09 OVMax= 4.56D-06

 Cycle   8  Pass 1  IDiag  1:
 E= -1312.01060232111     Delta-E=       -0.000000000528 Rises=F Damp=F
 DIIS: error= 4.09D-07 at cycle   8 NSaved=   8.
 NSaved= 8 IEnMin= 8 EnMin= -1312.01060232111     IErMin= 8 ErrMin= 4.09D-07
 ErrMax= 4.09D-07  0.00D+00 EMaxC= 1.00D-01 BMatC= 5.59D-11 BMatP= 7.29D-10
 IDIUse=1 WtCom= 1.00D+00 WtEn= 0.00D+00
 Coeff-Com:  0.648D-04-0.104D-02-0.741D-03 0.561D-04 0.141D-01 0.798D-01
 Coeff-Com:  0.269D+00 0.639D+00
 Coeff:      0.648D-04-0.104D-02-0.741D-03 0.561D-04 0.141D-01 0.798D-01
 Coeff:      0.269D+00 0.639D+00
 Gap=     0.285 Goal=   None    Shift=    0.000
 RMSDP=6.59D-08 MaxDP=1.58D-06 DE=-5.28D-10 OVMax= 1.62D-06

 Cycle   9  Pass 1  IDiag  1:
 E= -1312.01060232117     Delta-E=       -0.000000000061 Rises=F Damp=F
 DIIS: error= 1.62D-07 at cycle   9 NSaved=   9.
 NSaved= 9 IEnMin= 9 EnMin= -1312.01060232117     IErMin= 9 ErrMin= 1.62D-07
 ErrMax= 1.62D-07  0.00D+00 EMaxC= 1.00D-01 BMatC= 3.09D-12 BMatP= 5.59D-11
 IDIUse=1 WtCom= 1.00D+00 WtEn= 0.00D+00
 Coeff-Com:  0.192D-04-0.255D-03-0.327D-03-0.560D-03 0.619D-03 0.141D-01
 Coeff-Com:  0.809D-01 0.278D+00 0.628D+00
 Coeff:      0.192D-04-0.255D-03-0.327D-03-0.560D-03 0.619D-03 0.141D-01
 Coeff:      0.809D-01 0.278D+00 0.628D+00
 Gap=     0.285 Goal=   None    Shift=    0.000
 RMSDP=1.49D-08 MaxDP=3.50D-07 DE=-6.09D-11 OVMax= 3.99D-07

 Cycle  10  Pass 1  IDiag  1:
 E= -1312.01060232116     Delta-E=        0.000000000014 Rises=F Damp=F
 DIIS: error= 4.20D-08 at cycle  10 NSaved=  10.
 NSaved=10 IEnMin= 9 EnMin= -1312.01060232117     IErMin=10 ErrMin= 4.20D-08
 ErrMax= 4.20D-08  0.00D+00 EMaxC= 1.00D-01 BMatC= 3.80D-13 BMatP= 3.09D-12
 IDIUse=1 WtCom= 1.00D+00 WtEn= 0.00D+00
 Coeff-Com:  0.227D-05-0.230D-05-0.858D-04-0.324D-03-0.160D-02-0.314D-02
 Coeff-Com:  0.824D-02 0.667D-01 0.302D+00 0.628D+00
 Coeff:      0.227D-05-0.230D-05-0.858D-04-0.324D-03-0.160D-02-0.314D-02
 Coeff:      0.824D-02 0.667D-01 0.302D+00 0.628D+00
 Gap=     0.285 Goal=   None    Shift=    0.000
 RMSDP=4.82D-09 MaxDP=1.06D-07 DE= 1.41D-11 OVMax= 1.19D-07

 Error on total polarization charges =  0.00863
 SCF Done:  E(RB3LYP) =  -1312.01060232     A.U. after   10 cycles
            NFock= 10  Conv=0.48D-08     -V/T= 2.0045
 KE= 1.306180153355D+03 PE=-4.287683705768D+03 EE= 1.081044754873D+03
 Leave Link  502 at Wed Mar  2 00:03:43 2022, MaxMem=   104857600 cpu:              85.0 elap:              22.4
 (Enter /dades/curu/g16A03_MST/g16/l701.exe)
 ... and contract with generalized density number  0.
 Compute integral first derivatives.
 D1PCM: PCM CHGder 1st derivatives, ID1Alg=3 FixD1E=F DoIter=F DoCFld=F I1PDM=0.
 GePol: Maximum number of non-zero 1st derivatives   =     327
 Leave Link  701 at Wed Mar  2 00:03:44 2022, MaxMem=   104857600 cpu:               3.5 elap:               0.9
 (Enter /dades/curu/g16A03_MST/g16/l702.exe)
 L702 exits ... SP integral derivatives will be done elsewhere.
 Leave Link  702 at Wed Mar  2 00:03:44 2022, MaxMem=   104857600 cpu:               0.1 elap:               0.0
 (Enter /dades/curu/g16A03_MST/g16/l703.exe)
 Integral derivatives from FoFJK, PRISM(SPDF).
 Compute integral first derivatives, UseDBF=F ICtDFT=           0.
 Calling FoFJK, ICntrl=      2127 FMM=F ISym2X=0 I1Cent= 0 IOpClX= 0 NMat=1 NMatS=1 NMatT=0.
 FoFJK:  IHMeth= 1 ICntrl=    2127 DoSepK=F KAlg= 0 I1Cent=           0 FoldK=F
 IRaf=         0 NMat=       1 IRICut=       1 DoRegI=T DoRafI=F ISym2E= 0 IDoP0=0 IntGTp=1.
 FoFCou: FMM=F IPFlag=           0 FMFlag=      100000 FMFlg1=         800
         NFxFlg=           0 DoJE=F BraDBF=F KetDBF=F FulRan=T
         wScrn=  0.000000 ICntrl=      2127 IOpCl=  0 I1Cent=           0 NGrid=           0
         NMat0=    1 NMatS0=      1 NMatT0=    0 NMatD0=    1 NMtDS0=    0 NMtDT0=    0
 Symmetry not used in FoFCou.
 Leave Link  703 at Wed Mar  2 00:03:49 2022, MaxMem=   104857600 cpu:              17.6 elap:               4.4
 (Enter /dades/curu/g16A03_MST/g16/l716.exe)
 Dipole        =-9.39845346D-01-9.05774852D-03-4.91343092D-01
 ***** Axes restored to original set *****
 -------------------------------------------------------------------
 Center     Atomic                   Forces (Hartrees/Bohr)
 Number     Number              X              Y              Z
 -------------------------------------------------------------------
      1        6          -0.014109526   -0.001214620    0.001242419
      2        8           0.030317636   -0.016801522   -0.008792570
      3        6          -0.027450944    0.019600288    0.011480280
      4        9           0.001909411   -0.001960778   -0.001799599
      5        9           0.002826221   -0.002900176   -0.000875999
      6        6           0.005233721    0.007129234    0.000224358
      7       17          -0.001649498   -0.000875369   -0.001540680
      8       17          -0.002475945    0.000297237   -0.000029137
      9        1           0.001423957   -0.000693582    0.000432089
     10        1           0.001321951   -0.000105263   -0.001196606
     11        1           0.003313767    0.000482826   -0.000364593
     12        1          -0.000660751   -0.002958274    0.001220038
 -------------------------------------------------------------------
 Cartesian Forces:  Max     0.030317636 RMS     0.008969907
 Leave Link  716 at Wed Mar  2 00:03:49 2022, MaxMem=   104857600 cpu:               0.1 elap:               0.0
 (Enter /dades/curu/g16A03_MST/g16/l103.exe)

 GradGradGradGradGradGradGradGradGradGradGradGradGradGradGradGradGradGrad
 Berny optimization.
 Using GEDIIS/GDIIS optimizer.
 FormGI is forming the generalized inverse of G from B-inverse, IUseBI=4.
 Internal  Forces:  Max     0.029889227 RMS     0.005254768
 Search for a local minimum.
 Step number   2 out of a maximum of  100
 All quantities printed in internal units (Hartrees-Bohrs-Radians)
 RMS Force = .52548D-02 SwitMx=.10000D-02 MixMth= 1
 Mixed Optimization -- RFO/linear search
 Update second derivatives using D2CorX and points    1    2
 DE= -4.42D-03 DEPred=-4.42D-03 R= 9.98D-01
 TightC=F SS=  1.41D+00  RLast= 1.08D-01 DXNew= 1.6818D-01 3.2372D-01
 Trust test= 9.98D-01 RLast= 1.08D-01 DXMaxT set to 1.68D-01
 ITU=  1  0
 Use linear search instead of GDIIS.
     Eigenvalues ---    0.00295   0.01337   0.01438   0.06040   0.07025
     Eigenvalues ---    0.07644   0.08434   0.10065   0.10619   0.15437
     Eigenvalues ---    0.16000   0.16000   0.16087   0.20225   0.21412
     Eigenvalues ---    0.22950   0.23499   0.24558   0.25010   0.26684
     Eigenvalues ---    0.26836   0.30666   0.34125   0.34343   0.34366
     Eigenvalues ---    0.34369   0.40455   0.43430   0.53156   0.53808
 RFO step:  Lambda=-2.45810280D-03 EMin= 2.94962787D-03
 Quartic linear search produced a step of  0.66677.
 Iteration  1 RMS(Cart)=  0.03459491 RMS(Int)=  0.00065947
 Iteration  2 RMS(Cart)=  0.00065556 RMS(Int)=  0.00022444
 Iteration  3 RMS(Cart)=  0.00000032 RMS(Int)=  0.00022444
 ITry= 1 IFail=0 DXMaxC= 1.14D-01 DCOld= 1.00D+10 DXMaxT= 1.68D-01 DXLimC= 3.00D+00 Rises=F
 Variable       Old X    -DE/DX   Delta X   Delta X   Delta X     New X
                                 (Linear)    (Quad)   (Total)
    R1        2.69574   0.00807   0.00920   0.01666   0.02586   2.72160
    R2        2.06597  -0.00064  -0.00107  -0.00130  -0.00237   2.06360
    R3        2.06488  -0.00080  -0.00154  -0.00128  -0.00282   2.06206
    R4        2.06349  -0.00167  -0.00249  -0.00389  -0.00637   2.05712
    R5        2.65528  -0.02989  -0.02721  -0.07551  -0.10272   2.55256
    R6        2.56262   0.00065  -0.00035   0.00252   0.00218   2.56480
    R7        2.56859   0.00085   0.00006   0.00255   0.00261   2.57121
    R8        2.89125   0.00173  -0.00707   0.02213   0.01505   2.90631
    R9        3.38473   0.00010   0.00010   0.00045   0.00055   3.38528
   R10        3.38807  -0.00059  -0.00029  -0.00314  -0.00342   3.38465
   R11        2.05858  -0.00322  -0.00565  -0.00606  -0.01172   2.04686
    A1        1.93964  -0.00078   0.00180  -0.01293  -0.01125   1.92839
    A2        1.93982  -0.00072   0.00330  -0.01514  -0.01196   1.92786
    A3        1.86323  -0.00357  -0.01612  -0.00092  -0.01712   1.84611
    A4        1.92348   0.00017  -0.00091   0.00013  -0.00094   1.92254
    A5        1.89839   0.00237   0.00557   0.01440   0.01987   1.91826
    A6        1.89743   0.00258   0.00621   0.01584   0.02197   1.91940
    A7        1.97185   0.00611   0.01741   0.00883   0.02624   1.99810
    A8        1.92850   0.00467   0.02129  -0.00281   0.01812   1.94662
    A9        1.91008   0.00577   0.02799  -0.00669   0.02087   1.93095
   A10        1.91286  -0.00817  -0.02559  -0.00380  -0.02927   1.88359
   A11        1.86929  -0.00169  -0.00004  -0.01605  -0.01676   1.85253
   A12        1.93770   0.00059  -0.00909   0.01707   0.00815   1.94585
   A13        1.90470  -0.00091  -0.01254   0.01203  -0.00028   1.90442
   A14        1.93355  -0.00395  -0.01384  -0.00085  -0.01480   1.91874
   A15        1.93996  -0.00379  -0.01168  -0.00385  -0.01564   1.92432
   A16        1.91675   0.00036  -0.00233   0.00454   0.00217   1.91892
   A17        1.92026   0.00479   0.01719   0.00302   0.02004   1.94030
   A18        1.87742   0.00144   0.00562  -0.00045   0.00512   1.88254
   A19        1.87391   0.00150   0.00657  -0.00232   0.00422   1.87813
    D1       -1.04070   0.00042   0.00030  -0.00176  -0.00151  -1.04221
    D2        1.10832  -0.00043   0.00275  -0.02163  -0.01882   1.08950
    D3       -3.10831   0.00014   0.00235  -0.01144  -0.00910  -3.11741
    D4       -0.95563  -0.00224  -0.01750   0.01822  -0.00002  -0.95565
    D5        1.09863   0.00197   0.00980  -0.00713   0.00350   1.10213
    D6       -3.09641  -0.00059  -0.00337   0.00119  -0.00227  -3.09868
    D7       -3.04121   0.00003  -0.00145   0.01270   0.01125  -3.02997
    D8        1.10130  -0.00067  -0.00535   0.01212   0.00671   1.10800
    D9       -0.96978  -0.00040  -0.00466   0.01448   0.00980  -0.95998
   D10        1.10667  -0.00069  -0.00441   0.00748   0.00305   1.10972
   D11       -1.03401  -0.00140  -0.00831   0.00690  -0.00149  -1.03549
   D12       -3.10508  -0.00112  -0.00763   0.00926   0.00160  -3.10348
   D13       -0.94977   0.00159   0.00928   0.00956   0.01893  -0.93083
   D14       -3.09044   0.00089   0.00538   0.00898   0.01439  -3.07605
   D15        1.12167   0.00116   0.00607   0.01135   0.01748   1.13915
         Item               Value     Threshold  Converged?
 Maximum Force            0.029889     0.000450     NO 
 RMS     Force            0.005255     0.000300     NO 
 Maximum Displacement     0.113986     0.001800     NO 
 RMS     Displacement     0.034742     0.001200     NO 
 Predicted change in Energy=-2.603613D-03
 Lowest energy point so far.  Saving SCF results.
 GradGradGradGradGradGradGradGradGradGradGradGradGradGradGradGradGradGrad

 Leave Link  103 at Wed Mar  2 00:03:49 2022, MaxMem=   104857600 cpu:               0.0 elap:               0.0
 (Enter /dades/curu/g16A03_MST/g16/l202.exe)
                          Input orientation:                          
 ---------------------------------------------------------------------
 Center     Atomic      Atomic             Coordinates (Angstroms)
 Number     Number       Type             X           Y           Z
 ---------------------------------------------------------------------
      1          6           0       -1.919894    0.171961    0.248052
      2          8           0       -0.548409    0.611533    0.245805
      3          6           0        0.331181   -0.301178   -0.220911
      4          9           0        0.229940   -1.477918    0.447756
      5          9           0        0.079198   -0.585588   -1.527400
      6          6           0        1.742960    0.296540   -0.098819
      7         17           0        2.936290   -0.792218   -0.873241
      8         17           0        2.148909    0.581667    1.622189
      9          1           0       -2.241837   -0.081047   -0.764283
     10          1           0       -2.043620   -0.688246    0.907932
     11          1           0       -2.499879    1.013886    0.621934
     12          1           0        1.785160    1.251610   -0.608015
 ---------------------------------------------------------------------
                    Distance matrix (angstroms):
                    1          2          3          4          5
     1  C    0.000000
     2  O    1.440208   0.000000
     3  C    2.347578   1.350756   0.000000
     4  F    2.717309   2.238842   1.357233   0.000000
     5  F    2.778935   2.229629   1.360625   2.172607   0.000000
     6  C    3.681350   2.338452   1.537952   2.395136   2.363705
     7  Cl   5.076363   3.919937   2.730064   3.088616   2.938298
     8  Cl   4.314078   3.028340   2.735063   3.050184   3.945390
     9  H    1.092008   2.089891   2.638964   3.087065   2.494817
    10  H    1.091194   2.088897   2.657778   2.450392   3.232296
    11  H    1.088581   2.027708   3.233370   3.700181   3.718817
    12  H    3.952963   2.565979   2.162188   3.314164   2.670369
                    6          7          8          9         10
     6  C    0.000000
     7  Cl   1.791413   0.000000
     8  Cl   1.791078   2.955452   0.000000
     9  H    4.057588   5.227871   5.041139   0.000000
    10  H    4.039992   5.289886   4.438484   1.790051   0.000000
    11  H    4.362999   5.920262   4.774783   1.785235   1.785278
[...]
 Leave Link  302 at Wed Mar  2 00:12:45 2022, MaxMem=   104857600 cpu:               0.6 elap:               0.2
 (Enter /dades/curu/g16A03_MST/g16/l303.exe)
 DipDrv:  MaxL=1.
 Leave Link  303 at Wed Mar  2 00:12:45 2022, MaxMem=   104857600 cpu:               0.1 elap:               0.0
 (Enter /dades/curu/g16A03_MST/g16/l401.exe)
 Initial guess from the checkpoint file:  "126.n.pdb.xyz.mst.wat.chk"
 B after Tr=     0.000000   -0.000000   -0.000000
         Rot=    1.000000    0.000000   -0.000000   -0.000000 Ang=   0.00 deg.
 Guess basis will be translated and rotated to current coordinates.
 JPrj=2 DoOrth=T DoCkMO=T.
 Leave Link  401 at Wed Mar  2 00:12:46 2022, MaxMem=   104857600 cpu:               0.2 elap:               0.1
 (Enter /dades/curu/g16A03_MST/g16/l502.exe)
 Keep R1 ints in memory in canonical form, NReq=47249868.
 FoFCou: FMM=F IPFlag=           0 FMFlag=           0 FMFlg1=           0
         NFxFlg=           0 DoJE=F BraDBF=F KetDBF=F FulRan=T
         wScrn=  0.000000 ICntrl=       600 IOpCl=  0 I1Cent=           0 NGrid=           0
         NMat0=    1 NMatS0=   9316 NMatT0=    0 NMatD0=    1 NMtDS0=    0 NMtDT0=    0
 Symmetry not used in FoFCou.
 Two-electron integral symmetry not used.
 Closed shell SCF:
 Using DIIS extrapolation, IDIIS=  1040.
 NGot=   104857600 LenX=    61419668 LenY=    61400731
 Requested convergence on RMS density matrix=1.00D-08 within 128 cycles.
 Requested convergence on MAX density matrix=1.00D-06.
 Requested convergence on             energy=1.00D-06.
 No special actions if energy rises.

 Cycle   1  Pass 1  IDiag  1:
 Inv3:  Mode=1 IEnd=     4435968.
 Iteration    1 A*A^-1 deviation from unit magnitude is 5.33D-15 for    507.
 Iteration    1 A*A^-1 deviation from orthogonality  is 1.54D-15 for    373    368.
 Iteration    1 A^-1*A deviation from unit magnitude is 5.11D-15 for    507.
 Iteration    1 A^-1*A deviation from orthogonality  is 1.77D-15 for   1207   1175.
 E= -1312.01247333705    
 DIIS: error= 8.95D-04 at cycle   1 NSaved=   1.
 NSaved= 1 IEnMin= 1 EnMin= -1312.01247333705     IErMin= 1 ErrMin= 8.95D-04
 ErrMax= 8.95D-04  0.00D+00 EMaxC= 1.00D-01 BMatC= 2.56D-04 BMatP= 2.56D-04
 IDIUse=3 WtCom= 9.91D-01 WtEn= 8.95D-03
 Coeff-Com:  0.100D+01
 Coeff-En:   0.100D+01
 Coeff:      0.100D+01
 Gap=     0.295 Goal=   None    Shift=    0.000
 RMSDP=4.65D-04 MaxDP=1.03D-02              OVMax= 8.82D-03

 Cycle   2  Pass 1  IDiag  1:
 E= -1312.01302099769     Delta-E=       -0.000547660642 Rises=F Damp=F
 DIIS: error= 3.40D-04 at cycle   2 NSaved=   2.
 NSaved= 2 IEnMin= 2 EnMin= -1312.01302099769     IErMin= 2 ErrMin= 3.40D-04
 ErrMax= 3.40D-04  0.00D+00 EMaxC= 1.00D-01 BMatC= 6.14D-05 BMatP= 2.56D-04
 IDIUse=3 WtCom= 9.97D-01 WtEn= 3.40D-03
 Coeff-Com:  0.264D+00 0.736D+00
 Coeff-En:   0.000D+00 0.100D+01
 Coeff:      0.263D+00 0.737D+00
 Gap=     0.292 Goal=   None    Shift=    0.000
 RMSDP=9.37D-05 MaxDP=1.52D-03 DE=-5.48D-04 OVMax= 1.81D-03

 Cycle   3  Pass 1  IDiag  1:
 E= -1312.01305918287     Delta-E=       -0.000038185175 Rises=F Damp=F
 DIIS: error= 2.66D-04 at cycle   3 NSaved=   3.
 NSaved= 3 IEnMin= 3 EnMin= -1312.01305918287     IErMin= 3 ErrMin= 2.66D-04
 ErrMax= 2.66D-04  0.00D+00 EMaxC= 1.00D-01 BMatC= 2.54D-05 BMatP= 6.14D-05
 IDIUse=3 WtCom= 9.97D-01 WtEn= 2.66D-03
 Coeff-Com:  0.492D-01 0.381D+00 0.570D+00
 Coeff-En:   0.000D+00 0.193D+00 0.807D+00
 Coeff:      0.490D-01 0.380D+00 0.571D+00
 Gap=     0.293 Goal=   None    Shift=    0.000
 RMSDP=3.60D-05 MaxDP=8.82D-04 DE=-3.82D-05 OVMax= 8.22D-04

 Cycle   4  Pass 1  IDiag  1:
 E= -1312.01307595262     Delta-E=       -0.000016769754 Rises=F Damp=F
 DIIS: error= 8.94D-05 at cycle   4 NSaved=   4.
 NSaved= 4 IEnMin= 4 EnMin= -1312.01307595262     IErMin= 4 ErrMin= 8.94D-05
 ErrMax= 8.94D-05  0.00D+00 EMaxC= 1.00D-01 BMatC= 2.28D-06 BMatP= 2.54D-05
 IDIUse=1 WtCom= 1.00D+00 WtEn= 0.00D+00
 Coeff-Com: -0.630D-02 0.938D-01 0.271D+00 0.641D+00
 Coeff:     -0.630D-02 0.938D-01 0.271D+00 0.641D+00
 Gap=     0.293 Goal=   None    Shift=    0.000
 RMSDP=1.18D-05 MaxDP=2.99D-04 DE=-1.68D-05 OVMax= 3.32D-04

 Cycle   5  Pass 1  IDiag  1:
 E= -1312.01307773106     Delta-E=       -0.000001778435 Rises=F Damp=F
 DIIS: error= 2.05D-05 at cycle   5 NSaved=   5.
 NSaved= 5 IEnMin= 5 EnMin= -1312.01307773106     IErMin= 5 ErrMin= 2.05D-05
 ErrMax= 2.05D-05  0.00D+00 EMaxC= 1.00D-01 BMatC= 1.10D-07 BMatP= 2.28D-06
 IDIUse=1 WtCom= 1.00D+00 WtEn= 0.00D+00
 Coeff-Com: -0.520D-02 0.138D-01 0.640D-01 0.253D+00 0.675D+00
 Coeff:     -0.520D-02 0.138D-01 0.640D-01 0.253D+00 0.675D+00
 Gap=     0.293 Goal=   None    Shift=    0.000
 RMSDP=3.41D-06 MaxDP=6.30D-05 DE=-1.78D-06 OVMax= 8.12D-05

 Cycle   6  Pass 1  IDiag  1:
 E= -1312.01307782381     Delta-E=       -0.000000092751 Rises=F Damp=F
 DIIS: error= 6.79D-06 at cycle   6 NSaved=   6.
 NSaved= 6 IEnMin= 6 EnMin= -1312.01307782381     IErMin= 6 ErrMin= 6.79D-06
 ErrMax= 6.79D-06  0.00D+00 EMaxC= 1.00D-01 BMatC= 1.63D-08 BMatP= 1.10D-07
 IDIUse=1 WtCom= 1.00D+00 WtEn= 0.00D+00
 Coeff-Com: -0.194D-02 0.449D-03 0.109D-01 0.769D-01 0.347D+00 0.567D+00
 Coeff:     -0.194D-02 0.449D-03 0.109D-01 0.769D-01 0.347D+00 0.567D+00
 Gap=     0.293 Goal=   None    Shift=    0.000
 RMSDP=9.94D-07 MaxDP=1.94D-05 DE=-9.28D-08 OVMax= 2.42D-05

 Cycle   7  Pass 1  IDiag  1:
 E= -1312.01307783747     Delta-E=       -0.000000013665 Rises=F Damp=F
 DIIS: error= 1.72D-06 at cycle   7 NSaved=   7.
 NSaved= 7 IEnMin= 7 EnMin= -1312.01307783747     IErMin= 7 ErrMin= 1.72D-06
 ErrMax= 1.72D-06  0.00D+00 EMaxC= 1.00D-01 BMatC= 1.01D-09 BMatP= 1.63D-08
 IDIUse=1 WtCom= 1.00D+00 WtEn= 0.00D+00
 Coeff-Com: -0.448D-03-0.753D-03-0.885D-04 0.153D-01 0.110D+00 0.266D+00
 Coeff-Com:  0.609D+00
 Coeff:     -0.448D-03-0.753D-03-0.885D-04 0.153D-01 0.110D+00 0.266D+00
 Coeff:      0.609D+00
 Gap=     0.293 Goal=   None    Shift=    0.000
 RMSDP=2.30D-07 MaxDP=5.13D-06 DE=-1.37D-08 OVMax= 4.91D-06

 Cycle   8  Pass 1  IDiag  1:
 E= -1312.01307783820     Delta-E=       -0.000000000728 Rises=F Damp=F
 DIIS: error= 5.95D-07 at cycle   8 NSaved=   8.
 NSaved= 8 IEnMin= 8 EnMin= -1312.01307783820     IErMin= 8 ErrMin= 5.95D-07
 ErrMax= 5.95D-07  0.00D+00 EMaxC= 1.00D-01 BMatC= 8.66D-11 BMatP= 1.01D-09
 IDIUse=1 WtCom= 1.00D+00 WtEn= 0.00D+00
 Coeff-Com: -0.571D-04-0.346D-03-0.789D-03 0.855D-03 0.219D-01 0.752D-01
 Coeff-Com:  0.287D+00 0.616D+00
 Coeff:     -0.571D-04-0.346D-03-0.789D-03 0.855D-03 0.219D-01 0.752D-01
 Coeff:      0.287D+00 0.616D+00
 Gap=     0.293 Goal=   None    Shift=    0.000
 RMSDP=6.47D-08 MaxDP=1.48D-06 DE=-7.28D-10 OVMax= 1.48D-06

 Cycle   9  Pass 1  IDiag  1:
 E= -1312.01307783828     Delta-E=       -0.000000000077 Rises=F Damp=F
 DIIS: error= 1.60D-07 at cycle   9 NSaved=   9.
 NSaved= 9 IEnMin= 9 EnMin= -1312.01307783828     IErMin= 9 ErrMin= 1.60D-07
 ErrMax= 1.60D-07  0.00D+00 EMaxC= 1.00D-01 BMatC= 5.24D-12 BMatP= 8.66D-11
 IDIUse=1 WtCom= 1.00D+00 WtEn= 0.00D+00
 Coeff-Com:  0.647D-05-0.110D-03-0.348D-03-0.805D-03 0.167D-02 0.142D-01
 Coeff-Com:  0.839D-01 0.271D+00 0.630D+00
 Coeff:      0.647D-05-0.110D-03-0.348D-03-0.805D-03 0.167D-02 0.142D-01
 Coeff:      0.839D-01 0.271D+00 0.630D+00
 Gap=     0.293 Goal=   None    Shift=    0.000
 RMSDP=1.79D-08 MaxDP=4.39D-07 DE=-7.71D-11 OVMax= 3.77D-07

 Cycle  10  Pass 1  IDiag  1:
 E= -1312.01307783828     Delta-E=        0.000000000001 Rises=F Damp=F
 DIIS: error= 3.74D-08 at cycle  10 NSaved=  10.
 NSaved=10 IEnMin= 9 EnMin= -1312.01307783828     IErMin=10 ErrMin= 3.74D-08
 ErrMax= 3.74D-08  0.00D+00 EMaxC= 1.00D-01 BMatC= 4.71D-13 BMatP= 5.24D-12
 IDIUse=1 WtCom= 1.00D+00 WtEn= 0.00D+00
 Coeff-Com:  0.596D-05-0.309D-04-0.919D-04-0.397D-03-0.727D-03 0.109D-02
 Coeff-Com:  0.166D-01 0.732D-01 0.286D+00 0.624D+00
 Coeff:      0.596D-05-0.309D-04-0.919D-04-0.397D-03-0.727D-03 0.109D-02
 Coeff:      0.166D-01 0.732D-01 0.286D+00 0.624D+00
 Gap=     0.293 Goal=   None    Shift=    0.000
 RMSDP=4.82D-09 MaxDP=9.71D-08 DE= 6.82D-13 OVMax= 1.13D-07

 Error on total polarization charges =  0.00809
 SCF Done:  E(RB3LYP) =  -1312.01307784     A.U. after   10 cycles
            NFock= 10  Conv=0.48D-08     -V/T= 2.0044
 KE= 1.306245317076D+03 PE=-4.290222698484D+03 EE= 1.082366192685D+03
 --------------------------------------------------------------------
 Variational PCM results
 =======================
 <psi(f)|   H    |psi(f)>                     (a.u.) =   -1312.011096
 <psi(f)|H+V(f)/2|psi(f)>                     (a.u.) =   -1312.017742
 Total free energy in solution:
 - with all non electrostatic terms           (a.u.) =   -1312.013078
 --------------------------------------------------------------------
 (Polarized solute)-Solvent               (kcal/mol) =      -4.17
 --------------------------------------------------------------------
 Cavitation energy                        (kcal/mol) =      20.16
 MST dispersion + repulsion energy        (kcal/mol) =     -17.23
 Total non electrostatic                  (kcal/mol) =       2.93
 --------------------------------------------------------------------
 Partition over spheres:
 Sphere  on Atom  Surface  Charge   GEl     GCav    GDR
    1      C1       5.18  -0.026   -0.25    0.66   -0.70
    2      O2       7.39   0.046   -0.14    1.39   -1.19
    3      C3       0.05  -0.001   -0.01    0.20   -0.16
    4      F4      12.63   0.044   -0.28    2.08   -1.17
    5      F5      12.80   0.039   -0.15    2.07   -1.16
    6      C6       0.00   0.000    0.00    0.16   -0.17
    7     Cl7      36.69   0.052   -0.43    3.80   -3.49
    8     Cl8      36.80   0.056   -0.43    3.82   -3.51
    9      H9      10.43  -0.042   -0.35    1.53   -1.45
   10      H10     10.42  -0.042   -0.30    1.50   -1.42
   11      H11     13.48  -0.056   -0.49    1.51   -1.44
   12      H12     10.50  -0.096   -0.98    1.43   -1.36
 Added spheres:    18.15   0.018   -0.36    0.00    0.00
 --------------------------------------------------------------------
 Partition over spheres of the perturbative electrostatic energy:
(Contribution of added spheres asigned to closest sphere)
 Sphere  on Atom  Surface  Charge   GElSph
    1      C1       5.18  -0.026   -0.22
    2      O2       7.39   0.046   -0.26
    3      C3       0.05  -0.001   -0.01
    4      F4      12.63   0.044   -0.28
    5      F5      12.80   0.039   -0.19
    6      C6       0.00   0.000    0.00
    7     Cl7      36.69   0.052   -0.40
    8     Cl8      36.80   0.056   -0.41
    9      H9      10.43  -0.042   -0.32
   10      H10     10.42  -0.042   -0.30
   11      H11     13.48  -0.056   -0.43
   12      H12     10.50  -0.096   -0.92
 Added spheres:    18.15   0.018    0.00
 --------------------------------------------------------------------
 After PCM corrections, the energy is  -1312.01307784     a.u.
 --------------------------------------------------------------------
 Leave Link  502 at Wed Mar  2 00:13:08 2022, MaxMem=   104857600 cpu:              85.5 elap:              22.5
 (Enter /dades/curu/g16A03_MST/g16/l601.exe)
 Copying SCF densities to generalized density rwf, IOpCl= 0 IROHF=0.

 **********************************************************************

            Population analysis using the SCF density.

 **********************************************************************

 Orbital symmetries:
       Occupied  (A) (A) (A) (A) (A) (A) (A) (A) (A) (A) (A) (A)
                 (A) (A) (A) (A) (A) (A) (A) (A) (A) (A) (A) (A)
                 (A) (A) (A) (A) (A) (A) (A) (A) (A) (A) (A) (A)
                 (A) (A) (A) (A) (A)
       Virtual   (A) (A) (A) (A) (A) (A) (A) (A) (A) (A) (A) (A)
                 (A) (A) (A) (A) (A) (A) (A) (A) (A) (A) (A) (A)
                 (A) (A) (A) (A) (A) (A) (A) (A) (A) (A) (A) (A)
                 (A) (A) (A) (A) (A) (A) (A) (A) (A) (A) (A) (A)
                 (A) (A) (A) (A) (A) (A) (A) (A) (A) (A) (A) (A)
                 (A) (A) (A) (A) (A) (A) (A) (A) (A) (A) (A) (A)
                 (A) (A) (A) (A) (A) (A) (A) (A) (A) (A) (A) (A)
                 (A) (A) (A) (A) (A) (A) (A) (A) (A) (A) (A)
 The electronic state is 1-A.
 Alpha  occ. eigenvalues -- -101.56622-101.56611 -24.72480 -24.72455 -19.19953
 Alpha  occ. eigenvalues --  -10.42340 -10.32745 -10.24367  -9.48308  -9.48290
 Alpha  occ. eigenvalues --   -7.24755  -7.24739  -7.23695  -7.23676  -7.23669
 Alpha  occ. eigenvalues --   -7.23651  -1.27944  -1.21112  -1.08637  -0.92109
 Alpha  occ. eigenvalues --   -0.83857  -0.77016  -0.69172  -0.64064  -0.57981
 Alpha  occ. eigenvalues --   -0.56574  -0.55387  -0.48731  -0.47227  -0.46421
 Alpha  occ. eigenvalues --   -0.45370  -0.43715  -0.42060  -0.41018  -0.40560
 Alpha  occ. eigenvalues --   -0.36735  -0.34513  -0.33594  -0.32269  -0.31989
 Alpha  occ. eigenvalues --   -0.31357
 Alpha virt. eigenvalues --   -0.02084   0.00722   0.09836   0.11846   0.12608
 Alpha virt. eigenvalues --    0.14954   0.15719   0.18300   0.19824   0.20787
 Alpha virt. eigenvalues --    0.27676   0.32022   0.37505   0.41095   0.41602
 Alpha virt. eigenvalues --    0.42411   0.44040   0.46564   0.49163   0.49877
 Alpha virt. eigenvalues --    0.51649   0.51912   0.53853   0.55473   0.56750
 Alpha virt. eigenvalues --    0.58665   0.64755   0.72832   0.77441   0.81088
 Alpha virt. eigenvalues --    0.82678   0.83491   0.84174   0.85720   0.86939
 Alpha virt. eigenvalues --    0.88097   0.92477   0.93342   0.93664   0.95441
 Alpha virt. eigenvalues --    0.96798   1.01845   1.03001   1.07044   1.08332
 Alpha virt. eigenvalues --    1.13889   1.17720   1.19196   1.29660   1.30663
 Alpha virt. eigenvalues --    1.33609   1.34999   1.36023   1.38164   1.40488
 Alpha virt. eigenvalues --    1.44419   1.46470   1.67741   1.69023   1.71331
 Alpha virt. eigenvalues --    1.77019   1.77746   1.82064   1.84303   1.88936
 Alpha virt. eigenvalues --    1.89874   1.94269   1.98770   2.00116   2.05676
 Alpha virt. eigenvalues --    2.08883   2.10544   2.12997   2.15168   2.18738
 Alpha virt. eigenvalues --    2.27321   2.31265   2.36183   2.45552   2.48751
 Alpha virt. eigenvalues --    2.55706   2.71194   2.74505   2.90368   2.93230
 Alpha virt. eigenvalues --    3.05618   3.07552   3.97527   4.06370   4.23806
 Alpha virt. eigenvalues --    4.26747   4.28692   4.44775   4.46296   5.30379
          Condensed to atoms (all electrons):
               1          2          3          4          5          6
     1  C    4.913838   0.209768  -0.015826  -0.001740  -0.001333   0.005490
     2  O    0.209768   8.242984   0.274769  -0.048717  -0.048688  -0.067155
     3  C   -0.015826   0.274769   4.184523   0.267740   0.269003   0.280533
     4  F   -0.001740  -0.048717   0.267740   9.146915  -0.040402  -0.054571
     5  F   -0.001333  -0.048688   0.269003  -0.040402   9.144902  -0.046098
     6  C    0.005490  -0.067155   0.280533  -0.054571  -0.046098   5.525872
     7  Cl  -0.000179   0.003389  -0.039476   0.003595   0.003090   0.208640
     8  Cl  -0.000474   0.001998  -0.037973   0.004205   0.001984   0.202050
     9  H    0.373137  -0.033286  -0.005727  -0.000556   0.008502   0.000013
    10  H    0.372774  -0.033150  -0.005787   0.008620  -0.000564   0.000246
    11  H    0.385607  -0.028923   0.003852   0.000087   0.000088  -0.000106
    12  H   -0.000224   0.001758  -0.023066   0.002008   0.000847   0.344040
               7          8          9         10         11         12
     1  C   -0.000179  -0.000474   0.373137   0.372774   0.385607  -0.000224
     2  O    0.003389   0.001998  -0.033286  -0.033150  -0.028923   0.001758
     3  C   -0.039476  -0.037973  -0.005727  -0.005787   0.003852  -0.023066
     4  F    0.003595   0.004205  -0.000556   0.008620   0.000087   0.002008
     5  F    0.003090   0.001984   0.008502  -0.000564   0.000088   0.000847
     6  C    0.208640   0.202050   0.000013   0.000246  -0.000106   0.344040
     7  Cl  16.929485  -0.063578   0.000007   0.000009   0.000002  -0.041097
     8  Cl  -0.063578  16.935483   0.000002   0.000009  -0.000018  -0.040786
     9  H    0.000007   0.000002   0.537066  -0.035732  -0.027764  -0.000005
    10  H    0.000009   0.000009  -0.035732   0.536459  -0.027730   0.000005
    11  H    0.000002  -0.000018  -0.027764  -0.027730   0.499298  -0.000012
    12  H   -0.041097  -0.040786  -0.000005   0.000005  -0.000012   0.468923
 Mulliken charges:
               1
     1  C   -0.240838
     2  O   -0.474748
     3  C    0.847436
     4  F   -0.287184
     5  F   -0.291331
     6  C   -0.398954
     7  Cl  -0.003887
     8  Cl  -0.002902
     9  H    0.184342
    10  H    0.184840
    11  H    0.195618
    12  H    0.287607
 Sum of Mulliken charges =   0.00000
 Mulliken charges with hydrogens summed into heavy atoms:
               1
     1  C    0.323962
     2  O   -0.474748
     3  C    0.847436
     4  F   -0.287184
     5  F   -0.291331
     6  C   -0.111347
     7  Cl  -0.003887
     8  Cl  -0.002902
 Electronic spatial extent (au):  <R**2>=           1330.5805
 Charge=              0.0000 electrons
 Dipole moment (field-independent basis, Debye):
    X=             -2.9587    Y=              0.2603    Z=             -1.4802  Tot=              3.3185
 Quadrupole moment (field-independent basis, Debye-Ang):
   XX=            -50.3576   YY=            -61.3832   ZZ=            -57.5521
   XY=             -1.0535   XZ=             -1.0859   YZ=              0.2549
 Traceless Quadrupole moment (field-independent basis, Debye-Ang):
   XX=              6.0733   YY=             -4.9522   ZZ=             -1.1211
   XY=             -1.0535   XZ=             -1.0859   YZ=              0.2549
 Octapole moment (field-independent basis, Debye-Ang**2):
  XXX=            -48.1161  YYY=             -6.5975  ZZZ=              0.3062  XYY=             -2.2713
  XXY=             -0.8926  XXZ=              1.9658  XZZ=             -1.4865  YZZ=             -2.6169
  YYZ=              4.1908  XYZ=             -0.5988
 Hexadecapole moment (field-independent basis, Debye-Ang**3):
 XXXX=           -868.5991 YYYY=           -460.0694 ZZZZ=           -136.5654 XXXY=            -13.9039
 XXXZ=              7.5175 YYYX=              7.0092 YYYZ=              3.2104 ZZZX=             -5.9941
 ZZZY=              1.0672 XXYY=           -231.1492 XXZZ=           -185.1554 YYZZ=           -103.3562
 XXYZ=             -2.6258 YYXZ=              4.9965 ZZXY=              2.2710
 N-N= 5.895981108840D+02 E-N=-4.290222698180D+03  KE= 1.306245317076D+03
 No NMR shielding tensors so no spin-rotation constants.
 Leave Link  601 at Wed Mar  2 00:13:08 2022, MaxMem=   104857600 cpu:               0.3 elap:               0.1
 (Enter /dades/curu/g16A03_MST/g16/l9999.exe)
 1\1\GINC-PIRINEUS10\SP\RB3LYP\6-31G(d)\C3H4Cl2F2O1\UBATOR01\02-Mar-202
 2\0\\#p b3lyp/6-31G(d) scrf=(iefpcm,read,solvent=water) geom=allcheck 
 guess=read\\126.n.pdb.xyz\\0,1\C,0,-1.9410057686,0.1740060562,0.243764
 0355\O,0,-0.5544937297,0.5882358021,0.2855787851\C,0,0.3297786647,-0.3
 012439106,-0.1999640776\F,0,0.2725607604,-1.4965873537,0.4594165675\F,
 0,0.0799367813,-0.596307269,-1.5134994492\C,0,1.747848681,0.2968225001
 ,-0.1035648828\Cl,0,2.9385122574,-0.8101549708,-0.854381081\Cl,0,2.168
 9408701,0.6350580055,1.6037427677\H,0,-2.2468675329,-0.0023677572,-0.7
 881414346\H,0,-2.0797246641,-0.7261148928,0.8431658603\H,0,-2.50106520
 91,1.0034599164,0.669050105\H,0,1.7855788894,1.2361938737,-0.644167195
 8\\Version=ES64L-G16RevA.03\State=1-A\HF=-1312.0130778\RMSD=4.820e-09\
 Dipole=-1.1361583,0.6038693,-0.2215327\Quadrupole=4.5537688,-1.7542389
 ,-2.7995299,0.033243,-1.0617827,-1.2909826\PG=C01 [X(C3H4Cl2F2O1)]\\@


 ONE BIG VICE IN A MAN IS APT TO KEEP OUT MANY SMALLER ONES.

                           -- BRET HARTE
 Job cpu time:       0 days  0 hours  1 minutes 27.2 seconds.
 Elapsed time:       0 days  0 hours  0 minutes 23.2 seconds.
 File lengths (MBytes):  RWF=     37 Int=      0 D2E=      0 Chk=      7 Scr=      1
 Normal termination of Gaussian 16 at Wed Mar  2 00:13:08 2022.
