 Entering Gaussian System, Link 0=g16
 Input=221.n.pdb.xyz.mst.wat.gau
 Output=221.n.pdb.xyz.mst.wat.log
 Initial command:
 /dades/curu/g16A03_MST/g16/l1.exe "/tmp/ubator01/1954803/Gau-98350.inp" -scrdir="/tmp/ubator01/1954803/"
 Entering Link 1 = /dades/curu/g16A03_MST/g16/l1.exe PID=     98351.
  
 Copyright (c) 1988,1990,1992,1993,1995,1998,2003,2009,2016,
            Gaussian, Inc.  All Rights Reserved.
  
 This is part of the Gaussian(R) 16 program.  It is based on
 the Gaussian(R) 09 system (copyright 2009, Gaussian, Inc.),
 the Gaussian(R) 03 system (copyright 2003, Gaussian, Inc.),
 the Gaussian(R) 98 system (copyright 1998, Gaussian, Inc.),
 the Gaussian(R) 94 system (copyright 1995, Gaussian, Inc.),
 the Gaussian 92(TM) system (copyright 1992, Gaussian, Inc.),
 the Gaussian 90(TM) system (copyright 1990, Gaussian, Inc.),
 the Gaussian 88(TM) system (copyright 1988, Gaussian, Inc.),
 the Gaussian 86(TM) system (copyright 1986, Carnegie Mellon
 University), and the Gaussian 82(TM) system (copyright 1983,
 Carnegie Mellon University). Gaussian is a federally registered
 trademark of Gaussian, Inc.
  
 This software contains proprietary and confidential information,
 including trade secrets, belonging to Gaussian, Inc.
  
 This software is provided under written license and may be
 used, copied, transmitted, or stored only in accord with that
 written license.
  
 The following legend is applicable only to US Government
 contracts under FAR:
  
                    RESTRICTED RIGHTS LEGEND
  
 Use, reproduction and disclosure by the US Government is
 subject to restrictions as set forth in subparagraphs (a)
 and (c) of the Commercial Computer Software - Restricted
 Rights clause in FAR 52.227-19.
  
 Gaussian, Inc.
 340 Quinnipiac St., Bldg. 40, Wallingford CT 06492
  
  
 ---------------------------------------------------------------
 Warning -- This program may not be used in any manner that
 competes with the business of Gaussian, Inc. or will provide
 assistance to any competitor of Gaussian, Inc.  The licensee
 of this program is prohibited from giving any competitor of
 Gaussian, Inc. access to this program.  By using this program,
 the user acknowledges that Gaussian, Inc. is engaged in the
 business of creating and licensing software in the field of
 computational chemistry and represents and warrants to the
 licensee that it is not a competitor of Gaussian, Inc. and that
 it will not use this program in any manner prohibited above.
 ---------------------------------------------------------------
  

 Cite this work as:
 Gaussian 16, Revision A.03,
 M. J. Frisch, G. W. Trucks, H. B. Schlegel, G. E. Scuseria, 
 M. A. Robb, J. R. Cheeseman, G. Scalmani, V. Barone, 
 G. A. Petersson, H. Nakatsuji, X. Li, M. Caricato, A. V. Marenich, 
 J. Bloino, B. G. Janesko, R. Gomperts, B. Mennucci, H. P. Hratchian, 
 J. V. Ortiz, A. F. Izmaylov, J. L. Sonnenberg, D. Williams-Young, 
 F. Ding, F. Lipparini, F. Egidi, J. Goings, B. Peng, A. Petrone, 
 T. Henderson, D. Ranasinghe, V. G. Zakrzewski, J. Gao, N. Rega, 
 G. Zheng, W. Liang, M. Hada, M. Ehara, K. Toyota, R. Fukuda, 
 J. Hasegawa, M. Ishida, T. Nakajima, Y. Honda, O. Kitao, H. Nakai, 
 T. Vreven, K. Throssell, J. A. Montgomery, Jr., J. E. Peralta, 
 F. Ogliaro, M. J. Bearpark, J. J. Heyd, E. N. Brothers, K. N. Kudin, 
 V. N. Staroverov, T. A. Keith, R. Kobayashi, J. Normand, 
 K. Raghavachari, A. P. Rendell, J. C. Burant, S. S. Iyengar, 
 J. Tomasi, M. Cossi, J. M. Millam, M. Klene, C. Adamo, R. Cammi, 
 J. W. Ochterski, R. L. Martin, K. Morokuma, O. Farkas, 
 J. B. Foresman, and D. J. Fox, Gaussian, Inc., Wallingford CT, 2016.
 
 ******************************************
 Gaussian 16:  ES64L-G16RevA.03 25-Dec-2016
                 1-Mar-2022 
 ******************************************
 %nproc=4
 Will use up to    4 processors via shared memory.
 %Chk=221.n.pdb.xyz.mst.wat.chk
 %mem=800MB
 ----------------------------------------------------------------------
 #p b3lyp/6-31G(d) opt=(MaxStep=10,MaxCycles=1000) freq scf=(MaxCycle=2
 000,NoVarAcc,NoIncFock) scrf=(iefpcm,read,solvent=water)
 ----------------------------------------------------------------------
 1/6=1000,8=10,18=20,19=15,26=3,38=1,40=2/1,3;
 2/9=110,12=2,17=6,18=5,40=1/2;
 3/5=1,6=6,7=1,11=2,25=1,30=1,70=2203,71=1,72=1,74=-5/1,2,3;
 4//1;
 5/5=100002,7=2000,38=1,53=1/2;
 6/7=2,8=2,9=2,10=2,28=1/1;
 7//1,2,3,16;
 1/6=1000,8=10,18=20,19=15,26=3/3(2);
 2/9=110/2;
 99//99;
 2/9=110/2;
 3/5=1,6=6,7=1,11=2,25=1,30=1,70=2205,71=1,72=1,74=-5/1,2,3;
 4/5=5,16=3,69=1/1;
 5/5=100002,7=2000,38=1,53=1/2;
 7//1,2,3,16;
 1/6=1000,8=10,18=20,19=15,26=3/3(-5);
 2/9=110/2;
 6/7=2,8=2,9=2,10=2,19=2,28=1/1;
 99/9=1/99;
 Leave Link    1 at Tue Mar  1 05:55:14 2022, MaxMem=   104857600 cpu:               0.0 elap:               0.0
 (Enter /dades/curu/g16A03_MST/g16/l101.exe)
 -------------
 221.n.pdb.xyz
 -------------
 Symbolic Z-matrix:
 Charge =  0 Multiplicity = 1
 N                     1.133    -0.042    -0.555 
 C                    -0.05      0.49     -0.193 
 N                    -1.093    -0.349    -0.332 
 O                    -0.165     1.631     0.225 
 H                     1.231    -0.982    -0.899 
 H                     1.952     0.543    -0.471 
 H                    -1.001    -1.289    -0.676 
 H                    -2.007    -0.002    -0.075 
 
 ITRead=  0  0  0  0  0  0  0  0
 MicOpt= -1 -1 -1 -1 -1 -1 -1 -1
 NAtoms=      8 NQM=        8 NQMF=       0 NMMI=      0 NMMIF=      0
                NMic=       0 NMicF=      0.
                    Isotopes and Nuclear Properties:
 (Nuclear quadrupole moments (NQMom) in fm**2, nuclear magnetic moments (NMagM)
  in nuclear magnetons)

  Atom         1           2           3           4           5           6           7           8
 IAtWgt=          14          12          14          16           1           1           1           1
 AtmWgt=  14.0030740  12.0000000  14.0030740  15.9949146   1.0078250   1.0078250   1.0078250   1.0078250
 NucSpn=           2           0           2           0           1           1           1           1
 AtZEff=  -0.0000000  -0.0000000  -0.0000000  -0.0000000  -0.0000000  -0.0000000  -0.0000000  -0.0000000
 NQMom=    2.0440000   0.0000000   2.0440000   0.0000000   0.0000000   0.0000000   0.0000000   0.0000000
 NMagM=    0.4037610   0.0000000   0.4037610   0.0000000   2.7928460   2.7928460   2.7928460   2.7928460
 AtZNuc=   7.0000000   6.0000000   7.0000000   8.0000000   1.0000000   1.0000000   1.0000000   1.0000000
 Leave Link  101 at Tue Mar  1 05:55:15 2022, MaxMem=   104857600 cpu:               0.1 elap:               0.1
 (Enter /dades/curu/g16A03_MST/g16/l103.exe)

 GradGradGradGradGradGradGradGradGradGradGradGradGradGradGradGradGradGrad
 Berny optimization.
 Initialization pass.
                           ----------------------------
                           !    Initial Parameters    !
                           ! (Angstroms and Degrees)  !
 --------------------------                            --------------------------
 ! Name  Definition              Value          Derivative Info.                !
 --------------------------------------------------------------------------------
 ! R1    R(1,2)                  1.3467         estimate D2E/DX2                !
 ! R2    R(1,5)                  1.0058         estimate D2E/DX2                !
 ! R3    R(1,6)                  1.01           estimate D2E/DX2                !
 ! R4    R(2,3)                  1.3458         estimate D2E/DX2                !
 ! R5    R(2,4)                  1.2206         estimate D2E/DX2                !
 ! R6    R(3,7)                  1.0052         estimate D2E/DX2                !
 ! R7    R(3,8)                  1.0109         estimate D2E/DX2                !
 ! A1    A(2,1,5)              123.1447         estimate D2E/DX2                !
 ! A2    A(2,1,6)              117.4629         estimate D2E/DX2                !
 ! A3    A(5,1,6)              119.3924         estimate D2E/DX2                !
 ! A4    A(1,2,3)              114.0022         estimate D2E/DX2                !
 ! A5    A(1,2,4)              122.9637         estimate D2E/DX2                !
 ! A6    A(3,2,4)              123.034          estimate D2E/DX2                !
 ! A7    A(2,3,7)              123.1901         estimate D2E/DX2                !
 ! A8    A(2,3,8)              117.4187         estimate D2E/DX2                !
 ! A9    A(7,3,8)              119.3912         estimate D2E/DX2                !
 ! D1    D(5,1,2,3)              0.0127         estimate D2E/DX2                !
 ! D2    D(5,1,2,4)            179.9462         estimate D2E/DX2                !
 ! D3    D(6,1,2,3)           -179.9578         estimate D2E/DX2                !
 ! D4    D(6,1,2,4)             -0.0244         estimate D2E/DX2                !
 ! D5    D(1,2,3,7)             -0.0695         estimate D2E/DX2                !
 ! D6    D(1,2,3,8)           -179.9846         estimate D2E/DX2                !
 ! D7    D(4,2,3,7)            179.9972         estimate D2E/DX2                !
 ! D8    D(4,2,3,8)              0.082          estimate D2E/DX2                !
 --------------------------------------------------------------------------------
 Trust Radius=1.00D-01 FncErr=1.00D-07 GrdErr=1.00D-06 EigMax=2.50D+02 EigMin=1.00D-04
 Number of steps in this run=    100 maximum allowed number of steps=    100.
 GradGradGradGradGradGradGradGradGradGradGradGradGradGradGradGradGradGrad

 Leave Link  103 at Tue Mar  1 05:55:15 2022, MaxMem=   104857600 cpu:               0.0 elap:               0.0
 (Enter /dades/curu/g16A03_MST/g16/l202.exe)
                          Input orientation:                          
 ---------------------------------------------------------------------
 Center     Atomic      Atomic             Coordinates (Angstroms)
 Number     Number       Type             X           Y           Z
 ---------------------------------------------------------------------
      1          7           0        1.133000   -0.042000   -0.555000
      2          6           0       -0.050000    0.490000   -0.193000
      3          7           0       -1.093000   -0.349000   -0.332000
      4          8           0       -0.165000    1.631000    0.225000
      5          1           0        1.231000   -0.982000   -0.899000
      6          1           0        1.952000    0.543000   -0.471000
      7          1           0       -1.001000   -1.289000   -0.676000
      8          1           0       -2.007000   -0.002000   -0.075000
 ---------------------------------------------------------------------
                    Distance matrix (angstroms):
                    1          2          3          4          5
     1  N    0.000000
     2  C    1.346684   0.000000
     3  N    2.258109   1.345768   0.000000
     4  O    2.256576   1.220586   2.256509   0.000000
     5  H    1.005753   2.075134   2.474501   3.168590   0.000000
     6  H    1.009971   2.021904   3.176005   2.479889   1.740302
     7  H    2.474592   2.074254   1.005187   3.168138   2.264023
     8  H    3.176728   2.021345   1.010868   2.479849   3.481956
                    6          7          8
     6  H    0.000000
     7  H    3.481158   0.000000
     8  H    4.015909   1.740576   0.000000
 Stoichiometry    CH4N2O
 Framework group  C1[X(CH4N2O)]
 Deg. of freedom    18
 Full point group                 C1      NOp   1
 Largest Abelian subgroup         C1      NOp   1
 Largest concise Abelian subgroup C1      NOp   1
                         Standard orientation:                         
 ---------------------------------------------------------------------
 Center     Atomic      Atomic             Coordinates (Angstroms)
 Number     Number       Type             X           Y           Z
 ---------------------------------------------------------------------
      1          7           0        1.129658   -0.593365   -0.000029
      2          6           0       -0.000503    0.138956   -0.000355
      3          7           0       -1.128450   -0.595091    0.000189
      4          8           0       -0.000957    1.359542    0.000110
      5          1           0        1.133208   -1.599112    0.000380
      6          1           0        2.007869   -0.094579    0.000250
      7          1           0       -1.130815   -1.600275   -0.000234
      8          1           0       -2.008039   -0.096917   -0.000263
 ---------------------------------------------------------------------
 Rotational constants (GHZ):          11.3125050          10.8891976           5.5484082
 Leave Link  202 at Tue Mar  1 05:55:15 2022, MaxMem=   104857600 cpu:               0.0 elap:               0.0
 (Enter /dades/curu/g16A03_MST/g16/l301.exe)
 Standard basis: 6-31G(d) (6D, 7F)
 Ernie: Thresh=  0.10000D-02 Tol=  0.10000D-05 Strict=F.
 There are    68 symmetry adapted cartesian basis functions of A   symmetry.
 There are    68 symmetry adapted basis functions of A   symmetry.
    68 basis functions,   128 primitive gaussians,    68 cartesian basis functions
    16 alpha electrons       16 beta electrons
       nuclear repulsion energy       125.1692950521 Hartrees.
 IExCor=  402 DFT=T Ex+Corr=B3LYP ExCW=0 ScaHFX=  0.200000
 ScaDFX=  0.800000  0.720000  1.000000  0.810000 ScalE2=  1.000000  1.000000
 IRadAn=      5 IRanWt=     -1 IRanGd=            0 ICorTp=0 IEmpDi=  4
 NAtoms=    8 NActive=    8 NUniq=    8 SFac= 1.00D+00 NAtFMM=   60 NAOKFM=F Big=F
 Integral buffers will be    131072 words long.
 Raffenetti 2 integral format.
 Two-electron integral symmetry is turned on.
 Using the following non-standard input for PCM:
 MSTModel=DFT cav
 --- end of non-standard input.
 MST model for solvation energy: B3LYP parametrization.
 MST cavity parameters:
 ISph   IAn     Re0     Alpha   Atom Type   QCorr
 ------------------------------------------------
   1      7     1.40     1.25      NH         F
   2      6     1.50     1.25      C          F
   3      7     1.40     1.25      NH         F
   4      8     1.40     1.25      O          F
   5      1     0.90     1.25      NH         F
   6      1     0.90     1.25      NH         F
   7      1     0.90     1.25      NH         F
   8      1     0.90     1.25      NH         F
 ------------------------------------------------------------------------------
 Polarizable Continuum Model (PCM)
 =================================
 Model                : PCM.
 Atomic radii         : MST.
 Polarization charges : Total charges.
 Charge compensation  : None.
 Solution method      : On-the-fly selection.
 Cavity type          : Scaled VdW (van der Waals Surface) (Alpha=1.250).
 Cavity algorithm     : GePol (No added spheres)
                        Default sphere list used, NSphG=    8.
                        Lebedev-Laikov grids with approx.  5.0 points / Ang**2.
                        Smoothing algorithm: York/Karplus (Gamma=1.0000).
                        Polarization charges: spherical gaussians, with
                                              point-specific exponents (IZeta= 3).
                        Self-potential: point-specific (ISelfS= 7).
                        Self-field    : sphere-specific E.n sum rule (ISelfD= 2).
 1st derivatives      : Analytical E(r).r(x)/FMM algorithm (CHGder, D1EAlg=3).
                        Cavity 1st derivative terms included.
 Solvent              : Water, Eps=  78.355300 Eps(inf)=   1.777849
 ------------------------------------------------------------------------------
 Spheres list:
 ISph  on   Nord     Re0    Alpha      Xe            Ye            Ze
    1   N      1    1.4000  1.250      1.129658     -0.593365     -0.000029
    2   C      2    1.5000  1.250     -0.000503      0.138956     -0.000355
    3   N      3    1.4000  1.250     -1.128450     -0.595091      0.000189
    4   O      4    1.4000  1.250     -0.000957      1.359542      0.000110
    5   H      5    0.9000  1.250      1.133208     -1.599112      0.000380
    6   H      6    0.9000  1.250      2.007869     -0.094579      0.000250
    7   H      7    0.9000  1.250     -1.130815     -1.600275     -0.000234
    8   H      8    0.9000  1.250     -2.008039     -0.096917     -0.000263
 ------------------------------------------------------------------------------
 GePol: Number of generator spheres                  =       8
 GePol: Total number of spheres                      =       8
 GePol: Number of exposed spheres                    =       8 (100.00%)
 GePol: Number of points                             =     604
 GePol: Average weight of points                     =       0.14
 GePol: Minimum weight of points                     =   0.20D-08
 GePol: Maximum weight of points                     =    0.22001
 GePol: Number of points with low weight             =      35
 GePol: Fraction of low-weight points (<1% of avg)   =       5.79%
 GePol: Cavity surface area                          =     84.554 Ang**2
 GePol: Cavity volume                                =     61.696 Ang**3
 Surface areas from nonelectrostatic (unscaled) cavity and vdw tensions:
 Sphere =    1 Type =  NH  Surf =       11.366 Tension =       -0.159
 Sphere =    2 Type =  C   Surf =        7.829 Tension =       -0.101
 Sphere =    3 Type =  NH  Surf =       11.362 Tension =       -0.159
 Sphere =    4 Type =  O   Surf =       16.512 Tension =       -0.117
 Sphere =    5 Type =  NH  Surf =        4.711 Tension =       -0.159
 Sphere =    6 Type =  NH  Surf =        4.727 Tension =       -0.159
 Sphere =    7 Type =  NH  Surf =        4.707 Tension =       -0.159
 Sphere =    8 Type =  NH  Surf =        4.732 Tension =       -0.159
 PCM non-electrostatic energy =         0.0005569674 Hartrees.
 Nuclear repulsion after PCM non-electrostatic terms =      125.1698520195 Hartrees.
 Leave Link  301 at Tue Mar  1 05:55:15 2022, MaxMem=   104857600 cpu:               0.1 elap:               0.1
 (Enter /dades/curu/g16A03_MST/g16/l302.exe)
 NPDir=0 NMtPBC=     1 NCelOv=     1 NCel=       1 NClECP=     1 NCelD=      1
         NCelK=      1 NCelE2=     1 NClLst=     1 CellRange=     0.0.
 One-electron integrals computed using PRISM.
 One-electron integral symmetry used in STVInt
 NBasis=    68 RedAO= T EigKep=  3.21D-03  NBF=    68
 NBsUse=    68 1.00D-06 EigRej= -1.00D+00 NBFU=    68
 Precomputing XC quadrature grid using
 IXCGrd= 4 IRadAn=           5 IRanWt=          -1 IRanGd=           0 AccXCQ= 0.00D+00.
 Generated NRdTot=       0 NPtTot=           0 NUsed=           0 NTot=          32
 NSgBfM=    68    68    68    68    68 MxSgAt=     8 MxSgA2=     8.
 Leave Link  302 at Tue Mar  1 05:55:15 2022, MaxMem=   104857600 cpu:               0.4 elap:               0.1
 (Enter /dades/curu/g16A03_MST/g16/l303.exe)
 DipDrv:  MaxL=1.
 Leave Link  303 at Tue Mar  1 05:55:15 2022, MaxMem=   104857600 cpu:               0.1 elap:               0.0
 (Enter /dades/curu/g16A03_MST/g16/l401.exe)
 ExpMin= 1.61D-01 ExpMax= 5.48D+03 ExpMxC= 8.25D+02 IAcc=3 IRadAn=         5 AccDes= 0.00D+00
 Harris functional with IExCor=  402 and IRadAn=       5 diagonalized for initial guess.
 HarFok:  IExCor=  402 AccDes= 0.00D+00 IRadAn=         5 IDoV= 1 UseB2=F ITyADJ=14
 ICtDFT=  3500011 ScaDFX=  1.000000  1.000000  1.000000  1.000000
 FoFCou: FMM=F IPFlag=           0 FMFlag=      100000 FMFlg1=           0
         NFxFlg=           0 DoJE=T BraDBF=F KetDBF=T FulRan=T
         wScrn=  0.000000 ICntrl=       500 IOpCl=  0 I1Cent=   200000004 NGrid=           0
         NMat0=    1 NMatS0=      1 NMatT0=    0 NMatD0=    1 NMtDS0=    0 NMtDT0=    0
 Petite list used in FoFCou.
 Harris En= -225.284164740866    
 JPrj=0 DoOrth=F DoCkMO=F.
 Leave Link  401 at Tue Mar  1 05:55:15 2022, MaxMem=   104857600 cpu:               2.0 elap:               0.5
 (Enter /dades/curu/g16A03_MST/g16/l502.exe)
 Keep R1 ints in memory in canonical form, NReq=6321819.
 FoFCou: FMM=F IPFlag=           0 FMFlag=           0 FMFlg1=           0
         NFxFlg=           0 DoJE=F BraDBF=F KetDBF=F FulRan=T
         wScrn=  0.000000 ICntrl=       600 IOpCl=  0 I1Cent=           0 NGrid=           0
         NMat0=    1 NMatS0=   2346 NMatT0=    0 NMatD0=    1 NMtDS0=    0 NMtDT0=    0
 Symmetry not used in FoFCou.
 Two-electron integral symmetry not used.
 Closed shell SCF:
 Using DIIS extrapolation, IDIIS=  1040.
 NGot=   104857600 LenX=   102094009 LenY=   102088944
 Requested convergence on RMS density matrix=1.00D-08 within2000 cycles.
 Requested convergence on MAX density matrix=1.00D-06.
 Requested convergence on             energy=1.00D-06.
 No special actions if energy rises.

 Cycle   1  Pass 1  IDiag  1:
 Inv3:  Mode=1 IEnd=     1094448.
 Iteration    1 A*A^-1 deviation from unit magnitude is 2.89D-15 for    589.
 Iteration    1 A*A^-1 deviation from orthogonality  is 1.39D-15 for    514    229.
 Iteration    1 A^-1*A deviation from unit magnitude is 2.78D-15 for    585.
 Iteration    1 A^-1*A deviation from orthogonality  is 1.00D-15 for    210    104.
 E= -225.135116022982    
 DIIS: error= 5.04D-02 at cycle   1 NSaved=   1.
 NSaved= 1 IEnMin= 1 EnMin= -225.135116022982     IErMin= 1 ErrMin= 5.04D-02
 ErrMax= 5.04D-02  0.00D+00 EMaxC= 1.00D-01 BMatC= 1.96D-01 BMatP= 1.96D-01
 IDIUse=3 WtCom= 4.96D-01 WtEn= 5.04D-01
 Coeff-Com:  0.100D+01
 Coeff-En:   0.100D+01
 Coeff:      0.100D+01
 Gap=     0.306 Goal=   None    Shift=    0.000
 GapD=    0.306 DampG=1.000 DampE=0.500 DampFc=0.5000 IDamp=-1.
 Damping current iteration by 5.00D-01
 RMSDP=1.35D-02 MaxDP=1.93D-01              OVMax= 1.98D-01

 Cycle   2  Pass 1  IDiag  1:
 E= -225.190800931341     Delta-E=       -0.055684908359 Rises=F Damp=T
 DIIS: error= 1.20D-02 at cycle   2 NSaved=   2.
 NSaved= 2 IEnMin= 2 EnMin= -225.190800931341     IErMin= 2 ErrMin= 1.20D-02
 ErrMax= 1.20D-02  0.00D+00 EMaxC= 1.00D-01 BMatC= 1.21D-02 BMatP= 1.96D-01
 IDIUse=3 WtCom= 8.80D-01 WtEn= 1.20D-01
 Coeff-Com:  0.146D+00 0.854D+00
 Coeff-En:   0.248D+00 0.752D+00
 Coeff:      0.158D+00 0.842D+00
 Gap=     0.353 Goal=   None    Shift=    0.000
 RMSDP=2.86D-03 MaxDP=4.51D-02 DE=-5.57D-02 OVMax= 1.25D-01

 Cycle   3  Pass 1  IDiag  1:
 E= -225.276147072320     Delta-E=       -0.085346140978 Rises=F Damp=F
 DIIS: error= 9.92D-03 at cycle   3 NSaved=   3.
 NSaved= 3 IEnMin= 3 EnMin= -225.276147072320     IErMin= 3 ErrMin= 9.92D-03
 ErrMax= 9.92D-03  0.00D+00 EMaxC= 1.00D-01 BMatC= 7.87D-03 BMatP= 1.21D-02
 IDIUse=3 WtCom= 9.01D-01 WtEn= 9.92D-02
 Coeff-Com:  0.609D-01 0.462D+00 0.477D+00
 Coeff-En:   0.000D+00 0.000D+00 0.100D+01
 Coeff:      0.549D-01 0.416D+00 0.529D+00
 Gap=     0.350 Goal=   None    Shift=    0.000
 RMSDP=1.43D-03 MaxDP=2.12D-02 DE=-8.53D-02 OVMax= 3.76D-02

 Cycle   4  Pass 1  IDiag  1:
 E= -225.281444981395     Delta-E=       -0.005297909076 Rises=F Damp=F
 DIIS: error= 4.26D-03 at cycle   4 NSaved=   4.
 NSaved= 4 IEnMin= 4 EnMin= -225.281444981395     IErMin= 4 ErrMin= 4.26D-03
 ErrMax= 4.26D-03  0.00D+00 EMaxC= 1.00D-01 BMatC= 1.26D-03 BMatP= 7.87D-03
 IDIUse=3 WtCom= 9.57D-01 WtEn= 4.26D-02
 Coeff-Com:  0.211D-02 0.328D-01 0.288D+00 0.677D+00
 Coeff-En:   0.000D+00 0.000D+00 0.144D+00 0.856D+00
 Coeff:      0.202D-02 0.314D-01 0.282D+00 0.684D+00
 Gap=     0.346 Goal=   None    Shift=    0.000
 RMSDP=4.85D-04 MaxDP=6.85D-03 DE=-5.30D-03 OVMax= 1.26D-02

 Cycle   5  Pass 1  IDiag  1:
 E= -225.282366096055     Delta-E=       -0.000921114660 Rises=F Damp=F
 DIIS: error= 8.41D-04 at cycle   5 NSaved=   5.
 NSaved= 5 IEnMin= 5 EnMin= -225.282366096055     IErMin= 5 ErrMin= 8.41D-04
 ErrMax= 8.41D-04  0.00D+00 EMaxC= 1.00D-01 BMatC= 5.11D-05 BMatP= 1.26D-03
 IDIUse=3 WtCom= 9.92D-01 WtEn= 8.41D-03
 Coeff-Com: -0.108D-02-0.146D-02 0.121D+00 0.345D+00 0.537D+00
 Coeff-En:   0.000D+00 0.000D+00 0.000D+00 0.000D+00 0.100D+01
 Coeff:     -0.108D-02-0.145D-02 0.120D+00 0.342D+00 0.541D+00
 Gap=     0.341 Goal=   None    Shift=    0.000
 RMSDP=9.95D-05 MaxDP=1.44D-03 DE=-9.21D-04 OVMax= 2.09D-03

 Cycle   6  Pass 1  IDiag  1:
 E= -225.282410260704     Delta-E=       -0.000044164649 Rises=F Damp=F
 DIIS: error= 6.26D-05 at cycle   6 NSaved=   6.
 NSaved= 6 IEnMin= 6 EnMin= -225.282410260704     IErMin= 6 ErrMin= 6.26D-05
 ErrMax= 6.26D-05  0.00D+00 EMaxC= 1.00D-01 BMatC= 3.74D-07 BMatP= 5.11D-05
 IDIUse=1 WtCom= 1.00D+00 WtEn= 0.00D+00
 Coeff-Com: -0.271D-03-0.945D-03 0.183D-01 0.509D-01 0.133D+00 0.799D+00
 Coeff:     -0.271D-03-0.945D-03 0.183D-01 0.509D-01 0.133D+00 0.799D+00
 Gap=     0.341 Goal=   None    Shift=    0.000
 RMSDP=7.96D-06 MaxDP=9.44D-05 DE=-4.42D-05 OVMax= 1.27D-04

 Cycle   7  Pass 1  IDiag  1:
 E= -225.282410565155     Delta-E=       -0.000000304452 Rises=F Damp=F
 DIIS: error= 4.93D-06 at cycle   7 NSaved=   7.
 NSaved= 7 IEnMin= 7 EnMin= -225.282410565155     IErMin= 7 ErrMin= 4.93D-06
 ErrMax= 4.93D-06  0.00D+00 EMaxC= 1.00D-01 BMatC= 2.96D-09 BMatP= 3.74D-07
 IDIUse=1 WtCom= 1.00D+00 WtEn= 0.00D+00
 Coeff-Com:  0.265D-05-0.378D-04-0.617D-03-0.250D-02 0.430D-02 0.545D-01
 Coeff-Com:  0.944D+00
 Coeff:      0.265D-05-0.378D-04-0.617D-03-0.250D-02 0.430D-02 0.545D-01
 Coeff:      0.944D+00
 Gap=     0.341 Goal=   None    Shift=    0.000
 RMSDP=1.31D-06 MaxDP=1.67D-05 DE=-3.04D-07 OVMax= 2.23D-05

 Cycle   8  Pass 1  IDiag  1:
 E= -225.282410567819     Delta-E=       -0.000000002663 Rises=F Damp=F
 DIIS: error= 9.63D-07 at cycle   8 NSaved=   8.
 NSaved= 8 IEnMin= 8 EnMin= -225.282410567819     IErMin= 8 ErrMin= 9.63D-07
 ErrMax= 9.63D-07  0.00D+00 EMaxC= 1.00D-01 BMatC= 9.56D-11 BMatP= 2.96D-09
 IDIUse=1 WtCom= 1.00D+00 WtEn= 0.00D+00
 Coeff-Com:  0.217D-05 0.111D-04-0.485D-03-0.148D-02-0.140D-02-0.429D-02
 Coeff-Com:  0.211D+00 0.797D+00
 Coeff:      0.217D-05 0.111D-04-0.485D-03-0.148D-02-0.140D-02-0.429D-02
 Coeff:      0.211D+00 0.797D+00
 Gap=     0.341 Goal=   None    Shift=    0.000
 RMSDP=1.83D-07 MaxDP=2.11D-06 DE=-2.66D-09 OVMax= 3.21D-06

 Cycle   9  Pass 1  IDiag  1:
 E= -225.282410567886     Delta-E=       -0.000000000067 Rises=F Damp=F
 DIIS: error= 5.72D-07 at cycle   9 NSaved=   9.
 NSaved= 9 IEnMin= 9 EnMin= -225.282410567886     IErMin= 9 ErrMin= 5.72D-07
 ErrMax= 5.72D-07  0.00D+00 EMaxC= 1.00D-01 BMatC= 2.20D-11 BMatP= 9.56D-11
 IDIUse=1 WtCom= 1.00D+00 WtEn= 0.00D+00
 Coeff-Com:  0.288D-06 0.736D-05-0.217D-03-0.638D-03-0.823D-03-0.402D-02
 Coeff-Com:  0.730D-01 0.393D+00 0.539D+00
 Coeff:      0.288D-06 0.736D-05-0.217D-03-0.638D-03-0.823D-03-0.402D-02
 Coeff:      0.730D-01 0.393D+00 0.539D+00
 Gap=     0.341 Goal=   None    Shift=    0.000
 RMSDP=6.45D-08 MaxDP=1.27D-06 DE=-6.71D-11 OVMax= 1.97D-06

 Cycle  10  Pass 1  IDiag  1:
 E= -225.282410567904     Delta-E=       -0.000000000018 Rises=F Damp=F
 DIIS: error= 1.66D-07 at cycle  10 NSaved=  10.
 NSaved=10 IEnMin=10 EnMin= -225.282410567904     IErMin=10 ErrMin= 1.66D-07
 ErrMax= 1.66D-07  0.00D+00 EMaxC= 1.00D-01 BMatC= 2.00D-12 BMatP= 2.20D-11
 IDIUse=1 WtCom= 1.00D+00 WtEn= 0.00D+00
 Coeff-Com: -0.671D-06 0.145D-05 0.358D-05 0.207D-04-0.802D-04-0.102D-02
 Coeff-Com: -0.106D-01 0.145D-01 0.241D+00 0.756D+00
 Coeff:     -0.671D-06 0.145D-05 0.358D-05 0.207D-04-0.802D-04-0.102D-02
 Coeff:     -0.106D-01 0.145D-01 0.241D+00 0.756D+00
 Gap=     0.341 Goal=   None    Shift=    0.000
 RMSDP=1.87D-08 MaxDP=2.98D-07 DE=-1.85D-11 OVMax= 4.46D-07

 Cycle  11  Pass 1  IDiag  1:
 E= -225.282410567904     Delta-E=       -0.000000000000 Rises=F Damp=F
 DIIS: error= 1.70D-08 at cycle  11 NSaved=  11.
 NSaved=11 IEnMin=11 EnMin= -225.282410567904     IErMin=11 ErrMin= 1.70D-08
 ErrMax= 1.70D-08  0.00D+00 EMaxC= 1.00D-01 BMatC= 1.76D-14 BMatP= 2.00D-12
 IDIUse=1 WtCom= 1.00D+00 WtEn= 0.00D+00
 Coeff-Com:  0.512D-07-0.202D-06 0.358D-05 0.717D-05 0.129D-04 0.303D-04
 Coeff-Com: -0.943D-03-0.534D-02-0.655D-02 0.149D-02 0.101D+01
 Coeff:      0.512D-07-0.202D-06 0.358D-05 0.717D-05 0.129D-04 0.303D-04
 Coeff:     -0.943D-03-0.534D-02-0.655D-02 0.149D-02 0.101D+01
 Gap=     0.341 Goal=   None    Shift=    0.000
 RMSDP=2.82D-09 MaxDP=3.94D-08 DE=-1.14D-13 OVMax= 4.36D-08

 Error on total polarization charges =  0.01609
 SCF Done:  E(RB3LYP) =  -225.282410568     A.U. after   11 cycles
            NFock= 11  Conv=0.28D-08     -V/T= 2.0085
 KE= 2.233873414077D+02 PE=-7.781549380844D+02 EE= 2.043153340892D+02
 Leave Link  502 at Tue Mar  1 05:55:23 2022, MaxMem=   104857600 cpu:              26.9 elap:               7.2
 (Enter /dades/curu/g16A03_MST/g16/l601.exe)
 Copying SCF densities to generalized density rwf, IOpCl= 0 IROHF=0.

 **********************************************************************

            Population analysis using the SCF density.

 **********************************************************************

 Orbital symmetries:
       Occupied  (A) (A) (A) (A) (A) (A) (A) (A) (A) (A) (A) (A)
                 (A) (A) (A) (A)
       Virtual   (A) (A) (A) (A) (A) (A) (A) (A) (A) (A) (A) (A)
                 (A) (A) (A) (A) (A) (A) (A) (A) (A) (A) (A) (A)
                 (A) (A) (A) (A) (A) (A) (A) (A) (A) (A) (A) (A)
                 (A) (A) (A) (A) (A) (A) (A) (A) (A) (A) (A) (A)
                 (A) (A) (A) (A)
 The electronic state is 1-A.
 Alpha  occ. eigenvalues --  -19.09036 -14.32871 -14.32854 -10.29592  -1.03394
 Alpha  occ. eigenvalues --   -0.90667  -0.85962  -0.60060  -0.53642  -0.52432
 Alpha  occ. eigenvalues --   -0.45142  -0.41853  -0.40619  -0.25547  -0.25473
 Alpha  occ. eigenvalues --   -0.24978
 Alpha virt. eigenvalues --    0.09089   0.09574   0.14911   0.15068   0.19506
 Alpha virt. eigenvalues --    0.28411   0.33765   0.45168   0.56441   0.59449
 Alpha virt. eigenvalues --    0.59820   0.65912   0.69101   0.72312   0.73329
 Alpha virt. eigenvalues --    0.75211   0.83049   0.90074   0.90643   0.91870
 Alpha virt. eigenvalues --    0.96006   1.03302   1.04355   1.20441   1.25710
 Alpha virt. eigenvalues --    1.29731   1.34062   1.39883   1.50879   1.67745
 Alpha virt. eigenvalues --    1.68061   1.71992   1.82969   1.83326   1.87300
 Alpha virt. eigenvalues --    2.02848   2.09413   2.13810   2.23749   2.35864
 Alpha virt. eigenvalues --    2.35994   2.49252   2.60726   2.62058   2.67419
 Alpha virt. eigenvalues --    2.91626   3.08630   3.13236   3.80389   3.84056
 Alpha virt. eigenvalues --    4.10153   4.41194
          Condensed to atoms (all electrons):
               1          2          3          4          5          6
     1  N    7.104864   0.317945  -0.144001  -0.108875   0.297557   0.301215
     2  C    0.317945   4.058000   0.317851   0.665630  -0.006066  -0.011181
     3  N   -0.144001   0.317851   7.104371  -0.108729   0.000954   0.006626
     4  O   -0.108875   0.665630  -0.108729   8.160190   0.003285   0.005295
     5  H    0.297557  -0.006066   0.000954   0.003285   0.339820  -0.016516
     6  H    0.301215  -0.011181   0.006626   0.005295  -0.016516   0.344112
     7  H    0.000931  -0.006049   0.297687   0.003282   0.001092  -0.000248
     8  H    0.006626  -0.011186   0.301055   0.005279  -0.000249  -0.000194
               7          8
     1  N    0.000931   0.006626
     2  C   -0.006049  -0.011186
     3  N    0.297687   0.301055
     4  O    0.003282   0.005279
     5  H    0.001092  -0.000249
     6  H   -0.000248  -0.000194
     7  H    0.339509  -0.016498
     8  H   -0.016498   0.344104
 Mulliken charges:
               1
     1  N   -0.776260
     2  C    0.675057
     3  N   -0.775813
     4  O   -0.625357
     5  H    0.380124
     6  H    0.370892
     7  H    0.380295
     8  H    0.371062
 Sum of Mulliken charges =  -0.00000
 Mulliken charges with hydrogens summed into heavy atoms:
               1
     1  N   -0.025245
     2  C    0.675057
     3  N   -0.024455
     4  O   -0.625357
 Electronic spatial extent (au):  <R**2>=            238.2576
 Charge=             -0.0000 electrons
 Dipole moment (field-independent basis, Debye):
    X=             -0.0031    Y=             -5.7389    Z=             -0.0016  Tot=              5.7389
 Quadrupole moment (field-independent basis, Debye-Ang):
   XX=            -15.0472   YY=            -23.3496   ZZ=            -25.3082
   XY=              0.0080   XZ=              0.0050   YZ=             -0.0005
 Traceless Quadrupole moment (field-independent basis, Debye-Ang):
   XX=              6.1878   YY=             -2.1146   ZZ=             -4.0732
   XY=              0.0080   XZ=              0.0050   YZ=             -0.0005
 Octapole moment (field-independent basis, Debye-Ang**2):
  XXX=             -0.0157  YYY=            -21.3589  ZZZ=             -0.0006  XYY=              0.0081
  XXY=             -2.6909  XXZ=              0.0000  XZZ=             -0.0047  YZZ=              1.1472
  YYZ=              0.0008  XYZ=             -0.0036
 Hexadecapole moment (field-independent basis, Debye-Ang**3):
 XXXX=            -89.0026 YYYY=           -110.4896 ZZZZ=            -21.6754 XXXY=              0.0218
 XXXZ=              0.0159 YYYX=              0.0140 YYYZ=             -0.0007 ZZZX=              0.0042
 ZZZY=              0.0006 XXYY=            -36.0125 XXZZ=            -29.4537 YYZZ=            -24.9655
 XXYZ=             -0.0010 YYXZ=              0.0054 ZZXY=              0.0016
 N-N= 1.251698520195D+02 E-N=-7.781549380360D+02  KE= 2.233873414077D+02
 No NMR shielding tensors so no spin-rotation constants.
 Leave Link  601 at Tue Mar  1 05:55:23 2022, MaxMem=   104857600 cpu:               0.3 elap:               0.1
 (Enter /dades/curu/g16A03_MST/g16/l701.exe)
 ... and contract with generalized density number  0.
 Compute integral first derivatives.
 D1PCM: PCM CHGder 1st derivatives, ID1Alg=3 FixD1E=F DoIter=F DoCFld=F I1PDM=0.
 GePol: Maximum number of non-zero 1st derivatives   =     190
 Leave Link  701 at Tue Mar  1 05:55:23 2022, MaxMem=   104857600 cpu:               1.6 elap:               0.4
 (Enter /dades/curu/g16A03_MST/g16/l702.exe)
 L702 exits ... SP integral derivatives will be done elsewhere.
 Leave Link  702 at Tue Mar  1 05:55:23 2022, MaxMem=   104857600 cpu:               0.0 elap:               0.0
 (Enter /dades/curu/g16A03_MST/g16/l703.exe)
 Integral derivatives from FoFJK, PRISM(SPDF).
 Compute integral first derivatives, UseDBF=F ICtDFT=           0.
 Calling FoFJK, ICntrl=      2127 FMM=F ISym2X=0 I1Cent= 0 IOpClX= 0 NMat=1 NMatS=1 NMatT=0.
 FoFJK:  IHMeth= 1 ICntrl=    2127 DoSepK=F KAlg= 0 I1Cent=           0 FoldK=F
 IRaf=         0 NMat=       1 IRICut=       1 DoRegI=T DoRafI=F ISym2E= 0 IDoP0=0 IntGTp=1.
 FoFCou: FMM=F IPFlag=           0 FMFlag=      100000 FMFlg1=         800
         NFxFlg=           0 DoJE=F BraDBF=F KetDBF=F FulRan=T
         wScrn=  0.000000 ICntrl=      2127 IOpCl=  0 I1Cent=           0 NGrid=           0
         NMat0=    1 NMatS0=      1 NMatT0=    0 NMatD0=    1 NMtDS0=    0 NMtDT0=    0
 Symmetry not used in FoFCou.
 Leave Link  703 at Tue Mar  1 05:55:24 2022, MaxMem=   104857600 cpu:               4.7 elap:               1.2
 (Enter /dades/curu/g16A03_MST/g16/l716.exe)
 Dipole        =-1.23630726D-03-2.25786130D+00-6.37363277D-04
 ***** Axes restored to original set *****
 -------------------------------------------------------------------
 Center     Atomic                   Forces (Hartrees/Bohr)
 Number     Number              X              Y              Z
 -------------------------------------------------------------------
      1        7           0.021858995    0.001884529   -0.002635131
      2        6           0.002684897   -0.018032532   -0.006552491
      3        7          -0.023027878   -0.003488551    0.002169417
      4        8          -0.003374164    0.032443337    0.011816243
      5        1           0.001088643   -0.003322591   -0.001332708
      6        1           0.000843420   -0.002382681   -0.000961888
      7        1          -0.000287147   -0.004276514   -0.001475756
      8        1           0.000213234   -0.002824997   -0.001027686
 -------------------------------------------------------------------
 Cartesian Forces:  Max     0.032443337 RMS     0.010538246
 Leave Link  716 at Tue Mar  1 05:55:24 2022, MaxMem=   104857600 cpu:               0.1 elap:               0.0
 (Enter /dades/curu/g16A03_MST/g16/l103.exe)

 GradGradGradGradGradGradGradGradGradGradGradGradGradGradGradGradGradGrad
 Berny optimization.
 FormGI is forming the generalized inverse of G from B-inverse, IUseBI=4.
 Internal  Forces:  Max     0.034692409 RMS     0.010296419
 Search for a local minimum.
 Step number   1 out of a maximum of  100
 All quantities printed in internal units (Hartrees-Bohrs-Radians)
 RMS Force = .10296D-01 SwitMx=.10000D-02 MixMth= 1
 Mixed Optimization -- RFO/linear search
 Second derivative matrix not updated -- first step.
 ITU=  0
     Eigenvalues ---    0.02397   0.02397   0.02403   0.02409   0.02409
     Eigenvalues ---    0.16000   0.16000   0.16000   0.16000   0.25000
     Eigenvalues ---    0.25000   0.45828   0.45977   0.46691   0.46788
     Eigenvalues ---    0.55733   0.55932   0.95124
 RFO step:  Lambda=-4.01525296D-03 EMin= 2.39705276D-02
 Linear search not attempted -- first point.
 Iteration  1 RMS(Cart)=  0.03450003 RMS(Int)=  0.00021144
 Iteration  2 RMS(Cart)=  0.00022901 RMS(Int)=  0.00000043
 Iteration  3 RMS(Cart)=  0.00000007 RMS(Int)=  0.00000043
 ITry= 1 IFail=0 DXMaxC= 8.25D-02 DCOld= 1.00D+10 DXMaxT= 1.00D-01 DXLimC= 3.00D+00 Rises=F
 Variable       Old X    -DE/DX   Delta X   Delta X   Delta X     New X
                                 (Linear)    (Quad)   (Total)
    R1        2.54486   0.02374   0.00000   0.04228   0.04228   2.58715
    R2        1.90060   0.00367   0.00000   0.00779   0.00779   1.90839
    R3        1.90857  -0.00078   0.00000  -0.00167  -0.00167   1.90689
    R4        2.54313   0.02454   0.00000   0.04356   0.04356   2.58669
    R5        2.30657   0.03469   0.00000   0.03632   0.03632   2.34289
    R6        1.89953   0.00448   0.00000   0.00949   0.00949   1.90901
    R7        1.91026  -0.00142   0.00000  -0.00308  -0.00308   1.90719
    A1        2.14928  -0.00071   0.00000  -0.00432  -0.00432   2.14496
    A2        2.05011   0.00283   0.00000   0.01724   0.01724   2.06736
    A3        2.08379  -0.00212   0.00000  -0.01292  -0.01292   2.07087
    A4        1.98971   0.00865   0.00000   0.03406   0.03406   2.02378
    A5        2.14612  -0.00422   0.00000  -0.01660  -0.01660   2.12952
    A6        2.14735  -0.00444   0.00000  -0.01746  -0.01746   2.12989
    A7        2.15007  -0.00080   0.00000  -0.00486  -0.00486   2.14522
    A8        2.04934   0.00293   0.00000   0.01789   0.01789   2.06723
    A9        2.08377  -0.00214   0.00000  -0.01303  -0.01303   2.07074
    D1        0.00022  -0.00003   0.00000  -0.00111  -0.00111  -0.00089
    D2        3.14065   0.00004   0.00000   0.00150   0.00150  -3.14103
    D3       -3.14086  -0.00004   0.00000  -0.00133  -0.00133   3.14100
    D4       -0.00043   0.00004   0.00000   0.00128   0.00128   0.00085
    D5       -0.00121   0.00003   0.00000   0.00092   0.00092  -0.00029
    D6       -3.14132   0.00004   0.00000   0.00147   0.00147  -3.13986
    D7        3.14154  -0.00005   0.00000  -0.00169  -0.00169   3.13985
    D8        0.00143  -0.00003   0.00000  -0.00114  -0.00114   0.00029
         Item               Value     Threshold  Converged?
 Maximum Force            0.034692     0.000450     NO 
 RMS     Force            0.010296     0.000300     NO 
 Maximum Displacement     0.082513     0.001800     NO 
 RMS     Displacement     0.034546     0.001200     NO 
 Predicted change in Energy=-2.023523D-03
 Lowest energy point so far.  Saving SCF results.
 GradGradGradGradGradGradGradGradGradGradGradGradGradGradGradGradGradGrad

 Leave Link  103 at Tue Mar  1 05:55:24 2022, MaxMem=   104857600 cpu:               0.0 elap:               0.0
 (Enter /dades/curu/g16A03_MST/g16/l202.exe)
                          Input orientation:                          
 ---------------------------------------------------------------------
 Center     Atomic      Atomic             Coordinates (Angstroms)
 Number     Number       Type             X           Y           Z
 ---------------------------------------------------------------------
      1          7           0        1.163923   -0.037142   -0.557713
      2          6           0       -0.048935    0.483641   -0.194282
      3          7           0       -1.124354   -0.352524   -0.328337
      4          8           0       -0.166121    1.643006    0.229104
      5          1           0        1.274664   -0.979108   -0.904533
      6          1           0        1.982392    0.547190   -0.474550
      7          1           0       -1.044352   -1.298691   -0.673135
      8          1           0       -2.037216   -0.006372   -0.072555
 ---------------------------------------------------------------------
                    Distance matrix (angstroms):
                    1          2          3          4          5
     1  N    0.000000
     2  C    1.369059   0.000000
     3  N    2.321269   1.368820   0.000000
     4  O    2.282760   1.239804   2.282781   0.000000
     5  H    1.009875   2.096666   2.545565   3.199449   0.000000
     6  H    1.009085   2.051556   3.237706   2.512379   1.736476
     7  H    2.545841   2.096870   1.010207   3.199829   2.352343
     8  H    3.237841   2.051387   1.009239   2.512458   3.550628
                    6          7          8
     6  H    0.000000
     7  H    3.550760   0.000000
     8  H    4.077411   1.736826   0.000000
 Stoichiometry    CH4N2O
 Framework group  C1[X(CH4N2O)]
 Deg. of freedom    18
 Full point group                 C1      NOp   1
 RotChk:  IX=2 Diff= 1.13D-03
 Largest Abelian subgroup         C1      NOp   1
 Largest concise Abelian subgroup C1      NOp   1
                         Standard orientation:                         
 ---------------------------------------------------------------------
 Center     Atomic      Atomic             Coordinates (Angstroms)
 Number     Number       Type             X           Y           Z
 ---------------------------------------------------------------------
      1          7           0        1.160590   -0.595641   -0.000104
      2          6           0       -0.000095    0.130397    0.000518
      3          7           0       -1.160679   -0.595352    0.000147
      4          8           0        0.000222    1.370202   -0.000155
      5          1           0        1.175922   -1.605400   -0.000043
      6          1           0        2.038662   -0.098407   -0.000386
      7          1           0       -1.176421   -1.605436   -0.000790
      8          1           0       -2.038749   -0.097804   -0.000957
 ---------------------------------------------------------------------
 Rotational constants (GHZ):          11.1833061          10.3365535           5.3716361
 Leave Link  202 at Tue Mar  1 05:55:25 2022, MaxMem=   104857600 cpu:               0.0 elap:               0.0
 (Enter /dades/curu/g16A03_MST/g16/l301.exe)
 Standard basis: 6-31G(d) (6D, 7F)
 Ernie: Thresh=  0.10000D-02 Tol=  0.10000D-05 Strict=F.
 There are    68 symmetry adapted cartesian basis functions of A   symmetry.
 There are    68 symmetry adapted basis functions of A   symmetry.
    68 basis functions,   128 primitive gaussians,    68 cartesian basis functions
    16 alpha electrons       16 beta electrons
       nuclear repulsion energy       123.3688828067 Hartrees.
 IExCor=  402 DFT=T Ex+Corr=B3LYP ExCW=0 ScaHFX=  0.200000
 ScaDFX=  0.800000  0.720000  1.000000  0.810000 ScalE2=  1.000000  1.000000
 IRadAn=      5 IRanWt=     -1 IRanGd=            0 ICorTp=0 IEmpDi=  4
 NAtoms=    8 NActive=    8 NUniq=    8 SFac= 1.00D+00 NAtFMM=   60 NAOKFM=F Big=F
 Integral buffers will be    131072 words long.
 Raffenetti 2 integral format.
 Two-electron integral symmetry is turned on.
 ------------------------------------------------------------------------------
 Polarizable Continuum Model (PCM)
 =================================
 Model                : PCM.
 Atomic radii         : MST.
 Polarization charges : Total charges.
 Charge compensation  : None.
 Solution method      : On-the-fly selection.
 Cavity type          : Scaled VdW (van der Waals Surface) (Alpha=1.250).
 Cavity algorithm     : GePol (No added spheres)
                        Default sphere list used, NSphG=    8.
                        Lebedev-Laikov grids with approx.  5.0 points / Ang**2.
                        Smoothing algorithm: York/Karplus (Gamma=1.0000).
                        Polarization charges: spherical gaussians, with
                                              point-specific exponents (IZeta= 3).
                        Self-potential: point-specific (ISelfS= 7).
                        Self-field    : sphere-specific E.n sum rule (ISelfD= 2).
 1st derivatives      : Analytical E(r).r(x)/FMM algorithm (CHGder, D1EAlg=3).
                        Cavity 1st derivative terms included.
 Solvent              : Water, Eps=  78.355300 Eps(inf)=   1.777849
 ------------------------------------------------------------------------------
 Spheres list:
 ISph  on   Nord     Re0    Alpha      Xe            Ye            Ze
    1   N      1    1.4000  1.250      1.160590     -0.595641     -0.000104
    2   C      2    1.5000  1.250     -0.000095      0.130397      0.000518
    3   N      3    1.4000  1.250     -1.160679     -0.595352      0.000147
    4   O      4    1.4000  1.250      0.000222      1.370202     -0.000155
    5   H      5    0.9000  1.250      1.175922     -1.605400     -0.000043
    6   H      6    0.9000  1.250      2.038662     -0.098407     -0.000386
    7   H      7    0.9000  1.250     -1.176421     -1.605436     -0.000790
    8   H      8    0.9000  1.250     -2.038749     -0.097804     -0.000957
 ------------------------------------------------------------------------------
 GePol: Number of generator spheres                  =       8
 GePol: Total number of spheres                      =       8
 GePol: Number of exposed spheres                    =       8 (100.00%)
 GePol: Number of points                             =     604
 GePol: Average weight of points                     =       0.14
 GePol: Minimum weight of points                     =   0.12D-05
 GePol: Maximum weight of points                     =    0.22001
 GePol: Number of points with low weight             =      29
 GePol: Fraction of low-weight points (<1% of avg)   =       4.80%
 GePol: Cavity surface area                          =     85.543 Ang**2
 GePol: Cavity volume                                =     62.412 Ang**3
 Surface areas from nonelectrostatic (unscaled) cavity and vdw tensions:
 Sphere =    1 Type =  NH  Surf =       11.513 Tension =       -0.159
 Sphere =    2 Type =  C   Surf =        8.039 Tension =       -0.101
 Sphere =    3 Type =  NH  Surf =       11.511 Tension =       -0.159
 Sphere =    4 Type =  O   Surf =       16.614 Tension =       -0.117
 Sphere =    5 Type =  NH  Surf =        4.738 Tension =       -0.159
 Sphere =    6 Type =  NH  Surf =        4.727 Tension =       -0.159
 Sphere =    7 Type =  NH  Surf =        4.740 Tension =       -0.159
 Sphere =    8 Type =  NH  Surf =        4.727 Tension =       -0.159
 PCM non-electrostatic energy =         0.0005609843 Hartrees.
 Nuclear repulsion after PCM non-electrostatic terms =      123.3694437911 Hartrees.
 Leave Link  301 at Tue Mar  1 05:55:25 2022, MaxMem=   104857600 cpu:               0.1 elap:               0.1
 (Enter /dades/curu/g16A03_MST/g16/l302.exe)
 NPDir=0 NMtPBC=     1 NCelOv=     1 NCel=       1 NClECP=     1 NCelD=      1
         NCelK=      1 NCelE2=     1 NClLst=     1 CellRange=     0.0.
 One-electron integrals computed using PRISM.
 One-electron integral symmetry used in STVInt
 NBasis=    68 RedAO= T EigKep=  3.44D-03  NBF=    68
 NBsUse=    68 1.00D-06 EigRej= -1.00D+00 NBFU=    68
 Precomputing XC quadrature grid using
 IXCGrd= 4 IRadAn=           5 IRanWt=          -1 IRanGd=           0 AccXCQ= 0.00D+00.
 Generated NRdTot=       0 NPtTot=           0 NUsed=           0 NTot=          32
 NSgBfM=    68    68    68    68    68 MxSgAt=     8 MxSgA2=     8.
 Leave Link  302 at Tue Mar  1 05:55:25 2022, MaxMem=   104857600 cpu:               0.4 elap:               0.1
 (Enter /dades/curu/g16A03_MST/g16/l303.exe)
 DipDrv:  MaxL=1.
 Leave Link  303 at Tue Mar  1 05:55:25 2022, MaxMem=   104857600 cpu:               0.0 elap:               0.0
 (Enter /dades/curu/g16A03_MST/g16/l401.exe)
 Initial guess from the checkpoint file:  "221.n.pdb.xyz.mst.wat.chk"
 B after Tr=    -0.000000    0.000000    0.000000
         Rot=    1.000000   -0.000000    0.000000    0.000431 Ang=  -0.05 deg.
 Guess basis will be translated and rotated to current coordinates.
 JPrj=2 DoOrth=T DoCkMO=T.
 Generating alternative initial guess.
 ExpMin= 1.61D-01 ExpMax= 5.48D+03 ExpMxC= 8.25D+02 IAcc=2 IRadAn=         4 AccDes= 0.00D+00
 Harris functional with IExCor=  402 and IRadAn=       4 diagonalized for initial guess.
 HarFok:  IExCor=  402 AccDes= 0.00D+00 IRadAn=         4 IDoV= 1 UseB2=F ITyADJ=14
 ICtDFT=  3500011 ScaDFX=  1.000000  1.000000  1.000000  1.000000
 FoFCou: FMM=F IPFlag=           0 FMFlag=      100000 FMFlg1=           0
         NFxFlg=           0 DoJE=T BraDBF=F KetDBF=T FulRan=T
         wScrn=  0.000000 ICntrl=       500 IOpCl=  0 I1Cent=   200000004 NGrid=           0
         NMat0=    1 NMatS0=      1 NMatT0=    0 NMatD0=    1 NMtDS0=    0 NMtDT0=    0
 Petite list used in FoFCou.
 Harris En= -225.284140840125    
 Leave Link  401 at Tue Mar  1 05:55:25 2022, MaxMem=   104857600 cpu:               1.0 elap:               0.3
 (Enter /dades/curu/g16A03_MST/g16/l502.exe)
 Keep R1 ints in memory in canonical form, NReq=6321819.
 FoFCou: FMM=F IPFlag=           0 FMFlag=           0 FMFlg1=           0
         NFxFlg=           0 DoJE=F BraDBF=F KetDBF=F FulRan=T
         wScrn=  0.000000 ICntrl=       600 IOpCl=  0 I1Cent=           0 NGrid=           0
         NMat0=    1 NMatS0=   2346 NMatT0=    0 NMatD0=    1 NMtDS0=    0 NMtDT0=    0
 Symmetry not used in FoFCou.
 Two-electron integral symmetry not used.
 Closed shell SCF:
 Using DIIS extrapolation, IDIIS=  1040.
 NGot=   104857600 LenX=   102094009 LenY=   102088944
 Requested convergence on RMS density matrix=1.00D-08 within2000 cycles.
 Requested convergence on MAX density matrix=1.00D-06.
 Requested convergence on             energy=1.00D-06.
 No special actions if energy rises.

 Cycle   1  Pass 1  IDiag  1:
 Inv3:  Mode=1 IEnd=     1094448.
 Iteration    1 A*A^-1 deviation from unit magnitude is 3.89D-15 for    604.
 Iteration    1 A*A^-1 deviation from orthogonality  is 2.02D-15 for    157    115.
 Iteration    1 A^-1*A deviation from unit magnitude is 4.00D-15 for    604.
 Iteration    1 A^-1*A deviation from orthogonality  is 1.78D-15 for    453     65.
 E= -225.283616764629    
 DIIS: error= 2.44D-03 at cycle   1 NSaved=   1.
 NSaved= 1 IEnMin= 1 EnMin= -225.283616764629     IErMin= 1 ErrMin= 2.44D-03
 ErrMax= 2.44D-03  0.00D+00 EMaxC= 1.00D-01 BMatC= 5.14D-04 BMatP= 5.14D-04
 IDIUse=3 WtCom= 9.76D-01 WtEn= 2.44D-02
 Coeff-Com:  0.100D+01
 Coeff-En:   0.100D+01
 Coeff:      0.100D+01
 Gap=     1.534 Goal=   None    Shift=    0.000
 GapD=    1.534 DampG=2.000 DampE=1.000 DampFc=2.0000 IDamp=-1.
 RMSDP=5.63D-04 MaxDP=8.38D-03              OVMax= 7.18D-03

 Cycle   2  Pass 1  IDiag  1:
 E= -225.284191719008     Delta-E=       -0.000574954379 Rises=F Damp=F
 DIIS: error= 1.17D-03 at cycle   2 NSaved=   2.
 NSaved= 2 IEnMin= 2 EnMin= -225.284191719008     IErMin= 2 ErrMin= 1.17D-03
 ErrMax= 1.17D-03  0.00D+00 EMaxC= 1.00D-01 BMatC= 9.46D-05 BMatP= 5.14D-04
 IDIUse=3 WtCom= 9.88D-01 WtEn= 1.17D-02
 Coeff-Com:  0.233D+00 0.767D+00
 Coeff-En:   0.000D+00 0.100D+01
 Coeff:      0.230D+00 0.770D+00
 Gap=     0.329 Goal=   None    Shift=    0.000
 RMSDP=2.25D-04 MaxDP=2.68D-03 DE=-5.75D-04 OVMax= 3.54D-03

 Cycle   3  Pass 1  IDiag  1:
 E= -225.284249852894     Delta-E=       -0.000058133886 Rises=F Damp=F
 DIIS: error= 6.68D-04 at cycle   3 NSaved=   3.
 NSaved= 3 IEnMin= 3 EnMin= -225.284249852894     IErMin= 3 ErrMin= 6.68D-04
 ErrMax= 6.68D-04  0.00D+00 EMaxC= 1.00D-01 BMatC= 3.05D-05 BMatP= 9.46D-05
 IDIUse=3 WtCom= 9.93D-01 WtEn= 6.68D-03
 Coeff-Com: -0.137D-01 0.354D+00 0.660D+00
 Coeff-En:   0.000D+00 0.206D+00 0.794D+00
 Coeff:     -0.137D-01 0.353D+00 0.661D+00
 Gap=     0.330 Goal=   None    Shift=    0.000
 RMSDP=9.33D-05 MaxDP=1.45D-03 DE=-5.81D-05 OVMax= 2.14D-03

 Cycle   4  Pass 1  IDiag  1:
 E= -225.284273205531     Delta-E=       -0.000023352637 Rises=F Damp=F
 DIIS: error= 2.30D-04 at cycle   4 NSaved=   4.
 NSaved= 4 IEnMin= 4 EnMin= -225.284273205531     IErMin= 4 ErrMin= 2.30D-04
 ErrMax= 2.30D-04  0.00D+00 EMaxC= 1.00D-01 BMatC= 3.74D-06 BMatP= 3.05D-05
 IDIUse=3 WtCom= 9.98D-01 WtEn= 2.30D-03
 Coeff-Com: -0.156D-01 0.200D+00 0.423D+00 0.393D+00
 Coeff-En:   0.000D+00 0.000D+00 0.000D+00 0.100D+01
 Coeff:     -0.156D-01 0.200D+00 0.422D+00 0.394D+00
 Gap=     0.330 Goal=   None    Shift=    0.000
 RMSDP=2.48D-05 MaxDP=4.23D-04 DE=-2.34D-05 OVMax= 6.64D-04

 Cycle   5  Pass 1  IDiag  1:
 E= -225.284276044661     Delta-E=       -0.000002839131 Rises=F Damp=F
 DIIS: error= 2.13D-05 at cycle   5 NSaved=   5.
 NSaved= 5 IEnMin= 5 EnMin= -225.284276044661     IErMin= 5 ErrMin= 2.13D-05
 ErrMax= 2.13D-05  0.00D+00 EMaxC= 1.00D-01 BMatC= 3.19D-08 BMatP= 3.74D-06
 IDIUse=1 WtCom= 1.00D+00 WtEn= 0.00D+00
 Coeff-Com: -0.255D-02 0.225D-01 0.604D-01 0.109D+00 0.810D+00
 Coeff:     -0.255D-02 0.225D-01 0.604D-01 0.109D+00 0.810D+00
 Gap=     0.330 Goal=   None    Shift=    0.000
 RMSDP=2.45D-06 MaxDP=3.89D-05 DE=-2.84D-06 OVMax= 5.91D-05

 Cycle   6  Pass 1  IDiag  1:
 E= -225.284276066742     Delta-E=       -0.000000022081 Rises=F Damp=F
 DIIS: error= 8.02D-06 at cycle   6 NSaved=   6.
 NSaved= 6 IEnMin= 6 EnMin= -225.284276066742     IErMin= 6 ErrMin= 8.02D-06
 ErrMax= 8.02D-06  0.00D+00 EMaxC= 1.00D-01 BMatC= 5.36D-09 BMatP= 3.19D-08
 IDIUse=1 WtCom= 1.00D+00 WtEn= 0.00D+00
 Coeff-Com: -0.652D-03 0.233D-02 0.119D-01 0.384D-01 0.393D+00 0.555D+00
 Coeff:     -0.652D-03 0.233D-02 0.119D-01 0.384D-01 0.393D+00 0.555D+00
 Gap=     0.330 Goal=   None    Shift=    0.000
 RMSDP=8.15D-07 MaxDP=1.65D-05 DE=-2.21D-08 OVMax= 2.36D-05

 Cycle   7  Pass 1  IDiag  1:
 E= -225.284276070682     Delta-E=       -0.000000003940 Rises=F Damp=F
 DIIS: error= 1.89D-06 at cycle   7 NSaved=   7.
 NSaved= 7 IEnMin= 7 EnMin= -225.284276070682     IErMin= 7 ErrMin= 1.89D-06
 ErrMax= 1.89D-06  0.00D+00 EMaxC= 1.00D-01 BMatC= 3.16D-10 BMatP= 5.36D-09
 IDIUse=1 WtCom= 1.00D+00 WtEn= 0.00D+00
 Coeff-Com:  0.126D-04-0.159D-02-0.173D-02 0.532D-02 0.805D-01 0.238D+00
 Coeff-Com:  0.679D+00
 Coeff:      0.126D-04-0.159D-02-0.173D-02 0.532D-02 0.805D-01 0.238D+00
 Coeff:      0.679D+00
 Gap=     0.330 Goal=   None    Shift=    0.000
 RMSDP=1.83D-07 MaxDP=3.39D-06 DE=-3.94D-09 OVMax= 3.61D-06

 Cycle   8  Pass 1  IDiag  1:
 E= -225.284276070927     Delta-E=       -0.000000000245 Rises=F Damp=F
 DIIS: error= 1.52D-07 at cycle   8 NSaved=   8.
 NSaved= 8 IEnMin= 8 EnMin= -225.284276070927     IErMin= 8 ErrMin= 1.52D-07
 ErrMax= 1.52D-07  0.00D+00 EMaxC= 1.00D-01 BMatC= 2.78D-12 BMatP= 3.16D-10
 IDIUse=1 WtCom= 1.00D+00 WtEn= 0.00D+00
 Coeff-Com:  0.146D-04-0.315D-03-0.569D-03 0.380D-03 0.444D-02 0.309D-01
 Coeff-Com:  0.122D+00 0.843D+00
 Coeff:      0.146D-04-0.315D-03-0.569D-03 0.380D-03 0.444D-02 0.309D-01
 Coeff:      0.122D+00 0.843D+00
 Gap=     0.330 Goal=   None    Shift=    0.000
 RMSDP=3.16D-08 MaxDP=5.97D-07 DE=-2.45D-10 OVMax= 8.13D-07

 Cycle   9  Pass 1  IDiag  1:
 E= -225.284276070929     Delta-E=       -0.000000000002 Rises=F Damp=F
 DIIS: error= 1.55D-07 at cycle   9 NSaved=   9.
 NSaved= 9 IEnMin= 9 EnMin= -225.284276070929     IErMin= 8 ErrMin= 1.52D-07
 ErrMax= 1.55D-07  0.00D+00 EMaxC= 1.00D-01 BMatC= 1.60D-12 BMatP= 2.78D-12
 IDIUse=1 WtCom= 1.00D+00 WtEn= 0.00D+00
 Coeff-Com:  0.727D-05-0.796D-04-0.216D-03-0.907D-04-0.263D-02 0.314D-02
 Coeff-Com:  0.281D-01 0.502D+00 0.470D+00
 Coeff:      0.727D-05-0.796D-04-0.216D-03-0.907D-04-0.263D-02 0.314D-02
 Coeff:      0.281D-01 0.502D+00 0.470D+00
 Gap=     0.330 Goal=   None    Shift=    0.000
 RMSDP=1.43D-08 MaxDP=3.31D-07 DE=-1.71D-12 OVMax= 4.54D-07

 Cycle  10  Pass 1  IDiag  1:
 E= -225.284276070931     Delta-E=       -0.000000000002 Rises=F Damp=F
 DIIS: error= 1.07D-08 at cycle  10 NSaved=  10.
 NSaved=10 IEnMin=10 EnMin= -225.284276070931     IErMin=10 ErrMin= 1.07D-08
 ErrMax= 1.07D-08  0.00D+00 EMaxC= 1.00D-01 BMatC= 1.33D-14 BMatP= 1.60D-12
 IDIUse=1 WtCom= 1.00D+00 WtEn= 0.00D+00
 Coeff-Com:  0.763D-06 0.259D-05-0.107D-04-0.518D-04-0.103D-02-0.128D-02
 Coeff-Com: -0.261D-02 0.582D-01 0.113D+00 0.834D+00
 Coeff:      0.763D-06 0.259D-05-0.107D-04-0.518D-04-0.103D-02-0.128D-02
 Coeff:     -0.261D-02 0.582D-01 0.113D+00 0.834D+00
 Gap=     0.330 Goal=   None    Shift=    0.000
 RMSDP=1.46D-09 MaxDP=2.11D-08 DE=-2.27D-12 OVMax= 2.56D-08

 Error on total polarization charges =  0.01618
 SCF Done:  E(RB3LYP) =  -225.284276071     A.U. after   10 cycles
            NFock= 10  Conv=0.15D-08     -V/T= 2.0095
 KE= 2.231728626870D+02 PE=-7.744153507746D+02 EE= 2.025887682256D+02
 Leave Link  502 at Tue Mar  1 05:55:32 2022, MaxMem=   104857600 cpu:              24.0 elap:               6.5
 (Enter /dades/curu/g16A03_MST/g16/l701.exe)
 ... and contract with generalized density number  0.
 Compute integral first derivatives.
 D1PCM: PCM CHGder 1st derivatives, ID1Alg=3 FixD1E=F DoIter=F DoCFld=F I1PDM=0.
 GePol: Maximum number of non-zero 1st derivatives   =     187
 Leave Link  701 at Tue Mar  1 05:55:32 2022, MaxMem=   104857600 cpu:               1.7 elap:               0.5
 (Enter /dades/curu/g16A03_MST/g16/l702.exe)
 L702 exits ... SP integral derivatives will be done elsewhere.
 Leave Link  702 at Tue Mar  1 05:55:32 2022, MaxMem=   104857600 cpu:               0.1 elap:               0.0
 (Enter /dades/curu/g16A03_MST/g16/l703.exe)
 Integral derivatives from FoFJK, PRISM(SPDF).
 Compute integral first derivatives, UseDBF=F ICtDFT=           0.
 Calling FoFJK, ICntrl=      2127 FMM=F ISym2X=0 I1Cent= 0 IOpClX= 0 NMat=1 NMatS=1 NMatT=0.
 FoFJK:  IHMeth= 1 ICntrl=    2127 DoSepK=F KAlg= 0 I1Cent=           0 FoldK=F
 IRaf=         0 NMat=       1 IRICut=       1 DoRegI=T DoRafI=F ISym2E= 0 IDoP0=0 IntGTp=1.
 FoFCou: FMM=F IPFlag=           0 FMFlag=      100000 FMFlg1=         800
         NFxFlg=           0 DoJE=F BraDBF=F KetDBF=F FulRan=T
         wScrn=  0.000000 ICntrl=      2127 IOpCl=  0 I1Cent=           0 NGrid=           0
         NMat0=    1 NMatS0=      1 NMatT0=    0 NMatD0=    1 NMtDS0=    0 NMtDT0=    0
 Symmetry not used in FoFCou.
 Leave Link  703 at Tue Mar  1 05:55:33 2022, MaxMem=   104857600 cpu:               4.6 elap:               1.2
 (Enter /dades/curu/g16A03_MST/g16/l716.exe)
 Dipole        =-1.16490749D-03-2.28064271D+00-1.10033025D-03
 ***** Axes restored to original set *****
 -------------------------------------------------------------------
 Center     Atomic                   Forces (Hartrees/Bohr)
 Number     Number              X              Y              Z
 -------------------------------------------------------------------
      1        7          -0.003694332    0.000009285    0.000611330
      2        6           0.000546831   -0.003198999   -0.001478695
      3        7           0.003393414    0.000882887   -0.000110179
      4        8          -0.000271174    0.002506948    0.001022844
      5        1          -0.000436007   -0.000458250   -0.000085814
      6        1          -0.000543405    0.000208761    0.000166481
      7        1           0.000532496   -0.000297967   -0.000182338
      8        1           0.000472178    0.000347334    0.000056371
 -------------------------------------------------------------------
 Cartesian Forces:  Max     0.003694332 RMS     0.001413902
 Leave Link  716 at Tue Mar  1 05:55:33 2022, MaxMem=   104857600 cpu:               0.0 elap:               0.0
 (Enter /dades/curu/g16A03_MST/g16/l103.exe)

 GradGradGradGradGradGradGradGradGradGradGradGradGradGradGradGradGradGrad
 Berny optimization.
 Using GEDIIS/GDIIS optimizer.
 FormGI is forming the generalized inverse of G from B-inverse, IUseBI=4.
 Internal  Forces:  Max     0.004233093 RMS     0.001610920
 Search for a local minimum.
 Step number   2 out of a maximum of  100
 All quantities printed in internal units (Hartrees-Bohrs-Radians)
 RMS Force = .16109D-02 SwitMx=.10000D-02 MixMth= 1
 Mixed Optimization -- RFO/linear search
 Update second derivatives using D2CorX and points    1    2
 DE= -1.87D-03 DEPred=-2.02D-03 R= 9.22D-01
 TightC=F SS=  1.41D+00  RLast= 8.90D-02 DXNew= 1.6818D-01 2.6696D-01
 Trust test= 9.22D-01 RLast= 8.90D-02 DXMaxT set to 1.68D-01
 ITU=  1  0
 Use linear search instead of GDIIS.
     Eigenvalues ---    0.02397   0.02397   0.02404   0.02409   0.02409
     Eigenvalues ---    0.15955   0.16000   0.16000   0.16147   0.25000
     Eigenvalues ---    0.26697   0.45785   0.45959   0.46505   0.46744
     Eigenvalues ---    0.55827   0.63310   0.88143
 RFO step:  Lambda=-7.95239538D-05 EMin= 2.39705204D-02
 Quartic linear search produced a step of -0.09210.
 Iteration  1 RMS(Cart)=  0.00989781 RMS(Int)=  0.00002424
 Iteration  2 RMS(Cart)=  0.00002798 RMS(Int)=  0.00000045
 Iteration  3 RMS(Cart)=  0.00000000 RMS(Int)=  0.00000045
 ITry= 1 IFail=0 DXMaxC= 2.70D-02 DCOld= 1.00D+10 DXMaxT= 1.68D-01 DXLimC= 3.00D+00 Rises=F
 Variable       Old X    -DE/DX   Delta X   Delta X   Delta X     New X
                                 (Linear)    (Quad)   (Total)
    R1        2.58715  -0.00423  -0.00389  -0.00168  -0.00558   2.58157
    R2        1.90839   0.00041  -0.00072   0.00177   0.00105   1.90944
    R3        1.90689  -0.00031   0.00015  -0.00081  -0.00066   1.90623
    R4        2.58669  -0.00400  -0.00401  -0.00113  -0.00514   2.58156
    R5        2.34289   0.00272  -0.00334   0.00691   0.00357   2.34646
    R6        1.90901   0.00038  -0.00087   0.00193   0.00106   1.91007
    R7        1.90719  -0.00029   0.00028  -0.00097  -0.00068   1.90650
    A1        2.14496  -0.00029   0.00040  -0.00230  -0.00190   2.14306
    A2        2.06736  -0.00035  -0.00159   0.00057  -0.00101   2.06635
    A3        2.07087   0.00064   0.00119   0.00172   0.00291   2.07378
    A4        2.02378  -0.00358  -0.00314  -0.00834  -0.01148   2.01229
    A5        2.12952   0.00182   0.00153   0.00435   0.00588   2.13540
    A6        2.12989   0.00175   0.00161   0.00399   0.00560   2.13549
    A7        2.14522  -0.00032   0.00045  -0.00256  -0.00211   2.14311
    A8        2.06723  -0.00032  -0.00165   0.00083  -0.00082   2.06641
    A9        2.07074   0.00065   0.00120   0.00173   0.00293   2.07367
    D1       -0.00089   0.00004   0.00010   0.00114   0.00124   0.00035
    D2       -3.14103  -0.00006  -0.00014  -0.00160  -0.00173   3.14042
    D3        3.14100   0.00006   0.00012   0.00173   0.00185  -3.14034
    D4        0.00085  -0.00004  -0.00012  -0.00100  -0.00112  -0.00027
    D5       -0.00029  -0.00005  -0.00008  -0.00147  -0.00155  -0.00184
    D6       -3.13986  -0.00005  -0.00013  -0.00141  -0.00154  -3.14140
    D7        3.13985   0.00005   0.00016   0.00127   0.00142   3.14127
    D8        0.00029   0.00005   0.00011   0.00132   0.00143   0.00172
         Item               Value     Threshold  Converged?
 Maximum Force            0.004233     0.000450     NO 
 RMS     Force            0.001611     0.000300     NO 
 Maximum Displacement     0.027009     0.001800     NO 
 RMS     Displacement     0.009905     0.001200     NO 
 Predicted change in Energy=-6.423973D-05
 Lowest energy point so far.  Saving SCF results.
 GradGradGradGradGradGradGradGradGradGradGradGradGradGradGradGradGradGrad

 Leave Link  103 at Tue Mar  1 05:55:33 2022, MaxMem=   104857600 cpu:               0.0 elap:               0.0
 (Enter /dades/curu/g16A03_MST/g16/l202.exe)
                          Input orientation:                          
 ---------------------------------------------------------------------
 Center     Atomic      Atomic             Coordinates (Angstroms)
 Number     Number       Type             X           Y           Z
 ---------------------------------------------------------------------
      1          7           0        1.157391   -0.038205   -0.557386
      2          6           0       -0.049453    0.488613   -0.193744
      3          7           0       -1.117889   -0.351825   -0.329163
      4          8           0       -0.166719    1.649277    0.231587
      5          1           0        1.260582   -0.981952   -0.903318
      6          1           0        1.978438    0.542017   -0.475094
      7          1           0       -1.030060   -1.297566   -0.674869
      8          1           0       -2.032290   -0.010359   -0.074013
 ---------------------------------------------------------------------
                    Distance matrix (angstroms):
                    1          2          3          4          5
     1  N    0.000000
     2  C    1.366107   0.000000
     3  N    2.308104   1.366100   0.000000
     4  O    2.285464   1.241692   2.285515   0.000000
     5  H    1.010433   2.093382   2.526625   3.201338   0.000000
     6  H    1.008736   2.048012   3.226064   2.515377   1.738153
     7  H    2.526803   2.093682   1.010767   3.201703   2.323541
     8  H    3.226220   2.048158   1.008876   2.515580   3.531961
                    6          7          8
     6  H    0.000000
     7  H    3.532002   0.000000
     8  H    4.068406   1.738503   0.000000
 Stoichiometry    CH4N2O
 Framework group  C1[X(CH4N2O)]
 Deg. of freedom    18
 Full point group                 C1      NOp   1
 RotChk:  IX=0 Diff= 2.03D-04
 Largest Abelian subgroup         C1      NOp   1
 Largest concise Abelian subgroup C1      NOp   1
                         Standard orientation:                         
 ---------------------------------------------------------------------
 Center     Atomic      Atomic             Coordinates (Angstroms)
 Number     Number       Type             X           Y           Z
 ---------------------------------------------------------------------
      1          7           0        1.153902   -0.598177   -0.000049
      2          6           0        0.000023    0.133130   -0.000479
      3          7           0       -1.154202   -0.597619    0.000270
      4          8           0        0.000378    1.374822    0.000121
      5          1           0        1.161351   -1.608583    0.000467
      6          1           0        2.034094   -0.105421    0.000547
      7          1           0       -1.162189   -1.608354   -0.000481
      8          1           0       -2.034312   -0.104427   -0.000177
 ---------------------------------------------------------------------
 Rotational constants (GHZ):          11.1065906          10.4501665           5.3841926
 Leave Link  202 at Tue Mar  1 05:55:33 2022, MaxMem=   104857600 cpu:               0.0 elap:               0.0
 (Enter /dades/curu/g16A03_MST/g16/l301.exe)
 Standard basis: 6-31G(d) (6D, 7F)
 Ernie: Thresh=  0.10000D-02 Tol=  0.10000D-05 Strict=F.
 There are    68 symmetry adapted cartesian basis functions of A   symmetry.
 There are    68 symmetry adapted basis functions of A   symmetry.
    68 basis functions,   128 primitive gaussians,    68 cartesian basis functions
    16 alpha electrons       16 beta electrons
       nuclear repulsion energy       123.4748334145 Hartrees.
 IExCor=  402 DFT=T Ex+Corr=B3LYP ExCW=0 ScaHFX=  0.200000
 ScaDFX=  0.800000  0.720000  1.000000  0.810000 ScalE2=  1.000000  1.000000
 IRadAn=      5 IRanWt=     -1 IRanGd=            0 ICorTp=0 IEmpDi=  4
 NAtoms=    8 NActive=    8 NUniq=    8 SFac= 1.00D+00 NAtFMM=   60 NAOKFM=F Big=F
 Integral buffers will be    131072 words long.
 Raffenetti 2 integral format.
 Two-electron integral symmetry is turned on.
 ------------------------------------------------------------------------------
 Polarizable Continuum Model (PCM)
 =================================
 Model                : PCM.
 Atomic radii         : MST.
 Polarization charges : Total charges.
 Charge compensation  : None.
 Solution method      : On-the-fly selection.
 Cavity type          : Scaled VdW (van der Waals Surface) (Alpha=1.250).
 Cavity algorithm     : GePol (No added spheres)
                        Default sphere list used, NSphG=    8.
                        Lebedev-Laikov grids with approx.  5.0 points / Ang**2.
                        Smoothing algorithm: York/Karplus (Gamma=1.0000).
                        Polarization charges: spherical gaussians, with
                                              point-specific exponents (IZeta= 3).
                        Self-potential: point-specific (ISelfS= 7).
                        Self-field    : sphere-specific E.n sum rule (ISelfD= 2).
 1st derivatives      : Analytical E(r).r(x)/FMM algorithm (CHGder, D1EAlg=3).
                        Cavity 1st derivative terms included.
 Solvent              : Water, Eps=  78.355300 Eps(inf)=   1.777849
 ------------------------------------------------------------------------------
 Spheres list:
 ISph  on   Nord     Re0    Alpha      Xe            Ye            Ze
    1   N      1    1.4000  1.250      1.153902     -0.598177     -0.000049
    2   C      2    1.5000  1.250      0.000023      0.133130     -0.000479
    3   N      3    1.4000  1.250     -1.154202     -0.597619      0.000270
    4   O      4    1.4000  1.250      0.000378      1.374822      0.000121
    5   H      5    0.9000  1.250      1.161351     -1.608583      0.000467
    6   H      6    0.9000  1.250      2.034094     -0.105421      0.000547
    7   H      7    0.9000  1.250     -1.162189     -1.608354     -0.000481
    8   H      8    0.9000  1.250     -2.034312     -0.104427     -0.000177
 ------------------------------------------------------------------------------
 GePol: Number of generator spheres                  =       8
 GePol: Total number of spheres                      =       8
 GePol: Number of exposed spheres                    =       8 (100.00%)
 GePol: Number of points                             =     604
 GePol: Average weight of points                     =       0.14
 GePol: Minimum weight of points                     =   0.26D-06
 GePol: Maximum weight of points                     =    0.22001
 GePol: Number of points with low weight             =      32
 GePol: Fraction of low-weight points (<1% of avg)   =       5.30%
 GePol: Cavity surface area                          =     85.406 Ang**2
 GePol: Cavity volume                                =     62.319 Ang**3
 Surface areas from nonelectrostatic (unscaled) cavity and vdw tensions:
 Sphere =    1 Type =  NH  Surf =       11.491 Tension =       -0.159
 Sphere =    2 Type =  C   Surf =        8.026 Tension =       -0.101
 Sphere =    3 Type =  NH  Surf =       11.490 Tension =       -0.159
 Sphere =    4 Type =  O   Surf =       16.630 Tension =       -0.117
 Sphere =    5 Type =  NH  Surf =        4.740 Tension =       -0.159
 Sphere =    6 Type =  NH  Surf =        4.724 Tension =       -0.159
 Sphere =    7 Type =  NH  Surf =        4.742 Tension =       -0.159
 Sphere =    8 Type =  NH  Surf =        4.725 Tension =       -0.159
 PCM non-electrostatic energy =         0.0005624458 Hartrees.
 Nuclear repulsion after PCM non-electrostatic terms =      123.4753958603 Hartrees.
 Leave Link  301 at Tue Mar  1 05:55:34 2022, MaxMem=   104857600 cpu:               0.1 elap:               0.1
 (Enter /dades/curu/g16A03_MST/g16/l302.exe)
 NPDir=0 NMtPBC=     1 NCelOv=     1 NCel=       1 NClECP=     1 NCelD=      1
         NCelK=      1 NCelE2=     1 NClLst=     1 CellRange=     0.0.
 One-electron integrals computed using PRISM.
 One-electron integral symmetry used in STVInt
 NBasis=    68 RedAO= T EigKep=  3.41D-03  NBF=    68
 NBsUse=    68 1.00D-06 EigRej= -1.00D+00 NBFU=    68
 Precomputing XC quadrature grid using
 IXCGrd= 4 IRadAn=           5 IRanWt=          -1 IRanGd=           0 AccXCQ= 0.00D+00.
 Generated NRdTot=       0 NPtTot=           0 NUsed=           0 NTot=          32
 NSgBfM=    68    68    68    68    68 MxSgAt=     8 MxSgA2=     8.
 Leave Link  302 at Tue Mar  1 05:55:34 2022, MaxMem=   104857600 cpu:               0.4 elap:               0.2
 (Enter /dades/curu/g16A03_MST/g16/l303.exe)
 DipDrv:  MaxL=1.
 Leave Link  303 at Tue Mar  1 05:55:34 2022, MaxMem=   104857600 cpu:               0.1 elap:               0.0
 (Enter /dades/curu/g16A03_MST/g16/l401.exe)
 Initial guess from the checkpoint file:  "221.n.pdb.xyz.mst.wat.chk"
 B after Tr=     0.000000   -0.000000   -0.000000
         Rot=    1.000000    0.000000    0.000000    0.000059 Ang=   0.01 deg.
 Guess basis will be translated and rotated to current coordinates.
 JPrj=2 DoOrth=T DoCkMO=T.
 Generating alternative initial guess.
 ExpMin= 1.61D-01 ExpMax= 5.48D+03 ExpMxC= 8.25D+02 IAcc=2 IRadAn=         4 AccDes= 0.00D+00
 Harris functional with IExCor=  402 and IRadAn=       4 diagonalized for initial guess.
 HarFok:  IExCor=  402 AccDes= 0.00D+00 IRadAn=         4 IDoV= 1 UseB2=F ITyADJ=14
 ICtDFT=  3500011 ScaDFX=  1.000000  1.000000  1.000000  1.000000
 FoFCou: FMM=F IPFlag=           0 FMFlag=      100000 FMFlg1=           0
         NFxFlg=           0 DoJE=T BraDBF=F KetDBF=T FulRan=T
         wScrn=  0.000000 ICntrl=       500 IOpCl=  0 I1Cent=   200000004 NGrid=           0
         NMat0=    1 NMatS0=      1 NMatT0=    0 NMatD0=    1 NMtDS0=    0 NMtDT0=    0
 Petite list used in FoFCou.
 Harris En= -225.284045678862    
 Leave Link  401 at Tue Mar  1 05:55:34 2022, MaxMem=   104857600 cpu:               1.1 elap:               0.3
 (Enter /dades/curu/g16A03_MST/g16/l502.exe)
 Keep R1 ints in memory in canonical form, NReq=6321819.
 FoFCou: FMM=F IPFlag=           0 FMFlag=           0 FMFlg1=           0
         NFxFlg=           0 DoJE=F BraDBF=F KetDBF=F FulRan=T
         wScrn=  0.000000 ICntrl=       600 IOpCl=  0 I1Cent=           0 NGrid=           0
         NMat0=    1 NMatS0=   2346 NMatT0=    0 NMatD0=    1 NMtDS0=    0 NMtDT0=    0
 Symmetry not used in FoFCou.
 Two-electron integral symmetry not used.
 Closed shell SCF:
 Using DIIS extrapolation, IDIIS=  1040.
 NGot=   104857600 LenX=   102094009 LenY=   102088944
 Requested convergence on RMS density matrix=1.00D-08 within2000 cycles.
 Requested convergence on MAX density matrix=1.00D-06.
 Requested convergence on             energy=1.00D-06.
 No special actions if energy rises.

 Cycle   1  Pass 1  IDiag  1:
 Inv3:  Mode=1 IEnd=     1094448.
 Iteration    1 A*A^-1 deviation from unit magnitude is 3.11D-15 for    597.
 Iteration    1 A*A^-1 deviation from orthogonality  is 1.63D-15 for    297    188.
 Iteration    1 A^-1*A deviation from unit magnitude is 3.11D-15 for    597.
 Iteration    1 A^-1*A deviation from orthogonality  is 1.17D-15 for    202     24.
 E= -225.284290154576    
 DIIS: error= 5.83D-04 at cycle   1 NSaved=   1.
 NSaved= 1 IEnMin= 1 EnMin= -225.284290154576     IErMin= 1 ErrMin= 5.83D-04
 ErrMax= 5.83D-04  0.00D+00 EMaxC= 1.00D-01 BMatC= 2.45D-05 BMatP= 2.45D-05
 IDIUse=3 WtCom= 9.94D-01 WtEn= 5.83D-03
 Coeff-Com:  0.100D+01
 Coeff-En:   0.100D+01
 Coeff:      0.100D+01
 Gap=     1.555 Goal=   None    Shift=    0.000
 RMSDP=1.23D-04 MaxDP=1.05D-03              OVMax= 1.98D-03

 Cycle   2  Pass 1  IDiag  1:
 E= -225.284329703797     Delta-E=       -0.000039549220 Rises=F Damp=F
 DIIS: error= 1.73D-04 at cycle   2 NSaved=   2.
 NSaved= 2 IEnMin= 2 EnMin= -225.284329703797     IErMin= 2 ErrMin= 1.73D-04
 ErrMax= 1.73D-04  0.00D+00 EMaxC= 1.00D-01 BMatC= 7.16D-07 BMatP= 2.45D-05
 IDIUse=3 WtCom= 9.98D-01 WtEn= 1.73D-03
 Coeff-Com:  0.421D-03 0.100D+01
 Coeff-En:   0.000D+00 0.100D+01
 Coeff:      0.420D-03 0.100D+01
 Gap=     0.330 Goal=   None    Shift=    0.000
 RMSDP=2.15D-05 MaxDP=2.32D-04 DE=-3.95D-05 OVMax= 3.46D-04

 Cycle   3  Pass 1  IDiag  1:
 E= -225.284330143242     Delta-E=       -0.000000439445 Rises=F Damp=F
 DIIS: error= 7.78D-05 at cycle   3 NSaved=   3.
 NSaved= 3 IEnMin= 3 EnMin= -225.284330143242     IErMin= 3 ErrMin= 7.78D-05
 ErrMax= 7.78D-05  0.00D+00 EMaxC= 1.00D-01 BMatC= 3.75D-07 BMatP= 7.16D-07
 IDIUse=1 WtCom= 1.00D+00 WtEn= 0.00D+00
 Coeff-Com: -0.261D-01 0.423D+00 0.603D+00
 Coeff:     -0.261D-01 0.423D+00 0.603D+00
 Gap=     0.330 Goal=   None    Shift=    0.000
 RMSDP=9.39D-06 MaxDP=1.37D-04 DE=-4.39D-07 OVMax= 1.94D-04

 Cycle   4  Pass 1  IDiag  1:
 E= -225.284330475773     Delta-E=       -0.000000332531 Rises=F Damp=F
 DIIS: error= 1.56D-05 at cycle   4 NSaved=   4.
 NSaved= 4 IEnMin= 4 EnMin= -225.284330475773     IErMin= 4 ErrMin= 1.56D-05
 ErrMax= 1.56D-05  0.00D+00 EMaxC= 1.00D-01 BMatC= 1.64D-08 BMatP= 3.75D-07
 IDIUse=1 WtCom= 1.00D+00 WtEn= 0.00D+00
 Coeff-Com: -0.113D-01 0.123D+00 0.245D+00 0.642D+00
 Coeff:     -0.113D-01 0.123D+00 0.245D+00 0.642D+00
 Gap=     0.330 Goal=   None    Shift=    0.000
 RMSDP=1.85D-06 MaxDP=2.59D-05 DE=-3.33D-07 OVMax= 3.65D-05

 Cycle   5  Pass 1  IDiag  1:
 E= -225.284330487838     Delta-E=       -0.000000012065 Rises=F Damp=F
 DIIS: error= 5.20D-06 at cycle   5 NSaved=   5.
 NSaved= 5 IEnMin= 5 EnMin= -225.284330487838     IErMin= 5 ErrMin= 5.20D-06
 ErrMax= 5.20D-06  0.00D+00 EMaxC= 1.00D-01 BMatC= 1.93D-09 BMatP= 1.64D-08
 IDIUse=1 WtCom= 1.00D+00 WtEn= 0.00D+00
 Coeff-Com: -0.433D-02 0.439D-01 0.997D-01 0.340D+00 0.521D+00
 Coeff:     -0.433D-02 0.439D-01 0.997D-01 0.340D+00 0.521D+00
 Gap=     0.330 Goal=   None    Shift=    0.000
 RMSDP=6.19D-07 MaxDP=1.24D-05 DE=-1.21D-08 OVMax= 1.79D-05

 Cycle   6  Pass 1  IDiag  1:
 E= -225.284330489290     Delta-E=       -0.000000001451 Rises=F Damp=F
 DIIS: error= 1.55D-06 at cycle   6 NSaved=   6.
 NSaved= 6 IEnMin= 6 EnMin= -225.284330489290     IErMin= 6 ErrMin= 1.55D-06
 ErrMax= 1.55D-06  0.00D+00 EMaxC= 1.00D-01 BMatC= 1.93D-10 BMatP= 1.93D-09
 IDIUse=1 WtCom= 1.00D+00 WtEn= 0.00D+00
 Coeff-Com: -0.678D-03 0.438D-02 0.151D-01 0.767D-01 0.266D+00 0.638D+00
 Coeff:     -0.678D-03 0.438D-02 0.151D-01 0.767D-01 0.266D+00 0.638D+00
 Gap=     0.330 Goal=   None    Shift=    0.000
 RMSDP=2.22D-07 MaxDP=3.62D-06 DE=-1.45D-09 OVMax= 4.56D-06

 Cycle   7  Pass 1  IDiag  1:
 E= -225.284330489410     Delta-E=       -0.000000000120 Rises=F Damp=F
 DIIS: error= 6.53D-07 at cycle   7 NSaved=   7.
 NSaved= 7 IEnMin= 7 EnMin= -225.284330489410     IErMin= 7 ErrMin= 6.53D-07
 ErrMax= 6.53D-07  0.00D+00 EMaxC= 1.00D-01 BMatC= 3.84D-11 BMatP= 1.93D-10
 IDIUse=1 WtCom= 1.00D+00 WtEn= 0.00D+00
 Coeff-Com:  0.980D-04-0.224D-02-0.182D-02 0.988D-02 0.113D+00 0.386D+00
 Coeff-Com:  0.496D+00
 Coeff:      0.980D-04-0.224D-02-0.182D-02 0.988D-02 0.113D+00 0.386D+00
 Coeff:      0.496D+00
 Gap=     0.330 Goal=   None    Shift=    0.000
 RMSDP=7.38D-08 MaxDP=1.45D-06 DE=-1.20D-10 OVMax= 1.47D-06

 Cycle   8  Pass 1  IDiag  1:
 E= -225.284330489436     Delta-E=       -0.000000000027 Rises=F Damp=F
 DIIS: error= 5.38D-08 at cycle   8 NSaved=   8.
 NSaved= 8 IEnMin= 8 EnMin= -225.284330489436     IErMin= 8 ErrMin= 5.38D-08
 ErrMax= 5.38D-08  0.00D+00 EMaxC= 1.00D-01 BMatC= 3.70D-13 BMatP= 3.84D-11
 IDIUse=1 WtCom= 1.00D+00 WtEn= 0.00D+00
 Coeff-Com:  0.468D-04-0.736D-03-0.970D-03-0.269D-03 0.234D-01 0.752D-01
 Coeff-Com:  0.149D+00 0.754D+00
 Coeff:      0.468D-04-0.736D-03-0.970D-03-0.269D-03 0.234D-01 0.752D-01
 Coeff:      0.149D+00 0.754D+00
 Gap=     0.330 Goal=   None    Shift=    0.000
 RMSDP=9.46D-09 MaxDP=1.26D-07 DE=-2.66D-11 OVMax= 1.68D-07

 Error on total polarization charges =  0.01614
 SCF Done:  E(RB3LYP) =  -225.284330489     A.U. after    8 cycles
            NFock=  8  Conv=0.95D-08     -V/T= 2.0094
 KE= 2.231813517445D+02 PE=-7.746296289745D+02 EE= 2.026885508803D+02
 Leave Link  502 at Tue Mar  1 05:55:40 2022, MaxMem=   104857600 cpu:              20.0 elap:               5.5
[...]
    3   N      3    1.4000  1.250     -1.153503     -0.597120      0.000311
    4   O      4    1.4000  1.250      0.000539      1.374438     -0.000081
    5   H      5    0.9000  1.250      1.158771     -1.608157      0.000248
    6   H      6    0.9000  1.250      2.033610     -0.105668      0.000089
    7   H      7    0.9000  1.250     -1.159964     -1.607673     -0.001095
    8   H      8    0.9000  1.250     -2.033881     -0.104228     -0.000940
 ------------------------------------------------------------------------------
 GePol: Number of generator spheres                  =       8
 GePol: Total number of spheres                      =      14
 GePol: Number of exposed spheres                    =      13 ( 92.86%)
 GePol: Number of tesserae                           =     618
 GePol: Average area of tesserae                     =       0.14 Ang**2
 GePol: Minimum area of tessera                      =   0.11D-02 Ang**2
 GePol: Maximum area of tessera                      =    0.30017 Ang**2
 GePol: Number of small tesserae                     =       6
 GePol: Fraction of small tesserae (<1% of avg)      =       0.97%
 GePol: Total count of vertices                      =    2100
 GePol: Maximum number of vertices in a tessera      =       6
 GePol: Cavity surface area                          =     85.782 Ang**2
 GePol: Cavity volume                                =     63.224 Ang**3
 Surface areas from nonelectrostatic (unscaled) cavity and vdw tensions:
 Sphere =    1 Type =  NH  Surf =       11.644 Tension =       -0.159
 Sphere =    2 Type =  C   Surf =        7.691 Tension =       -0.101
 Sphere =    3 Type =  NH  Surf =       11.644 Tension =       -0.159
 Sphere =    4 Type =  O   Surf =       16.750 Tension =       -0.117
 Sphere =    5 Type =  NH  Surf =        4.727 Tension =       -0.159
 Sphere =    6 Type =  NH  Surf =        4.717 Tension =       -0.159
 Sphere =    7 Type =  NH  Surf =        4.729 Tension =       -0.159
 Sphere =    8 Type =  NH  Surf =        4.718 Tension =       -0.159
 PCM non-electrostatic energy =         0.0005373764 Hartrees.
 Nuclear repulsion after PCM non-electrostatic terms =      123.5318379009 Hartrees.
 Leave Link  301 at Tue Mar  1 05:56:31 2022, MaxMem=   104857600 cpu:               0.1 elap:               0.1
 (Enter /dades/curu/g16A03_MST/g16/l302.exe)
 NPDir=0 NMtPBC=     1 NCelOv=     1 NCel=       1 NClECP=     1 NCelD=      1
         NCelK=      1 NCelE2=     1 NClLst=     1 CellRange=     0.0.
 One-electron integrals computed using PRISM.
 One-electron integral symmetry used in STVInt
 NBasis=    68 RedAO= T EigKep=  3.41D-03  NBF=    68
 NBsUse=    68 1.00D-06 EigRej= -1.00D+00 NBFU=    68
 Precomputing XC quadrature grid using
 IXCGrd= 4 IRadAn=           5 IRanWt=          -1 IRanGd=           0 AccXCQ= 0.00D+00.
 Generated NRdTot=       0 NPtTot=           0 NUsed=           0 NTot=          32
 NSgBfM=    68    68    68    68    68 MxSgAt=     8 MxSgA2=     8.
 Leave Link  302 at Tue Mar  1 05:56:31 2022, MaxMem=   104857600 cpu:               0.4 elap:               0.1
 (Enter /dades/curu/g16A03_MST/g16/l303.exe)
 DipDrv:  MaxL=1.
 Leave Link  303 at Tue Mar  1 05:56:31 2022, MaxMem=   104857600 cpu:               0.0 elap:               0.0
 (Enter /dades/curu/g16A03_MST/g16/l401.exe)
 Initial guess from the checkpoint file:  "221.n.pdb.xyz.mst.wat.chk"
 B after Tr=     0.000000    0.000000   -0.000000
         Rot=    1.000000   -0.000000    0.000000   -0.000000 Ang=   0.00 deg.
 Guess basis will be translated and rotated to current coordinates.
 JPrj=2 DoOrth=T DoCkMO=T.
 Leave Link  401 at Tue Mar  1 05:56:31 2022, MaxMem=   104857600 cpu:               0.1 elap:               0.1
 (Enter /dades/curu/g16A03_MST/g16/l502.exe)
 Keep R1 ints in memory in canonical form, NReq=6321819.
 FoFCou: FMM=F IPFlag=           0 FMFlag=           0 FMFlg1=           0
         NFxFlg=           0 DoJE=F BraDBF=F KetDBF=F FulRan=T
         wScrn=  0.000000 ICntrl=       600 IOpCl=  0 I1Cent=           0 NGrid=           0
         NMat0=    1 NMatS0=   2346 NMatT0=    0 NMatD0=    1 NMtDS0=    0 NMtDT0=    0
 Symmetry not used in FoFCou.
 Two-electron integral symmetry not used.
 Closed shell SCF:
 Using DIIS extrapolation, IDIIS=  1040.
 NGot=   104857600 LenX=   102094009 LenY=   102088944
 Requested convergence on RMS density matrix=1.00D-08 within 128 cycles.
 Requested convergence on MAX density matrix=1.00D-06.
 Requested convergence on             energy=1.00D-06.
 No special actions if energy rises.

 Cycle   1  Pass 1  IDiag  1:
 Inv3:  Mode=1 IEnd=     1145772.
 Iteration    1 A*A^-1 deviation from unit magnitude is 3.22D-15 for    500.
 Iteration    1 A*A^-1 deviation from orthogonality  is 1.39D-15 for    365    339.
 Iteration    1 A^-1*A deviation from unit magnitude is 3.22D-15 for    500.
 Iteration    1 A^-1*A deviation from orthogonality  is 1.49D-15 for    225    206.
 E= -225.279365356913    
 DIIS: error= 6.65D-03 at cycle   1 NSaved=   1.
 NSaved= 1 IEnMin= 1 EnMin= -225.279365356913     IErMin= 1 ErrMin= 6.65D-03
 ErrMax= 6.65D-03  0.00D+00 EMaxC= 1.00D-01 BMatC= 1.62D-03 BMatP= 1.62D-03
 IDIUse=3 WtCom= 9.34D-01 WtEn= 6.65D-02
 Coeff-Com:  0.100D+01
 Coeff-En:   0.100D+01
 Coeff:      0.100D+01
 Gap=     0.368 Goal=   None    Shift=    0.000
 GapD=    0.368 DampG=1.000 DampE=1.000 DampFc=1.0000 IDamp=-1.
 RMSDP=2.59D-03 MaxDP=2.90D-02              OVMax= 5.34D-02

 Cycle   2  Pass 1  IDiag  1:
 E= -225.282205846057     Delta-E=       -0.002840489144 Rises=F Damp=F
 DIIS: error= 5.78D-03 at cycle   2 NSaved=   2.
 NSaved= 2 IEnMin= 2 EnMin= -225.282205846057     IErMin= 2 ErrMin= 5.78D-03
 ErrMax= 5.78D-03  0.00D+00 EMaxC= 1.00D-01 BMatC= 1.97D-03 BMatP= 1.62D-03
 IDIUse=3 WtCom= 1.16D-01 WtEn= 8.84D-01
 Coeff-Com:  0.538D+00 0.462D+00
 Coeff-En:   0.000D+00 0.100D+01
 Coeff:      0.625D-01 0.938D+00
 Gap=     0.339 Goal=   None    Shift=    0.000
 RMSDP=1.66D-03 MaxDP=2.81D-02 DE=-2.84D-03 OVMax= 4.04D-02

 Cycle   3  Pass 1  IDiag  1:
 E= -225.279773605503     Delta-E=        0.002432240554 Rises=F Damp=F
 DIIS: error= 8.55D-03 at cycle   3 NSaved=   3.
 NSaved= 3 IEnMin= 2 EnMin= -225.282205846057     IErMin= 2 ErrMin= 5.78D-03
 ErrMax= 8.55D-03  0.00D+00 EMaxC= 1.00D-01 BMatC= 5.36D-03 BMatP= 1.62D-03
 IDIUse=3 WtCom= 9.76D-02 WtEn= 9.02D-01
 Coeff-Com:  0.572D-01 0.594D+00 0.349D+00
 Coeff-En:   0.000D+00 0.685D+00 0.315D+00
 Coeff:      0.558D-02 0.676D+00 0.318D+00
 Gap=     0.332 Goal=   None    Shift=    0.000
 RMSDP=8.30D-04 MaxDP=1.49D-02 DE= 2.43D-03 OVMax= 2.17D-02

 Cycle   4  Pass 1  IDiag  1:
 E= -225.283640270273     Delta-E=       -0.003866664770 Rises=F Damp=F
 DIIS: error= 1.44D-03 at cycle   4 NSaved=   4.
 NSaved= 4 IEnMin= 4 EnMin= -225.283640270273     IErMin= 4 ErrMin= 1.44D-03
 ErrMax= 1.44D-03  0.00D+00 EMaxC= 1.00D-01 BMatC= 1.24D-04 BMatP= 1.62D-03
 IDIUse=3 WtCom= 9.86D-01 WtEn= 1.44D-02
 Coeff-Com: -0.174D-02 0.265D+00 0.623D-01 0.674D+00
 Coeff-En:   0.000D+00 0.264D-02 0.000D+00 0.997D+00
 Coeff:     -0.171D-02 0.261D+00 0.614D-01 0.679D+00
 Gap=     0.334 Goal=   None    Shift=    0.000
 RMSDP=1.68D-04 MaxDP=2.77D-03 DE=-3.87D-03 OVMax= 3.98D-03

 Cycle   5  Pass 1  IDiag  1:
 E= -225.283736938923     Delta-E=       -0.000096668649 Rises=F Damp=F
 DIIS: error= 1.21D-04 at cycle   5 NSaved=   5.
 NSaved= 5 IEnMin= 5 EnMin= -225.283736938923     IErMin= 5 ErrMin= 1.21D-04
 ErrMax= 1.21D-04  0.00D+00 EMaxC= 1.00D-01 BMatC= 7.84D-07 BMatP= 1.24D-04
 IDIUse=3 WtCom= 9.99D-01 WtEn= 1.21D-03
 Coeff-Com: -0.456D-02 0.279D-01-0.111D-01 0.202D+00 0.785D+00
 Coeff-En:   0.000D+00 0.000D+00 0.000D+00 0.000D+00 0.100D+01
 Coeff:     -0.455D-02 0.279D-01-0.111D-01 0.202D+00 0.786D+00
 Gap=     0.331 Goal=   None    Shift=    0.000
 RMSDP=1.29D-05 MaxDP=2.19D-04 DE=-9.67D-05 OVMax= 2.85D-04

 Cycle   6  Pass 1  IDiag  1:
 E= -225.283737653379     Delta-E=       -0.000000714457 Rises=F Damp=F
 DIIS: error= 1.63D-05 at cycle   6 NSaved=   6.
 NSaved= 6 IEnMin= 6 EnMin= -225.283737653379     IErMin= 6 ErrMin= 1.63D-05
 ErrMax= 1.63D-05  0.00D+00 EMaxC= 1.00D-01 BMatC= 1.90D-08 BMatP= 7.84D-07
 IDIUse=1 WtCom= 1.00D+00 WtEn= 0.00D+00
 Coeff-Com: -0.839D-03-0.305D-03-0.437D-02 0.272D-01 0.186D+00 0.793D+00
 Coeff:     -0.839D-03-0.305D-03-0.437D-02 0.272D-01 0.186D+00 0.793D+00
 Gap=     0.331 Goal=   None    Shift=    0.000
 RMSDP=2.21D-06 MaxDP=4.13D-05 DE=-7.14D-07 OVMax= 6.32D-05

 Cycle   7  Pass 1  IDiag  1:
 E= -225.283737664300     Delta-E=       -0.000000010920 Rises=F Damp=F
 DIIS: error= 1.02D-05 at cycle   7 NSaved=   7.
 NSaved= 7 IEnMin= 7 EnMin= -225.283737664300     IErMin= 7 ErrMin= 1.02D-05
 ErrMax= 1.02D-05  0.00D+00 EMaxC= 1.00D-01 BMatC= 7.49D-09 BMatP= 1.90D-08
 IDIUse=1 WtCom= 1.00D+00 WtEn= 0.00D+00
 Coeff-Com: -0.198D-03-0.114D-02-0.151D-02 0.447D-02 0.603D-01 0.449D+00
 Coeff-Com:  0.489D+00
 Coeff:     -0.198D-03-0.114D-02-0.151D-02 0.447D-02 0.603D-01 0.449D+00
 Coeff:      0.489D+00
 Gap=     0.331 Goal=   None    Shift=    0.000
 RMSDP=7.89D-07 MaxDP=1.45D-05 DE=-1.09D-08 OVMax= 2.03D-05

 Cycle   8  Pass 1  IDiag  1:
 E= -225.283737670183     Delta-E=       -0.000000005883 Rises=F Damp=F
 DIIS: error= 8.33D-07 at cycle   8 NSaved=   8.
 NSaved= 8 IEnMin= 8 EnMin= -225.283737670183     IErMin= 8 ErrMin= 8.33D-07
 ErrMax= 8.33D-07  0.00D+00 EMaxC= 1.00D-01 BMatC= 4.77D-11 BMatP= 7.49D-09
 IDIUse=1 WtCom= 1.00D+00 WtEn= 0.00D+00
 Coeff-Com:  0.154D-04-0.116D-03 0.180D-03-0.114D-02-0.404D-02-0.453D-02
 Coeff-Com:  0.107D-01 0.999D+00
 Coeff:      0.154D-04-0.116D-03 0.180D-03-0.114D-02-0.404D-02-0.453D-02
 Coeff:      0.107D-01 0.999D+00
 Gap=     0.331 Goal=   None    Shift=    0.000
 RMSDP=1.41D-07 MaxDP=1.80D-06 DE=-5.88D-09 OVMax= 2.18D-06

 Cycle   9  Pass 1  IDiag  1:
 E= -225.283737670220     Delta-E=       -0.000000000037 Rises=F Damp=F
 DIIS: error= 8.71D-08 at cycle   9 NSaved=   9.
 NSaved= 9 IEnMin= 9 EnMin= -225.283737670220     IErMin= 9 ErrMin= 8.71D-08
 ErrMax= 8.71D-08  0.00D+00 EMaxC= 1.00D-01 BMatC= 7.62D-13 BMatP= 4.77D-11
 IDIUse=1 WtCom= 1.00D+00 WtEn= 0.00D+00
 Coeff-Com:  0.615D-05-0.140D-04 0.572D-04-0.287D-03-0.152D-02-0.652D-02
 Coeff-Com: -0.505D-02 0.174D+00 0.839D+00
 Coeff:      0.615D-05-0.140D-04 0.572D-04-0.287D-03-0.152D-02-0.652D-02
 Coeff:     -0.505D-02 0.174D+00 0.839D+00
 Gap=     0.331 Goal=   None    Shift=    0.000
 RMSDP=1.58D-08 MaxDP=2.20D-07 DE=-3.73D-11 OVMax= 2.39D-07

 Cycle  10  Pass 1  IDiag  1:
 E= -225.283737670221     Delta-E=       -0.000000000000 Rises=F Damp=F
 DIIS: error= 2.48D-08 at cycle  10 NSaved=  10.
 NSaved=10 IEnMin=10 EnMin= -225.283737670221     IErMin=10 ErrMin= 2.48D-08
 ErrMax= 2.48D-08  0.00D+00 EMaxC= 1.00D-01 BMatC= 6.16D-14 BMatP= 7.62D-13
 IDIUse=1 WtCom= 1.00D+00 WtEn= 0.00D+00
 Coeff-Com:  0.136D-05-0.146D-05 0.111D-04-0.456D-04-0.301D-03-0.176D-02
 Coeff-Com: -0.203D-02 0.151D-01 0.268D+00 0.721D+00
 Coeff:      0.136D-05-0.146D-05 0.111D-04-0.456D-04-0.301D-03-0.176D-02
 Coeff:     -0.203D-02 0.151D-01 0.268D+00 0.721D+00
 Gap=     0.331 Goal=   None    Shift=    0.000
 RMSDP=4.56D-09 MaxDP=7.37D-08 DE=-3.41D-13 OVMax= 1.18D-07

 Error on total polarization charges =  0.01663
 SCF Done:  E(RB3LYP) =  -225.283737670     A.U. after   10 cycles
            NFock= 10  Conv=0.46D-08     -V/T= 2.0094
 KE= 2.231891436775D+02 PE=-7.747549278929D+02 EE= 2.027502086444D+02
 --------------------------------------------------------------------
 Variational PCM results
 =======================
 <psi(f)|   H    |psi(f)>                     (a.u.) =    -225.251058
 <psi(f)|H+V(f)/2|psi(f)>                     (a.u.) =    -225.284275
 Total free energy in solution:
 - with all non electrostatic terms           (a.u.) =    -225.283738
 --------------------------------------------------------------------
 (Polarized solute)-Solvent               (kcal/mol) =     -20.84
 --------------------------------------------------------------------
 Cavitation energy                        (kcal/mol) =       9.78
 MST dispersion + repulsion energy        (kcal/mol) =      -9.44
 Total non electrostatic                  (kcal/mol) =       0.34
 --------------------------------------------------------------------
 Partition over spheres:
 Sphere  on Atom  Surface  Charge   GEl     GCav    GDR
    1      N1      16.03   0.023   -0.90    1.58   -1.85
    2      C2       8.23   0.018   -0.19    1.01   -0.78
    3      N3      16.03   0.023   -0.90    1.58   -1.85
    4      O4      23.80   0.355   -8.77    2.28   -1.96
    5      H5       4.50  -0.096   -2.80    0.83   -0.75
    6      H6       5.22  -0.105   -1.75    0.83   -0.75
    7      H7       4.50  -0.096   -2.80    0.83   -0.75
    8      H8       5.22  -0.105   -1.75    0.83   -0.75
 Added spheres:     2.24  -0.034   -0.98    0.00    0.00
 --------------------------------------------------------------------
 Partition over spheres of the perturbative electrostatic energy:
(Contribution of added spheres asigned to closest sphere)
 Sphere  on Atom  Surface  Charge   GElSph
    1      N1      16.03   0.023   -0.85
    2      C2       8.23   0.018   -0.15
    3      N3      16.03   0.023   -0.86
    4      O4      23.80   0.355   -6.85
    5      H5       4.50  -0.096   -2.69
    6      H6       5.22  -0.105   -1.69
    7      H7       4.50  -0.096   -2.64
    8      H8       5.22  -0.105   -1.69
 Added spheres:     2.24  -0.034    0.00
 --------------------------------------------------------------------
 After PCM corrections, the energy is  -225.283737670     a.u.
 --------------------------------------------------------------------
 Leave Link  502 at Tue Mar  1 05:56:38 2022, MaxMem=   104857600 cpu:              25.0 elap:               6.8
 (Enter /dades/curu/g16A03_MST/g16/l601.exe)
 Copying SCF densities to generalized density rwf, IOpCl= 0 IROHF=0.

 **********************************************************************

            Population analysis using the SCF density.

 **********************************************************************

 Orbital symmetries:
       Occupied  (A) (A) (A) (A) (A) (A) (A) (A) (A) (A) (A) (A)
                 (A) (A) (A) (A)
       Virtual   (A) (A) (A) (A) (A) (A) (A) (A) (A) (A) (A) (A)
                 (A) (A) (A) (A) (A) (A) (A) (A) (A) (A) (A) (A)
                 (A) (A) (A) (A) (A) (A) (A) (A) (A) (A) (A) (A)
                 (A) (A) (A) (A) (A) (A) (A) (A) (A) (A) (A) (A)
                 (A) (A) (A) (A)
 The electronic state is 1-A.
 Alpha  occ. eigenvalues --  -19.09305 -14.33353 -14.33351 -10.30380  -1.02362
 Alpha  occ. eigenvalues --   -0.90087  -0.85947  -0.60146  -0.53305  -0.52301
 Alpha  occ. eigenvalues --   -0.45663  -0.41269  -0.40405  -0.25481  -0.25391
 Alpha  occ. eigenvalues --   -0.25202
 Alpha virt. eigenvalues --    0.07893   0.09317   0.14635   0.14936   0.19209
 Alpha virt. eigenvalues --    0.27267   0.32876   0.43364   0.56556   0.59333
 Alpha virt. eigenvalues --    0.59838   0.64908   0.67377   0.72360   0.73125
 Alpha virt. eigenvalues --    0.75233   0.83298   0.89428   0.90631   0.91373
 Alpha virt. eigenvalues --    0.95563   1.02838   1.04353   1.19000   1.25947
 Alpha virt. eigenvalues --    1.27418   1.33738   1.39665   1.48966   1.67375
 Alpha virt. eigenvalues --    1.67502   1.71578   1.83351   1.83537   1.85033
 Alpha virt. eigenvalues --    2.01413   2.07380   2.11703   2.22157   2.33374
 Alpha virt. eigenvalues --    2.33986   2.46910   2.59276   2.59311   2.64052
 Alpha virt. eigenvalues --    2.87970   3.05296   3.08879   3.78485   3.83410
 Alpha virt. eigenvalues --    4.08092   4.37960
          Condensed to atoms (all electrons):
               1          2          3          4          5          6
     1  N    7.091437   0.314991  -0.130455  -0.103006   0.296637   0.302926
     2  C    0.314991   4.087166   0.314919   0.635736  -0.006602  -0.010841
     3  N   -0.130455   0.314919   7.091696  -0.102993   0.001193   0.005755
     4  O   -0.103006   0.635736  -0.102993   8.189606   0.003117   0.004949
     5  H    0.296637  -0.006602   0.001193   0.003117   0.341553  -0.016729
     6  H    0.302926  -0.010841   0.005755   0.004949  -0.016729   0.337978
     7  H    0.001196  -0.006607   0.296586   0.003115   0.001203  -0.000239
     8  H    0.005751  -0.010841   0.302908   0.004948  -0.000239  -0.000156
               7          8
     1  N    0.001196   0.005751
     2  C   -0.006607  -0.010841
     3  N    0.296586   0.302908
     4  O    0.003115   0.004948
     5  H    0.001203  -0.000239
     6  H   -0.000239  -0.000156
     7  H    0.341600  -0.016724
     8  H   -0.016724   0.337970
 Mulliken charges:
               1
     1  N   -0.779477
     2  C    0.682080
     3  N   -0.779609
     4  O   -0.635472
     5  H    0.379867
     6  H    0.376357
     7  H    0.379870
     8  H    0.376383
 Sum of Mulliken charges =  -0.00000
 Mulliken charges with hydrogens summed into heavy atoms:
               1
     1  N   -0.023253
     2  C    0.682080
     3  N   -0.023355
     4  O   -0.635472
 Electronic spatial extent (au):  <R**2>=            243.6329
 Charge=             -0.0000 electrons
 Dipole moment (field-independent basis, Debye):
    X=             -0.0021    Y=             -5.8142    Z=             -0.0035  Tot=              5.8142
 Quadrupole moment (field-independent basis, Debye-Ang):
   XX=            -14.6580   YY=            -23.4849   ZZ=            -25.4225
   XY=             -0.0032   XZ=              0.0102   YZ=              0.0039
 Traceless Quadrupole moment (field-independent basis, Debye-Ang):
   XX=              6.5305   YY=             -2.2964   ZZ=             -4.2340
   XY=             -0.0032   XZ=              0.0102   YZ=              0.0039
 Octapole moment (field-independent basis, Debye-Ang**2):
  XXX=             -0.0051  YYY=            -21.6342  ZZZ=             -0.0036  XYY=             -0.0067
  XXY=             -3.0349  XXZ=             -0.0128  XZZ=              0.0014  YZZ=              1.1456
  YYZ=             -0.0059  XYZ=             -0.0079
 Hexadecapole moment (field-independent basis, Debye-Ang**3):
 XXXX=            -89.9333 YYYY=           -112.4914 ZZZZ=            -21.8547 XXXY=             -0.0117
 XXXZ=              0.0335 YYYX=             -0.0012 YYYZ=              0.0097 ZZZX=              0.0086
 ZZZY=              0.0025 XXYY=            -36.6334 XXZZ=            -30.3486 YYZZ=            -25.3690
 XXYZ=              0.0073 YYXZ=              0.0118 ZZXY=             -0.0001
 N-N= 1.235318379009D+02 E-N=-7.747549276597D+02  KE= 2.231891436775D+02
 No NMR shielding tensors so no spin-rotation constants.
 Leave Link  601 at Tue Mar  1 05:56:38 2022, MaxMem=   104857600 cpu:               0.3 elap:               0.1
 (Enter /dades/curu/g16A03_MST/g16/l9999.exe)
 1\1\GINC-PIRINEUS10\SP\RB3LYP\6-31G(d)\C1H4N2O1\UBATOR01\01-Mar-2022\0
 \\#p b3lyp/6-31G(d) scrf=(iefpcm,read,solvent=water) geom=allcheck gue
 ss=read\\221.n.pdb.xyz\\0,1\N,0,1.1565841181,-0.0380695732,-0.55716024
 74\C,0,-0.0492373463,0.4877282793,-0.1932053063\N,0,-1.117108722,-0.35
 1591142,-0.3288277408\O,0,-0.1666855133,1.6488745355,0.2312510202\H,0,
 1.2581784306,-0.9818738028,-0.90290097\H,0,1.9779292126,0.5419678963,-
 0.4754865431\H,0,-1.0277589924,-1.2967570741,-0.675147311\H,0,-2.03190
 11873,-0.0102791189,-0.0745229015\\Version=ES64L-G16RevA.03\State=1-A\
 HF=-225.2837377\RMSD=4.564e-09\Dipole=0.2160871,-2.1381921,-0.7836035\
 Quadrupole=4.6442779,-1.7434831,-2.9007948,0.9425548,-0.8194158,0.3566
 191\PG=C01 [X(C1H4N2O1)]\\@


 ... THE UNIVERSE IS NOT ONLY QUEERER THAN WE SUPPOSE,
 BUT QUEERER THAN WE CAN SUPPOSE ... 

                                   -- J. B. S. HALDANE
 Job cpu time:       0 days  0 hours  0 minutes 26.3 seconds.
 Elapsed time:       0 days  0 hours  0 minutes  7.5 seconds.
 File lengths (MBytes):  RWF=     13 Int=      0 D2E=      0 Chk=      4 Scr=      1
 Normal termination of Gaussian 16 at Tue Mar  1 05:56:38 2022.
