 Entering Gaussian System, Link 0=g16
 Input=24.n.pdb.xyz.mst.wat.gau
 Output=24.n.pdb.xyz.mst.wat.log
 Initial command:
 /dades/curu/g16A03_MST/g16/l1.exe "/tmp/ubator01/1955171/Gau-114979.inp" -scrdir="/tmp/ubator01/1955171/"
 Entering Link 1 = /dades/curu/g16A03_MST/g16/l1.exe PID=    114980.
  
 Copyright (c) 1988,1990,1992,1993,1995,1998,2003,2009,2016,
            Gaussian, Inc.  All Rights Reserved.
  
 This is part of the Gaussian(R) 16 program.  It is based on
 the Gaussian(R) 09 system (copyright 2009, Gaussian, Inc.),
 the Gaussian(R) 03 system (copyright 2003, Gaussian, Inc.),
 the Gaussian(R) 98 system (copyright 1998, Gaussian, Inc.),
 the Gaussian(R) 94 system (copyright 1995, Gaussian, Inc.),
 the Gaussian 92(TM) system (copyright 1992, Gaussian, Inc.),
 the Gaussian 90(TM) system (copyright 1990, Gaussian, Inc.),
 the Gaussian 88(TM) system (copyright 1988, Gaussian, Inc.),
 the Gaussian 86(TM) system (copyright 1986, Carnegie Mellon
 University), and the Gaussian 82(TM) system (copyright 1983,
 Carnegie Mellon University). Gaussian is a federally registered
 trademark of Gaussian, Inc.
  
 This software contains proprietary and confidential information,
 including trade secrets, belonging to Gaussian, Inc.
  
 This software is provided under written license and may be
 used, copied, transmitted, or stored only in accord with that
 written license.
  
 The following legend is applicable only to US Government
 contracts under FAR:
  
                    RESTRICTED RIGHTS LEGEND
  
 Use, reproduction and disclosure by the US Government is
 subject to restrictions as set forth in subparagraphs (a)
 and (c) of the Commercial Computer Software - Restricted
 Rights clause in FAR 52.227-19.
  
 Gaussian, Inc.
 340 Quinnipiac St., Bldg. 40, Wallingford CT 06492
  
  
 ---------------------------------------------------------------
 Warning -- This program may not be used in any manner that
 competes with the business of Gaussian, Inc. or will provide
 assistance to any competitor of Gaussian, Inc.  The licensee
 of this program is prohibited from giving any competitor of
 Gaussian, Inc. access to this program.  By using this program,
 the user acknowledges that Gaussian, Inc. is engaged in the
 business of creating and licensing software in the field of
 computational chemistry and represents and warrants to the
 licensee that it is not a competitor of Gaussian, Inc. and that
 it will not use this program in any manner prohibited above.
 ---------------------------------------------------------------
  

 Cite this work as:
 Gaussian 16, Revision A.03,
 M. J. Frisch, G. W. Trucks, H. B. Schlegel, G. E. Scuseria, 
 M. A. Robb, J. R. Cheeseman, G. Scalmani, V. Barone, 
 G. A. Petersson, H. Nakatsuji, X. Li, M. Caricato, A. V. Marenich, 
 J. Bloino, B. G. Janesko, R. Gomperts, B. Mennucci, H. P. Hratchian, 
 J. V. Ortiz, A. F. Izmaylov, J. L. Sonnenberg, D. Williams-Young, 
 F. Ding, F. Lipparini, F. Egidi, J. Goings, B. Peng, A. Petrone, 
 T. Henderson, D. Ranasinghe, V. G. Zakrzewski, J. Gao, N. Rega, 
 G. Zheng, W. Liang, M. Hada, M. Ehara, K. Toyota, R. Fukuda, 
 J. Hasegawa, M. Ishida, T. Nakajima, Y. Honda, O. Kitao, H. Nakai, 
 T. Vreven, K. Throssell, J. A. Montgomery, Jr., J. E. Peralta, 
 F. Ogliaro, M. J. Bearpark, J. J. Heyd, E. N. Brothers, K. N. Kudin, 
 V. N. Staroverov, T. A. Keith, R. Kobayashi, J. Normand, 
 K. Raghavachari, A. P. Rendell, J. C. Burant, S. S. Iyengar, 
 J. Tomasi, M. Cossi, J. M. Millam, M. Klene, C. Adamo, R. Cammi, 
 J. W. Ochterski, R. L. Martin, K. Morokuma, O. Farkas, 
 J. B. Foresman, and D. J. Fox, Gaussian, Inc., Wallingford CT, 2016.
 
 ******************************************
 Gaussian 16:  ES64L-G16RevA.03 25-Dec-2016
                 1-Mar-2022 
 ******************************************
 %nproc=4
 Will use up to    4 processors via shared memory.
 %Chk=24.n.pdb.xyz.mst.wat.chk
 %mem=800MB
 ----------------------------------------------------------------------
 #p b3lyp/6-31G(d) opt=(MaxStep=10,MaxCycles=1000) freq scf=(MaxCycle=2
 000,NoVarAcc,NoIncFock) scrf=(iefpcm,read,solvent=water)
 ----------------------------------------------------------------------
 1/6=1000,8=10,18=20,19=15,26=3,38=1,40=2/1,3;
 2/9=110,12=2,17=6,18=5,40=1/2;
 3/5=1,6=6,7=1,11=2,25=1,30=1,70=2203,71=1,72=1,74=-5/1,2,3;
 4//1;
 5/5=100002,7=2000,38=1,53=1/2;
 6/7=2,8=2,9=2,10=2,28=1/1;
 7//1,2,3,16;
 1/6=1000,8=10,18=20,19=15,26=3/3(2);
 2/9=110/2;
 99//99;
 2/9=110/2;
 3/5=1,6=6,7=1,11=2,25=1,30=1,70=2205,71=1,72=1,74=-5/1,2,3;
 4/5=5,16=3,69=1/1;
 5/5=100002,7=2000,38=1,53=1/2;
 7//1,2,3,16;
 1/6=1000,8=10,18=20,19=15,26=3/3(-5);
 2/9=110/2;
 6/7=2,8=2,9=2,10=2,19=2,28=1/1;
 99/9=1/99;
 Leave Link    1 at Tue Mar  1 20:00:18 2022, MaxMem=   104857600 cpu:               0.0 elap:               0.0
 (Enter /dades/curu/g16A03_MST/g16/l101.exe)
 ------------
 24.n.pdb.xyz
 ------------
 Symbolic Z-matrix:
 Charge =  0 Multiplicity = 1
 C                     6.308     0.39      1.909 
 C                     6.3       0.327     0.377 
 C                     7.469    -0.557    -0.084 
 C                     6.456     1.715    -0.255 
 O                     5.112    -0.345    -0.117 
 C                     3.873     0.168     0.117 
 O                     3.626     1.195     0.73 
 C                     2.842    -0.737    -0.518 
 C                     1.416    -0.287    -0.208 
 C                     0.392    -1.213    -0.866 
 C                    -1.022    -0.798    -0.553 
 C                    -1.704    -1.345     0.532 
 C                    -3.016    -0.946     0.826 
 C                    -3.702     0.012     0.061 
 C                    -2.984     0.557    -1.018 
 C                    -1.672     0.164    -1.324 
 N                    -5.006     0.399     0.354 
 C                    -5.886    -0.417     1.215 
 C                    -6.267    -1.748     0.562 
 Cl                   -7.372    -2.669     1.617 
 C                    -5.531     1.704    -0.094 
 C                    -6.274     1.631    -1.431 
 Cl                   -7.943     1.028    -1.245 
 H                     6.106    -0.597     2.339 
 H                     5.538     1.065     2.295 
 H                     7.273     0.744     2.287 
 H                     7.372    -1.572     0.318 
 H                     8.435    -0.151     0.232 
 H                     7.475    -0.656    -1.176 
 H                     7.43      2.155    -0.015 
 H                     5.687     2.411     0.092 
 H                     6.359     1.658    -1.345 
 H                     3.008    -0.732    -1.601 
 H                     2.997    -1.753    -0.137 
 H                     1.269     0.743    -0.557 
 H                     1.263    -0.269     0.879 
 H                     0.534    -1.221    -1.954 
 H                     0.551    -2.247    -0.534 
 H                    -1.223    -2.085     1.168 
 H                    -3.477    -1.401     1.697 
 H                    -3.432     1.299    -1.671 
 H                    -1.168     0.621    -2.172 
 H                    -6.806     0.138     1.434 
 H                    -5.416    -0.577     2.193 
 H                    -5.396    -2.382     0.379 
 H                    -6.773    -1.594    -0.395 
 H                    -6.186     2.128     0.678 
 H                    -4.71      2.428    -0.176 
 H                    -6.356     2.634    -1.862 
 H                    -5.769     0.984    -2.153 
 
 ITRead=  0  0  0  0  0  0  0  0  0  0  0  0  0  0  0  0  0  0  0  0
 ITRead=  0  0  0  0  0  0  0  0  0  0  0  0  0  0  0  0  0  0  0  0
 ITRead=  0  0  0  0  0  0  0  0  0  0
 MicOpt= -1 -1 -1 -1 -1 -1 -1 -1 -1 -1 -1 -1 -1 -1 -1 -1 -1 -1 -1 -1
 MicOpt= -1 -1 -1 -1 -1 -1 -1 -1 -1 -1 -1 -1 -1 -1 -1 -1 -1 -1 -1 -1
 MicOpt= -1 -1 -1 -1 -1 -1 -1 -1 -1 -1
 NAtoms=     50 NQM=       50 NQMF=       0 NMMI=      0 NMMIF=      0
                NMic=       0 NMicF=      0.
                    Isotopes and Nuclear Properties:
 (Nuclear quadrupole moments (NQMom) in fm**2, nuclear magnetic moments (NMagM)
  in nuclear magnetons)

  Atom         1           2           3           4           5           6           7           8           9          10
 IAtWgt=          12          12          12          12          16          12          16          12          12          12
 AtmWgt=  12.0000000  12.0000000  12.0000000  12.0000000  15.9949146  12.0000000  15.9949146  12.0000000  12.0000000  12.0000000
 NucSpn=           0           0           0           0           0           0           0           0           0           0
 AtZEff=  -0.0000000  -0.0000000  -0.0000000  -0.0000000  -0.0000000  -0.0000000  -0.0000000  -0.0000000  -0.0000000  -0.0000000
 NQMom=    0.0000000   0.0000000   0.0000000   0.0000000   0.0000000   0.0000000   0.0000000   0.0000000   0.0000000   0.0000000
 NMagM=    0.0000000   0.0000000   0.0000000   0.0000000   0.0000000   0.0000000   0.0000000   0.0000000   0.0000000   0.0000000
 AtZNuc=   6.0000000   6.0000000   6.0000000   6.0000000   8.0000000   6.0000000   8.0000000   6.0000000   6.0000000   6.0000000

  Atom        11          12          13          14          15          16          17          18          19          20
 IAtWgt=          12          12          12          12          12          12          14          12          12          35
 AtmWgt=  12.0000000  12.0000000  12.0000000  12.0000000  12.0000000  12.0000000  14.0030740  12.0000000  12.0000000  34.9688527
 NucSpn=           0           0           0           0           0           0           2           0           0           3
 AtZEff=  -0.0000000  -0.0000000  -0.0000000  -0.0000000  -0.0000000  -0.0000000  -0.0000000  -0.0000000  -0.0000000  -0.0000000
 NQMom=    0.0000000   0.0000000   0.0000000   0.0000000   0.0000000   0.0000000   2.0440000   0.0000000   0.0000000  -8.1650000
 NMagM=    0.0000000   0.0000000   0.0000000   0.0000000   0.0000000   0.0000000   0.4037610   0.0000000   0.0000000   0.8218740
 AtZNuc=   6.0000000   6.0000000   6.0000000   6.0000000   6.0000000   6.0000000   7.0000000   6.0000000   6.0000000  17.0000000

  Atom        21          22          23          24          25          26          27          28          29          30
 IAtWgt=          12          12          35           1           1           1           1           1           1           1
 AtmWgt=  12.0000000  12.0000000  34.9688527   1.0078250   1.0078250   1.0078250   1.0078250   1.0078250   1.0078250   1.0078250
 NucSpn=           0           0           3           1           1           1           1           1           1           1
 AtZEff=  -0.0000000  -0.0000000  -0.0000000  -0.0000000  -0.0000000  -0.0000000  -0.0000000  -0.0000000  -0.0000000  -0.0000000
 NQMom=    0.0000000   0.0000000  -8.1650000   0.0000000   0.0000000   0.0000000   0.0000000   0.0000000   0.0000000   0.0000000
 NMagM=    0.0000000   0.0000000   0.8218740   2.7928460   2.7928460   2.7928460   2.7928460   2.7928460   2.7928460   2.7928460
 AtZNuc=   6.0000000   6.0000000  17.0000000   1.0000000   1.0000000   1.0000000   1.0000000   1.0000000   1.0000000   1.0000000

  Atom        31          32          33          34          35          36          37          38          39          40
 IAtWgt=           1           1           1           1           1           1           1           1           1           1
 AtmWgt=   1.0078250   1.0078250   1.0078250   1.0078250   1.0078250   1.0078250   1.0078250   1.0078250   1.0078250   1.0078250
 NucSpn=           1           1           1           1           1           1           1           1           1           1
 AtZEff=  -0.0000000  -0.0000000  -0.0000000  -0.0000000  -0.0000000  -0.0000000  -0.0000000  -0.0000000  -0.0000000  -0.0000000
 NQMom=    0.0000000   0.0000000   0.0000000   0.0000000   0.0000000   0.0000000   0.0000000   0.0000000   0.0000000   0.0000000
 NMagM=    2.7928460   2.7928460   2.7928460   2.7928460   2.7928460   2.7928460   2.7928460   2.7928460   2.7928460   2.7928460
 AtZNuc=   1.0000000   1.0000000   1.0000000   1.0000000   1.0000000   1.0000000   1.0000000   1.0000000   1.0000000   1.0000000

  Atom        41          42          43          44          45          46          47          48          49          50
 IAtWgt=           1           1           1           1           1           1           1           1           1           1
 AtmWgt=   1.0078250   1.0078250   1.0078250   1.0078250   1.0078250   1.0078250   1.0078250   1.0078250   1.0078250   1.0078250
 NucSpn=           1           1           1           1           1           1           1           1           1           1
 AtZEff=  -0.0000000  -0.0000000  -0.0000000  -0.0000000  -0.0000000  -0.0000000  -0.0000000  -0.0000000  -0.0000000  -0.0000000
 NQMom=    0.0000000   0.0000000   0.0000000   0.0000000   0.0000000   0.0000000   0.0000000   0.0000000   0.0000000   0.0000000
 NMagM=    2.7928460   2.7928460   2.7928460   2.7928460   2.7928460   2.7928460   2.7928460   2.7928460   2.7928460   2.7928460
 AtZNuc=   1.0000000   1.0000000   1.0000000   1.0000000   1.0000000   1.0000000   1.0000000   1.0000000   1.0000000   1.0000000
 Leave Link  101 at Tue Mar  1 20:00:18 2022, MaxMem=   104857600 cpu:               0.1 elap:               0.1
 (Enter /dades/curu/g16A03_MST/g16/l103.exe)

 GradGradGradGradGradGradGradGradGradGradGradGradGradGradGradGradGradGrad
 Berny optimization.
 Initialization pass.
                           ----------------------------
                           !    Initial Parameters    !
                           ! (Angstroms and Degrees)  !
 --------------------------                            --------------------------
 ! Name  Definition              Value          Derivative Info.                !
 --------------------------------------------------------------------------------
 ! R1    R(1,2)                  1.5333         estimate D2E/DX2                !
 ! R2    R(1,24)                 1.0954         estimate D2E/DX2                !
 ! R3    R(1,25)                 1.0943         estimate D2E/DX2                !
 ! R4    R(1,26)                 1.0952         estimate D2E/DX2                !
 ! R5    R(2,3)                  1.5364         estimate D2E/DX2                !
 ! R6    R(2,4)                  1.5331         estimate D2E/DX2                !
 ! R7    R(2,5)                  1.4515         estimate D2E/DX2                !
 ! R8    R(3,27)                 1.096          estimate D2E/DX2                !
 ! R9    R(3,28)                 1.0945         estimate D2E/DX2                !
 ! R10   R(3,29)                 1.0965         estimate D2E/DX2                !
 ! R11   R(4,30)                 1.0954         estimate D2E/DX2                !
 ! R12   R(4,31)                 1.0937         estimate D2E/DX2                !
 ! R13   R(4,32)                 1.0958         estimate D2E/DX2                !
 ! R14   R(5,6)                  1.3613         estimate D2E/DX2                !
 ! R15   R(6,7)                  1.2213         estimate D2E/DX2                !
 ! R16   R(6,8)                  1.5117         estimate D2E/DX2                !
 ! R17   R(8,9)                  1.5271         estimate D2E/DX2                !
 ! R18   R(8,33)                 1.0957         estimate D2E/DX2                !
 ! R19   R(8,34)                 1.0961         estimate D2E/DX2                !
 ! R20   R(9,10)                 1.5294         estimate D2E/DX2                !
 ! R21   R(9,35)                 1.0974         estimate D2E/DX2                !
 ! R22   R(9,36)                 1.0979         estimate D2E/DX2                !
 ! R23   R(10,11)                1.5065         estimate D2E/DX2                !
 ! R24   R(10,37)                1.0973         estimate D2E/DX2                !
 ! R25   R(10,38)                1.0976         estimate D2E/DX2                !
 ! R26   R(11,12)                1.3934         estimate D2E/DX2                !
 ! R27   R(11,16)                1.3937         estimate D2E/DX2                !
 ! R28   R(12,13)                1.4025         estimate D2E/DX2                !
 ! R29   R(12,39)                1.0879         estimate D2E/DX2                !
 ! R30   R(13,14)                1.4048         estimate D2E/DX2                !
 ! R31   R(13,40)                1.0854         estimate D2E/DX2                !
 ! R32   R(14,15)                1.406          estimate D2E/DX2                !
 ! R33   R(14,17)                1.3914         estimate D2E/DX2                !
 ! R34   R(15,16)                1.4034         estimate D2E/DX2                !
 ! R35   R(15,41)                1.0852         estimate D2E/DX2                !
 ! R36   R(16,42)                1.0872         estimate D2E/DX2                !
 ! R37   R(17,18)                1.477          estimate D2E/DX2                !
 ! R38   R(17,21)                1.4763         estimate D2E/DX2                !
 ! R39   R(18,19)                1.5307         estimate D2E/DX2                !
 ! R40   R(18,43)                1.0965         estimate D2E/DX2                !
 ! R41   R(18,44)                1.0968         estimate D2E/DX2                !
 ! R42   R(19,20)                1.7839         estimate D2E/DX2                !
 ! R43   R(19,45)                1.0927         estimate D2E/DX2                !
 ! R44   R(19,46)                1.0934         estimate D2E/DX2                !
 ! R45   R(21,22)                1.5313         estimate D2E/DX2                !
 ! R46   R(21,47)                1.0976         estimate D2E/DX2                !
 ! R47   R(21,48)                1.0977         estimate D2E/DX2                !
 ! R48   R(22,23)                1.7843         estimate D2E/DX2                !
 ! R49   R(22,49)                1.0948         estimate D2E/DX2                !
 ! R50   R(22,50)                1.0931         estimate D2E/DX2                !
 ! A1    A(2,1,24)             110.7465         estimate D2E/DX2                !
 ! A2    A(2,1,25)             111.9689         estimate D2E/DX2                !
 ! A3    A(2,1,26)             111.2679         estimate D2E/DX2                !
 ! A4    A(24,1,25)            106.7123         estimate D2E/DX2                !
 ! A5    A(24,1,26)            108.5571         estimate D2E/DX2                !
 ! A6    A(25,1,26)            107.39           estimate D2E/DX2                !
 ! A7    A(1,2,3)              108.6305         estimate D2E/DX2                !
 ! A8    A(1,2,4)              111.9724         estimate D2E/DX2                !
 ! A9    A(1,2,5)              111.3047         estimate D2E/DX2                !
 ! A10   A(3,2,4)              108.6512         estimate D2E/DX2                !
 ! A11   A(3,2,5)              104.7285         estimate D2E/DX2                !
 ! A12   A(4,2,5)              111.2312         estimate D2E/DX2                !
 ! A13   A(2,3,27)             110.8209         estimate D2E/DX2                !
 ! A14   A(2,3,28)             111.8075         estimate D2E/DX2                !
 ! A15   A(2,3,29)             110.7894         estimate D2E/DX2                !
 ! A16   A(27,3,28)            108.4063         estimate D2E/DX2                !
 ! A17   A(27,3,29)            106.3887         estimate D2E/DX2                !
 ! A18   A(28,3,29)            108.4336         estimate D2E/DX2                !
 ! A19   A(2,4,30)             111.3357         estimate D2E/DX2                !
 ! A20   A(2,4,31)             111.9509         estimate D2E/DX2                !
 ! A21   A(2,4,32)             110.7299         estimate D2E/DX2                !
 ! A22   A(30,4,31)            107.4615         estimate D2E/DX2                !
 ! A23   A(30,4,32)            108.5147         estimate D2E/DX2                !
 ! A24   A(31,4,32)            106.6459         estimate D2E/DX2                !
 ! A25   A(2,5,6)              120.7946         estimate D2E/DX2                !
 ! A26   A(5,6,7)              125.9636         estimate D2E/DX2                !
 ! A27   A(5,6,8)              108.8409         estimate D2E/DX2                !
 ! A28   A(7,6,8)              125.1936         estimate D2E/DX2                !
 ! A29   A(6,8,9)              112.0353         estimate D2E/DX2                !
 ! A30   A(6,8,33)             108.0076         estimate D2E/DX2                !
 ! A31   A(6,8,34)             108.2077         estimate D2E/DX2                !
 ! A32   A(9,8,33)             109.9245         estimate D2E/DX2                !
 ! A33   A(9,8,34)             109.5497         estimate D2E/DX2                !
 ! A34   A(33,8,34)            109.0495         estimate D2E/DX2                !
 ! A35   A(8,9,10)             111.0673         estimate D2E/DX2                !
 ! A36   A(8,9,35)             109.7001         estimate D2E/DX2                !
 ! A37   A(8,9,36)             109.6306         estimate D2E/DX2                !
 ! A38   A(10,9,35)            109.9846         estimate D2E/DX2                !
 ! A39   A(10,9,36)            110.0353         estimate D2E/DX2                !
 ! A40   A(35,9,36)            106.3091         estimate D2E/DX2                !
 ! A41   A(9,10,11)            111.8548         estimate D2E/DX2                !
 ! A42   A(9,10,37)            110.1436         estimate D2E/DX2                !
 ! A43   A(9,10,38)            110.0761         estimate D2E/DX2                !
 ! A44   A(11,10,37)           109.2376         estimate D2E/DX2                !
 ! A45   A(11,10,38)           109.429          estimate D2E/DX2                !
 ! A46   A(37,10,38)           105.9214         estimate D2E/DX2                !
 ! A47   A(10,11,12)           120.8661         estimate D2E/DX2                !
 ! A48   A(10,11,16)           120.8607         estimate D2E/DX2                !
 ! A49   A(12,11,16)           118.2592         estimate D2E/DX2                !
 ! A50   A(11,12,13)           120.6251         estimate D2E/DX2                !
 ! A51   A(11,12,39)           120.3884         estimate D2E/DX2                !
 ! A52   A(13,12,39)           118.9855         estimate D2E/DX2                !
 ! A53   A(12,13,14)           122.4563         estimate D2E/DX2                !
 ! A54   A(12,13,40)           116.5043         estimate D2E/DX2                !
 ! A55   A(14,13,40)           121.0258         estimate D2E/DX2                !
 ! A56   A(13,14,15)           115.6498         estimate D2E/DX2                !
 ! A57   A(13,14,17)           122.1834         estimate D2E/DX2                !
 ! A58   A(15,14,17)           122.1666         estimate D2E/DX2                !
 ! A59   A(14,15,16)           122.4262         estimate D2E/DX2                !
 ! A60   A(14,15,41)           121.0647         estimate D2E/DX2                !
 ! A61   A(16,15,41)           116.5013         estimate D2E/DX2                !
 ! A62   A(11,16,15)           120.5771         estimate D2E/DX2                !
 ! A63   A(11,16,42)           120.3605         estimate D2E/DX2                !
 ! A64   A(15,16,42)           119.0625         estimate D2E/DX2                !
 ! A65   A(14,17,18)           121.8339         estimate D2E/DX2                !
 ! A66   A(14,17,21)           121.0141         estimate D2E/DX2                !
 ! A67   A(18,17,21)           116.9616         estimate D2E/DX2                !
 ! A68   A(17,18,19)           112.3336         estimate D2E/DX2                !
 ! A69   A(17,18,43)           109.6745         estimate D2E/DX2                !
 ! A70   A(17,18,44)           110.1862         estimate D2E/DX2                !
 ! A71   A(19,18,43)           108.4495         estimate D2E/DX2                !
 ! A72   A(19,18,44)           111.1125         estimate D2E/DX2                !
 ! A73   A(43,18,44)           104.79           estimate D2E/DX2                !
 ! A74   A(18,19,20)           110.5368         estimate D2E/DX2                !
 ! A75   A(18,19,45)           112.1812         estimate D2E/DX2                !
 ! A76   A(18,19,46)           111.4743         estimate D2E/DX2                !
 ! A77   A(20,19,45)           107.0515         estimate D2E/DX2                !
 ! A78   A(20,19,46)           107.6784         estimate D2E/DX2                !
 ! A79   A(45,19,46)           107.6979         estimate D2E/DX2                !
 ! A80   A(17,21,22)           113.289          estimate D2E/DX2                !
 ! A81   A(17,21,47)           109.8922         estimate D2E/DX2                !
 ! A82   A(17,21,48)           109.8605         estimate D2E/DX2                !
 ! A83   A(22,21,47)           110.0572         estimate D2E/DX2                !
 ! A84   A(22,21,48)           109.2151         estimate D2E/DX2                !
 ! A85   A(47,21,48)           104.1275         estimate D2E/DX2                !
 ! A86   A(21,22,23)           112.2682         estimate D2E/DX2                !
 ! A87   A(21,22,49)           109.6578         estimate D2E/DX2                !
 ! A88   A(21,22,50)           112.3795         estimate D2E/DX2                !
 ! A89   A(23,22,49)           106.2959         estimate D2E/DX2                !
 ! A90   A(23,22,50)           107.5147         estimate D2E/DX2                !
 ! A91   A(49,22,50)           108.4722         estimate D2E/DX2                !
 ! D1    D(24,1,2,3)           -65.0713         estimate D2E/DX2                !
 ! D2    D(24,1,2,4)           174.9323         estimate D2E/DX2                !
 ! D3    D(24,1,2,5)            49.7287         estimate D2E/DX2                !
 ! D4    D(25,1,2,3)           175.9563         estimate D2E/DX2                !
 ! D5    D(25,1,2,4)            55.9599         estimate D2E/DX2                !
 ! D6    D(25,1,2,5)           -69.2437         estimate D2E/DX2                !
 ! D7    D(26,1,2,3)            55.7679         estimate D2E/DX2                !
 ! D8    D(26,1,2,4)           -64.2285         estimate D2E/DX2                !
 ! D9    D(26,1,2,5)           170.5679         estimate D2E/DX2                !
 ! D10   D(1,2,3,27)            60.1006         estimate D2E/DX2                !
 ! D11   D(1,2,3,28)           -60.9646         estimate D2E/DX2                !
 ! D12   D(1,2,3,29)           177.9573         estimate D2E/DX2                !
 ! D13   D(4,2,3,27)          -177.8582         estimate D2E/DX2                !
 ! D14   D(4,2,3,28)            61.0766         estimate D2E/DX2                !
 ! D15   D(4,2,3,29)           -60.0015         estimate D2E/DX2                !
 ! D16   D(5,2,3,27)           -58.9165         estimate D2E/DX2                !
 ! D17   D(5,2,3,28)          -179.9817         estimate D2E/DX2                !
 ! D18   D(5,2,3,29)            58.9402         estimate D2E/DX2                !
 ! D19   D(1,2,4,30)            64.183          estimate D2E/DX2                !
 ! D20   D(1,2,4,31)           -56.1315         estimate D2E/DX2                !
 ! D21   D(1,2,4,32)          -174.9972         estimate D2E/DX2                !
 ! D22   D(3,2,4,30)           -55.8014         estimate D2E/DX2                !
 ! D23   D(3,2,4,31)          -176.1159         estimate D2E/DX2                !
 ! D24   D(3,2,4,32)            65.0184         estimate D2E/DX2                !
 ! D25   D(5,2,4,30)          -170.5729         estimate D2E/DX2                !
 ! D26   D(5,2,4,31)            69.1126         estimate D2E/DX2                !
 ! D27   D(5,2,4,32)           -49.7531         estimate D2E/DX2                !
 ! D28   D(1,2,5,6)             62.5842         estimate D2E/DX2                !
 ! D29   D(3,2,5,6)            179.782          estimate D2E/DX2                !
 ! D30   D(4,2,5,6)            -63.0323         estimate D2E/DX2                !
 ! D31   D(2,5,6,7)              0.2171         estimate D2E/DX2                !
 ! D32   D(2,5,6,8)            179.7394         estimate D2E/DX2                !
 ! D33   D(5,6,8,9)            175.6002         estimate D2E/DX2                !
 ! D34   D(5,6,8,33)           -63.1921         estimate D2E/DX2                !
 ! D35   D(5,6,8,34)            54.726          estimate D2E/DX2                !
 ! D36   D(7,6,8,9)             -4.8729         estimate D2E/DX2                !
 ! D37   D(7,6,8,33)           116.3348         estimate D2E/DX2                !
 ! D38   D(7,6,8,34)          -125.7471         estimate D2E/DX2                !
 ! D39   D(6,8,9,10)           179.7249         estimate D2E/DX2                !
 ! D40   D(6,8,9,35)            57.9257         estimate D2E/DX2                !
 ! D41   D(6,8,9,36)           -58.459          estimate D2E/DX2                !
 ! D42   D(33,8,9,10)           59.629          estimate D2E/DX2                !
 ! D43   D(33,8,9,35)          -62.1703         estimate D2E/DX2                !
 ! D44   D(33,8,9,36)         -178.555          estimate D2E/DX2                !
 ! D45   D(34,8,9,10)          -60.1805         estimate D2E/DX2                !
 ! D46   D(34,8,9,35)          178.0203         estimate D2E/DX2                !
 ! D47   D(34,8,9,36)           61.6356         estimate D2E/DX2                !
 ! D48   D(8,9,10,11)          179.0752         estimate D2E/DX2                !
 ! D49   D(8,9,10,37)          -59.2397         estimate D2E/DX2                !
 ! D50   D(8,9,10,38)           57.1935         estimate D2E/DX2                !
 ! D51   D(35,9,10,11)         -59.2917         estimate D2E/DX2                !
 ! D52   D(35,9,10,37)          62.3934         estimate D2E/DX2                !
 ! D53   D(35,9,10,38)         178.8266         estimate D2E/DX2                !
 ! D54   D(36,9,10,11)          57.4955         estimate D2E/DX2                !
 ! D55   D(36,9,10,37)         179.1806         estimate D2E/DX2                !
 ! D56   D(36,9,10,38)         -64.3862         estimate D2E/DX2                !
 ! D57   D(9,10,11,12)         -92.8351         estimate D2E/DX2                !
 ! D58   D(9,10,11,16)          85.7821         estimate D2E/DX2                !
 ! D59   D(37,10,11,12)        144.9598         estimate D2E/DX2                !
 ! D60   D(37,10,11,16)        -36.4229         estimate D2E/DX2                !
 ! D61   D(38,10,11,12)         29.4175         estimate D2E/DX2                !
 ! D62   D(38,10,11,16)       -151.9652         estimate D2E/DX2                !
 ! D63   D(10,11,12,13)        179.4154         estimate D2E/DX2                !
 ! D64   D(10,11,12,39)         -0.2194         estimate D2E/DX2                !
 ! D65   D(16,11,12,13)          0.763          estimate D2E/DX2                !
 ! D66   D(16,11,12,39)       -178.8718         estimate D2E/DX2                !
 ! D67   D(10,11,16,15)       -179.2829         estimate D2E/DX2                !
 ! D68   D(10,11,16,42)          0.6962         estimate D2E/DX2                !
 ! D69   D(12,11,16,15)         -0.6303         estimate D2E/DX2                !
 ! D70   D(12,11,16,42)        179.3487         estimate D2E/DX2                !
 ! D71   D(11,12,13,14)         -0.2058         estimate D2E/DX2                !
 ! D72   D(11,12,13,40)       -178.8804         estimate D2E/DX2                !
 ! D73   D(39,12,13,14)        179.434          estimate D2E/DX2                !
 ! D74   D(39,12,13,40)          0.7595         estimate D2E/DX2                !
 ! D75   D(12,13,14,15)         -0.4746         estimate D2E/DX2                !
 ! D76   D(12,13,14,17)        179.6853         estimate D2E/DX2                !
 ! D77   D(40,13,14,15)        178.1412         estimate D2E/DX2                !
 ! D78   D(40,13,14,17)         -1.6989         estimate D2E/DX2                !
 ! D79   D(13,14,15,16)          0.6101         estimate D2E/DX2                !
 ! D80   D(13,14,15,41)        179.5561         estimate D2E/DX2                !
 ! D81   D(17,14,15,16)       -179.5498         estimate D2E/DX2                !
 ! D82   D(17,14,15,41)         -0.6039         estimate D2E/DX2                !
 ! D83   D(13,14,17,18)        -17.9141         estimate D2E/DX2                !
 ! D84   D(13,14,17,21)        156.9182         estimate D2E/DX2                !
 ! D85   D(15,14,17,18)        162.2562         estimate D2E/DX2                !
 ! D86   D(15,14,17,21)        -22.9115         estimate D2E/DX2                !
 ! D87   D(14,15,16,11)         -0.0685         estimate D2E/DX2                !
 ! D88   D(14,15,16,42)        179.9522         estimate D2E/DX2                !
 ! D89   D(41,15,16,11)       -179.0596         estimate D2E/DX2                !
 ! D90   D(41,15,16,42)          0.9611         estimate D2E/DX2                !
 ! D91   D(14,17,18,19)        -67.649          estimate D2E/DX2                !
 ! D92   D(14,17,18,43)        171.6718         estimate D2E/DX2                !
 ! D93   D(14,17,18,44)         56.8182         estimate D2E/DX2                !
 ! D94   D(21,17,18,19)        117.3195         estimate D2E/DX2                !
 ! D95   D(21,17,18,43)         -3.3598         estimate D2E/DX2                !
 ! D96   D(21,17,18,44)       -118.2134         estimate D2E/DX2                !
 ! D97   D(14,17,21,22)         93.9254         estimate D2E/DX2                !
 ! D98   D(14,17,21,47)       -142.5137         estimate D2E/DX2                !
 ! D99   D(14,17,21,48)        -28.5169         estimate D2E/DX2                !
 ! D100  D(18,17,21,22)        -90.9997         estimate D2E/DX2                !
 ! D101  D(18,17,21,47)         32.5612         estimate D2E/DX2                !
 ! D102  D(18,17,21,48)        146.5579         estimate D2E/DX2                !
 ! D103  D(17,18,19,20)       -178.0965         estimate D2E/DX2                !
 ! D104  D(17,18,19,45)         62.5043         estimate D2E/DX2                !
 ! D105  D(17,18,19,46)        -58.3711         estimate D2E/DX2                !
 ! D106  D(43,18,19,20)        -56.7137         estimate D2E/DX2                !
 ! D107  D(43,18,19,45)       -176.1128         estimate D2E/DX2                !
 ! D108  D(43,18,19,46)         63.0118         estimate D2E/DX2                !
 ! D109  D(44,18,19,20)         57.9498         estimate D2E/DX2                !
 ! D110  D(44,18,19,45)        -61.4494         estimate D2E/DX2                !
 ! D111  D(44,18,19,46)        177.6752         estimate D2E/DX2                !
 ! D112  D(17,21,22,23)         80.0036         estimate D2E/DX2                !
 ! D113  D(17,21,22,49)       -162.0754         estimate D2E/DX2                !
 ! D114  D(17,21,22,50)        -41.3486         estimate D2E/DX2                !
 ! D115  D(47,21,22,23)        -43.4667         estimate D2E/DX2                !
 ! D116  D(47,21,22,49)         74.4542         estimate D2E/DX2                !
 ! D117  D(47,21,22,50)       -164.819          estimate D2E/DX2                !
 ! D118  D(48,21,22,23)       -157.1962         estimate D2E/DX2                !
 ! D119  D(48,21,22,49)        -39.2753         estimate D2E/DX2                !
 ! D120  D(48,21,22,50)         81.4516         estimate D2E/DX2                !
 --------------------------------------------------------------------------------
 Trust Radius=1.00D-01 FncErr=1.00D-07 GrdErr=1.00D-06 EigMax=2.50D+02 EigMin=1.00D-04
 Number of steps in this run=    300 maximum allowed number of steps=    300.
 GradGradGradGradGradGradGradGradGradGradGradGradGradGradGradGradGradGrad

 Leave Link  103 at Tue Mar  1 20:00:18 2022, MaxMem=   104857600 cpu:               0.0 elap:               0.0
 (Enter /dades/curu/g16A03_MST/g16/l202.exe)
                          Input orientation:                          
 ---------------------------------------------------------------------
 Center     Atomic      Atomic             Coordinates (Angstroms)
 Number     Number       Type             X           Y           Z
 ---------------------------------------------------------------------
      1          6           0        6.308000    0.390000    1.909000
      2          6           0        6.300000    0.327000    0.377000
      3          6           0        7.469000   -0.557000   -0.084000
      4          6           0        6.456000    1.715000   -0.255000
      5          8           0        5.112000   -0.345000   -0.117000
      6          6           0        3.873000    0.168000    0.117000
      7          8           0        3.626000    1.195000    0.730000
      8          6           0        2.842000   -0.737000   -0.518000
      9          6           0        1.416000   -0.287000   -0.208000
     10          6           0        0.392000   -1.213000   -0.866000
     11          6           0       -1.022000   -0.798000   -0.553000
     12          6           0       -1.704000   -1.345000    0.532000
     13          6           0       -3.016000   -0.946000    0.826000
     14          6           0       -3.702000    0.012000    0.061000
     15          6           0       -2.984000    0.557000   -1.018000
     16          6           0       -1.672000    0.164000   -1.324000
     17          7           0       -5.006000    0.399000    0.354000
     18          6           0       -5.886000   -0.417000    1.215000
     19          6           0       -6.267000   -1.748000    0.562000
     20         17           0       -7.372000   -2.669000    1.617000
     21          6           0       -5.531000    1.704000   -0.094000
     22          6           0       -6.274000    1.631000   -1.431000
     23         17           0       -7.943000    1.028000   -1.245000
     24          1           0        6.106000   -0.597000    2.339000
     25          1           0        5.538000    1.065000    2.295000
     26          1           0        7.273000    0.744000    2.287000
     27          1           0        7.372000   -1.572000    0.318000
     28          1           0        8.435000   -0.151000    0.232000
     29          1           0        7.475000   -0.656000   -1.176000
     30          1           0        7.430000    2.155000   -0.015000
     31          1           0        5.687000    2.411000    0.092000
     32          1           0        6.359000    1.658000   -1.345000
     33          1           0        3.008000   -0.732000   -1.601000
     34          1           0        2.997000   -1.753000   -0.137000
     35          1           0        1.269000    0.743000   -0.557000
     36          1           0        1.263000   -0.269000    0.879000
     37          1           0        0.534000   -1.221000   -1.954000
     38          1           0        0.551000   -2.247000   -0.534000
     39          1           0       -1.223000   -2.085000    1.168000
     40          1           0       -3.477000   -1.401000    1.697000
     41          1           0       -3.432000    1.299000   -1.671000
     42          1           0       -1.168000    0.621000   -2.172000
     43          1           0       -6.806000    0.138000    1.434000
     44          1           0       -5.416000   -0.577000    2.193000
     45          1           0       -5.396000   -2.382000    0.379000
     46          1           0       -6.773000   -1.594000   -0.395000
     47          1           0       -6.186000    2.128000    0.678000
     48          1           0       -4.710000    2.428000   -0.176000
     49          1           0       -6.356000    2.634000   -1.862000
     50          1           0       -5.769000    0.984000   -2.153000
 ---------------------------------------------------------------------
                    Distance matrix (angstroms):
                    1          2          3          4          5
     1  C    0.000000
     2  C    1.533316   0.000000
     3  C    2.493347   1.536404   0.000000
     4  C    2.541737   1.533070   2.493470   0.000000
     5  O    2.464816   1.451538   2.366745   2.463530   0.000000
     6  C    3.031464   2.446060   3.673859   3.033724   1.361266
     7  O    3.038287   2.833427   4.301250   3.041303   2.301566
     8  C    4.378769   3.727048   4.650794   4.375211   2.338240
     9  C    5.373238   4.957084   6.060288   5.423266   3.697575
    10  C    6.728246   6.230659   7.150230   6.761553   4.857245
    11  C    7.823151   7.466071   8.507357   7.894584   6.166138
    12  C    8.312551   8.178241   9.227368   8.750347   6.919469
    13  C    9.481285   9.413288  10.531602   9.897892   8.204562
    14  C   10.186171  10.011947  11.186422  10.304612   8.823023
    15  C    9.743535   9.391037  10.553604   9.541317   8.195768
    16  C    8.613000   8.153082   9.252855   8.343425   6.909312
    17  N   11.420363  11.306253  12.519241  11.553362  10.156244
    18  C   12.240364  12.237417  13.418756  12.610761  11.078602
    19  C   12.826382  12.738498  13.802663  13.211154  11.485255
    20  Cl  14.020882  14.051235  15.086724  14.626600  12.816317
    21  C   12.078929  11.920173  13.195159  11.988086  10.838468
    22  C   13.076789  12.770073  13.981123  12.784480  11.630656
    23  Cl  14.609783  14.352189  15.536727  14.449335  13.175376
    24  H    1.095387   2.177351   2.780341   3.492375   2.661480
    25  H    1.094313   2.191806   3.466884   2.787064   2.826185
    26  H    1.095183   2.183739   2.711579   2.841143   3.411020
    27  H    2.740953   2.181483   1.096010   3.460022   2.608132
    28  H    2.762090   2.192655   1.094462   2.763253   3.346904
    29  H    3.460236   2.181450   1.096495   2.740117   2.608059
    30  H    2.841810   2.184525   2.713158   1.095389   3.410796
    31  H    2.787754   2.190902   3.466342   1.093703   2.823091
    32  H    3.492698   2.177229   2.780008   1.095791   2.659888
    33  H    4.946613   3.983871   4.715128   4.437142   2.603621
    34  H    4.443117   3.937055   4.629472   4.899554   2.540884
    35  H    5.621146   5.133846   6.352459   5.285921   4.018208
    36  H    5.191070   5.096920   6.286871   5.673576   3.976505
    37  H    7.131421   6.409105   7.213322   6.824718   5.009993
    38  H    6.787125   6.364464   7.135638   7.116482   4.959255
    39  H    7.961826   7.939707   8.913650   8.685158   6.694106
    40  H    9.949817  10.015893  11.122015  10.591707   8.841756
    41  H   10.416827   9.992543  11.171173   9.997532   8.838415
    42  H    8.520475   7.896509   8.963548   7.937071   6.677917
    43  H   13.125019  13.149913  14.372299  13.461809  12.028201
    44  H   11.767239  11.890321  13.084661  12.336545  10.780942
    45  H   12.124706  12.005628  13.002047  12.556165  10.715104
    46  H   13.429715  13.235919  14.283090  13.637284  11.953682
    47  H   12.674227  12.618811  13.937320  12.683108  11.592780
    48  H   11.397236  11.222304  12.539806  11.189020  10.206111
    49  H   13.402719  13.057937  14.299454  12.945051  11.976414
    50  H   12.755650  12.348818  13.487034  12.393038  11.149336
                    6          7          8          9         10
     6  C    0.000000
     7  O    1.221273   0.000000
     8  C    1.511691   2.429976   0.000000
     9  C    2.519821   2.821395   1.527114   0.000000
    10  C    3.871797   4.336408   2.519956   1.529384   0.000000
    11  C    5.034191   5.217475   3.864640   2.514754   1.506516
    12  C    5.793472   5.907597   4.705133   3.376591   2.522904
    13  C    7.014414   6.979202   6.013832   4.598485   3.814265
    14  C    7.576813   7.452961   6.612124   5.133779   4.372733
    15  C    6.961178   6.866924   5.988882   4.552849   3.814889
    16  C    5.729182   5.775005   4.673075   3.314302   2.523091
    17  N    8.885166   8.676775   7.977593   6.482941   5.764143
    18  C    9.837983   9.659809   8.904138   7.440500   6.661641
    19  C   10.329021  10.322835   9.228348   7.858493   6.831375
    20  Cl  11.693955  11.690734  10.612099   9.286199   8.280394
    21  C    9.530951   9.208078   8.731860   7.227578   6.647315
    22  C   10.368138  10.142486   9.462687   8.019386   7.269327
    23  Cl  11.925288  11.737558  10.952624   9.507653   8.639326
    24  H    3.241728   3.456956   4.340017   5.345971   6.580371
    25  H    2.884531   2.474241   4.292853   5.008373   6.454651
    26  H    4.074393   3.991022   5.449325   6.449220   7.817891
    27  H    3.912928   4.675313   4.681562   6.115704   7.088804
    28  H    4.574585   5.018586   5.673407   7.034092   8.186776
    29  H    3.914745   4.676948   4.680194   6.146923   7.111627
    30  H    4.076499   3.993375   5.446689   6.493752   7.848635
    31  H    2.884834   2.476574   4.286727   5.060696   6.487539
    32  H    3.246189   3.462554   4.334656   5.432223   6.639064
    33  H    2.123617   3.086878   1.095660   2.161698   2.759537
    34  H    2.126531   3.136564   1.096103   2.157257   2.758454
    35  H    2.750585   2.723256   2.160150   1.097411   2.165767
    36  H    2.753854   2.783750   2.159600   1.097862   2.166749
    37  H    4.167407   4.754090   2.761017   2.167671   1.097257
    38  H    4.158330   4.785466   2.743909   2.167049   1.097570
    39  H    5.670082   5.870523   4.602600   3.477140   2.739665
    40  H    7.679887   7.624101   6.728810   5.367632   4.644725
    41  H    7.605204   7.455936   6.696102   5.306493   4.645551
    42  H    5.554855   5.633251   4.545325   3.370284   2.739122
    43  H   10.759946  10.509019   9.882299   8.395122   7.676354
    44  H    9.547268   9.329422   8.693083   7.247422   6.595062
    45  H    9.616938   9.711571   8.448389   7.151010   6.034694
    46  H   10.802967  10.825126   9.653901   8.294754   7.190565
    47  H   10.263518   9.856396   9.546907   8.025436   7.537659
    48  H    8.880391   8.475259   8.195541   6.700756   6.305822
    49  H   10.706542  10.412949   9.888032   8.465928   7.831151
    50  H    9.939161   9.829661   8.932211   7.551337   6.666416
                   11         12         13         14         15
    11  C    0.000000
    12  C    1.393398   0.000000
    13  C    2.428905   1.402491   0.000000
    14  C    2.866269   2.460751   1.404843   0.000000
    15  C    2.429340   2.767400   2.379153   1.405984   0.000000
    16  C    1.393695   2.392246   2.767840   2.462159   1.403363
    17  N    4.257665   3.738506   2.447838   1.391414   2.448639
    18  C    5.189362   4.337833   2.944157   2.507112   3.789006
    19  C    5.445709   4.580860   3.358854   3.150845   4.311324
    20  Cl   6.966494   5.920847   4.750700   4.803936   6.050194
    21  C    5.177042   4.932971   3.767509   2.496423   2.942209
    22  C    5.852728   5.796106   4.727530   3.385618   3.485419
    23  Cl   7.191202   6.907531   5.697460   4.552359   4.986487
    24  H    7.694963   8.051140   9.253208  10.087469   9.758548
    25  H    7.390228   7.833443   8.909152   9.564370   9.157430
    26  H    8.902269   9.382456  10.528729  11.222367  10.777942
    27  H    8.474488   9.081360  10.419236  11.189664  10.656654
    28  H    9.511555  10.213469  11.493923  12.139299  11.509011
    29  H    8.520992   9.361946  10.684249  11.265066  10.530290
    30  H    8.969167   9.796896  10.928971  11.336651  10.583525
    31  H    7.464877   8.302290   9.356838   9.690691   8.936199
    32  H    7.819102   8.806424   9.969187  10.291252   9.413330
    33  H    4.164560   5.208493   6.498054   6.952689   6.156742
    34  H    4.151800   4.765860   6.142865   6.930442   6.471833
    35  H    2.761047   3.792676   4.809016   5.062324   4.281954
    36  H    2.748034   3.175102   4.332549   5.039773   4.724182
    37  H    2.136087   3.347270   4.517358   4.850176   4.051383
    38  H    2.138759   2.652355   4.033075   4.852331   4.537940
    39  H    2.158382   1.087868   2.151542   3.430495   3.854852
    40  H    3.384248   2.122237   1.085443   2.173405   3.383495
    41  H    3.384588   3.850965   3.383503   2.174648   1.085208
    42  H    2.157785   3.385863   3.854685   3.431957   2.152596
    43  H    6.186996   5.389183   3.988586   3.396442   4.560214
    44  H    5.186193   4.138561   2.786548   2.798239   4.184627
    45  H    4.744424   3.837922   2.815369   2.949915   4.050565
    46  H    5.807976   5.159079   4.003223   3.495456   4.401301
    47  H    6.061661   5.671981   4.418176   3.320904   3.949337
    48  H    4.914321   4.875739   3.906087   2.628553   2.681172
    49  H    6.476393   6.573034   5.585458   4.197205   4.049278
    50  H    5.316910   5.399786   4.492032   3.181048   3.037561
                   16         17         18         19         20
    16  C    0.000000
    17  N    3.739848   0.000000
    18  C    4.953976   1.477016   0.000000
    19  C    5.322289   2.498598   1.530729   0.000000
    20  Cl   7.011802   4.075015   2.727875   1.783898   0.000000
    21  C    4.333172   1.476264   2.517568   3.590033   5.043801
    22  C    4.831350   2.512344   3.368407   3.922976   5.383856
    23  Cl   6.330733   3.402706   3.517225   3.712196   4.710084
    24  H    8.630989  11.331760  12.045906  12.552835  13.655437
    25  H    8.117454  10.741833  11.570242  12.258641  13.456245
    26  H    9.663785  12.435005  13.253542  13.875060  15.052358
    27  H    9.354346  12.533995  13.338411  13.642318  14.841710
    28  H   10.230924  13.452801  14.357161  14.792164  16.066107
    29  H    9.184874  12.618609  13.575357  13.894448  15.240946
    30  H    9.408718  12.564784  13.617780  14.253917  15.653549
    31  H    7.823615  10.883797  11.966330  12.665556  14.095017
    32  H    8.168809  11.560057  12.680664  13.215648  14.698188
    33  H    4.773044   8.326187   9.334469   9.577915  11.038654
    34  H    5.184922   8.301819   9.084079   9.290335  10.556123
    35  H    3.094028   6.350109   7.461877   8.015519   9.541221
    36  H    3.695257   6.326311   7.158422   7.680419   8.992656
    37  H    2.679843   6.216338   7.204539   7.270597   8.795088
    38  H    3.373240   6.218529   6.916854   6.923535   8.220633
    39  H    3.386690   4.598254   4.952575   5.091438   6.192968
    40  H    3.851453   2.716890   2.646481   3.031952   4.096980
    41  H    2.122789   2.718106   4.158818   4.723105   6.486877
    42  H    1.087184   4.600022   5.899893   6.251937   7.979363
    43  H    5.827967   2.115306   1.096534   2.146602   2.869337
    44  H    5.189981   2.121932   1.096806   2.180735   2.921331
    45  H    4.821877   2.808324   2.190941   1.092742   2.349381
    46  H    5.474834   2.766828   2.182704   1.093435   2.358510
    47  H    5.314273   2.118211   2.618281   3.878581   5.029863
    48  H    3.958920   2.117866   3.378148   4.517507   6.023330
    49  H    5.322612   3.424672   4.358604   5.008555   6.423201
    50  H    4.259701   2.685041   3.649646   3.883691   5.488799
                   21         22         23         24         25
    21  C    0.000000
    22  C    1.531322   0.000000
    23  Cl   2.756723   1.784311   0.000000
    24  H   12.109247  13.131690  14.589725   0.000000
    25  H   11.341887  12.398660  13.938089   1.756930   0.000000
    26  H   13.058835  14.075919  15.623135   1.778447   1.764463
    27  H   13.318759  14.125563  15.612565   2.576397   3.771718
    28  H   14.092426  14.909587  16.486675   3.172161   3.758621
    29  H   13.262593  13.940244  15.509847   3.772647   4.331472
    30  H   12.969085  13.786923  15.463252   3.855878   3.178658
    31  H   11.241796  12.082775  13.765070   3.777914   2.585948
    32  H   11.955719  12.633322  14.316218   4.326764   3.778265
    33  H    9.006646   9.579572  11.097240   5.013924   4.980856
    34  H    9.202146   9.953760  11.342188   4.139178   4.506931
    35  H    6.883160   7.645212   9.242051   5.794738   5.144118
    36  H    7.141281   8.108790   9.536457   5.068908   4.696833
    37  H    6.985660   7.399750   8.798876   7.061615   6.951245
    38  H    7.265998   7.900893   9.131220   6.467971   6.621386
    39  H    5.874353   6.787935   7.789207   7.569652   7.543457
    40  H    4.131298   5.176931   5.873718   9.638074   9.365308
    41  H    2.656455   2.871374   4.539167  10.518952   9.810444
    42  H    4.952448   5.257415   6.850226   8.645445   8.069799
    43  H    2.532344   3.274187   3.043339  12.964528  12.408666
    44  H    3.232113   4.329527   4.558684  11.522942  11.076854
    45  H    4.115501   4.489004   4.555511  11.803552  11.623477
    46  H    3.536943   3.423875   2.994375  13.203689  12.878940
    47  H    1.097627   2.168556   2.827539  12.699520  11.882627
    48  H    1.097698   2.157853   3.681718  11.509201  10.629446
    49  H    2.161330   1.094758   2.340618  13.542127  12.696836
    50  H    2.194203   1.093123   2.356412  12.794266  12.150700
                   26         27         28         29         30
    26  H    0.000000
    27  H    3.041483   0.000000
    28  H    2.524736   1.776684   0.000000
    29  H    3.740745   1.755477   1.777383   0.000000
    30  H    2.704584   3.742296   2.527582   3.041655   0.000000
    31  H    3.179986   4.330657   3.759647   3.769782   1.764946
    32  H    3.855154   3.771556   3.173198   2.574609   1.778468
    33  H    5.956958   4.840729   5.757584   4.487816   5.514005
    34  H    5.513163   4.402319   5.681057   4.726036   5.910908
    35  H    6.643520   6.585701   7.264524   6.391776   6.343929
    36  H    6.255296   6.271556   7.202091   6.554520   6.686322
    37  H    8.201306   7.214113   8.267363   7.007281   7.919085
    38  H    7.879683   6.907067   8.193743   7.133388   8.183374
    39  H    9.024268   8.652150   9.894110   9.120942   9.708321
    40  H   10.977779  10.937627  12.066668  11.347046  11.599083
    41  H   11.426759  11.354522  12.105767  11.091875  11.020804
    42  H    9.547161   9.161929   9.929391   8.793418   8.996189
    43  H   14.117829  14.324288  15.291056  14.539240  14.451006
    44  H   12.757923  12.962970  13.995614  13.324199  13.317613
    45  H   13.187718  12.793813  14.010551  13.078981  13.610506
    46  H   14.489634  14.162976  15.289167  14.300186  14.694373
    47  H   13.625308  14.058413  14.804270  14.064526  13.633651
    48  H   12.348867  12.736513  13.401818  12.608937  12.144136
    49  H   14.371358  14.522425  15.195879  14.233456  13.917422
    50  H   13.779150  13.613407  14.447493  13.380869  13.422216
                   31         32         33         34         35
    31  H    0.000000
    32  H    1.756007   0.000000
    33  H    4.463378   4.123935   0.000000
    34  H    4.962604   4.939355   1.784897   0.000000
    35  H    4.766776   5.231278   2.507924   3.064702   0.000000
    36  H    5.231973   5.884617   3.067539   2.498253   1.756780
    37  H    6.628043   6.526113   2.546450   3.106587   2.519748
    38  H    6.961849   7.045538   3.077428   2.526769   3.075086
    39  H    8.313837   8.821108   5.234437   4.429633   4.145271
    40  H   10.054167  10.740491   7.306134   6.737962   5.674660
    41  H    9.354190   9.803001   6.753033   7.280103   4.863079
    42  H    7.437797   7.642972   4.426695   5.208102   2.926103
    43  H   12.768811  13.540697  10.309351  10.106569   8.338809
    44  H   11.688411  12.496531   9.240251   8.808544   7.348069
    45  H   12.078415  12.548857   8.790342   8.432339   7.420508
    46  H   13.096900  13.561985   9.892696   9.774699   8.376251
    47  H   11.890821  12.715756   9.894598  10.002693   7.682478
    48  H   10.400467  11.157160   8.460718   8.768132   6.223570
    49  H   12.202528  12.762879   9.954023  10.473777   7.963638
    50  H   11.760795  12.173558   8.960195   9.402031   7.220716
                   36         37         38         39         40
    36  H    0.000000
    37  H    3.076302   0.000000
    38  H    2.532982   1.751960   0.000000
    39  H    3.092179   3.685163   2.463762   0.000000
    40  H    4.941472   5.426815   4.681652   2.414169   0.000000
    41  H    5.568137   4.707403   5.452630   4.938730   4.316880
    42  H    4.001308   2.517398   3.723363   4.298960   4.938535
    43  H    8.098298   8.197623   7.980395   6.015179   3.676946
    44  H    6.813993   7.281129   6.769824   4.572301   2.164420
    45  H    7.004074   6.477323   6.018189   4.257307   2.526271
    46  H    8.243543   7.480766   7.354366   5.786756   3.908622
    47  H    7.827746   7.956232   8.123838   6.528464   4.564086
    48  H    6.638039   6.631442   7.047121   5.859409   4.437303
    49  H    8.601724   7.895669   8.561215   7.602470   6.102159
    50  H    7.759643   6.680527   7.280311   6.412014   5.075824
                   41         42         43         44         45
    41  H    0.000000
    42  H    2.415860   0.000000
    43  H    4.729992   6.709960   0.000000
    44  H    4.731398   6.207571   1.737644   0.000000
    45  H    4.648608   5.779411   3.074333   2.559106   0.000000
    46  H    4.599990   6.283310   2.519157   3.094104   1.765262
    47  H    3.713429   5.964384   2.217214   3.194550   4.588420
    48  H    2.267807   4.449160   3.497058   3.891095   4.890268
    49  H    3.220013   5.573474   4.158862   5.257104   5.577090
    50  H    2.406890   4.615336   3.828532   4.631311   4.228488
                   46         47         48         49         50
    46  H    0.000000
    47  H    3.917803   0.000000
    48  H    4.525529   1.731442   0.000000
    49  H    4.494659   2.595484   2.365237   0.000000
    50  H    3.277905   3.081750   2.667423   1.775317   0.000000
 Stoichiometry    C18H27Cl2NO2
 Framework group  C1[X(C18H27Cl2NO2)]
 Deg. of freedom   144
 Full point group                 C1      NOp   1
 Largest Abelian subgroup         C1      NOp   1
 Largest concise Abelian subgroup C1      NOp   1
                         Standard orientation:                         
 ---------------------------------------------------------------------
 Center     Atomic      Atomic             Coordinates (Angstroms)
 Number     Number       Type             X           Y           Z
 ---------------------------------------------------------------------
      1          6           0       -7.540654    0.798555    1.576026
      2          6           0       -7.508804    0.011732    0.260370
      3          6           0       -8.632141    0.531627   -0.649774
      4          6           0       -7.715749   -1.490563    0.485290
      5          8           0       -6.286238    0.269102   -0.478588
      6          6           0       -5.073849   -0.066950    0.041247
      7          8           0       -4.879830   -0.596855    1.124328
      8          6           0       -3.996134    0.312464   -0.948594
      9          6           0       -2.595270    0.065391   -0.393066
     10          6           0       -1.523324    0.449964   -1.413876
     11          6           0       -0.132981    0.234139   -0.875401
     12          6           0        0.556924    1.266439   -0.242988
     13          6           0        1.846324    1.056492    0.267259
     14          6           0        2.500885   -0.183142    0.175370
     15          6           0        1.775021   -1.209456   -0.454384
     16          6           0        0.485528   -1.011099   -0.971386
     17          7           0        3.782825   -0.383376    0.677936
     18          6           0        4.685212    0.745479    0.982831
     19          6           0        5.132205    1.489744   -0.277883
     20         17           0        6.261210    2.806254    0.139776
     21          6           0        4.257220   -1.734887    1.035316
     22          6           0        5.021057   -2.427476   -0.096858
     23         17           0        6.711771   -1.868988   -0.212368
     24          1           0       -7.302253    1.853599    1.403050
     25          1           0       -6.805865    0.423694    2.295112
     26          1           0       -8.525141    0.737162    2.051885
     27          1           0       -8.497038    1.597736   -0.865175
     28          1           0       -9.619012    0.392819   -0.197374
     29          1           0       -8.618797    0.016346   -1.617560
     30          1           0       -8.711029   -1.699205    0.892430
     31          1           0       -6.982326   -1.904319    1.183202
     32          1           0       -7.601349   -2.042801   -0.454234
     33          1           0       -4.147233   -0.280280   -1.857600
     34          1           0       -4.112440    1.375089   -1.190966
     35          1           0       -2.488000   -0.991180   -0.116552
     36          1           0       -2.458204    0.641467    0.531408
     37          1           0       -1.649819   -0.135335   -2.333331
     38          1           0       -1.642174    1.500908   -1.707220
     39          1           0        0.099536    2.247287   -0.132581
     40          1           0        2.314443    1.900935    0.763210
     41          1           0        2.199591   -2.200349   -0.579077
     42          1           0       -0.025950   -1.843388   -1.448516
     43          1           0        5.577325    0.375187    1.501873
     44          1           0        4.209093    1.428429    1.696885
     45          1           0        4.291950    1.944413   -0.808293
     46          1           0        5.644256    0.822289   -0.976387
     47          1           0        4.882618   -1.685146    1.935976
     48          1           0        3.406986   -2.361745    1.333800
     49          1           0        5.065688   -3.504542    0.094014
     50          1           0        4.554426   -2.267650   -1.072373
 ---------------------------------------------------------------------
 Rotational constants (GHZ):           0.5432550           0.0503588           0.0478838
 Leave Link  202 at Tue Mar  1 20:00:18 2022, MaxMem=   104857600 cpu:               0.1 elap:               0.0
 (Enter /dades/curu/g16A03_MST/g16/l301.exe)
 Standard basis: 6-31G(d) (6D, 7F)
 Ernie: Thresh=  0.10000D-02 Tol=  0.10000D-05 Strict=F.
 There are   407 symmetry adapted cartesian basis functions of A   symmetry.
 There are   407 symmetry adapted basis functions of A   symmetry.
   407 basis functions,   800 primitive gaussians,   407 cartesian basis functions
    96 alpha electrons       96 beta electrons
       nuclear repulsion energy      2076.9756294963 Hartrees.
 IExCor=  402 DFT=T Ex+Corr=B3LYP ExCW=0 ScaHFX=  0.200000
 ScaDFX=  0.800000  0.720000  1.000000  0.810000 ScalE2=  1.000000  1.000000
 IRadAn=      5 IRanWt=     -1 IRanGd=            0 ICorTp=0 IEmpDi=  4
 NAtoms=   50 NActive=   50 NUniq=   50 SFac= 1.00D+00 NAtFMM=   60 NAOKFM=F Big=F
 Integral buffers will be    131072 words long.
 Raffenetti 2 integral format.
 Two-electron integral symmetry is turned on.
 Using the following non-standard input for PCM:
 MSTModel=DFT cav
 --- end of non-standard input.
 MST model for solvation energy: B3LYP parametrization.
 MST cavity parameters:
 ISph   IAn     Re0     Alpha   Atom Type   QCorr
 ------------------------------------------------
   1      6     1.50     1.25      CH3        F
   2      6     1.50     1.25      C          F
   3      6     1.50     1.25      CH3        F
   4      6     1.50     1.25      CH3        F
   5      8     1.40     1.25      O          F
   6      6     1.50     1.25      C          F
   7      8     1.40     1.25      O          F
   8      6     1.50     1.25      CH2        F
   9      6     1.50     1.25      CH2        F
  10      6     1.50     1.25      CH2        F
  11      6     1.50     1.25      C          F
  12      6     1.50     1.25      CH         F
  13      6     1.50     1.25      CH         F
  14      6     1.50     1.25      C          F
  15      6     1.50     1.25      CH         F
  16      6     1.50     1.25      CH         F
  17      7     1.40     1.25      N          F
  18      6     1.50     1.25      CH2        F
  19      6     1.50     1.25      CH2        F
  20     17     1.80     1.25      Cl         F
  21      6     1.50     1.25      CH2        F
  22      6     1.50     1.25      CH2        F
  23     17     1.80     1.25      Cl         F
  24      1     1.20     1.25      CH3        F
  25      1     1.20     1.25      CH3        F
  26      1     1.20     1.25      CH3        F
  27      1     1.20     1.25      CH3        F
  28      1     1.20     1.25      CH3        F
  29      1     1.20     1.25      CH3        F
  30      1     1.20     1.25      CH3        F
  31      1     1.20     1.25      CH3        F
  32      1     1.20     1.25      CH3        F
  33      1     1.20     1.25      CH2        F
  34      1     1.20     1.25      CH2        F
  35      1     1.20     1.25      CH2        F
  36      1     1.20     1.25      CH2        F
  37      1     1.20     1.25      CH2        F
  38      1     1.20     1.25      CH2        F
  39      1     1.20     1.25      CH         F
  40      1     1.20     1.25      CH         F
  41      1     1.20     1.25      CH         F
  42      1     1.20     1.25      CH         F
  43      1     1.20     1.25      CH2        F
  44      1     1.20     1.25      CH2        F
  45      1     1.20     1.25      CH2        F
  46      1     1.20     1.25      CH2        F
  47      1     1.20     1.25      CH2        F
  48      1     1.20     1.25      CH2        F
  49      1     1.20     1.25      CH2        F
  50      1     1.20     1.25      CH2        F
 ------------------------------------------------------------------------------
 Polarizable Continuum Model (PCM)
 =================================
 Model                : PCM.
 Atomic radii         : MST.
 Polarization charges : Total charges.
 Charge compensation  : None.
 Solution method      : On-the-fly selection.
 Cavity type          : Scaled VdW (van der Waals Surface) (Alpha=1.250).
 Cavity algorithm     : GePol (No added spheres)
                        Default sphere list used, NSphG=   50.
                        Lebedev-Laikov grids with approx.  5.0 points / Ang**2.
                        Smoothing algorithm: York/Karplus (Gamma=1.0000).
                        Polarization charges: spherical gaussians, with
                                              point-specific exponents (IZeta= 3).
                        Self-potential: point-specific (ISelfS= 7).
                        Self-field    : sphere-specific E.n sum rule (ISelfD= 2).
 1st derivatives      : Analytical E(r).r(x)/FMM algorithm (CHGder, D1EAlg=3).
                        Cavity 1st derivative terms included.
 Solvent              : Water, Eps=  78.355300 Eps(inf)=   1.777849
 ------------------------------------------------------------------------------
 GePol: Number of generator spheres                  =      50
 GePol: Total number of spheres                      =      50
 GePol: Number of exposed spheres                    =      50 (100.00%)
 GePol: Number of points                             =    3567
 GePol: Average weight of points                     =       0.13
 GePol: Minimum weight of points                     =   0.77D-10
 GePol: Maximum weight of points                     =    0.22001
 GePol: Number of points with low weight             =     235
 GePol: Fraction of low-weight points (<1% of avg)   =       6.59%
 GePol: Cavity surface area                          =    477.561 Ang**2
 GePol: Cavity volume                                =    472.665 Ang**3
 Surface areas from nonelectrostatic (unscaled) cavity and vdw tensions:
 Sphere =    1 Type =  CH3 Surf =        4.931 Tension =       -0.140
 Sphere =    2 Type =  C   Surf =        1.947 Tension =       -0.101
 Sphere =    3 Type =  CH3 Surf =        4.712 Tension =       -0.140
 Sphere =    4 Type =  CH3 Surf =        4.931 Tension =       -0.140
 Sphere =    5 Type =  O   Surf =        9.749 Tension =       -0.117
 Sphere =    6 Type =  C   Surf =        6.991 Tension =       -0.101
 Sphere =    7 Type =  O   Surf =       15.321 Tension =       -0.117
 Sphere =    8 Type =  CH2 Surf =        3.755 Tension =       -0.139
 Sphere =    9 Type =  CH2 Surf =        3.644 Tension =       -0.139
 Sphere =   10 Type =  CH2 Surf =        3.790 Tension =       -0.139
 Sphere =   11 Type =  C   Surf =        6.059 Tension =       -0.101
 Sphere =   12 Type =  CH  Surf =        7.694 Tension =       -0.140
 Sphere =   13 Type =  CH  Surf =        7.657 Tension =       -0.140
 Sphere =   14 Type =  C   Surf =        6.645 Tension =       -0.101
 Sphere =   15 Type =  CH  Surf =        7.582 Tension =       -0.140
 Sphere =   16 Type =  CH  Surf =        7.711 Tension =       -0.140
 Sphere =   17 Type =  N   Surf =        4.448 Tension =       -0.105
 Sphere =   18 Type =  CH2 Surf =        3.661 Tension =       -0.139
 Sphere =   19 Type =  CH2 Surf =        3.421 Tension =       -0.139
 Sphere =   20 Type =  Cl  Surf =       32.172 Tension =       -0.112
 Sphere =   21 Type =  CH2 Surf =        3.623 Tension =       -0.139
 Sphere =   22 Type =  CH2 Surf =        3.437 Tension =       -0.139
 Sphere =   23 Type =  Cl  Surf =       31.992 Tension =       -0.112
 Sphere =   24 Type =  CH3 Surf =       10.130 Tension =       -0.140
 Sphere =   25 Type =  CH3 Surf =        9.650 Tension =       -0.140
 Sphere =   26 Type =  CH3 Surf =       10.129 Tension =       -0.140
 Sphere =   27 Type =  CH3 Surf =       10.119 Tension =       -0.140
 Sphere =   28 Type =  CH3 Surf =       10.150 Tension =       -0.140
 Sphere =   29 Type =  CH3 Surf =       10.121 Tension =       -0.140
 Sphere =   30 Type =  CH3 Surf =       10.132 Tension =       -0.140
 Sphere =   31 Type =  CH3 Surf =        9.654 Tension =       -0.140
 Sphere =   32 Type =  CH3 Surf =       10.131 Tension =       -0.140
 Sphere =   33 Type =  CH2 Surf =       10.029 Tension =       -0.139
 Sphere =   34 Type =  CH2 Surf =       10.015 Tension =       -0.139
 Sphere =   35 Type =  CH2 Surf =       10.054 Tension =       -0.139
 Sphere =   36 Type =  CH2 Surf =       10.054 Tension =       -0.139
 Sphere =   37 Type =  CH2 Surf =       10.012 Tension =       -0.139
 Sphere =   38 Type =  CH2 Surf =        9.974 Tension =       -0.139
 Sphere =   39 Type =  CH  Surf =       10.213 Tension =       -0.140
 Sphere =   40 Type =  CH  Surf =        9.246 Tension =       -0.140
 Sphere =   41 Type =  CH  Surf =        9.478 Tension =       -0.140
 Sphere =   42 Type =  CH  Surf =       10.221 Tension =       -0.140
 Sphere =   43 Type =  CH2 Surf =        9.242 Tension =       -0.139
 Sphere =   44 Type =  CH2 Surf =        9.248 Tension =       -0.139
 Sphere =   45 Type =  CH2 Surf =        9.817 Tension =       -0.139
 Sphere =   46 Type =  CH2 Surf =        9.713 Tension =       -0.139
 Sphere =   47 Type =  CH2 Surf =        9.324 Tension =       -0.139
 Sphere =   48 Type =  CH2 Surf =        9.462 Tension =       -0.139
 Sphere =   49 Type =  CH2 Surf =        9.783 Tension =       -0.139
 Sphere =   50 Type =  CH2 Surf =        9.785 Tension =       -0.139
 PCM non-electrostatic energy =         0.0054658471 Hartrees.
 Nuclear repulsion after PCM non-electrostatic terms =     2076.9810953434 Hartrees.
 Leave Link  301 at Tue Mar  1 20:00:18 2022, MaxMem=   104857600 cpu:               0.1 elap:               0.1
 (Enter /dades/curu/g16A03_MST/g16/l302.exe)
 NPDir=0 NMtPBC=     1 NCelOv=     1 NCel=       1 NClECP=     1 NCelD=      1
         NCelK=      1 NCelE2=     1 NClLst=     1 CellRange=     0.0.
 One-electron integrals computed using PRISM.
 One-electron integral symmetry used in STVInt
 NBasis=   407 RedAO= T EigKep=  3.91D-04  NBF=   407
 NBsUse=   407 1.00D-06 EigRej= -1.00D+00 NBFU=   407
 Precomputing XC quadrature grid using
 IXCGrd= 4 IRadAn=           5 IRanWt=          -1 IRanGd=           0 AccXCQ= 0.00D+00.
 Generated NRdTot=       0 NPtTot=           0 NUsed=           0 NTot=          32
 NSgBfM=   384   384   384   384   384 MxSgAt=    50 MxSgA2=    50.
 Leave Link  302 at Tue Mar  1 20:00:21 2022, MaxMem=   104857600 cpu:               8.6 elap:               2.8
 (Enter /dades/curu/g16A03_MST/g16/l303.exe)
 DipDrv:  MaxL=1.
 Leave Link  303 at Tue Mar  1 20:00:21 2022, MaxMem=   104857600 cpu:               0.1 elap:               0.1
 (Enter /dades/curu/g16A03_MST/g16/l401.exe)
 ExpMin= 1.43D-01 ExpMax= 2.52D+04 ExpMxC= 3.78D+03 IAcc=3 IRadAn=         5 AccDes= 0.00D+00
 Harris functional with IExCor=  402 and IRadAn=       5 diagonalized for initial guess.
 HarFok:  IExCor=  402 AccDes= 0.00D+00 IRadAn=         5 IDoV= 1 UseB2=F ITyADJ=14
 ICtDFT=  3500011 ScaDFX=  1.000000  1.000000  1.000000  1.000000
 FoFCou: FMM=F IPFlag=           0 FMFlag=      100000 FMFlg1=           0
         NFxFlg=           0 DoJE=T BraDBF=F KetDBF=T FulRan=T
         wScrn=  0.000000 ICntrl=       500 IOpCl=  0 I1Cent=   200000004 NGrid=           0
         NMat0=    1 NMatS0=      1 NMatT0=    0 NMatD0=    1 NMtDS0=    0 NMtDT0=    0
 Petite list used in FoFCou.
 Harris En= -1827.69079301063    
 JPrj=0 DoOrth=F DoCkMO=F.
 Leave Link  401 at Tue Mar  1 20:00:33 2022, MaxMem=   104857600 cpu:              46.1 elap:              11.7
 (Enter /dades/curu/g16A03_MST/g16/l502.exe)
 Integral symmetry usage will be decided dynamically.
 Closed shell SCF:
 Using DIIS extrapolation, IDIIS=  1040.
 NGot=   104857600 LenX=   104519141 LenY=   104353051
 Requested convergence on RMS density matrix=1.00D-08 within2000 cycles.
 Requested convergence on MAX density matrix=1.00D-06.
 Requested convergence on             energy=1.00D-06.
 No special actions if energy rises.

 Cycle   1  Pass 1  IDiag  1:
 FoFJK:  IHMeth= 1 ICntrl=       0 DoSepK=F KAlg= 0 I1Cent=           0 FoldK=F
 IRaf= 610000000 NMat=       1 IRICut=       1 DoRegI=T DoRafI=F ISym2E= 0 IDoP0=0 IntGTp=1.
 FoFCou: FMM=F IPFlag=           0 FMFlag=      100000 FMFlg1=           0
         NFxFlg=           0 DoJE=F BraDBF=F KetDBF=F FulRan=T
         wScrn=  0.000000 ICntrl=         0 IOpCl=  0 I1Cent=           0 NGrid=           0
         NMat0=    1 NMatS0=      1 NMatT0=    0 NMatD0=    1 NMtDS0=    0 NMtDT0=    0
 Symmetry not used in FoFCou.
 Inv3:  Mode=1 IEnd=    38170467.
 Iteration    1 A*A^-1 deviation from unit magnitude is 5.77D-15 for   3552.
 Iteration    1 A*A^-1 deviation from orthogonality  is 3.82D-15 for   3555   3419.
 Iteration    1 A^-1*A deviation from unit magnitude is 6.22D-15 for   3552.
 Iteration    1 A^-1*A deviation from orthogonality  is 7.32D-15 for   2288   2232.
 E= -1827.20267225202    
 DIIS: error= 2.98D-02 at cycle   1 NSaved=   1.
 NSaved= 1 IEnMin= 1 EnMin= -1827.20267225202     IErMin= 1 ErrMin= 2.98D-02
 ErrMax= 2.98D-02  0.00D+00 EMaxC= 1.00D-01 BMatC= 6.03D-01 BMatP= 6.03D-01
 IDIUse=3 WtCom= 7.02D-01 WtEn= 2.98D-01
 Coeff-Com:  0.100D+01
 Coeff-En:   0.100D+01
 Coeff:      0.100D+01
 Gap=     0.279 Goal=   None    Shift=    0.000
 GapD=    0.279 DampG=1.000 DampE=0.500 DampFc=0.5000 IDamp=-1.
 Damping current iteration by 5.00D-01
 RMSDP=3.96D-03 MaxDP=1.76D-01              OVMax= 2.14D-01

 Cycle   2  Pass 1  IDiag  1:
 E= -1827.46543724364     Delta-E=       -0.262764991624 Rises=F Damp=T
 DIIS: error= 9.54D-03 at cycle   2 NSaved=   2.
 NSaved= 2 IEnMin= 2 EnMin= -1827.46543724364     IErMin= 2 ErrMin= 9.54D-03
 ErrMax= 9.54D-03  0.00D+00 EMaxC= 1.00D-01 BMatC= 4.49D-02 BMatP= 6.03D-01
 IDIUse=3 WtCom= 9.05D-01 WtEn= 9.54D-02
 Coeff-Com:  0.822D-01 0.918D+00
 Coeff-En:   0.122D+00 0.878D+00
 Coeff:      0.860D-01 0.914D+00
 Gap=     0.186 Goal=   None    Shift=    0.000
 RMSDP=9.25D-04 MaxDP=5.73D-02 DE=-2.63D-01 OVMax= 1.26D-01

 Cycle   3  Pass 1  IDiag  1:
 E= -1827.76826930971     Delta-E=       -0.302832066073 Rises=F Damp=F
 DIIS: error= 1.11D-02 at cycle   3 NSaved=   3.
 NSaved= 3 IEnMin= 3 EnMin= -1827.76826930971     IErMin= 2 ErrMin= 9.54D-03
 ErrMax= 1.11D-02  0.00D+00 EMaxC= 1.00D-01 BMatC= 4.46D-02 BMatP= 4.49D-02
 IDIUse=3 WtCom= 8.89D-01 WtEn= 1.11D-01
 Coeff-Com: -0.119D-02 0.499D+00 0.502D+00
 Coeff-En:   0.000D+00 0.000D+00 0.100D+01
 Coeff:     -0.106D-02 0.444D+00 0.557D+00
 Gap=     0.191 Goal=   None    Shift=    0.000
 RMSDP=6.16D-04 MaxDP=6.38D-02 DE=-3.03D-01 OVMax= 8.58D-02

 Cycle   4  Pass 1  IDiag  1:
 E= -1827.79194858664     Delta-E=       -0.023679276929 Rises=F Damp=F
 DIIS: error= 5.86D-03 at cycle   4 NSaved=   4.
 NSaved= 4 IEnMin= 4 EnMin= -1827.79194858664     IErMin= 4 ErrMin= 5.86D-03
 ErrMax= 5.86D-03  0.00D+00 EMaxC= 1.00D-01 BMatC= 1.50D-02 BMatP= 4.46D-02
 IDIUse=3 WtCom= 9.41D-01 WtEn= 5.86D-02
 Coeff-Com: -0.961D-02 0.877D-01 0.372D+00 0.550D+00
 Coeff-En:   0.000D+00 0.000D+00 0.286D+00 0.714D+00
 Coeff:     -0.905D-02 0.826D-01 0.367D+00 0.560D+00
 Gap=     0.189 Goal=   None    Shift=    0.000
 RMSDP=2.56D-04 MaxDP=2.50D-02 DE=-2.37D-02 OVMax= 3.58D-02

 Cycle   5  Pass 1  IDiag  1:
 E= -1827.80297947205     Delta-E=       -0.011030885404 Rises=F Damp=F
 DIIS: error= 1.03D-03 at cycle   5 NSaved=   5.
 NSaved= 5 IEnMin= 5 EnMin= -1827.80297947205     IErMin= 5 ErrMin= 1.03D-03
 ErrMax= 1.03D-03  0.00D+00 EMaxC= 1.00D-01 BMatC= 5.58D-04 BMatP= 1.50D-02
 IDIUse=3 WtCom= 9.90D-01 WtEn= 1.03D-02
 Coeff-Com: -0.424D-02 0.176D-01 0.166D+00 0.304D+00 0.517D+00
 Coeff-En:   0.000D+00 0.000D+00 0.000D+00 0.000D+00 0.100D+01
 Coeff:     -0.420D-02 0.175D-01 0.165D+00 0.300D+00 0.522D+00
 Gap=     0.189 Goal=   None    Shift=    0.000
 RMSDP=5.98D-05 MaxDP=4.47D-03 DE=-1.10D-02 OVMax= 6.59D-03

 Cycle   6  Pass 1  IDiag  1:
 E= -1827.80342027588     Delta-E=       -0.000440803833 Rises=F Damp=F
 DIIS: error= 2.54D-04 at cycle   6 NSaved=   6.
 NSaved= 6 IEnMin= 6 EnMin= -1827.80342027588     IErMin= 6 ErrMin= 2.54D-04
 ErrMax= 2.54D-04  0.00D+00 EMaxC= 1.00D-01 BMatC= 3.86D-05 BMatP= 5.58D-04
 IDIUse=3 WtCom= 9.97D-01 WtEn= 2.54D-03
 Coeff-Com: -0.131D-02 0.176D-02 0.500D-01 0.102D+00 0.271D+00 0.577D+00
 Coeff-En:   0.000D+00 0.000D+00 0.000D+00 0.000D+00 0.000D+00 0.100D+01
 Coeff:     -0.131D-02 0.175D-02 0.498D-01 0.102D+00 0.270D+00 0.578D+00
 Gap=     0.189 Goal=   None    Shift=    0.000
 RMSDP=1.59D-05 MaxDP=1.25D-03 DE=-4.41D-04 OVMax= 1.73D-03

 Cycle   7  Pass 1  IDiag  1:
 E= -1827.80344922616     Delta-E=       -0.000028950277 Rises=F Damp=F
 DIIS: error= 6.27D-05 at cycle   7 NSaved=   7.
 NSaved= 7 IEnMin= 7 EnMin= -1827.80344922616     IErMin= 7 ErrMin= 6.27D-05
 ErrMax= 6.27D-05  0.00D+00 EMaxC= 1.00D-01 BMatC= 3.46D-06 BMatP= 3.86D-05
 IDIUse=1 WtCom= 1.00D+00 WtEn= 0.00D+00
 Coeff-Com: -0.367D-03-0.291D-03 0.137D-01 0.305D-01 0.105D+00 0.309D+00
 Coeff-Com:  0.543D+00
 Coeff:     -0.367D-03-0.291D-03 0.137D-01 0.305D-01 0.105D+00 0.309D+00
 Coeff:      0.543D+00
 Gap=     0.189 Goal=   None    Shift=    0.000
 RMSDP=5.60D-06 MaxDP=2.41D-04 DE=-2.90D-05 OVMax= 5.05D-04

 Cycle   8  Pass 1  IDiag  1:
 E= -1827.80345225448     Delta-E=       -0.000003028322 Rises=F Damp=F
 DIIS: error= 1.50D-05 at cycle   8 NSaved=   8.
 NSaved= 8 IEnMin= 8 EnMin= -1827.80345225448     IErMin= 8 ErrMin= 1.50D-05
 ErrMax= 1.50D-05  0.00D+00 EMaxC= 1.00D-01 BMatC= 1.78D-07 BMatP= 3.46D-06
 IDIUse=1 WtCom= 1.00D+00 WtEn= 0.00D+00
 Coeff-Com: -0.481D-04-0.273D-03 0.180D-02 0.463D-02 0.237D-01 0.880D-01
 Coeff-Com:  0.238D+00 0.644D+00
 Coeff:     -0.481D-04-0.273D-03 0.180D-02 0.463D-02 0.237D-01 0.880D-01
 Coeff:      0.238D+00 0.644D+00
 Gap=     0.189 Goal=   None    Shift=    0.000
 RMSDP=1.54D-06 MaxDP=8.63D-05 DE=-3.03D-06 OVMax= 2.30D-04

 Cycle   9  Pass 1  IDiag  1:
 E= -1827.80345240286     Delta-E=       -0.000000148375 Rises=F Damp=F
 DIIS: error= 5.40D-06 at cycle   9 NSaved=   9.
 NSaved= 9 IEnMin= 9 EnMin= -1827.80345240286     IErMin= 9 ErrMin= 5.40D-06
 ErrMax= 5.40D-06  0.00D+00 EMaxC= 1.00D-01 BMatC= 3.66D-08 BMatP= 1.78D-07
 IDIUse=1 WtCom= 1.00D+00 WtEn= 0.00D+00
 Coeff-Com:  0.938D-05-0.140D-03-0.379D-03-0.586D-03 0.266D-02 0.180D-01
 Coeff-Com:  0.774D-01 0.367D+00 0.536D+00
[...]
              31         32         33         34         35         36
     1  C   -0.006309   0.005639   0.000012   0.000016   0.000000  -0.000001
     2  C   -0.024708  -0.026978  -0.000147  -0.000108   0.000001  -0.000000
     3  C    0.005087  -0.006212  -0.000006  -0.000011  -0.000000  -0.000000
     4  C    0.363359   0.363711   0.000031   0.000016  -0.000001   0.000001
     5  O   -0.004009   0.000100   0.002154   0.002851   0.000075   0.000064
     6  C    0.001689   0.000508  -0.024607  -0.025494  -0.002635  -0.002414
     7  O    0.012855  -0.000052   0.000801   0.001136   0.003775   0.003026
     8  C    0.000264  -0.000020   0.358545   0.358753  -0.037251  -0.037942
     9  C   -0.000007   0.000001  -0.033233  -0.033726   0.374859   0.375365
    10  C   -0.000000  -0.000000  -0.002429  -0.002447  -0.039472  -0.039827
    11  C   -0.000000   0.000000   0.000062   0.000052  -0.001371  -0.000606
    12  C    0.000000   0.000000  -0.000001   0.000002  -0.000050   0.003361
    13  C   -0.000000   0.000000  -0.000000  -0.000000  -0.000005  -0.000135
    14  C   -0.000000  -0.000000   0.000000   0.000000  -0.000005  -0.000005
    15  C    0.000000   0.000000  -0.000000  -0.000000  -0.000142  -0.000015
    16  C    0.000000   0.000000   0.000001  -0.000001   0.003684  -0.000100
    17  N    0.000000   0.000000   0.000000   0.000000   0.000000   0.000000
    18  C    0.000000   0.000000   0.000000  -0.000000   0.000000   0.000000
    19  C    0.000000   0.000000  -0.000000   0.000000   0.000000   0.000000
    20  Cl  -0.000000   0.000000  -0.000000  -0.000000  -0.000000  -0.000000
    21  C    0.000000   0.000000  -0.000000   0.000000   0.000000   0.000000
    22  C    0.000000   0.000000   0.000000  -0.000000   0.000000   0.000000
    23  Cl  -0.000000   0.000000  -0.000000   0.000000  -0.000000  -0.000000
    24  H   -0.000015  -0.000192  -0.000000   0.000020  -0.000000  -0.000000
    25  H    0.003273  -0.000014  -0.000003  -0.000031  -0.000001  -0.000001
    26  H    0.000290  -0.000059   0.000000  -0.000001  -0.000000   0.000000
    27  H   -0.000186  -0.000062   0.000001   0.000012  -0.000000   0.000000
    28  H   -0.000003   0.000194  -0.000000  -0.000000  -0.000000  -0.000000
    29  H   -0.000068   0.004557   0.000009   0.000001  -0.000000  -0.000000
    30  H   -0.024540  -0.026408  -0.000001   0.000000   0.000000  -0.000000
    31  H    0.529355  -0.028119  -0.000033  -0.000004  -0.000001  -0.000001
    32  H   -0.028119   0.559252   0.000020  -0.000001  -0.000000  -0.000000
    33  H   -0.000033   0.000020   0.540623  -0.029359  -0.004295   0.005044
    34  H   -0.000004  -0.000001  -0.029359   0.542404   0.005047  -0.004295
    35  H   -0.000001  -0.000000  -0.004295   0.005047   0.585366  -0.036059
    36  H   -0.000001  -0.000000   0.005044  -0.004295  -0.036059   0.586739
    37  H    0.000000  -0.000000   0.004588  -0.000336  -0.004903   0.005720
    38  H   -0.000000   0.000000  -0.000341   0.004502   0.005630  -0.004826
    39  H    0.000000  -0.000000   0.000000   0.000003   0.000026   0.000460
    40  H    0.000000  -0.000000   0.000000  -0.000000   0.000000   0.000002
    41  H    0.000000  -0.000000  -0.000000   0.000000   0.000003   0.000000
    42  H    0.000000   0.000000   0.000003   0.000000   0.000693   0.000036
    43  H   -0.000000  -0.000000  -0.000000  -0.000000  -0.000000  -0.000000
    44  H   -0.000000  -0.000000  -0.000000  -0.000000  -0.000000  -0.000000
    45  H    0.000000   0.000000   0.000000  -0.000000   0.000000   0.000000
    46  H    0.000000   0.000000   0.000000  -0.000000   0.000000   0.000000
    47  H   -0.000000  -0.000000  -0.000000  -0.000000  -0.000000  -0.000000
    48  H   -0.000000  -0.000000  -0.000000  -0.000000  -0.000000  -0.000000
    49  H   -0.000000  -0.000000  -0.000000  -0.000000  -0.000000  -0.000000
    50  H    0.000000   0.000000  -0.000000   0.000000   0.000000   0.000000
              37         38         39         40         41         42
     1  C   -0.000000   0.000000  -0.000000  -0.000000  -0.000000   0.000000
     2  C    0.000000   0.000000   0.000000   0.000000   0.000000   0.000000
     3  C    0.000000   0.000000  -0.000000  -0.000000  -0.000000  -0.000000
     4  C    0.000000  -0.000000   0.000000  -0.000000  -0.000000  -0.000000
     5  O   -0.000001  -0.000001  -0.000000  -0.000000  -0.000000  -0.000000
     6  C   -0.000028  -0.000030   0.000000   0.000000   0.000000   0.000001
     7  O   -0.000001  -0.000002  -0.000000  -0.000000  -0.000000  -0.000000
     8  C   -0.003867  -0.003950  -0.000042  -0.000000  -0.000000  -0.000053
     9  C   -0.038926  -0.038107   0.000350  -0.000000  -0.000000   0.000435
    10  C    0.358972   0.359322  -0.009057  -0.000167  -0.000164  -0.008657
    11  C   -0.028786  -0.029914  -0.042991   0.003497   0.003401  -0.043588
    12  C    0.003748  -0.004882   0.355936  -0.034128   0.000627   0.006272
    13  C   -0.000227   0.000136  -0.042178   0.349733   0.005216   0.000557
    14  C    0.000017   0.000013   0.003645  -0.041889  -0.041993   0.003618
    15  C    0.000087  -0.000220   0.000539   0.005241   0.349701  -0.041875
    16  C   -0.004919   0.004062   0.006351   0.000613  -0.033851   0.356213
    17  N   -0.000000  -0.000000  -0.000103  -0.011236  -0.011234  -0.000105
    18  C    0.000000   0.000000   0.000004   0.005898  -0.000128   0.000002
    19  C   -0.000000   0.000000  -0.000001  -0.003158  -0.000004  -0.000000
    20  Cl  -0.000000  -0.000000  -0.000000   0.000663   0.000000   0.000000
    21  C    0.000000   0.000000   0.000002  -0.000105   0.006896   0.000005
    22  C    0.000000  -0.000000  -0.000000  -0.000003  -0.003735  -0.000001
    23  Cl  -0.000000  -0.000000   0.000000  -0.000000   0.000067  -0.000000
    24  H    0.000000  -0.000000   0.000000  -0.000000  -0.000000  -0.000000
    25  H   -0.000000   0.000000   0.000000   0.000000   0.000000   0.000000
    26  H    0.000000   0.000000   0.000000   0.000000   0.000000   0.000000
    27  H    0.000000  -0.000000   0.000000  -0.000000  -0.000000  -0.000000
    28  H    0.000000   0.000000   0.000000   0.000000   0.000000   0.000000
    29  H   -0.000000   0.000000  -0.000000  -0.000000  -0.000000   0.000000
    30  H   -0.000000   0.000000   0.000000   0.000000   0.000000   0.000000
    31  H    0.000000  -0.000000   0.000000   0.000000   0.000000   0.000000
    32  H   -0.000000   0.000000  -0.000000  -0.000000  -0.000000   0.000000
    33  H    0.004588  -0.000341   0.000000   0.000000  -0.000000   0.000003
    34  H   -0.000336   0.004502   0.000003  -0.000000   0.000000   0.000000
    35  H   -0.004903   0.005630   0.000026   0.000000   0.000003   0.000693
    36  H    0.005720  -0.004826   0.000460   0.000002   0.000000   0.000036
    37  H    0.591612  -0.035744   0.000046   0.000003  -0.000008   0.004720
    38  H   -0.035744   0.590744   0.005472  -0.000009   0.000003   0.000036
    39  H    0.000046   0.005472   0.586191  -0.005771   0.000017  -0.000192
    40  H    0.000003  -0.000009  -0.005771   0.579253  -0.000168   0.000017
    41  H   -0.000008   0.000003   0.000017  -0.000168   0.578568  -0.005694
    42  H    0.004720   0.000036  -0.000192   0.000017  -0.005694   0.586308
    43  H   -0.000000  -0.000000  -0.000000   0.000117  -0.000003  -0.000000
    44  H   -0.000000  -0.000000  -0.000002   0.001908   0.000009   0.000000
    45  H    0.000000   0.000000   0.000000   0.002359   0.000000  -0.000000
    46  H    0.000000  -0.000000  -0.000000   0.000071  -0.000000   0.000000
    47  H   -0.000000   0.000000  -0.000000  -0.000004   0.000114  -0.000000
    48  H   -0.000000  -0.000000   0.000000   0.000005   0.002649  -0.000000
    49  H   -0.000000  -0.000000   0.000000   0.000000   0.000258  -0.000000
    50  H    0.000000   0.000000  -0.000000  -0.000001   0.001975   0.000001
              43         44         45         46         47         48
     1  C    0.000000   0.000000  -0.000000   0.000000  -0.000000   0.000000
     2  C    0.000000   0.000000  -0.000000   0.000000   0.000000   0.000000
     3  C    0.000000  -0.000000   0.000000   0.000000   0.000000  -0.000000
     4  C   -0.000000   0.000000  -0.000000   0.000000  -0.000000   0.000000
     5  O   -0.000000  -0.000000   0.000000   0.000000  -0.000000  -0.000000
     6  C    0.000000   0.000000  -0.000000   0.000000   0.000000   0.000000
     7  O   -0.000000   0.000000  -0.000000  -0.000000  -0.000000   0.000000
     8  C   -0.000000  -0.000000   0.000000  -0.000000  -0.000000  -0.000000
     9  C    0.000000   0.000000  -0.000000   0.000000   0.000000   0.000000
    10  C    0.000000   0.000000  -0.000000  -0.000000  -0.000000   0.000000
    11  C    0.000000  -0.000011  -0.000002   0.000000   0.000000  -0.000009
    12  C   -0.000009   0.000127   0.000042  -0.000004   0.000002  -0.000015
    13  C    0.000337   0.006472   0.003611  -0.000058  -0.000148   0.000100
    14  C    0.003826  -0.003720   0.001737   0.000390   0.003629  -0.003915
    15  C   -0.000115   0.000249  -0.000063   0.000003   0.000326   0.005143
    16  C    0.000002  -0.000030  -0.000002  -0.000000  -0.000009   0.000122
    17  N   -0.034871  -0.040630  -0.002268  -0.000194  -0.036947  -0.042860
    18  C    0.379061   0.373341  -0.036399  -0.030997  -0.005296   0.001364
    19  C   -0.049459  -0.061076   0.372297   0.365642  -0.000616  -0.000219
    20  Cl   0.004424   0.006709  -0.043047  -0.039797   0.000012   0.000010
    21  C   -0.007669   0.002089  -0.000143   0.000700   0.380547   0.362453
    22  C   -0.000474  -0.000291   0.000072  -0.001051  -0.045864  -0.054476
    23  Cl   0.000335   0.000042   0.000231   0.009701  -0.001129   0.005355
    24  H   -0.000000  -0.000000   0.000000   0.000000  -0.000000  -0.000000
    25  H   -0.000000  -0.000000   0.000000  -0.000000  -0.000000  -0.000000
    26  H    0.000000   0.000000  -0.000000   0.000000   0.000000   0.000000
    27  H    0.000000  -0.000000   0.000000   0.000000   0.000000  -0.000000
    28  H    0.000000   0.000000   0.000000   0.000000   0.000000   0.000000
    29  H    0.000000  -0.000000   0.000000   0.000000   0.000000  -0.000000
    30  H    0.000000   0.000000   0.000000   0.000000   0.000000   0.000000
    31  H   -0.000000  -0.000000   0.000000   0.000000  -0.000000  -0.000000
    32  H   -0.000000  -0.000000   0.000000   0.000000  -0.000000  -0.000000
    33  H   -0.000000  -0.000000   0.000000   0.000000  -0.000000  -0.000000
    34  H   -0.000000  -0.000000  -0.000000  -0.000000  -0.000000  -0.000000
    35  H   -0.000000  -0.000000   0.000000   0.000000  -0.000000  -0.000000
    36  H   -0.000000  -0.000000   0.000000   0.000000  -0.000000  -0.000000
    37  H   -0.000000  -0.000000   0.000000   0.000000  -0.000000  -0.000000
    38  H   -0.000000  -0.000000   0.000000  -0.000000   0.000000  -0.000000
    39  H   -0.000000  -0.000002   0.000000  -0.000000  -0.000000   0.000000
    40  H    0.000117   0.001908   0.002359   0.000071  -0.000004   0.000005
    41  H   -0.000003   0.000009   0.000000  -0.000000   0.000114   0.002649
    42  H   -0.000000   0.000000  -0.000000   0.000000  -0.000000  -0.000000
    43  H    0.538000  -0.023547   0.004624  -0.004591   0.007486   0.000938
    44  H   -0.023547   0.561695  -0.005926   0.004786   0.000583   0.000183
    45  H    0.004624  -0.005926   0.519372  -0.029522  -0.000006  -0.000001
    46  H   -0.004591   0.004786  -0.029522   0.500353   0.000234   0.000001
    47  H    0.007486   0.000583  -0.000006   0.000234   0.527133  -0.021832
    48  H    0.000938   0.000183  -0.000001   0.000001  -0.021832   0.562070
    49  H    0.000012   0.000006  -0.000000   0.000042  -0.001113   0.001548
    50  H   -0.000002  -0.000001  -0.000005   0.000042   0.004372  -0.003450
              49         50
     1  C    0.000000  -0.000000
     2  C    0.000000  -0.000000
     3  C    0.000000   0.000000
     4  C    0.000000  -0.000000
     5  O    0.000000   0.000000
     6  C    0.000000  -0.000000
     7  O    0.000000  -0.000000
     8  C   -0.000000   0.000000
     9  C    0.000000  -0.000000
    10  C    0.000000  -0.000000
    11  C    0.000000  -0.000007
    12  C   -0.000000  -0.000005
    13  C    0.000004  -0.000088
    14  C    0.000181   0.002079
    15  C   -0.000258   0.004750
    16  C   -0.000008   0.000119
    17  N    0.003812  -0.005185
    18  C   -0.000156   0.000083
    19  C   -0.000021  -0.000016
    20  Cl   0.000000  -0.000001
    21  C   -0.027710  -0.034599
    22  C    0.356642   0.371567
    23  Cl  -0.041394  -0.045335
    24  H    0.000000   0.000000
    25  H   -0.000000   0.000000
    26  H    0.000000   0.000000
    27  H    0.000000   0.000000
    28  H    0.000000   0.000000
    29  H    0.000000   0.000000
    30  H    0.000000  -0.000000
    31  H   -0.000000   0.000000
    32  H   -0.000000   0.000000
    33  H   -0.000000  -0.000000
    34  H   -0.000000   0.000000
    35  H   -0.000000   0.000000
    36  H   -0.000000   0.000000
    37  H   -0.000000   0.000000
    38  H   -0.000000   0.000000
    39  H    0.000000  -0.000000
    40  H    0.000000  -0.000001
    41  H    0.000258   0.001975
    42  H   -0.000000   0.000001
    43  H    0.000012  -0.000002
    44  H    0.000006  -0.000001
    45  H   -0.000000  -0.000005
    46  H    0.000042   0.000042
    47  H   -0.001113   0.004372
    48  H    0.001548  -0.003450
    49  H    0.518421  -0.027396
    50  H   -0.027396   0.511408
 Mulliken charges:
               1
     1  C   -0.468063
     2  C    0.306044
     3  C   -0.460348
     4  C   -0.468363
     5  O   -0.505389
     6  C    0.656449
     7  O   -0.534498
     8  C   -0.362550
     9  C   -0.247942
    10  C   -0.353979
    11  C    0.158797
    12  C   -0.217401
    13  C   -0.209100
    14  C    0.351195
    15  C   -0.212808
    16  C   -0.217121
    17  N   -0.487819
    18  C   -0.151417
    19  C   -0.369355
    20  Cl  -0.136201
    21  C   -0.158136
    22  C   -0.353549
    23  Cl  -0.133928
    24  H    0.154128
    25  H    0.171889
    26  H    0.156462
    27  H    0.157039
    28  H    0.159566
    29  H    0.157033
    30  H    0.156701
    31  H    0.171832
    32  H    0.154134
    33  H    0.182563
    34  H    0.180998
    35  H    0.147030
    36  H    0.146409
    37  H    0.148233
    38  H    0.148107
    39  H    0.141293
    40  H    0.147257
    41  H    0.147478
    42  H    0.141248
    43  H    0.181577
    44  H    0.177035
    45  H    0.213037
    46  H    0.224248
    47  H    0.188525
    48  H    0.184836
    49  H    0.217130
    50  H    0.219694
 Sum of Mulliken charges =  -0.00000
 Mulliken charges with hydrogens summed into heavy atoms:
               1
     1  C    0.014416
     2  C    0.306044
     3  C    0.013290
     4  C    0.014303
     5  O   -0.505389
     6  C    0.656449
     7  O   -0.534498
     8  C    0.001011
     9  C    0.045498
    10  C   -0.057638
    11  C    0.158797
    12  C   -0.076108
    13  C   -0.061844
    14  C    0.351195
    15  C   -0.065331
    16  C   -0.075873
    17  N   -0.487819
    18  C    0.207195
    19  C    0.067931
    20  Cl  -0.136201
    21  C    0.215224
    22  C    0.083275
    23  Cl  -0.133928
 Electronic spatial extent (au):  <R**2>=          20858.7188
 Charge=             -0.0000 electrons
 Dipole moment (field-independent basis, Debye):
    X=             -3.7235    Y=             -3.4218    Z=              0.1359  Tot=              5.0588
 Quadrupole moment (field-independent basis, Debye-Ang):
   XX=           -152.9330   YY=           -150.7261   ZZ=           -153.6009
   XY=            -15.5645   XZ=             19.1669   YZ=             -5.9259
 Traceless Quadrupole moment (field-independent basis, Debye-Ang):
   XX=             -0.5130   YY=              1.6939   ZZ=             -1.1809
   XY=            -15.5645   XZ=             19.1669   YZ=             -5.9259
 Octapole moment (field-independent basis, Debye-Ang**2):
  XXX=           -490.4046  YYY=            -49.7457  ZZZ=              6.5052  XYY=            -45.6274
  XXY=            -69.2931  XXZ=             53.1144  XZZ=             24.9452  YZZ=              0.0772
  YYZ=              8.2967  XYZ=            -23.3191
 Hexadecapole moment (field-independent basis, Debye-Ang**3):
 XXXX=         -23596.4628 YYYY=          -2154.8373 ZZZZ=           -816.1205 XXXY=           -439.7301
 XXXZ=            187.1336 YYYX=           -235.7878 YYYZ=            -27.1560 ZZZX=             48.5726
 ZZZY=            -10.1697 XXYY=          -4672.1736 XXZZ=          -4187.9227 YYZZ=           -484.9028
 XXYZ=           -123.6558 YYXZ=             70.3620 ZZXY=            -11.6897
 N-N= 2.076883423554D+03 E-N=-8.447639680241D+03  KE= 1.816406987825D+03
 No NMR shielding tensors so no spin-rotation constants.
 Leave Link  601 at Tue Mar  1 23:19:57 2022, MaxMem=   104857600 cpu:               0.6 elap:               0.4
 (Enter /dades/curu/g16A03_MST/g16/l9999.exe)
 1\1\GINC-PIRINEUS6\SP\RB3LYP\6-31G(d)\C18H27Cl2N1O2\UBATOR01\01-Mar-20
 22\0\\#p b3lyp/6-31G(d) scrf=(iefpcm,read,solvent=water) geom=allcheck
  guess=read\\24.n.pdb.xyz\\0,1\C,0,6.3177100889,0.1130668864,1.9740369
 228\C,0,6.3353668346,0.3102822789,0.4586726331\C,0,7.4620060971,-0.496
 4528315,-0.1820437102\C,0,6.4227807208,1.7828989588,0.0591589637\O,0,5
 .1227166901,-0.2951173597,-0.1372281556\C,0,3.8891887762,0.1359458848,
 0.1693517628\O,0,3.6345677821,1.0357848908,0.9515471173\C,0,2.84854064
 34,-0.6541028336,-0.6006339403\C,0,1.4112864975,-0.2648317415,-0.26063
 73902\C,0,0.3825248477,-1.0822007943,-1.0629782755\C,0,-1.0473932286,-
 0.7181638249,-0.7340607168\C,0,-1.7672222512,-1.3989440246,0.254894885
 2\C,0,-3.0736932422,-1.0529103633,0.5893910661\C,0,-3.73091546,0.01739
 93468,-0.055263635\C,0,-3.01337203,0.6955819055,-1.0649133329\C,0,-1.7
 069055915,0.3312521787,-1.3842986214\N,0,-5.0338515392,0.3850490731,0.
 2899413643\C,0,-5.662633186,-0.1840739377,1.4731200855\C,0,-6.35772124
 56,-1.5070929242,1.1631924718\Cl,0,-7.1033933973,-2.2001066726,2.67211
 164\C,0,-5.6621097064,1.5296421168,-0.3478227989\C,0,-6.1915372557,1.2
 9987026,-1.7589245737\Cl,0,-7.6291681222,0.1755509911,-1.7880841989\H,
 0,6.2080837041,-0.9474473627,2.2183663428\H,0,5.4993197526,0.668692337
 8,2.4309864679\H,0,7.2631957436,0.4643791233,2.3972937637\H,0,7.369365
 9111,-1.5570192955,0.0682458555\H,0,8.4287268496,-0.1387905009,0.18149
 92966\H,0,7.4419549338,-0.3920060213,-1.2703329817\H,0,7.367134514,2.2
 019211486,0.4183480142\H,0,5.5990521658,2.3524581408,0.4883862813\H,0,
 6.3966759038,1.8842118684,-1.0297745411\H,0,3.0496099387,-0.5127335107
 ,-1.6695652218\H,0,3.0249145808,-1.7183364816,-0.4063411459\H,0,1.2631
 377932,0.8021374541,-0.4583091183\H,0,1.2355070169,-0.4090089541,0.810
 8185641\H,0,0.5663018349,-0.930826507,-2.1337783259\H,0,0.543184114,-2
 .1488806055,-0.8655036227\H,0,-1.3008054497,-2.2306185153,0.7765200099
 \H,0,-3.5841255392,-1.6300171469,1.3497208937\H,0,-3.4710155798,1.5110
 617944,-1.609430468\H,0,-1.1926513825,0.8815001146,-2.1679521602\H,0,-
 6.3995217007,0.5263544636,1.8528854349\H,0,-4.919641908,-0.3332267046,
 2.2626063931\H,0,-5.6590989391,-2.2547627848,0.7917499459\H,0,-7.16019
 02092,-1.3705046924,0.4420497546\H,0,-6.4805191953,1.8694531285,0.2877
 432029\H,0,-4.9511710317,2.3642093012,-0.4131956416\H,0,-6.5365407596,
 2.239356792,-2.1890157784\H,0,-5.4476557844,0.8491159521,-2.412550779\
 \Version=ES64L-G16RevA.03\State=1-A\HF=-1827.8103428\RMSD=3.663e-09\Di
 pole=1.4334381,0.868426,-1.0734958\Quadrupole=1.4156691,2.0417677,-3.4
 574369,-18.3801186,1.8118241,-2.7311593\PG=C01 [X(C18H27Cl2N1O2)]\\@


 ROSE IS A RED
 TY COBB IS BLUE
 'CAUSE PETE JUST HIT
 NO. 4592.
 Job cpu time:       0 days  0 hours 20 minutes 27.7 seconds.
 Elapsed time:       0 days  0 hours  6 minutes 42.4 seconds.
 File lengths (MBytes):  RWF=    354 Int=      0 D2E=      0 Chk=     30 Scr=      1
 Normal termination of Gaussian 16 at Tue Mar  1 23:19:57 2022.
