 Entering Gaussian System, Link 0=g16
 Input=251.n.pdb.xyz.mst.wat.gau
 Output=251.n.pdb.xyz.mst.wat.log
 Initial command:
 /dades/curu/g16A03_MST/g16/l1.exe "/tmp/ubator01/1954806/Gau-36020.inp" -scrdir="/tmp/ubator01/1954806/"
 Entering Link 1 = /dades/curu/g16A03_MST/g16/l1.exe PID=     36021.
  
 Copyright (c) 1988,1990,1992,1993,1995,1998,2003,2009,2016,
            Gaussian, Inc.  All Rights Reserved.
  
 This is part of the Gaussian(R) 16 program.  It is based on
 the Gaussian(R) 09 system (copyright 2009, Gaussian, Inc.),
 the Gaussian(R) 03 system (copyright 2003, Gaussian, Inc.),
 the Gaussian(R) 98 system (copyright 1998, Gaussian, Inc.),
 the Gaussian(R) 94 system (copyright 1995, Gaussian, Inc.),
 the Gaussian 92(TM) system (copyright 1992, Gaussian, Inc.),
 the Gaussian 90(TM) system (copyright 1990, Gaussian, Inc.),
 the Gaussian 88(TM) system (copyright 1988, Gaussian, Inc.),
 the Gaussian 86(TM) system (copyright 1986, Carnegie Mellon
 University), and the Gaussian 82(TM) system (copyright 1983,
 Carnegie Mellon University). Gaussian is a federally registered
 trademark of Gaussian, Inc.
  
 This software contains proprietary and confidential information,
 including trade secrets, belonging to Gaussian, Inc.
  
 This software is provided under written license and may be
 used, copied, transmitted, or stored only in accord with that
 written license.
  
 The following legend is applicable only to US Government
 contracts under FAR:
  
                    RESTRICTED RIGHTS LEGEND
  
 Use, reproduction and disclosure by the US Government is
 subject to restrictions as set forth in subparagraphs (a)
 and (c) of the Commercial Computer Software - Restricted
 Rights clause in FAR 52.227-19.
  
 Gaussian, Inc.
 340 Quinnipiac St., Bldg. 40, Wallingford CT 06492
  
  
 ---------------------------------------------------------------
 Warning -- This program may not be used in any manner that
 competes with the business of Gaussian, Inc. or will provide
 assistance to any competitor of Gaussian, Inc.  The licensee
 of this program is prohibited from giving any competitor of
 Gaussian, Inc. access to this program.  By using this program,
 the user acknowledges that Gaussian, Inc. is engaged in the
 business of creating and licensing software in the field of
 computational chemistry and represents and warrants to the
 licensee that it is not a competitor of Gaussian, Inc. and that
 it will not use this program in any manner prohibited above.
 ---------------------------------------------------------------
  

 Cite this work as:
 Gaussian 16, Revision A.03,
 M. J. Frisch, G. W. Trucks, H. B. Schlegel, G. E. Scuseria, 
 M. A. Robb, J. R. Cheeseman, G. Scalmani, V. Barone, 
 G. A. Petersson, H. Nakatsuji, X. Li, M. Caricato, A. V. Marenich, 
 J. Bloino, B. G. Janesko, R. Gomperts, B. Mennucci, H. P. Hratchian, 
 J. V. Ortiz, A. F. Izmaylov, J. L. Sonnenberg, D. Williams-Young, 
 F. Ding, F. Lipparini, F. Egidi, J. Goings, B. Peng, A. Petrone, 
 T. Henderson, D. Ranasinghe, V. G. Zakrzewski, J. Gao, N. Rega, 
 G. Zheng, W. Liang, M. Hada, M. Ehara, K. Toyota, R. Fukuda, 
 J. Hasegawa, M. Ishida, T. Nakajima, Y. Honda, O. Kitao, H. Nakai, 
 T. Vreven, K. Throssell, J. A. Montgomery, Jr., J. E. Peralta, 
 F. Ogliaro, M. J. Bearpark, J. J. Heyd, E. N. Brothers, K. N. Kudin, 
 V. N. Staroverov, T. A. Keith, R. Kobayashi, J. Normand, 
 K. Raghavachari, A. P. Rendell, J. C. Burant, S. S. Iyengar, 
 J. Tomasi, M. Cossi, J. M. Millam, M. Klene, C. Adamo, R. Cammi, 
 J. W. Ochterski, R. L. Martin, K. Morokuma, O. Farkas, 
 J. B. Foresman, and D. J. Fox, Gaussian, Inc., Wallingford CT, 2016.
 
 ******************************************
 Gaussian 16:  ES64L-G16RevA.03 25-Dec-2016
                 1-Mar-2022 
 ******************************************
 %nproc=4
 Will use up to    4 processors via shared memory.
 %Chk=251.n.pdb.xyz.mst.wat.chk
 %mem=800MB
 ----------------------------------------------------------------------
 #p b3lyp/6-31G(d) opt=(MaxStep=10,MaxCycles=1000) freq scf=(MaxCycle=2
 000,NoVarAcc,NoIncFock) scrf=(iefpcm,read,solvent=water)
 ----------------------------------------------------------------------
 1/6=1000,8=10,18=20,19=15,26=3,38=1,40=2/1,3;
 2/9=110,12=2,17=6,18=5,40=1/2;
 3/5=1,6=6,7=1,11=2,25=1,30=1,70=2203,71=1,72=1,74=-5/1,2,3;
 4//1;
 5/5=100002,7=2000,38=1,53=1/2;
 6/7=2,8=2,9=2,10=2,28=1/1;
 7//1,2,3,16;
 1/6=1000,8=10,18=20,19=15,26=3/3(2);
 2/9=110/2;
 99//99;
 2/9=110/2;
 3/5=1,6=6,7=1,11=2,25=1,30=1,70=2205,71=1,72=1,74=-5/1,2,3;
 4/5=5,16=3,69=1/1;
 5/5=100002,7=2000,38=1,53=1/2;
 7//1,2,3,16;
 1/6=1000,8=10,18=20,19=15,26=3/3(-5);
 2/9=110/2;
 6/7=2,8=2,9=2,10=2,19=2,28=1/1;
 99/9=1/99;
 Leave Link    1 at Tue Mar  1 05:59:35 2022, MaxMem=   104857600 cpu:               0.0 elap:               0.0
 (Enter /dades/curu/g16A03_MST/g16/l101.exe)
 -------------
 251.n.pdb.xyz
 -------------
 Symbolic Z-matrix:
 Charge =  0 Multiplicity = 1
 C                     6.044    -0.017     0.82 
 C                     4.759     0.748     1.069 
 O                     3.696     0.069     0.396 
 C                     2.47      0.651     0.539 
 O                     2.267     1.677     1.181 
 C                     1.414    -0.085    -0.163 
 C                     0.067     0.242    -0.23 
 C                    -0.693     1.404     0.265 
 N                    -1.609     0.915     1.266 
 C                    -1.353     1.305     2.643 
 C                    -2.725     0.156     0.958 
 O                    -3.58     -0.131     1.795 
 C                    -2.927    -0.353    -0.434 
 C                    -4.271    -0.468    -0.833 
 C                    -4.599    -1.07     -2.04 
 F                    -5.883    -1.167    -2.405 
 C                    -3.614    -1.587    -2.868 
 C                    -2.274    -1.492    -2.49 
 C                    -1.917    -0.862    -1.28 
 N                    -0.539    -0.758    -0.96 
 C                     0.473    -1.595    -1.369 
 N                     1.644    -1.232    -0.901 
 H                     6.254    -0.08     -0.253 
 H                     6.889     0.466     1.318 
 H                     5.958    -1.045     1.188 
 H                     4.855     1.767     0.677 
 H                     4.554     0.784     2.145 
 H                    -0.059     2.187     0.689 
 H                    -1.264     1.867    -0.548 
 H                    -2.055     0.838     3.338 
 H                    -0.337     1.002     2.914 
 H                    -1.445     2.392     2.722 
 H                    -5.075    -0.112    -0.193 
 H                    -3.896    -2.058    -3.806 
 H                    -1.528    -1.884    -3.178 
 H                     0.303    -2.476    -1.974 
 
 ITRead=  0  0  0  0  0  0  0  0  0  0  0  0  0  0  0  0  0  0  0  0
 ITRead=  0  0  0  0  0  0  0  0  0  0  0  0  0  0  0  0
 MicOpt= -1 -1 -1 -1 -1 -1 -1 -1 -1 -1 -1 -1 -1 -1 -1 -1 -1 -1 -1 -1
 MicOpt= -1 -1 -1 -1 -1 -1 -1 -1 -1 -1 -1 -1 -1 -1 -1 -1
 NAtoms=     36 NQM=       36 NQMF=       0 NMMI=      0 NMMIF=      0
                NMic=       0 NMicF=      0.
                    Isotopes and Nuclear Properties:
 (Nuclear quadrupole moments (NQMom) in fm**2, nuclear magnetic moments (NMagM)
  in nuclear magnetons)

  Atom         1           2           3           4           5           6           7           8           9          10
 IAtWgt=          12          12          16          12          16          12          12          12          14          12
 AtmWgt=  12.0000000  12.0000000  15.9949146  12.0000000  15.9949146  12.0000000  12.0000000  12.0000000  14.0030740  12.0000000
 NucSpn=           0           0           0           0           0           0           0           0           2           0
 AtZEff=  -0.0000000  -0.0000000  -0.0000000  -0.0000000  -0.0000000  -0.0000000  -0.0000000  -0.0000000  -0.0000000  -0.0000000
 NQMom=    0.0000000   0.0000000   0.0000000   0.0000000   0.0000000   0.0000000   0.0000000   0.0000000   2.0440000   0.0000000
 NMagM=    0.0000000   0.0000000   0.0000000   0.0000000   0.0000000   0.0000000   0.0000000   0.0000000   0.4037610   0.0000000
 AtZNuc=   6.0000000   6.0000000   8.0000000   6.0000000   8.0000000   6.0000000   6.0000000   6.0000000   7.0000000   6.0000000

  Atom        11          12          13          14          15          16          17          18          19          20
 IAtWgt=          12          16          12          12          12          19          12          12          12          14
 AtmWgt=  12.0000000  15.9949146  12.0000000  12.0000000  12.0000000  18.9984032  12.0000000  12.0000000  12.0000000  14.0030740
 NucSpn=           0           0           0           0           0           1           0           0           0           2
 AtZEff=  -0.0000000  -0.0000000  -0.0000000  -0.0000000  -0.0000000  -0.0000000  -0.0000000  -0.0000000  -0.0000000  -0.0000000
 NQMom=    0.0000000   0.0000000   0.0000000   0.0000000   0.0000000   0.0000000   0.0000000   0.0000000   0.0000000   2.0440000
 NMagM=    0.0000000   0.0000000   0.0000000   0.0000000   0.0000000   2.6288670   0.0000000   0.0000000   0.0000000   0.4037610
 AtZNuc=   6.0000000   8.0000000   6.0000000   6.0000000   6.0000000   9.0000000   6.0000000   6.0000000   6.0000000   7.0000000

  Atom        21          22          23          24          25          26          27          28          29          30
 IAtWgt=          12          14           1           1           1           1           1           1           1           1
 AtmWgt=  12.0000000  14.0030740   1.0078250   1.0078250   1.0078250   1.0078250   1.0078250   1.0078250   1.0078250   1.0078250
 NucSpn=           0           2           1           1           1           1           1           1           1           1
 AtZEff=  -0.0000000  -0.0000000  -0.0000000  -0.0000000  -0.0000000  -0.0000000  -0.0000000  -0.0000000  -0.0000000  -0.0000000
 NQMom=    0.0000000   2.0440000   0.0000000   0.0000000   0.0000000   0.0000000   0.0000000   0.0000000   0.0000000   0.0000000
 NMagM=    0.0000000   0.4037610   2.7928460   2.7928460   2.7928460   2.7928460   2.7928460   2.7928460   2.7928460   2.7928460
 AtZNuc=   6.0000000   7.0000000   1.0000000   1.0000000   1.0000000   1.0000000   1.0000000   1.0000000   1.0000000   1.0000000

  Atom        31          32          33          34          35          36
 IAtWgt=           1           1           1           1           1           1
 AtmWgt=   1.0078250   1.0078250   1.0078250   1.0078250   1.0078250   1.0078250
 NucSpn=           1           1           1           1           1           1
 AtZEff=  -0.0000000  -0.0000000  -0.0000000  -0.0000000  -0.0000000  -0.0000000
 NQMom=    0.0000000   0.0000000   0.0000000   0.0000000   0.0000000   0.0000000
 NMagM=    2.7928460   2.7928460   2.7928460   2.7928460   2.7928460   2.7928460
 AtZNuc=   1.0000000   1.0000000   1.0000000   1.0000000   1.0000000   1.0000000
 Leave Link  101 at Tue Mar  1 05:59:35 2022, MaxMem=   104857600 cpu:               0.1 elap:               0.1
 (Enter /dades/curu/g16A03_MST/g16/l103.exe)

 GradGradGradGradGradGradGradGradGradGradGradGradGradGradGradGradGradGrad
 Berny optimization.
 Initialization pass.
                           ----------------------------
                           !    Initial Parameters    !
                           ! (Angstroms and Degrees)  !
 --------------------------                            --------------------------
 ! Name  Definition              Value          Derivative Info.                !
 --------------------------------------------------------------------------------
 ! R1    R(1,2)                  1.5161         estimate D2E/DX2                !
 ! R2    R(1,23)                 1.0952         estimate D2E/DX2                !
 ! R3    R(1,24)                 1.0933         estimate D2E/DX2                !
 ! R4    R(1,25)                 1.0953         estimate D2E/DX2                !
 ! R5    R(2,3)                  1.4297         estimate D2E/DX2                !
 ! R6    R(2,26)                 1.096          estimate D2E/DX2                !
 ! R7    R(2,27)                 1.0959         estimate D2E/DX2                !
 ! R8    R(3,4)                  1.3646         estimate D2E/DX2                !
 ! R9    R(4,5)                  1.2272         estimate D2E/DX2                !
 ! R10   R(4,6)                  1.4662         estimate D2E/DX2                !
 ! R11   R(6,7)                  1.3877         estimate D2E/DX2                !
 ! R12   R(6,22)                 1.3832         estimate D2E/DX2                !
 ! R13   R(7,8)                  1.4741         estimate D2E/DX2                !
 ! R14   R(7,20)                 1.3785         estimate D2E/DX2                !
 ! R15   R(8,9)                  1.4423         estimate D2E/DX2                !
 ! R16   R(8,28)                 1.0931         estimate D2E/DX2                !
 ! R17   R(8,29)                 1.0961         estimate D2E/DX2                !
 ! R18   R(9,10)                 1.4539         estimate D2E/DX2                !
 ! R19   R(9,11)                 1.3843         estimate D2E/DX2                !
 ! R20   R(10,30)                1.0927         estimate D2E/DX2                !
 ! R21   R(10,31)                1.0943         estimate D2E/DX2                !
 ! R22   R(10,32)                1.0937         estimate D2E/DX2                !
 ! R23   R(11,12)                1.2304         estimate D2E/DX2                !
 ! R24   R(11,13)                1.4958         estimate D2E/DX2                !
 ! R25   R(13,14)                1.4067         estimate D2E/DX2                !
 ! R26   R(13,19)                1.4124         estimate D2E/DX2                !
 ! R27   R(14,15)                1.3881         estimate D2E/DX2                !
 ! R28   R(14,33)                1.0875         estimate D2E/DX2                !
 ! R29   R(15,16)                1.3384         estimate D2E/DX2                !
 ! R30   R(15,17)                1.3868         estimate D2E/DX2                !
 ! R31   R(17,18)                1.3955         estimate D2E/DX2                !
 ! R32   R(17,34)                1.0868         estimate D2E/DX2                !
 ! R33   R(18,19)                1.4101         estimate D2E/DX2                !
 ! R34   R(18,35)                1.0879         estimate D2E/DX2                !
 ! R35   R(19,20)                1.4185         estimate D2E/DX2                !
 ! R36   R(20,21)                1.3755         estimate D2E/DX2                !
 ! R37   R(21,22)                1.3123         estimate D2E/DX2                !
 ! R38   R(21,36)                1.0822         estimate D2E/DX2                !
 ! A1    A(2,1,23)             110.6384         estimate D2E/DX2                !
 ! A2    A(2,1,24)             110.938          estimate D2E/DX2                !
 ! A3    A(2,1,25)             110.6018         estimate D2E/DX2                !
 ! A4    A(23,1,24)            108.8741         estimate D2E/DX2                !
 ! A5    A(23,1,25)            106.8732         estimate D2E/DX2                !
 ! A6    A(24,1,25)            108.8015         estimate D2E/DX2                !
 ! A7    A(1,2,3)              108.2548         estimate D2E/DX2                !
 ! A8    A(1,2,26)             109.6429         estimate D2E/DX2                !
 ! A9    A(1,2,27)             109.6559         estimate D2E/DX2                !
 ! A10   A(3,2,26)             109.7749         estimate D2E/DX2                !
 ! A11   A(3,2,27)             109.7973         estimate D2E/DX2                !
 ! A12   A(26,2,27)            109.6939         estimate D2E/DX2                !
 ! A13   A(2,3,4)              114.5892         estimate D2E/DX2                !
 ! A14   A(3,4,5)              124.055          estimate D2E/DX2                !
 ! A15   A(3,4,6)              112.5077         estimate D2E/DX2                !
 ! A16   A(5,4,6)              123.4372         estimate D2E/DX2                !
 ! A17   A(4,6,7)              127.152          estimate D2E/DX2                !
 ! A18   A(4,6,22)             123.503          estimate D2E/DX2                !
 ! A19   A(7,6,22)             109.3322         estimate D2E/DX2                !
 ! A20   A(6,7,8)              132.0656         estimate D2E/DX2                !
 ! A21   A(6,7,20)             106.3404         estimate D2E/DX2                !
 ! A22   A(8,7,20)             121.5367         estimate D2E/DX2                !
 ! A23   A(7,8,9)              107.0521         estimate D2E/DX2                !
 ! A24   A(7,8,28)             113.3215         estimate D2E/DX2                !
 ! A25   A(7,8,29)             110.6404         estimate D2E/DX2                !
 ! A26   A(9,8,28)             110.0001         estimate D2E/DX2                !
 ! A27   A(9,8,29)             109.0962         estimate D2E/DX2                !
 ! A28   A(28,8,29)            106.6956         estimate D2E/DX2                !
 ! A29   A(8,9,10)             117.0367         estimate D2E/DX2                !
 ! A30   A(8,9,11)             122.9202         estimate D2E/DX2                !
 ! A31   A(10,9,11)            119.9832         estimate D2E/DX2                !
 ! A32   A(9,10,30)            112.0028         estimate D2E/DX2                !
 ! A33   A(9,10,31)            108.8903         estimate D2E/DX2                !
 ! A34   A(9,10,32)            108.6746         estimate D2E/DX2                !
 ! A35   A(30,10,31)           108.7013         estimate D2E/DX2                !
 ! A36   A(30,10,32)           108.9521         estimate D2E/DX2                !
 ! A37   A(31,10,32)           109.5962         estimate D2E/DX2                !
 ! A38   A(9,11,12)            122.4607         estimate D2E/DX2                !
 ! A39   A(9,11,13)            120.1637         estimate D2E/DX2                !
 ! A40   A(12,11,13)           117.3754         estimate D2E/DX2                !
 ! A41   A(11,13,14)           114.8849         estimate D2E/DX2                !
 ! A42   A(11,13,19)           125.694          estimate D2E/DX2                !
 ! A43   A(14,13,19)           118.9382         estimate D2E/DX2                !
 ! A44   A(13,14,15)           120.5212         estimate D2E/DX2                !
 ! A45   A(13,14,33)           120.8408         estimate D2E/DX2                !
 ! A46   A(15,14,33)           118.6188         estimate D2E/DX2                !
 ! A47   A(14,15,16)           119.6867         estimate D2E/DX2                !
 ! A48   A(14,15,17)           120.8653         estimate D2E/DX2                !
 ! A49   A(16,15,17)           119.444          estimate D2E/DX2                !
 ! A50   A(15,17,18)           119.6645         estimate D2E/DX2                !
 ! A51   A(15,17,34)           119.5101         estimate D2E/DX2                !
 ! A52   A(18,17,34)           120.825          estimate D2E/DX2                !
 ! A53   A(17,18,19)           120.3933         estimate D2E/DX2                !
 ! A54   A(17,18,35)           117.5558         estimate D2E/DX2                !
 ! A55   A(19,18,35)           122.0081         estimate D2E/DX2                !
 ! A56   A(13,19,18)           119.5997         estimate D2E/DX2                !
 ! A57   A(13,19,20)           122.2175         estimate D2E/DX2                !
 ! A58   A(18,19,20)           118.1822         estimate D2E/DX2                !
 ! A59   A(7,20,19)            126.8508         estimate D2E/DX2                !
 ! A60   A(7,20,21)            105.9897         estimate D2E/DX2                !
 ! A61   A(19,20,21)           127.088          estimate D2E/DX2                !
 ! A62   A(20,21,22)           112.4677         estimate D2E/DX2                !
 ! A63   A(20,21,36)           123.0963         estimate D2E/DX2                !
 ! A64   A(22,21,36)           124.3858         estimate D2E/DX2                !
 ! A65   A(6,22,21)            105.7411         estimate D2E/DX2                !
 ! D1    D(23,1,2,3)            59.1023         estimate D2E/DX2                !
 ! D2    D(23,1,2,26)          -60.6334         estimate D2E/DX2                !
 ! D3    D(23,1,2,27)          178.8727         estimate D2E/DX2                !
 ! D4    D(24,1,2,3)          -179.952          estimate D2E/DX2                !
 ! D5    D(24,1,2,26)           60.3123         estimate D2E/DX2                !
 ! D6    D(24,1,2,27)          -60.1817         estimate D2E/DX2                !
 ! D7    D(25,1,2,3)           -59.1225         estimate D2E/DX2                !
 ! D8    D(25,1,2,26)         -178.8582         estimate D2E/DX2                !
 ! D9    D(25,1,2,27)           60.6478         estimate D2E/DX2                !
 ! D10   D(1,2,3,4)            179.8293         estimate D2E/DX2                !
 ! D11   D(26,2,3,4)           -60.518          estimate D2E/DX2                !
 ! D12   D(27,2,3,4)            60.1477         estimate D2E/DX2                !
 ! D13   D(2,3,4,5)              0.3523         estimate D2E/DX2                !
 ! D14   D(2,3,4,6)           -179.7246         estimate D2E/DX2                !
 ! D15   D(3,4,6,7)           -179.3307         estimate D2E/DX2                !
 ! D16   D(3,4,6,22)            -0.7762         estimate D2E/DX2                !
 ! D17   D(5,4,6,7)              0.5929         estimate D2E/DX2                !
 ! D18   D(5,4,6,22)           179.1474         estimate D2E/DX2                !
 ! D19   D(4,6,7,8)              4.6206         estimate D2E/DX2                !
 ! D20   D(4,6,7,20)          -178.1823         estimate D2E/DX2                !
 ! D21   D(22,6,7,8)          -174.1021         estimate D2E/DX2                !
 ! D22   D(22,6,7,20)            3.095          estimate D2E/DX2                !
 ! D23   D(4,6,22,21)          179.9394         estimate D2E/DX2                !
 ! D24   D(7,6,22,21)           -1.2815         estimate D2E/DX2                !
 ! D25   D(6,7,8,9)           -115.5932         estimate D2E/DX2                !
 ! D26   D(6,7,8,28)             5.8607         estimate D2E/DX2                !
 ! D27   D(6,7,8,29)           125.6424         estimate D2E/DX2                !
 ! D28   D(20,7,8,9)            67.5629         estimate D2E/DX2                !
 ! D29   D(20,7,8,28)         -170.9832         estimate D2E/DX2                !
 ! D30   D(20,7,8,29)          -51.2015         estimate D2E/DX2                !
 ! D31   D(6,7,20,19)          179.3164         estimate D2E/DX2                !
 ! D32   D(6,7,20,21)           -3.5975         estimate D2E/DX2                !
 ! D33   D(8,7,20,19)           -3.1248         estimate D2E/DX2                !
 ! D34   D(8,7,20,21)          173.9613         estimate D2E/DX2                !
 ! D35   D(7,8,9,10)           111.0185         estimate D2E/DX2                !
 ! D36   D(7,8,9,11)           -71.801          estimate D2E/DX2                !
 ! D37   D(28,8,9,10)          -12.5072         estimate D2E/DX2                !
 ! D38   D(28,8,9,11)          164.6734         estimate D2E/DX2                !
 ! D39   D(29,8,9,10)         -129.2212         estimate D2E/DX2                !
 ! D40   D(29,8,9,11)           47.9593         estimate D2E/DX2                !
 ! D41   D(8,9,10,30)         -176.2655         estimate D2E/DX2                !
 ! D42   D(8,9,10,31)          -56.0151         estimate D2E/DX2                !
 ! D43   D(8,9,10,32)           63.3147         estimate D2E/DX2                !
 ! D44   D(11,9,10,30)           6.4669         estimate D2E/DX2                !
 ! D45   D(11,9,10,31)         126.7173         estimate D2E/DX2                !
 ! D46   D(11,9,10,32)        -113.9529         estimate D2E/DX2                !
 ! D47   D(8,9,11,12)         -171.6849         estimate D2E/DX2                !
 ! D48   D(8,9,11,13)            8.4946         estimate D2E/DX2                !
 ! D49   D(10,9,11,12)           5.4157         estimate D2E/DX2                !
 ! D50   D(10,9,11,13)        -174.4048         estimate D2E/DX2                !
 ! D51   D(9,11,13,14)        -148.2194         estimate D2E/DX2                !
 ! D52   D(9,11,13,19)          39.8857         estimate D2E/DX2                !
 ! D53   D(12,11,13,14)         31.9512         estimate D2E/DX2                !
 ! D54   D(12,11,13,19)       -139.9437         estimate D2E/DX2                !
 ! D55   D(11,13,14,15)       -172.5951         estimate D2E/DX2                !
 ! D56   D(11,13,14,33)          5.7894         estimate D2E/DX2                !
 ! D57   D(19,13,14,15)         -0.1131         estimate D2E/DX2                !
 ! D58   D(19,13,14,33)        178.2714         estimate D2E/DX2                !
 ! D59   D(11,13,19,18)        170.5298         estimate D2E/DX2                !
 ! D60   D(11,13,19,20)         -9.7733         estimate D2E/DX2                !
 ! D61   D(14,13,19,18)         -1.0666         estimate D2E/DX2                !
 ! D62   D(14,13,19,20)        178.6303         estimate D2E/DX2                !
 ! D63   D(13,14,15,16)       -179.8037         estimate D2E/DX2                !
 ! D64   D(13,14,15,17)          0.9288         estimate D2E/DX2                !
 ! D65   D(33,14,15,16)          1.7764         estimate D2E/DX2                !
 ! D66   D(33,14,15,17)       -177.4911         estimate D2E/DX2                !
 ! D67   D(14,15,17,18)         -0.5364         estimate D2E/DX2                !
 ! D68   D(14,15,17,34)        179.7057         estimate D2E/DX2                !
 ! D69   D(16,15,17,18)       -179.8057         estimate D2E/DX2                !
 ! D70   D(16,15,17,34)          0.4365         estimate D2E/DX2                !
 ! D71   D(15,17,18,19)         -0.6656         estimate D2E/DX2                !
 ! D72   D(15,17,18,35)       -178.3312         estimate D2E/DX2                !
 ! D73   D(34,17,18,19)        179.089          estimate D2E/DX2                !
 ! D74   D(34,17,18,35)          1.4235         estimate D2E/DX2                !
 ! D75   D(17,18,19,13)          1.4656         estimate D2E/DX2                !
 ! D76   D(17,18,19,20)       -178.2434         estimate D2E/DX2                !
 ! D77   D(35,18,19,13)        179.0249         estimate D2E/DX2                !
 ! D78   D(35,18,19,20)         -0.6842         estimate D2E/DX2                !
 ! D79   D(13,19,20,7)         -30.3845         estimate D2E/DX2                !
 ! D80   D(13,19,20,21)        153.1278         estimate D2E/DX2                !
 ! D81   D(18,19,20,7)         149.3165         estimate D2E/DX2                !
 ! D82   D(18,19,20,21)        -27.1713         estimate D2E/DX2                !
 ! D83   D(7,20,21,22)           3.0162         estimate D2E/DX2                !
 ! D84   D(7,20,21,36)        -179.4598         estimate D2E/DX2                !
 ! D85   D(19,20,21,22)       -179.9069         estimate D2E/DX2                !
 ! D86   D(19,20,21,36)         -2.3828         estimate D2E/DX2                !
 ! D87   D(20,21,22,6)          -1.0887         estimate D2E/DX2                !
 ! D88   D(36,21,22,6)        -178.5752         estimate D2E/DX2                !
 --------------------------------------------------------------------------------
 Trust Radius=1.00D-01 FncErr=1.00D-07 GrdErr=1.00D-06 EigMax=2.50D+02 EigMin=1.00D-04
 Number of steps in this run=    216 maximum allowed number of steps=    216.
 GradGradGradGradGradGradGradGradGradGradGradGradGradGradGradGradGradGrad

 Leave Link  103 at Tue Mar  1 05:59:35 2022, MaxMem=   104857600 cpu:               0.0 elap:               0.0
 (Enter /dades/curu/g16A03_MST/g16/l202.exe)
                          Input orientation:                          
 ---------------------------------------------------------------------
 Center     Atomic      Atomic             Coordinates (Angstroms)
 Number     Number       Type             X           Y           Z
 ---------------------------------------------------------------------
      1          6           0        6.044000   -0.017000    0.820000
      2          6           0        4.759000    0.748000    1.069000
      3          8           0        3.696000    0.069000    0.396000
      4          6           0        2.470000    0.651000    0.539000
      5          8           0        2.267000    1.677000    1.181000
      6          6           0        1.414000   -0.085000   -0.163000
      7          6           0        0.067000    0.242000   -0.230000
      8          6           0       -0.693000    1.404000    0.265000
      9          7           0       -1.609000    0.915000    1.266000
     10          6           0       -1.353000    1.305000    2.643000
     11          6           0       -2.725000    0.156000    0.958000
     12          8           0       -3.580000   -0.131000    1.795000
     13          6           0       -2.927000   -0.353000   -0.434000
     14          6           0       -4.271000   -0.468000   -0.833000
     15          6           0       -4.599000   -1.070000   -2.040000
     16          9           0       -5.883000   -1.167000   -2.405000
     17          6           0       -3.614000   -1.587000   -2.868000
     18          6           0       -2.274000   -1.492000   -2.490000
     19          6           0       -1.917000   -0.862000   -1.280000
     20          7           0       -0.539000   -0.758000   -0.960000
     21          6           0        0.473000   -1.595000   -1.369000
     22          7           0        1.644000   -1.232000   -0.901000
     23          1           0        6.254000   -0.080000   -0.253000
     24          1           0        6.889000    0.466000    1.318000
     25          1           0        5.958000   -1.045000    1.188000
     26          1           0        4.855000    1.767000    0.677000
     27          1           0        4.554000    0.784000    2.145000
     28          1           0       -0.059000    2.187000    0.689000
     29          1           0       -1.264000    1.867000   -0.548000
     30          1           0       -2.055000    0.838000    3.338000
     31          1           0       -0.337000    1.002000    2.914000
     32          1           0       -1.445000    2.392000    2.722000
     33          1           0       -5.075000   -0.112000   -0.193000
     34          1           0       -3.896000   -2.058000   -3.806000
     35          1           0       -1.528000   -1.884000   -3.178000
     36          1           0        0.303000   -2.476000   -1.974000
 ---------------------------------------------------------------------
                    Distance matrix (angstroms):
                    1          2          3          4          5
     1  C    0.000000
     2  C    1.516064   0.000000
     3  O    2.387525   1.429664   0.000000
     4  C    3.646733   2.351559   1.364642   0.000000
     5  O    4.155200   2.661888   2.289963   1.227212   0.000000
     6  C    4.733689   3.660702   2.354511   1.466164   2.374571
     7  C    6.074052   4.894722   3.686658   2.555983   2.981635
     8  C    6.907564   5.549870   4.589412   3.262921   3.110496
     9  N    7.722432   6.373235   5.442025   4.151682   3.951107
    10  C    7.732181   6.335951   5.662959   4.412467   3.921763
    11  C    8.771792   7.508198   6.446135   5.235323   5.223336
    12  O    9.673934   8.416569   7.411975   6.228287   6.150875
    13  C    9.064450   7.908591   6.688132   5.575155   5.805752
    14  C   10.456339   9.307908   8.079103   6.969622   7.169565
    15  C   11.070766  10.027122   8.720002   7.719057   8.066152
    16  F   12.408725  11.357291  10.056368   9.041287   9.347205
    17  C   10.456730   9.542501   8.175092   7.323343   7.850749
    18  C    9.073084   8.194338   6.812240   6.022693   6.643755
    19  C    8.276566   7.258022   5.931400   4.984345   5.478038
    20  N    6.859546   5.869726   4.523040   3.645046   4.287976
    21  C    6.190141   5.459239   4.033838   3.559914   4.519615
    22  N    4.878326   4.183841   2.754181   2.510292   3.631134
    23  H    1.095170   2.160623   2.643249   3.934499   4.586892
    24  H    1.093306   2.162967   3.347080   4.490949   4.779976
    25  H    1.095264   2.160234   2.642897   3.932399   4.586155
    26  H    2.148680   1.096011   2.074957   2.636802   2.638155
    27  H    2.148796   1.095946   2.075184   2.634384   2.637634
    28  H    6.490099   5.042643   4.321088   2.962708   2.431551
    29  H    7.669925   6.335880   5.359621   4.074676   3.936179
    30  H    8.524386   7.182413   6.505438   5.324002   4.902678
    31  H    6.792669   5.425657   4.845194   3.693653   3.199958
    32  H    8.093578   6.627576   6.102171   4.808721   4.082260
    33  H   11.165454   9.951874   8.792618   7.618728   7.680714
    34  H   11.152092  10.322223   8.934170   8.169679   8.763730
    35  H    8.763839   8.030617   6.624037   6.018830   6.788492
    36  H    6.841944   6.285695   4.858639   4.559516   5.573036
                    6          7          8          9         10
     6  C    0.000000
     7  C    1.387742   0.000000
     8  C    2.615292   1.474065   0.000000
     9  N    3.490067   2.345191   1.442282   0.000000
    10  C    4.178759   3.376462   2.469876   1.453879   0.000000
    11  C    4.294886   3.035458   2.483300   1.384341   2.458009
    12  O    5.364319   4.188122   3.609971   2.293207   2.782217
    13  C    4.357700   3.059359   2.926842   2.496988   3.833323
    14  C    5.737143   4.436886   4.184743   3.661248   4.872456
    15  C    6.375698   5.173877   5.166289   4.879545   6.173138
    16  F    7.709961   6.489869   6.377699   6.006500   7.219002
    17  C    5.903712   4.884060   5.224367   5.231633   6.621700
    18  C    4.582131   3.687091   4.298419   4.510367   5.917697
    19  C    3.598191   2.501514   3.003324   3.120050   4.517069
    20  N    2.214124   1.378454   2.489696   2.983103   4.230860
    21  C    2.149422   2.199256   3.608810   4.192618   5.276402
    22  N    1.383168   2.260497   3.710744   4.459541   5.289453
    23  H    4.840839   6.195416   7.122597   8.069954   8.256603
    24  H    5.698472   6.999012   7.712028   8.510012   8.389881
    25  H    4.836811   6.194431   7.147400   7.817108   7.816025
    26  H    3.996997   5.106194   5.575107   6.546459   6.528236
    27  H    3.992696   5.105640   5.608013   6.226746   5.950806
    28  H    2.838594   2.154869   1.093079   2.086483   2.504092
    29  H    3.336197   2.124455   1.096074   2.077480   3.241334
    30  H    5.014269   4.193891   3.408626   2.120856   1.092666
    31  H    3.703444   3.259686   2.702876   2.083616   1.094306
    32  H    4.757377   3.952588   2.752907   2.080471   1.093743
    33  H    6.489126   5.154304   4.659393   3.898277   4.889179
    34  H    6.735004   5.812327   6.230385   6.308271   7.704948
    35  H    4.580610   3.969207   4.833469   5.252628   6.639607
    36  H    3.198581   3.238017   4.589067   5.064803   6.193140
                   11         12         13         14         15
    11  C    0.000000
    12  O    1.230432   0.000000
    13  C    1.495844   2.333267   0.000000
    14  C    2.446870   2.738144   1.406685   0.000000
    15  C    3.742052   4.077660   2.426707   1.388106   0.000000
    16  F    4.799277   4.900725   3.644911   2.357611   1.338391
    17  C    4.297284   4.885147   2.814086   2.413511   1.386758
    18  C    3.848118   4.681793   2.439440   2.789666   2.405454
    19  C    2.588017   3.571492   1.412408   2.428242   2.795351
    20  N    3.048396   4.151004   2.478557   3.745404   4.212760
    21  C    4.325290   5.346120   3.738554   4.905401   5.143058
    22  N    4.946775   5.980869   4.678116   5.964524   6.348119
    23  H    9.063369  10.045121   9.186841  10.548107  11.043599
    24  H    9.625731  10.496852  10.004705  11.403717  12.066880
    25  H    8.768682   9.600900   9.058310  10.442692  11.039513
    26  H    7.754398   8.717887   8.141759   9.516260  10.237616
    27  H    7.401837   8.192782   7.994334   9.397692  10.233716
    28  H    3.362273   4.358188   3.992262   5.206386   6.218287
    29  H    2.707412   3.852987   2.776142   3.817787   4.687671
    30  H    2.564844   2.376012   4.050537   4.900360   6.247822
    31  H    3.200656   3.612880   4.444460   5.628256   6.855651
    32  H    3.122466   3.432650   4.437531   5.366927   6.679057
    33  H    2.630423   2.487475   2.174871   1.087544   2.134420
    34  H    5.382261   5.931643   3.900817   3.392264   2.142221
    35  H    4.764547   5.658131   3.439578   3.876613   3.374712
    36  H    4.969188   5.897633   4.160725   5.124004   5.100078
                   16         17         18         19         20
    16  F    0.000000
    17  C    2.353536   0.000000
    18  C    3.624601   1.395532   0.000000
    19  C    4.133740   2.434580   1.410124   0.000000
    20  N    5.551004   3.712591   2.426908   1.418485   0.000000
    21  C    6.454085   4.353233   2.968713   2.501462   1.375498
    22  N    7.676065   5.625094   4.235947   3.600175   2.234647
    23  H   12.374144  10.319239   8.928869   8.272333   6.863263
    24  H   13.403410  11.491319  10.114109   9.276790   7.865281
    25  H   12.374725  10.409999   9.027365   8.254704   6.848889
    26  H   11.550399   9.774472   8.454207   7.523395   6.176620
    27  H   11.551618   9.872590   8.560665   7.504251   6.160961
    28  H    7.398725   6.287555   5.342968   4.077441   3.409197
    29  H    5.829989   4.778600   4.009282   2.899944   2.754268
    30  H    7.187187   6.842919   6.280322   4.922902   4.828900
    31  H    7.984638   7.132543   6.259011   4.853919   4.259845
    32  H    7.658228   7.196187   6.552682   5.179508   4.929550
    33  H    2.580471   3.386114   3.876366   3.423015   4.645525
    34  H    2.589373   1.086834   2.164046   3.424549   4.589027
    35  H    4.480808   2.129719   1.087899   2.190481   2.676849
    36  H    6.337652   4.114905   2.806322   2.831083   2.165337
                   21         22         23         24         25
    21  C    0.000000
    22  N    1.312263   0.000000
    23  H    6.079526   4.795739   0.000000
    24  H    7.254843   5.942827   1.780276   0.000000
    25  H    6.076675   4.796820   1.759353   1.779545   0.000000
    26  H    5.889914   4.668469   2.496700   2.498127   3.063507
    27  H    5.887478   4.670168   3.063805   2.497454   2.496459
    28  H    4.338423   4.137375   6.773524   7.185554   6.848293
    29  H    3.959375   4.264373   7.771625   8.480340   7.978140
    30  H    5.870785   5.994716   9.098213   9.176814   8.507430
    31  H    5.073913   4.844517   7.392016   7.419541   6.840783
    32  H    6.025875   5.983429   8.616032   8.668117   8.304850
    33  H    5.861959   6.848403  11.329204  12.072883  11.158169
    34  H    5.024092   6.309747  10.934294  12.204187  11.093580
    35  H    2.712933   3.958714   8.507030   9.827635   8.706668
    36  H    1.082167   2.120648   6.642067   7.928936   6.635136
                   26         27         28         29         30
    26  H    0.000000
    27  H    1.792181   0.000000
    28  H    4.931931   5.036677   0.000000
    29  H    6.241217   6.501866   1.756301   0.000000
    30  H    7.462711   6.716029   3.580645   4.097013   0.000000
    31  H    5.704933   4.955882   2.536165   3.686868   1.777131
    32  H    6.653018   6.237515   2.469030   3.316819   1.779458
    33  H   10.143591   9.949206   5.587806   4.308850   4.742453
    34  H   10.550257  10.718856   7.276511   5.740001   7.925455
    35  H    8.302621   8.511362   5.803851   4.588747   7.081332
    36  H    6.763990   6.757571   5.382024   4.832247   6.690299
                   31         32         33         34         35
    31  H    0.000000
    32  H    1.787912   0.000000
    33  H    5.774347   5.286222   0.000000
    34  H    8.196858   8.271921   4.269745   0.000000
    35  H    6.845432   7.287048   4.963005   2.456030   0.000000
    36  H    6.033128   6.986082   6.138676   4.600277   2.269943
                   36
    36  H    0.000000
 Stoichiometry    C15H14FN3O3
 Framework group  C1[X(C15H14FN3O3)]
 Deg. of freedom   102
 Full point group                 C1      NOp   1
 Largest Abelian subgroup         C1      NOp   1
 Largest concise Abelian subgroup C1      NOp   1
                         Standard orientation:                         
 ---------------------------------------------------------------------
 Center     Atomic      Atomic             Coordinates (Angstroms)
 Number     Number       Type             X           Y           Z
 ---------------------------------------------------------------------
      1          6           0       -6.525696   -1.041153   -0.387884
      2          6           0       -5.471204   -0.073907    0.113046
      3          8           0       -4.185709   -0.659917   -0.106118
      4          6           0       -3.134176    0.110305    0.297968
      5          8           0       -3.251732    1.216453    0.816299
      6          6           0       -1.839707   -0.530548    0.046390
      7          6           0       -0.582327   -0.026350    0.347402
      8          6           0       -0.150500    1.192545    1.054997
      9          7           0        0.551198    2.011411    0.097263
     10          6           0       -0.093145    3.248738   -0.312141
     11          6           0        1.808908    1.693569   -0.386000
     12          8           0        2.462759    2.466984   -1.084763
     13          6           0        2.422997    0.367070   -0.068439
     14          6           0        3.825599    0.374473    0.038402
     15          6           0        4.528322   -0.814553    0.177090
     16          9           0        5.862380   -0.787787    0.281307
     17          6           0        3.867542   -2.033642    0.194147
     18          6           0        2.476952   -2.067147    0.081700
     19          6           0        1.741554   -0.869618   -0.034761
     20          7           0        0.327616   -0.956202   -0.108136
     21          6           0       -0.415166   -2.010707   -0.585930
     22          7           0       -1.706189   -1.784383   -0.522139
     23          1           0       -6.451484   -1.999198    0.137513
     24          1           0       -7.529947   -0.634446   -0.241635
     25          1           0       -6.381435   -1.250783   -1.453176
     26          1           0       -5.617751    0.108840    1.183732
     27          1           0       -5.546925    0.871162   -0.436689
     28          1           0       -0.979108    1.755571    1.492297
     29          1           0        0.528597    0.941492    1.877905
     30          1           0        0.476233    3.770499   -1.085117
     31          1           0       -1.087779    3.017012   -0.705222
     32          1           0       -0.186550    3.900558    0.561175
     33          1           0        4.383668    1.306557   -0.011895
     34          1           0        4.440066   -2.951478    0.299041
     35          1           0        1.991661   -3.039755    0.126986
     36          1           0        0.028699   -2.904333   -1.004862
 ---------------------------------------------------------------------
 Rotational constants (GHZ):           0.6562384           0.1476731           0.1249525
 Leave Link  202 at Tue Mar  1 05:59:35 2022, MaxMem=   104857600 cpu:               0.0 elap:               0.0
 (Enter /dades/curu/g16A03_MST/g16/l301.exe)
 Standard basis: 6-31G(d) (6D, 7F)
 Ernie: Thresh=  0.10000D-02 Tol=  0.10000D-05 Strict=F.
 There are   358 symmetry adapted cartesian basis functions of A   symmetry.
 There are   358 symmetry adapted basis functions of A   symmetry.
   358 basis functions,   672 primitive gaussians,   358 cartesian basis functions
    79 alpha electrons       79 beta electrons
       nuclear repulsion energy      1777.0127201030 Hartrees.
 IExCor=  402 DFT=T Ex+Corr=B3LYP ExCW=0 ScaHFX=  0.200000
 ScaDFX=  0.800000  0.720000  1.000000  0.810000 ScalE2=  1.000000  1.000000
 IRadAn=      5 IRanWt=     -1 IRanGd=            0 ICorTp=0 IEmpDi=  4
 NAtoms=   36 NActive=   36 NUniq=   36 SFac= 1.00D+00 NAtFMM=   60 NAOKFM=F Big=F
 Integral buffers will be    131072 words long.
 Raffenetti 2 integral format.
 Two-electron integral symmetry is turned on.
 Using the following non-standard input for PCM:
 MSTModel=DFT cav
 --- end of non-standard input.
 MST model for solvation energy: B3LYP parametrization.
 MST cavity parameters:
 ISph   IAn     Re0     Alpha   Atom Type   QCorr
 ------------------------------------------------
   1      6     1.50     1.25      CH3        F
   2      6     1.50     1.25      CH2        F
   3      8     1.40     1.25      O          F
   4      6     1.50     1.25      C          F
   5      8     1.40     1.25      O          F
   6      6     1.50     1.25      C          F
   7      6     1.50     1.25      C          F
   8      6     1.50     1.25      CH2        F
   9      7     1.40     1.25      N          F
  10      6     1.50     1.25      CH3        F
  11      6     1.50     1.25      C          F
  12      8     1.40     1.25      O          F
  13      6     1.50     1.25      C          F
  14      6     1.50     1.25      CH         F
  15      6     1.50     1.25      C          F
  16      9     1.35     1.25      F          F
  17      6     1.50     1.25      CH         F
  18      6     1.50     1.25      CH         F
  19      6     1.50     1.25      C          F
  20      7     1.40     1.25      N          F
  21      6     1.50     1.25      CH         F
  22      7     1.40     1.25      N          F
  23      1     1.20     1.25      CH3        F
  24      1     1.20     1.25      CH3        F
  25      1     1.20     1.25      CH3        F
  26      1     1.20     1.25      CH2        F
  27      1     1.20     1.25      CH2        F
  28      1     1.20     1.25      CH2        F
  29      1     1.20     1.25      CH2        F
  30      1     1.20     1.25      CH3        F
  31      1     1.20     1.25      CH3        F
  32      1     1.20     1.25      CH3        F
  33      1     1.20     1.25      CH         F
  34      1     1.20     1.25      CH         F
  35      1     1.20     1.25      CH         F
  36      1     1.20     1.25      CH         F
 ------------------------------------------------------------------------------
 Polarizable Continuum Model (PCM)
 =================================
 Model                : PCM.
 Atomic radii         : MST.
 Polarization charges : Total charges.
 Charge compensation  : None.
 Solution method      : On-the-fly selection.
 Cavity type          : Scaled VdW (van der Waals Surface) (Alpha=1.250).
 Cavity algorithm     : GePol (No added spheres)
                        Default sphere list used, NSphG=   36.
                        Lebedev-Laikov grids with approx.  5.0 points / Ang**2.
                        Smoothing algorithm: York/Karplus (Gamma=1.0000).
                        Polarization charges: spherical gaussians, with
                                              point-specific exponents (IZeta= 3).
                        Self-potential: point-specific (ISelfS= 7).
                        Self-field    : sphere-specific E.n sum rule (ISelfD= 2).
 1st derivatives      : Analytical E(r).r(x)/FMM algorithm (CHGder, D1EAlg=3).
                        Cavity 1st derivative terms included.
 Solvent              : Water, Eps=  78.355300 Eps(inf)=   1.777849
 ------------------------------------------------------------------------------
 GePol: Number of generator spheres                  =      36
 GePol: Total number of spheres                      =      36
 GePol: Number of exposed spheres                    =      36 (100.00%)
 GePol: Number of points                             =    2643
 GePol: Average weight of points                     =       0.13
 GePol: Minimum weight of points                     =   0.57D-11
 GePol: Maximum weight of points                     =    0.22001
 GePol: Number of points with low weight             =     177
 GePol: Fraction of low-weight points (<1% of avg)   =       6.70%
 GePol: Cavity surface area                          =    343.741 Ang**2
 GePol: Cavity volume                                =    331.256 Ang**3
 Surface areas from nonelectrostatic (unscaled) cavity and vdw tensions:
 Sphere =    1 Type =  CH3 Surf =        5.149 Tension =       -0.140
 Sphere =    2 Type =  CH2 Surf =        3.916 Tension =       -0.139
 Sphere =    3 Type =  O   Surf =       10.257 Tension =       -0.117
 Sphere =    4 Type =  C   Surf =        7.074 Tension =       -0.101
 Sphere =    5 Type =  O   Surf =       15.403 Tension =       -0.117
 Sphere =    6 Type =  C   Surf =        6.923 Tension =       -0.101
 Sphere =    7 Type =  C   Surf =        6.601 Tension =       -0.101
 Sphere =    8 Type =  CH2 Surf =        4.090 Tension =       -0.139
 Sphere =    9 Type =  N   Surf =        4.117 Tension =       -0.105
 Sphere =   10 Type =  CH3 Surf =        5.355 Tension =       -0.140
 Sphere =   11 Type =  C   Surf =        6.976 Tension =       -0.101
 Sphere =   12 Type =  O   Surf =       15.179 Tension =       -0.117
 Sphere =   13 Type =  C   Surf =        6.271 Tension =       -0.101
 Sphere =   14 Type =  CH  Surf =        7.483 Tension =       -0.140
 Sphere =   15 Type =  C   Surf =        6.996 Tension =       -0.101
 Sphere =   16 Type =  F   Surf =       15.576 Tension =       -0.078
 Sphere =   17 Type =  CH  Surf =        7.740 Tension =       -0.140
 Sphere =   18 Type =  CH  Surf =        7.726 Tension =       -0.140
 Sphere =   19 Type =  C   Surf =        6.779 Tension =       -0.101
 Sphere =   20 Type =  N   Surf =        4.431 Tension =       -0.105
 Sphere =   21 Type =  CH  Surf =        8.776 Tension =       -0.140
 Sphere =   22 Type =  N   Surf =       10.906 Tension =       -0.105
 Sphere =   23 Type =  CH3 Surf =       10.131 Tension =       -0.140
 Sphere =   24 Type =  CH3 Surf =       10.151 Tension =       -0.140
 Sphere =   25 Type =  CH3 Surf =       10.131 Tension =       -0.140
 Sphere =   26 Type =  CH2 Surf =       10.067 Tension =       -0.139
 Sphere =   27 Type =  CH2 Surf =       10.066 Tension =       -0.139
 Sphere =   28 Type =  CH2 Surf =        9.147 Tension =       -0.139
 Sphere =   29 Type =  CH2 Surf =       10.064 Tension =       -0.139
 Sphere =   30 Type =  CH3 Surf =        9.412 Tension =       -0.140
 Sphere =   31 Type =  CH3 Surf =       10.156 Tension =       -0.140
 Sphere =   32 Type =  CH3 Surf =       10.157 Tension =       -0.140
 Sphere =   33 Type =  CH  Surf =        9.865 Tension =       -0.140
 Sphere =   34 Type =  CH  Surf =       10.230 Tension =       -0.140
 Sphere =   35 Type =  CH  Surf =        9.700 Tension =       -0.140
 Sphere =   36 Type =  CH  Surf =        9.829 Tension =       -0.140
 PCM non-electrostatic energy =         0.0070528622 Hartrees.
 Nuclear repulsion after PCM non-electrostatic terms =     1777.0197729651 Hartrees.
 Leave Link  301 at Tue Mar  1 05:59:35 2022, MaxMem=   104857600 cpu:               0.1 elap:               0.1
 (Enter /dades/curu/g16A03_MST/g16/l302.exe)
 NPDir=0 NMtPBC=     1 NCelOv=     1 NCel=       1 NClECP=     1 NCelD=      1
         NCelK=      1 NCelE2=     1 NClLst=     1 CellRange=     0.0.
 One-electron integrals computed using PRISM.
 One-electron integral symmetry used in STVInt
 NBasis=   358 RedAO= T EigKep=  3.78D-04  NBF=   358
 NBsUse=   358 1.00D-06 EigRej= -1.00D+00 NBFU=   358
 Precomputing XC quadrature grid using
 IXCGrd= 4 IRadAn=           5 IRanWt=          -1 IRanGd=           0 AccXCQ= 0.00D+00.
 Generated NRdTot=       0 NPtTot=           0 NUsed=           0 NTot=          32
 NSgBfM=   353   353   353   353   353 MxSgAt=    36 MxSgA2=    36.
 Leave Link  302 at Tue Mar  1 05:59:36 2022, MaxMem=   104857600 cpu:               4.1 elap:               1.1
 (Enter /dades/curu/g16A03_MST/g16/l303.exe)
 DipDrv:  MaxL=1.
 Leave Link  303 at Tue Mar  1 05:59:36 2022, MaxMem=   104857600 cpu:               0.1 elap:               0.1
 (Enter /dades/curu/g16A03_MST/g16/l401.exe)
 ExpMin= 1.61D-01 ExpMax= 7.00D+03 ExpMxC= 1.05D+03 IAcc=3 IRadAn=         5 AccDes= 0.00D+00
 Harris functional with IExCor=  402 and IRadAn=       5 diagonalized for initial guess.
 HarFok:  IExCor=  402 AccDes= 0.00D+00 IRadAn=         5 IDoV= 1 UseB2=F ITyADJ=14
 ICtDFT=  3500011 ScaDFX=  1.000000  1.000000  1.000000  1.000000
 FoFCou: FMM=F IPFlag=           0 FMFlag=      100000 FMFlg1=           0
         NFxFlg=           0 DoJE=T BraDBF=F KetDBF=T FulRan=T
         wScrn=  0.000000 ICntrl=       500 IOpCl=  0 I1Cent=   200000004 NGrid=           0
         NMat0=    1 NMatS0=      1 NMatT0=    0 NMatD0=    1 NMtDS0=    0 NMtDT0=    0
 Petite list used in FoFCou.
 Harris En= -1069.74684793837    
 JPrj=0 DoOrth=F DoCkMO=F.
 Leave Link  401 at Tue Mar  1 05:59:44 2022, MaxMem=   104857600 cpu:              32.1 elap:               8.1
 (Enter /dades/curu/g16A03_MST/g16/l502.exe)
 Integral symmetry usage will be decided dynamically.
 Closed shell SCF:
 Using DIIS extrapolation, IDIIS=  1040.
 NGot=   104857600 LenX=   104595214 LenY=   104466609
 Requested convergence on RMS density matrix=1.00D-08 within2000 cycles.
 Requested convergence on MAX density matrix=1.00D-06.
 Requested convergence on             energy=1.00D-06.
 No special actions if energy rises.

 Cycle   1  Pass 1  IDiag  1:
 FoFJK:  IHMeth= 1 ICntrl=       0 DoSepK=F KAlg= 0 I1Cent=           0 FoldK=F
 IRaf= 740000000 NMat=       1 IRICut=       1 DoRegI=T DoRafI=F ISym2E= 0 IDoP0=0 IntGTp=1.
 FoFCou: FMM=F IPFlag=           0 FMFlag=      100000 FMFlg1=           0
         NFxFlg=           0 DoJE=F BraDBF=F KetDBF=F FulRan=T
         wScrn=  0.000000 ICntrl=         0 IOpCl=  0 I1Cent=           0 NGrid=           0
         NMat0=    1 NMatS0=      1 NMatT0=    0 NMatD0=    1 NMtDS0=    0 NMtDT0=    0
 Symmetry not used in FoFCou.
 Inv3:  Mode=1 IEnd=    20956347.
 Iteration    1 A*A^-1 deviation from unit magnitude is 6.99D-15 for   2641.
 Iteration    1 A*A^-1 deviation from orthogonality  is 3.60D-15 for   2633   2575.
 Iteration    1 A^-1*A deviation from unit magnitude is 7.22D-15 for   2641.
 Iteration    1 A^-1*A deviation from orthogonality  is 3.40D-15 for   2631    376.
 E= -1069.39633780948    
 DIIS: error= 2.13D-02 at cycle   1 NSaved=   1.
 NSaved= 1 IEnMin= 1 EnMin= -1069.39633780948     IErMin= 1 ErrMin= 2.13D-02
 ErrMax= 2.13D-02  0.00D+00 EMaxC= 1.00D-01 BMatC= 4.93D-01 BMatP= 4.93D-01
 IDIUse=3 WtCom= 7.87D-01 WtEn= 2.13D-01
 Coeff-Com:  0.100D+01
 Coeff-En:   0.100D+01
 Coeff:      0.100D+01
 Gap=     0.221 Goal=   None    Shift=    0.000
 GapD=    0.221 DampG=1.000 DampE=0.500 DampFc=0.5000 IDamp=-1.
 Damping current iteration by 5.00D-01
 RMSDP=4.59D-03 MaxDP=1.91D-01              OVMax= 2.72D-01

 Cycle   2  Pass 1  IDiag  1:
 E= -1069.52906553379     Delta-E=       -0.132727724316 Rises=F Damp=T
 DIIS: error= 8.03D-03 at cycle   2 NSaved=   2.
 NSaved= 2 IEnMin= 2 EnMin= -1069.52906553379     IErMin= 2 ErrMin= 8.03D-03
 ErrMax= 8.03D-03  0.00D+00 EMaxC= 1.00D-01 BMatC= 7.64D-02 BMatP= 4.93D-01
 IDIUse=3 WtCom= 9.20D-01 WtEn= 8.03D-02
 Coeff-Com:  0.197D+00 0.803D+00
 Coeff-En:   0.305D+00 0.695D+00
 Coeff:      0.205D+00 0.795D+00
 Gap=     0.238 Goal=   None    Shift=    0.000
 RMSDP=1.48D-03 MaxDP=7.12D-02 DE=-1.33D-01 OVMax= 1.63D-01

 Cycle   3  Pass 1  IDiag  1:
 E= -1069.77137663837     Delta-E=       -0.242311104576 Rises=F Damp=F
 DIIS: error= 9.69D-03 at cycle   3 NSaved=   3.
 NSaved= 3 IEnMin= 3 EnMin= -1069.77137663837     IErMin= 2 ErrMin= 8.03D-03
 ErrMax= 9.69D-03  0.00D+00 EMaxC= 1.00D-01 BMatC= 6.34D-02 BMatP= 7.64D-02
 IDIUse=3 WtCom= 9.03D-01 WtEn= 9.69D-02
 Coeff-Com:  0.336D-01 0.471D+00 0.495D+00
 Coeff-En:   0.000D+00 0.000D+00 0.100D+01
 Coeff:      0.304D-01 0.425D+00 0.544D+00
 Gap=     0.187 Goal=   None    Shift=    0.000
 RMSDP=9.37D-04 MaxDP=4.64D-02 DE=-2.42D-01 OVMax= 7.89D-02

 Cycle   4  Pass 1  IDiag  1:
 E= -1069.81621325401     Delta-E=       -0.044836615640 Rises=F Damp=F
 DIIS: error= 4.85D-03 at cycle   4 NSaved=   4.
 NSaved= 4 IEnMin= 4 EnMin= -1069.81621325401     IErMin= 4 ErrMin= 4.85D-03
 ErrMax= 4.85D-03  0.00D+00 EMaxC= 1.00D-01 BMatC= 1.19D-02 BMatP= 6.34D-02
 IDIUse=3 WtCom= 9.51D-01 WtEn= 4.85D-02
 Coeff-Com:  0.905D-03 0.121D+00 0.324D+00 0.554D+00
 Coeff-En:   0.000D+00 0.000D+00 0.175D+00 0.825D+00
 Coeff:      0.861D-03 0.115D+00 0.316D+00 0.567D+00
 Gap=     0.186 Goal=   None    Shift=    0.000
 RMSDP=3.44D-04 MaxDP=2.02D-02 DE=-4.48D-02 OVMax= 3.49D-02

 Cycle   5  Pass 1  IDiag  1:
 E= -1069.82539631487     Delta-E=       -0.009183060862 Rises=F Damp=F
 DIIS: error= 1.39D-03 at cycle   5 NSaved=   5.
 NSaved= 5 IEnMin= 5 EnMin= -1069.82539631487     IErMin= 5 ErrMin= 1.39D-03
 ErrMax= 1.39D-03  0.00D+00 EMaxC= 1.00D-01 BMatC= 1.05D-03 BMatP= 1.19D-02
 IDIUse=3 WtCom= 9.86D-01 WtEn= 1.39D-02
 Coeff-Com: -0.208D-02 0.202D-01 0.128D+00 0.330D+00 0.523D+00
 Coeff-En:   0.000D+00 0.000D+00 0.000D+00 0.251D-01 0.975D+00
 Coeff:     -0.205D-02 0.199D-01 0.126D+00 0.326D+00 0.530D+00
 Gap=     0.186 Goal=   None    Shift=    0.000
 RMSDP=9.61D-05 MaxDP=5.71D-03 DE=-9.18D-03 OVMax= 8.77D-03

 Cycle   6  Pass 1  IDiag  1:
 E= -1069.82621975926     Delta-E=       -0.000823444388 Rises=F Damp=F
 DIIS: error= 3.38D-04 at cycle   6 NSaved=   6.
 NSaved= 6 IEnMin= 6 EnMin= -1069.82621975926     IErMin= 6 ErrMin= 3.38D-04
 ErrMax= 3.38D-04  0.00D+00 EMaxC= 1.00D-01 BMatC= 8.50D-05 BMatP= 1.05D-03
 IDIUse=3 WtCom= 9.97D-01 WtEn= 3.38D-03
 Coeff-Com: -0.122D-02 0.241D-02 0.470D-01 0.140D+00 0.304D+00 0.507D+00
 Coeff-En:   0.000D+00 0.000D+00 0.000D+00 0.000D+00 0.000D+00 0.100D+01
 Coeff:     -0.121D-02 0.240D-02 0.469D-01 0.140D+00 0.303D+00 0.509D+00
 Gap=     0.185 Goal=   None    Shift=    0.000
 RMSDP=2.71D-05 MaxDP=1.44D-03 DE=-8.23D-04 OVMax= 1.92D-03

 Cycle   7  Pass 1  IDiag  1:
 E= -1069.82628290017     Delta-E=       -0.000063140913 Rises=F Damp=F
 DIIS: error= 7.62D-05 at cycle   7 NSaved=   7.
 NSaved= 7 IEnMin= 7 EnMin= -1069.82628290017     IErMin= 7 ErrMin= 7.62D-05
 ErrMax= 7.62D-05  0.00D+00 EMaxC= 1.00D-01 BMatC= 7.50D-06 BMatP= 8.50D-05
 IDIUse=1 WtCom= 1.00D+00 WtEn= 0.00D+00
 Coeff-Com: -0.494D-03-0.529D-03 0.144D-01 0.470D-01 0.125D+00 0.292D+00
 Coeff-Com:  0.523D+00
 Coeff:     -0.494D-03-0.529D-03 0.144D-01 0.470D-01 0.125D+00 0.292D+00
 Coeff:      0.523D+00
 Gap=     0.185 Goal=   None    Shift=    0.000
 RMSDP=8.19D-06 MaxDP=4.58D-04 DE=-6.31D-05 OVMax= 8.23D-04

 Cycle   8  Pass 1  IDiag  1:
 E= -1069.82628815684     Delta-E=       -0.000005256662 Rises=F Damp=F
 DIIS: error= 3.33D-05 at cycle   8 NSaved=   8.
 NSaved= 8 IEnMin= 8 EnMin= -1069.82628815684     IErMin= 8 ErrMin= 3.33D-05
 ErrMax= 3.33D-05  0.00D+00 EMaxC= 1.00D-01 BMatC= 9.75D-07 BMatP= 7.50D-06
 IDIUse=1 WtCom= 1.00D+00 WtEn= 0.00D+00
 Coeff-Com: -0.139D-03-0.552D-03 0.336D-02 0.120D-01 0.424D-01 0.118D+00
 Coeff-Com:  0.316D+00 0.508D+00
 Coeff:     -0.139D-03-0.552D-03 0.336D-02 0.120D-01 0.424D-01 0.118D+00
 Coeff:      0.316D+00 0.508D+00
 Gap=     0.185 Goal=   None    Shift=    0.000
 RMSDP=2.64D-06 MaxDP=1.60D-04 DE=-5.26D-06 OVMax= 2.31D-04

 Cycle   9  Pass 1  IDiag  1:
 E= -1069.82628888690     Delta-E=       -0.000000730062 Rises=F Damp=F
 DIIS: error= 5.94D-06 at cycle   9 NSaved=   9.
 NSaved= 9 IEnMin= 9 EnMin= -1069.82628888690     IErMin= 9 ErrMin= 5.94D-06
 ErrMax= 5.94D-06  0.00D+00 EMaxC= 1.00D-01 BMatC= 4.01D-08 BMatP= 9.75D-07
 IDIUse=1 WtCom= 1.00D+00 WtEn= 0.00D+00
 Coeff-Com: -0.243D-05-0.165D-03 0.320D-04 0.399D-04 0.540D-02 0.186D-01
 Coeff-Com:  0.768D-01 0.209D+00 0.691D+00
 Coeff:     -0.243D-05-0.165D-03 0.320D-04 0.399D-04 0.540D-02 0.186D-01
 Coeff:      0.768D-01 0.209D+00 0.691D+00
 Gap=     0.185 Goal=   None    Shift=    0.000
 RMSDP=7.70D-07 MaxDP=3.90D-05 DE=-7.30D-07 OVMax= 6.05D-05

 Cycle  10  Pass 1  IDiag  1:
 E= -1069.82628890914     Delta-E=       -0.000000022244 Rises=F Damp=F
 DIIS: error= 3.43D-06 at cycle  10 NSaved=  10.
 NSaved=10 IEnMin=10 EnMin= -1069.82628890914     IErMin=10 ErrMin= 3.43D-06
 ErrMax= 3.43D-06  0.00D+00 EMaxC= 1.00D-01 BMatC= 1.30D-08 BMatP= 4.01D-08
 IDIUse=1 WtCom= 1.00D+00 WtEn= 0.00D+00
 Coeff-Com:  0.124D-04-0.652D-04-0.286D-03-0.110D-02-0.519D-03 0.189D-03
 Coeff-Com:  0.169D-01 0.788D-01 0.437D+00 0.469D+00
 Coeff:      0.124D-04-0.652D-04-0.286D-03-0.110D-02-0.519D-03 0.189D-03
 Coeff:      0.169D-01 0.788D-01 0.437D+00 0.469D+00
 Gap=     0.185 Goal=   None    Shift=    0.000
 RMSDP=3.66D-07 MaxDP=1.67D-05 DE=-2.22D-08 OVMax= 3.03D-05

 Cycle  11  Pass 1  IDiag  1:
 E= -1069.82628892133     Delta-E=       -0.000000012188 Rises=F Damp=F
 DIIS: error= 6.32D-07 at cycle  11 NSaved=  11.
 NSaved=11 IEnMin=11 EnMin= -1069.82628892133     IErMin=11 ErrMin= 6.32D-07
 ErrMax= 6.32D-07  0.00D+00 EMaxC= 1.00D-01 BMatC= 5.97D-10 BMatP= 1.30D-08
 IDIUse=1 WtCom= 1.00D+00 WtEn= 0.00D+00
 Coeff-Com:  0.700D-05-0.156D-04-0.142D-03-0.561D-03-0.717D-03-0.157D-02
 Coeff-Com:  0.185D-02 0.210D-01 0.158D+00 0.232D+00 0.590D+00
 Coeff:      0.700D-05-0.156D-04-0.142D-03-0.561D-03-0.717D-03-0.157D-02
 Coeff:      0.185D-02 0.210D-01 0.158D+00 0.232D+00 0.590D+00
 Gap=     0.185 Goal=   None    Shift=    0.000
 RMSDP=9.09D-08 MaxDP=3.96D-06 DE=-1.22D-08 OVMax= 7.71D-06

 Cycle  12  Pass 1  IDiag  1:
 E= -1069.82628892177     Delta-E=       -0.000000000436 Rises=F Damp=F
 DIIS: error= 3.27D-07 at cycle  12 NSaved=  12.
 NSaved=12 IEnMin=12 EnMin= -1069.82628892177     IErMin=12 ErrMin= 3.27D-07
 ErrMax= 3.27D-07  0.00D+00 EMaxC= 1.00D-01 BMatC= 1.26D-10 BMatP= 5.97D-10
 IDIUse=1 WtCom= 1.00D+00 WtEn= 0.00D+00
 Coeff-Com:  0.221D-05 0.898D-06-0.425D-04-0.171D-03-0.387D-03-0.112D-02
 Coeff-Com: -0.193D-02-0.127D-02 0.198D-01 0.572D-01 0.351D+00 0.577D+00
 Coeff:      0.221D-05 0.898D-06-0.425D-04-0.171D-03-0.387D-03-0.112D-02
 Coeff:     -0.193D-02-0.127D-02 0.198D-01 0.572D-01 0.351D+00 0.577D+00
 Gap=     0.185 Goal=   None    Shift=    0.000
 RMSDP=3.44D-08 MaxDP=1.46D-06 DE=-4.36D-10 OVMax= 2.50D-06

 Cycle  13  Pass 1  IDiag  1:
 E= -1069.82628892189     Delta-E=       -0.000000000129 Rises=F Damp=F
 DIIS: error= 6.00D-08 at cycle  13 NSaved=  13.
 NSaved=13 IEnMin=13 EnMin= -1069.82628892189     IErMin=13 ErrMin= 6.00D-08
 ErrMax= 6.00D-08  0.00D+00 EMaxC= 1.00D-01 BMatC= 3.85D-12 BMatP= 1.26D-10
 IDIUse=1 WtCom= 1.00D+00 WtEn= 0.00D+00
 Coeff-Com:  0.353D-06 0.113D-05-0.410D-05-0.194D-04-0.754D-04-0.280D-03
 Coeff-Com: -0.761D-03-0.199D-02-0.400D-02 0.456D-02 0.921D-01 0.214D+00
 Coeff-Com:  0.696D+00
 Coeff:      0.353D-06 0.113D-05-0.410D-05-0.194D-04-0.754D-04-0.280D-03
 Coeff:     -0.761D-03-0.199D-02-0.400D-02 0.456D-02 0.921D-01 0.214D+00
 Coeff:      0.696D+00
 Gap=     0.185 Goal=   None    Shift=    0.000
 RMSDP=9.12D-09 MaxDP=3.71D-07 DE=-1.29D-10 OVMax= 8.57D-07

 Error on total polarization charges =  0.01888
 SCF Done:  E(RB3LYP) =  -1069.82628892     A.U. after   13 cycles
            NFock= 13  Conv=0.91D-08     -V/T= 2.0091
 KE= 1.060220819337D+03 PE=-6.049346324988D+03 EE= 2.142279443764D+03
 Leave Link  502 at Tue Mar  1 06:03:50 2022, MaxMem=   104857600 cpu:             952.8 elap:             245.7
 (Enter /dades/curu/g16A03_MST/g16/l601.exe)
 Copying SCF densities to generalized density rwf, IOpCl= 0 IROHF=0.

 **********************************************************************

            Population analysis using the SCF density.

 **********************************************************************

 Orbital symmetries:
       Occupied  (A) (A) (A) (A) (A) (A) (A) (A) (A) (A) (A) (A)
                 (A) (A) (A) (A) (A) (A) (A) (A) (A) (A) (A) (A)
                 (A) (A) (A) (A) (A) (A) (A) (A) (A) (A) (A) (A)
                 (A) (A) (A) (A) (A) (A) (A) (A) (A) (A) (A) (A)
                 (A) (A) (A) (A) (A) (A) (A) (A) (A) (A) (A) (A)
                 (A) (A) (A) (A) (A) (A) (A) (A) (A) (A) (A) (A)
                 (A) (A) (A) (A) (A) (A) (A)
       Virtual   (A) (A) (A) (A) (A) (A) (A) (A) (A) (A) (A) (A)
                 (A) (A) (A) (A) (A) (A) (A) (A) (A) (A) (A) (A)
                 (A) (A) (A) (A) (A) (A) (A) (A) (A) (A) (A) (A)
                 (A) (A) (A) (A) (A) (A) (A) (A) (A) (A) (A) (A)
                 (A) (A) (A) (A) (A) (A) (A) (A) (A) (A) (A) (A)
                 (A) (A) (A) (A) (A) (A) (A) (A) (A) (A) (A) (A)
                 (A) (A) (A) (A) (A) (A) (A) (A) (A) (A) (A) (A)
                 (A) (A) (A) (A) (A) (A) (A) (A) (A) (A) (A) (A)
                 (A) (A) (A) (A) (A) (A) (A) (A) (A) (A) (A) (A)
                 (A) (A) (A) (A) (A) (A) (A) (A) (A) (A) (A) (A)
                 (A) (A) (A) (A) (A) (A) (A) (A) (A) (A) (A) (A)
                 (A) (A) (A) (A) (A) (A) (A) (A) (A) (A) (A) (A)
                 (A) (A) (A) (A) (A) (A) (A) (A) (A) (A) (A) (A)
                 (A) (A) (A) (A) (A) (A) (A) (A) (A) (A) (A) (A)
                 (A) (A) (A) (A) (A) (A) (A) (A) (A) (A) (A) (A)
                 (A) (A) (A) (A) (A) (A) (A) (A) (A) (A) (A) (A)
                 (A) (A) (A) (A) (A) (A) (A) (A) (A) (A) (A) (A)
                 (A) (A) (A) (A) (A) (A) (A) (A) (A) (A) (A) (A)
                 (A) (A) (A) (A) (A) (A) (A) (A) (A) (A) (A) (A)
                 (A) (A) (A) (A) (A) (A) (A) (A) (A) (A) (A) (A)
                 (A) (A) (A) (A) (A) (A) (A) (A) (A) (A) (A) (A)
                 (A) (A) (A) (A) (A) (A) (A) (A) (A) (A) (A) (A)
                 (A) (A) (A) (A) (A) (A) (A) (A) (A) (A) (A) (A)
                 (A) (A) (A)
 The electronic state is 1-A.
 Alpha  occ. eigenvalues --  -24.72012 -19.19583 -19.14399 -19.12434 -14.42396
 Alpha  occ. eigenvalues --  -14.37563 -14.33720 -10.32755 -10.30290 -10.28561
 Alpha  occ. eigenvalues --  -10.26552 -10.25821 -10.24635 -10.23969 -10.23869
 Alpha  occ. eigenvalues --  -10.23014 -10.22508 -10.21933 -10.21430 -10.21304
 Alpha  occ. eigenvalues --  -10.21283 -10.17828  -1.23490  -1.10269  -1.05043
 Alpha  occ. eigenvalues --   -1.04205  -1.01810  -0.95077  -0.92187  -0.87028
 Alpha  occ. eigenvalues --   -0.80189  -0.78567  -0.77800  -0.75952  -0.72719
 Alpha  occ. eigenvalues --   -0.70810  -0.67739  -0.65883  -0.64262  -0.61507
 Alpha  occ. eigenvalues --   -0.59276  -0.58355  -0.57004  -0.55680  -0.54072
 Alpha  occ. eigenvalues --   -0.51442  -0.50454  -0.49865  -0.49312  -0.48563
 Alpha  occ. eigenvalues --   -0.47910  -0.47505  -0.47142  -0.46035  -0.45692
 Alpha  occ. eigenvalues --   -0.44401  -0.43047  -0.42845  -0.42187  -0.41524
 Alpha  occ. eigenvalues --   -0.41017  -0.40296  -0.40127  -0.39392  -0.39122
 Alpha  occ. eigenvalues --   -0.38801  -0.37057  -0.36379  -0.35905  -0.34988
 Alpha  occ. eigenvalues --   -0.31627  -0.30387  -0.29973  -0.28485  -0.28269
 Alpha  occ. eigenvalues --   -0.26058  -0.25946  -0.24548  -0.23724
 Alpha virt. eigenvalues --   -0.05199  -0.04221  -0.02142   0.02409   0.04174
 Alpha virt. eigenvalues --    0.08740   0.09873   0.10571   0.11533   0.12036
 Alpha virt. eigenvalues --    0.13095   0.13201   0.14635   0.14882   0.15394
 Alpha virt. eigenvalues --    0.15730   0.15789   0.16050   0.16837   0.17552
 Alpha virt. eigenvalues --    0.18006   0.18415   0.18589   0.19679   0.19867
 Alpha virt. eigenvalues --    0.20265   0.22681   0.22975   0.24432   0.25493
 Alpha virt. eigenvalues --    0.25648   0.26729   0.28770   0.30632   0.31820
 Alpha virt. eigenvalues --    0.33233   0.34050   0.34738   0.37659   0.38598
 Alpha virt. eigenvalues --    0.41410   0.43009   0.44085   0.45845   0.48369
 Alpha virt. eigenvalues --    0.48960   0.49924   0.50578   0.51103   0.52238
 Alpha virt. eigenvalues --    0.53014   0.53138   0.53615   0.54290   0.54871
 Alpha virt. eigenvalues --    0.55153   0.55660   0.56517   0.57510   0.58195
 Alpha virt. eigenvalues --    0.58411   0.58973   0.59717   0.60032   0.61185
 Alpha virt. eigenvalues --    0.62675   0.63144   0.63691   0.64536   0.65720
 Alpha virt. eigenvalues --    0.66063   0.67210   0.68093   0.69621   0.70430
 Alpha virt. eigenvalues --    0.71127   0.71517   0.73487   0.73944   0.75004
 Alpha virt. eigenvalues --    0.75842   0.76934   0.77852   0.78562   0.80146
 Alpha virt. eigenvalues --    0.81604   0.81886   0.82205   0.83239   0.84422
 Alpha virt. eigenvalues --    0.85050   0.86142   0.86369   0.87483   0.87848
 Alpha virt. eigenvalues --    0.88952   0.89057   0.90397   0.90504   0.91310
 Alpha virt. eigenvalues --    0.92258   0.93113   0.93974   0.94647   0.95212
 Alpha virt. eigenvalues --    0.96780   0.97305   0.97872   0.99218   1.00047
 Alpha virt. eigenvalues --    1.02078   1.02761   1.03993   1.04820   1.05740
 Alpha virt. eigenvalues --    1.08965   1.10049   1.10477   1.12278   1.13076
 Alpha virt. eigenvalues --    1.16090   1.16708   1.18187   1.20240   1.20719
 Alpha virt. eigenvalues --    1.22046   1.22117   1.24106   1.24645   1.27916
 Alpha virt. eigenvalues --    1.29347   1.31558   1.32548   1.34079   1.34360
 Alpha virt. eigenvalues --    1.36351   1.36712   1.38164   1.39582   1.40116
 Alpha virt. eigenvalues --    1.41103   1.41878   1.43190   1.44025   1.45333
 Alpha virt. eigenvalues --    1.46530   1.47347   1.48334   1.50895   1.52440
 Alpha virt. eigenvalues --    1.53938   1.57193   1.60168   1.61294   1.64715
 Alpha virt. eigenvalues --    1.66835   1.68181   1.70158   1.72059   1.72297
 Alpha virt. eigenvalues --    1.74033   1.75489   1.76310   1.77885   1.78446
 Alpha virt. eigenvalues --    1.78987   1.81103   1.81320   1.81403   1.83421
 Alpha virt. eigenvalues --    1.84268   1.85376   1.86015   1.87304   1.88799
 Alpha virt. eigenvalues --    1.89622   1.90689   1.92244   1.92675   1.93134
 Alpha virt. eigenvalues --    1.94763   1.95496   1.97090   1.97896   1.98282
 Alpha virt. eigenvalues --    2.00503   2.01041   2.02420   2.03307   2.04492
 Alpha virt. eigenvalues --    2.05691   2.07591   2.09284   2.09837   2.10875
 Alpha virt. eigenvalues --    2.12024   2.13548   2.14333   2.15886   2.17310
 Alpha virt. eigenvalues --    2.17717   2.18776   2.19489   2.22224   2.24226
 Alpha virt. eigenvalues --    2.24594   2.26168   2.27375   2.28023   2.28916
 Alpha virt. eigenvalues --    2.29216   2.31771   2.33756   2.34428   2.34846
 Alpha virt. eigenvalues --    2.35662   2.36893   2.38547   2.40248   2.45585
 Alpha virt. eigenvalues --    2.47010   2.47385   2.51172   2.51890   2.52222
 Alpha virt. eigenvalues --    2.54342   2.55501   2.57730   2.60475   2.61490
 Alpha virt. eigenvalues --    2.62088   2.63240   2.64087   2.65365   2.67713
 Alpha virt. eigenvalues --    2.69102   2.71566   2.72472   2.72747   2.76851
 Alpha virt. eigenvalues --    2.77769   2.82367   2.83000   2.84503   2.90162
 Alpha virt. eigenvalues --    2.93011   2.95229   3.00407   3.03570   3.06922
 Alpha virt. eigenvalues --    3.10478   3.12223   3.14272   3.21317   3.29369
 Alpha virt. eigenvalues --    3.32449   3.43338   3.94990   4.00464   4.06445
 Alpha virt. eigenvalues --    4.06826   4.08209   4.10691   4.11778   4.14333
 Alpha virt. eigenvalues --    4.18039   4.18797   4.26218   4.32154   4.35407
 Alpha virt. eigenvalues --    4.38471   4.39634   4.40007   4.48693   4.57620
 Alpha virt. eigenvalues --    4.61900   4.67601   4.76846   5.42317
          Condensed to atoms (all electrons):
               1          2          3          4          5          6
     1  C    5.095349   0.376165  -0.043217   0.004392   0.000925  -0.000115
     2  C    0.376165   4.805128   0.195881  -0.017966   0.002182   0.007804
     3  O   -0.043217   0.195881   8.280089   0.267331  -0.077669  -0.082568
     4  C    0.004392  -0.017966   0.267331   4.342082   0.520973   0.371702
     5  O    0.000925   0.002182  -0.077669   0.520973   8.160082  -0.074478
     6  C   -0.000115   0.007804  -0.082568   0.371702  -0.074478   4.989654
     7  C   -0.000000  -0.000053   0.003373  -0.056857  -0.003309   0.504141
     8  C   -0.000000   0.000001  -0.000020  -0.007399  -0.007467  -0.047065
     9  N   -0.000000   0.000000   0.000000  -0.000340  -0.000073   0.003232
    10  C    0.000000   0.000000  -0.000000  -0.000017  -0.000599  -0.000099
    11  C    0.000000   0.000000  -0.000000   0.000005  -0.000004   0.000027
    12  O   -0.000000  -0.000000   0.000000   0.000000   0.000000  -0.000000
    13  C    0.000000   0.000000   0.000000  -0.000010  -0.000001   0.000034
    14  C    0.000000   0.000000  -0.000000  -0.000000  -0.000000   0.000004
    15  C   -0.000000  -0.000000   0.000000   0.000000   0.000000   0.000000
    16  F    0.000000   0.000000   0.000000  -0.000000   0.000000   0.000000
    17  C    0.000000  -0.000000   0.000000  -0.000000   0.000000   0.000002
    18  C   -0.000000   0.000000  -0.000000   0.000001  -0.000000  -0.000374
    19  C    0.000000  -0.000000   0.000000  -0.000011   0.000002   0.007821
    20  N   -0.000000   0.000001  -0.000017   0.005398   0.000146  -0.033648
    21  C    0.000000   0.000003   0.000287   0.005029  -0.000100  -0.106628
    22  N   -0.000039  -0.000160   0.002834  -0.052513   0.002423   0.364437
    23  H    0.373131  -0.031212   0.001125  -0.000021  -0.000010  -0.000031
    24  H    0.369563  -0.027452   0.002677  -0.000037   0.000017   0.000004
    25  H    0.373037  -0.031241   0.001144  -0.000031  -0.000010  -0.000029
    26  H   -0.040355   0.376152  -0.034974  -0.004866   0.005679  -0.000196
    27  H   -0.040257   0.376009  -0.035151  -0.004645   0.005720  -0.000145
    28  H   -0.000000  -0.000006   0.000097   0.001683   0.019327  -0.007589
    29  H   -0.000000  -0.000000   0.000002   0.000067   0.000255   0.001974
    30  H   -0.000000  -0.000000   0.000000   0.000002   0.000007  -0.000017
    31  H   -0.000000  -0.000002  -0.000000   0.000629   0.002243  -0.000375
    32  H    0.000000   0.000000  -0.000000  -0.000015  -0.000020   0.000070
    33  H    0.000000   0.000000  -0.000000  -0.000000  -0.000000   0.000000
    34  H   -0.000000   0.000000  -0.000000   0.000000  -0.000000  -0.000000
    35  H   -0.000000   0.000000   0.000000  -0.000000   0.000000  -0.000020
    36  H   -0.000000  -0.000000   0.000000  -0.000124   0.000001   0.004300
               7          8          9         10         11         12
     1  C   -0.000000  -0.000000  -0.000000   0.000000   0.000000  -0.000000
     2  C   -0.000053   0.000001   0.000000   0.000000   0.000000  -0.000000
     3  O    0.003373  -0.000020   0.000000  -0.000000  -0.000000   0.000000
     4  C   -0.056857  -0.007399  -0.000340  -0.000017   0.000005   0.000000
     5  O   -0.003309  -0.007467  -0.000073  -0.000599  -0.000004   0.000000
     6  C    0.504141  -0.047065   0.003232  -0.000099   0.000027  -0.000000
     7  C    4.848466   0.324439  -0.065002   0.001296  -0.002950  -0.000169
     8  C    0.324439   5.144214   0.249240  -0.040280  -0.025647   0.002737
     9  N   -0.065002   0.249240   7.073393   0.272374   0.271910  -0.097156
    10  C    0.001296  -0.040280   0.272374   4.987320  -0.023284  -0.006925
    11  C   -0.002950  -0.025647   0.271910  -0.023284   4.416835   0.583217
    12  O   -0.000169   0.002737  -0.097156  -0.006925   0.583217   8.157545
    13  C   -0.009045   0.006022  -0.090968   0.005550   0.289745  -0.108105
    14  C    0.000221  -0.001119   0.005920  -0.000120  -0.035941   0.005458
    15  C    0.000017  -0.000013  -0.000084   0.000001   0.004746   0.001233
    16  F    0.000000  -0.000000   0.000000  -0.000000  -0.000030   0.000000
    17  C   -0.000102  -0.000005   0.000004  -0.000000  -0.000225  -0.000000
    18  C    0.004825   0.000009  -0.000187   0.000007   0.005483  -0.000057
    19  C   -0.028380   0.000576  -0.006956   0.000020  -0.031399   0.001369
    20  N    0.341367  -0.070726  -0.006607   0.000010  -0.013279  -0.000026
    21  C   -0.087116   0.005532   0.000061  -0.000004  -0.000186   0.000002
    22  N   -0.084356   0.008214  -0.000129  -0.000002  -0.000026   0.000000
    23  H   -0.000000  -0.000000  -0.000000  -0.000000  -0.000000  -0.000000
    24  H   -0.000000   0.000000   0.000000   0.000000   0.000000  -0.000000
    25  H   -0.000000  -0.000000   0.000000   0.000000  -0.000000   0.000000
    26  H    0.000006  -0.000001   0.000000   0.000000   0.000000   0.000000
    27  H   -0.000002   0.000001  -0.000000  -0.000000  -0.000000  -0.000000
    28  H   -0.022323   0.359528  -0.027086  -0.003375   0.002633  -0.000066
    29  H   -0.037674   0.364511  -0.046089   0.003622  -0.002504   0.000153
    30  H   -0.000239   0.004158  -0.033126   0.371187  -0.001786   0.017671
    31  H    0.001391   0.001681  -0.045854   0.376031   0.001936   0.000549
    32  H    0.000018  -0.003683  -0.043704   0.384020   0.000053   0.000532
    33  H   -0.000002  -0.000042   0.000479  -0.000012  -0.006366   0.011559
    34  H    0.000001  -0.000000   0.000000   0.000000   0.000007   0.000000
    35  H   -0.000093  -0.000003   0.000001  -0.000000  -0.000081   0.000001
    36  H    0.004271  -0.000133   0.000005  -0.000000   0.000014  -0.000000
              13         14         15         16         17         18
     1  C    0.000000   0.000000  -0.000000   0.000000   0.000000  -0.000000
     2  C    0.000000   0.000000  -0.000000   0.000000  -0.000000   0.000000
     3  O    0.000000  -0.000000   0.000000   0.000000   0.000000  -0.000000
     4  C   -0.000010  -0.000000   0.000000  -0.000000  -0.000000   0.000001
     5  O   -0.000001  -0.000000   0.000000   0.000000   0.000000  -0.000000
     6  C    0.000034   0.000004   0.000000   0.000000   0.000002  -0.000374
     7  C   -0.009045   0.000221   0.000017   0.000000  -0.000102   0.004825
     8  C    0.006022  -0.001119  -0.000013  -0.000000  -0.000005   0.000009
     9  N   -0.090968   0.005920  -0.000084   0.000000   0.000004  -0.000187
    10  C    0.005550  -0.000120   0.000001  -0.000000  -0.000000   0.000007
    11  C    0.289745  -0.035941   0.004746  -0.000030  -0.000225   0.005483
    12  O   -0.108105   0.005458   0.001233   0.000000  -0.000000  -0.000057
    13  C    5.122013   0.409842  -0.005760   0.003242  -0.029955  -0.051283
    14  C    0.409842   5.270108   0.431148  -0.041452  -0.076763  -0.045889
    15  C   -0.005760   0.431148   4.500080   0.303327   0.469670  -0.002887
    16  F    0.003242  -0.041452   0.303327   9.069952  -0.044166   0.003259
    17  C   -0.029955  -0.076763   0.469670  -0.044166   5.108222   0.458854
    18  C   -0.051283  -0.045889  -0.002887   0.003259   0.458854   5.053209
    19  C    0.481968  -0.025519  -0.037634   0.000044  -0.014200   0.488723
    20  N   -0.043227   0.006305  -0.000062   0.000000   0.005398  -0.067444
    21  C    0.002884  -0.000048   0.000004  -0.000000   0.000144  -0.003787
    22  N   -0.000308   0.000000   0.000000   0.000000  -0.000007   0.000256
    23  H    0.000000  -0.000000  -0.000000   0.000000   0.000000   0.000000
    24  H    0.000000   0.000000  -0.000000   0.000000  -0.000000   0.000000
    25  H    0.000000   0.000000   0.000000   0.000000  -0.000000  -0.000000
    26  H    0.000000   0.000000  -0.000000   0.000000  -0.000000  -0.000000
    27  H   -0.000000  -0.000000  -0.000000   0.000000   0.000000   0.000000
    28  H   -0.000057   0.000009  -0.000000   0.000000  -0.000000   0.000000
    29  H    0.002874   0.000377   0.000018   0.000000  -0.000022   0.000255
    30  H    0.000997  -0.000024  -0.000000  -0.000000   0.000000   0.000000
    31  H   -0.000058  -0.000004  -0.000000   0.000000   0.000000  -0.000000
    32  H   -0.000266   0.000017   0.000000   0.000000  -0.000000   0.000000
    33  H   -0.043995   0.350010  -0.032062  -0.000651   0.006825  -0.000074
[...]
    36  H   -0.000000  -0.000000   0.000000  -0.000115   0.000001   0.004206
               7          8          9         10         11         12
     1  C   -0.000000   0.000000  -0.000000   0.000000  -0.000000  -0.000000
     2  C   -0.000062   0.000004  -0.000000   0.000000   0.000000  -0.000000
     3  O    0.003601  -0.000049   0.000001  -0.000000   0.000000   0.000000
     4  C   -0.057025  -0.007084  -0.000265  -0.000066   0.000006   0.000000
     5  O   -0.000011  -0.011316   0.000137  -0.000583  -0.000000   0.000000
     6  C    0.494899  -0.043439   0.001639   0.000090  -0.000166  -0.000000
     7  C    4.857542   0.325897  -0.053425   0.001276  -0.003785  -0.000155
     8  C    0.325897   5.150344   0.249186  -0.037453  -0.024561   0.002877
     9  N   -0.053425   0.249186   7.047293   0.273001   0.277526  -0.099697
    10  C    0.001276  -0.037453   0.273001   4.991144  -0.026046  -0.008164
    11  C   -0.003785  -0.024561   0.277526  -0.026046   4.420476   0.573277
    12  O   -0.000155   0.002877  -0.099697  -0.008164   0.573277   8.169937
    13  C   -0.009208   0.005284  -0.090040   0.005437   0.290199  -0.099472
    14  C    0.000263  -0.001274   0.005429  -0.000108  -0.035042   0.004349
    15  C    0.000018  -0.000015  -0.000100   0.000001   0.005007   0.001193
    16  F    0.000000   0.000000   0.000000  -0.000000  -0.000032   0.000000
    17  C   -0.000110  -0.000009   0.000007  -0.000000  -0.000236  -0.000001
    18  C    0.004632  -0.000031  -0.000219   0.000007   0.005402  -0.000053
    19  C   -0.030855   0.002618  -0.008057   0.000024  -0.033173   0.001721
    20  N    0.339586  -0.073586  -0.005141  -0.000041  -0.011623  -0.000024
    21  C   -0.086307   0.005997   0.000088  -0.000004  -0.000141   0.000002
    22  N   -0.087011   0.007289  -0.000081  -0.000001  -0.000019   0.000000
    23  H   -0.000000  -0.000000  -0.000000  -0.000000  -0.000000  -0.000000
    24  H   -0.000000   0.000000  -0.000000   0.000000  -0.000000  -0.000000
    25  H   -0.000000  -0.000000   0.000000   0.000000  -0.000000   0.000000
    26  H    0.000005  -0.000000   0.000000   0.000000  -0.000000   0.000000
    27  H   -0.000000   0.000001  -0.000000  -0.000000  -0.000000  -0.000000
    28  H   -0.023922   0.352968  -0.027216  -0.004006   0.002829  -0.000066
    29  H   -0.035472   0.362069  -0.043467   0.003235  -0.002328   0.000102
    30  H   -0.000204   0.004444  -0.037384   0.371255  -0.002183   0.019634
    31  H    0.000758  -0.000533  -0.041179   0.374219   0.002771   0.000643
    32  H    0.000008  -0.002188  -0.040847   0.383964  -0.000774   0.000631
    33  H   -0.000004  -0.000049   0.000603  -0.000013  -0.006922   0.013696
    34  H    0.000001  -0.000000   0.000000   0.000000   0.000008   0.000000
    35  H   -0.000055  -0.000006   0.000001  -0.000000  -0.000083   0.000000
    36  H    0.004162  -0.000142   0.000005  -0.000000   0.000017  -0.000000
              13         14         15         16         17         18
     1  C    0.000000   0.000000  -0.000000   0.000000   0.000000  -0.000000
     2  C    0.000000  -0.000000  -0.000000   0.000000  -0.000000   0.000000
     3  O    0.000000  -0.000000   0.000000   0.000000   0.000000  -0.000000
     4  C   -0.000009  -0.000000   0.000000  -0.000000  -0.000000   0.000002
     5  O   -0.000001  -0.000000   0.000000   0.000000   0.000000  -0.000000
     6  C    0.000041   0.000007  -0.000000   0.000000   0.000002  -0.000391
     7  C   -0.009208   0.000263   0.000018   0.000000  -0.000110   0.004632
     8  C    0.005284  -0.001274  -0.000015   0.000000  -0.000009  -0.000031
     9  N   -0.090040   0.005429  -0.000100   0.000000   0.000007  -0.000219
    10  C    0.005437  -0.000108   0.000001  -0.000000  -0.000000   0.000007
    11  C    0.290199  -0.035042   0.005007  -0.000032  -0.000236   0.005402
    12  O   -0.099472   0.004349   0.001193   0.000000  -0.000001  -0.000053
    13  C    5.107468   0.413455  -0.006882   0.003341  -0.030081  -0.048121
    14  C    0.413455   5.268646   0.429635  -0.041006  -0.076545  -0.045856
    15  C   -0.006882   0.429635   4.509496   0.297583   0.471736  -0.003019
    16  F    0.003341  -0.041006   0.297583   9.082997  -0.043690   0.003298
    17  C   -0.030081  -0.076545   0.471736  -0.043690   5.107414   0.452875
    18  C   -0.048121  -0.045856  -0.003019   0.003298   0.452875   5.045935
    19  C    0.482355  -0.028780  -0.038680   0.000066  -0.014980   0.498007
    20  N   -0.048336   0.006356  -0.000027  -0.000000   0.005873  -0.069396
    21  C    0.002650  -0.000071   0.000008  -0.000000   0.000134  -0.004200
    22  N   -0.000307   0.000000   0.000000   0.000000  -0.000005   0.000253
    23  H    0.000000  -0.000000  -0.000000   0.000000   0.000000   0.000000
    24  H    0.000000   0.000000  -0.000000   0.000000  -0.000000   0.000000
    25  H    0.000000   0.000000   0.000000   0.000000  -0.000000  -0.000000
    26  H    0.000000   0.000000  -0.000000   0.000000  -0.000000  -0.000000
    27  H   -0.000000  -0.000000   0.000000   0.000000   0.000000   0.000000
    28  H    0.000011   0.000007  -0.000000   0.000000  -0.000000  -0.000002
    29  H    0.002692   0.000453   0.000017   0.000000  -0.000022   0.000308
    30  H    0.001100  -0.000039  -0.000000  -0.000000   0.000000   0.000000
    31  H   -0.000075  -0.000004  -0.000000   0.000000   0.000000  -0.000000
    32  H   -0.000260   0.000024   0.000000   0.000000  -0.000000   0.000000
    33  H   -0.046046   0.350116  -0.031965  -0.000984   0.006460  -0.000094
    34  H    0.000317   0.006038  -0.033123  -0.000964   0.353389  -0.032852
    35  H    0.004361   0.000377   0.002920  -0.000020  -0.029231   0.355441
    36  H   -0.000095  -0.000004  -0.000001   0.000000   0.000023   0.003117
              19         20         21         22         23         24
     1  C   -0.000000  -0.000000   0.000000  -0.000033   0.374576   0.368598
     2  C   -0.000000   0.000000   0.000003  -0.000181  -0.030356  -0.028935
     3  O    0.000000  -0.000021   0.000274   0.002741   0.000867   0.002767
     4  C   -0.000024   0.005519   0.004882  -0.049387  -0.000011  -0.000033
     5  O    0.000003   0.000196  -0.000102   0.002283  -0.000010   0.000016
     6  C    0.007810  -0.035952  -0.108399   0.379265  -0.000032   0.000005
     7  C   -0.030855   0.339586  -0.086307  -0.087011  -0.000000  -0.000000
     8  C    0.002618  -0.073586   0.005997   0.007289  -0.000000   0.000000
     9  N   -0.008057  -0.005141   0.000088  -0.000081  -0.000000  -0.000000
    10  C    0.000024  -0.000041  -0.000004  -0.000001  -0.000000   0.000000
    11  C   -0.033173  -0.011623  -0.000141  -0.000019  -0.000000  -0.000000
    12  O    0.001721  -0.000024   0.000002   0.000000  -0.000000  -0.000000
    13  C    0.482355  -0.048336   0.002650  -0.000307   0.000000   0.000000
    14  C   -0.028780   0.006356  -0.000071   0.000000  -0.000000   0.000000
    15  C   -0.038680  -0.000027   0.000008   0.000000  -0.000000  -0.000000
    16  F    0.000066  -0.000000  -0.000000   0.000000   0.000000   0.000000
    17  C   -0.014980   0.005873   0.000134  -0.000005   0.000000  -0.000000
    18  C    0.498007  -0.069396  -0.004200   0.000253   0.000000   0.000000
    19  C    4.727048   0.204198  -0.030950   0.004885   0.000000  -0.000000
    20  N    0.204198   6.995061   0.378131  -0.071453   0.000000   0.000000
    21  C   -0.030950   0.378131   4.731786   0.507502   0.000000   0.000000
    22  N    0.004885  -0.071453   0.507502   6.890036   0.000007   0.000000
    23  H    0.000000   0.000000   0.000000   0.000007   0.547429  -0.025996
    24  H   -0.000000   0.000000   0.000000   0.000000  -0.025996   0.543885
    25  H    0.000000   0.000000   0.000000   0.000007  -0.030742  -0.025955
    26  H    0.000000  -0.000000   0.000001  -0.000001  -0.005658  -0.000263
    27  H    0.000000  -0.000000   0.000001   0.000001   0.004915  -0.000281
    28  H    0.000184   0.003909  -0.000102   0.000031   0.000000  -0.000000
    29  H    0.004048  -0.007060  -0.000029  -0.000141   0.000000  -0.000000
    30  H   -0.000016   0.000009   0.000000   0.000000  -0.000000   0.000000
    31  H   -0.000019   0.000061  -0.000007  -0.000000   0.000000  -0.000000
    32  H    0.000005  -0.000014  -0.000000  -0.000000  -0.000000  -0.000000
    33  H    0.004608  -0.000070   0.000001  -0.000000   0.000000   0.000000
    34  H    0.003377  -0.000088  -0.000005  -0.000000  -0.000000   0.000000
    35  H   -0.035548  -0.008239   0.005156  -0.000028   0.000000   0.000000
    36  H    0.000408  -0.046939   0.376532  -0.034013   0.000000  -0.000000
              25         26         27         28         29         30
     1  C    0.374603  -0.037289  -0.037156  -0.000000  -0.000000   0.000000
     2  C   -0.030392   0.375669   0.375427  -0.000007  -0.000000   0.000000
     3  O    0.000896  -0.034329  -0.034419   0.000138   0.000002  -0.000000
     4  C   -0.000011  -0.004167  -0.004130   0.002233   0.000060   0.000002
     5  O   -0.000010   0.006124   0.006389   0.023466   0.000216   0.000002
     6  C   -0.000030  -0.000189  -0.000146  -0.009217   0.002079  -0.000020
     7  C   -0.000000   0.000005  -0.000000  -0.023922  -0.035472  -0.000204
     8  C   -0.000000  -0.000000   0.000001   0.352968   0.362069   0.004444
     9  N    0.000000   0.000000  -0.000000  -0.027216  -0.043467  -0.037384
    10  C    0.000000   0.000000  -0.000000  -0.004006   0.003235   0.371255
    11  C   -0.000000  -0.000000  -0.000000   0.002829  -0.002328  -0.002183
    12  O    0.000000   0.000000  -0.000000  -0.000066   0.000102   0.019634
    13  C    0.000000   0.000000  -0.000000   0.000011   0.002692   0.001100
    14  C    0.000000   0.000000  -0.000000   0.000007   0.000453  -0.000039
    15  C    0.000000  -0.000000   0.000000  -0.000000   0.000017  -0.000000
    16  F    0.000000   0.000000   0.000000   0.000000   0.000000  -0.000000
    17  C   -0.000000  -0.000000   0.000000  -0.000000  -0.000022   0.000000
    18  C   -0.000000  -0.000000   0.000000  -0.000002   0.000308   0.000000
    19  C    0.000000   0.000000   0.000000   0.000184   0.004048  -0.000016
    20  N    0.000000  -0.000000  -0.000000   0.003909  -0.007060   0.000009
    21  C    0.000000   0.000001   0.000001  -0.000102  -0.000029   0.000000
    22  N    0.000007  -0.000001   0.000001   0.000031  -0.000141   0.000000
    23  H   -0.030742  -0.005658   0.004915   0.000000   0.000000  -0.000000
    24  H   -0.025955  -0.000263  -0.000281  -0.000000  -0.000000   0.000000
    25  H    0.547352   0.004921  -0.005663   0.000000  -0.000000   0.000000
    26  H    0.004921   0.573074  -0.044660  -0.000000  -0.000000  -0.000000
    27  H   -0.005663  -0.044660   0.572849  -0.000004   0.000000   0.000000
    28  H    0.000000  -0.000000  -0.000004   0.477628  -0.020252   0.000191
    29  H   -0.000000  -0.000000   0.000000  -0.020252   0.527645  -0.000239
    30  H    0.000000  -0.000000   0.000000   0.000191  -0.000239   0.501900
    31  H   -0.000000  -0.000000   0.000003   0.001458  -0.000108  -0.020372
    32  H    0.000000  -0.000000  -0.000000   0.000963   0.000688  -0.029094
    33  H   -0.000000  -0.000000   0.000000   0.000001   0.000002  -0.000014
    34  H    0.000000   0.000000  -0.000000   0.000000  -0.000000   0.000000
    35  H   -0.000000  -0.000000   0.000000   0.000000   0.000001  -0.000000
    36  H    0.000000  -0.000000  -0.000000   0.000004  -0.000002   0.000000
              31         32         33         34         35         36
     1  C   -0.000000   0.000000   0.000000  -0.000000  -0.000000  -0.000000
     2  C   -0.000001  -0.000000   0.000000   0.000000   0.000000  -0.000000
     3  O   -0.000000   0.000000  -0.000000  -0.000000   0.000000   0.000000
     4  C    0.000445  -0.000005  -0.000000   0.000000  -0.000000  -0.000115
     5  O    0.001687   0.000003  -0.000000  -0.000000   0.000000   0.000001
     6  C   -0.000256   0.000032  -0.000000  -0.000000  -0.000042   0.004206
     7  C    0.000758   0.000008  -0.000004   0.000001  -0.000055   0.004162
     8  C   -0.000533  -0.002188  -0.000049  -0.000000  -0.000006  -0.000142
     9  N   -0.041179  -0.040847   0.000603   0.000000   0.000001   0.000005
    10  C    0.374219   0.383964  -0.000013   0.000000  -0.000000  -0.000000
    11  C    0.002771  -0.000774  -0.006922   0.000008  -0.000083   0.000017
    12  O    0.000643   0.000631   0.013696   0.000000   0.000000  -0.000000
    13  C   -0.000075  -0.000260  -0.046046   0.000317   0.004361  -0.000095
    14  C   -0.000004   0.000024   0.350116   0.006038   0.000377  -0.000004
    15  C   -0.000000   0.000000  -0.031965  -0.033123   0.002920  -0.000001
    16  F    0.000000   0.000000  -0.000984  -0.000964  -0.000020   0.000000
    17  C    0.000000  -0.000000   0.006460   0.353389  -0.029231   0.000023
    18  C   -0.000000   0.000000  -0.000094  -0.032852   0.355441   0.003117
    19  C   -0.000019   0.000005   0.004608   0.003377  -0.035548   0.000408
    20  N    0.000061  -0.000014  -0.000070  -0.000088  -0.008239  -0.046939
    21  C   -0.000007  -0.000000   0.000001  -0.000005   0.005156   0.376532
    22  N   -0.000000  -0.000000  -0.000000  -0.000000  -0.000028  -0.034013
    23  H    0.000000  -0.000000   0.000000  -0.000000   0.000000   0.000000
    24  H   -0.000000  -0.000000   0.000000   0.000000   0.000000  -0.000000
    25  H   -0.000000   0.000000  -0.000000   0.000000  -0.000000   0.000000
    26  H   -0.000000  -0.000000  -0.000000   0.000000  -0.000000  -0.000000
    27  H    0.000003  -0.000000   0.000000  -0.000000   0.000000  -0.000000
    28  H    0.001458   0.000963   0.000001   0.000000   0.000000   0.000004
    29  H   -0.000108   0.000688   0.000002  -0.000000   0.000001  -0.000002
    30  H   -0.020372  -0.029094  -0.000014   0.000000  -0.000000   0.000000
    31  H    0.536347  -0.035901  -0.000000   0.000000   0.000000  -0.000000
    32  H   -0.035901   0.541979   0.000003  -0.000000   0.000000   0.000000
    33  H   -0.000000   0.000003   0.529940  -0.000129   0.000012   0.000000
    34  H    0.000000  -0.000000  -0.000129   0.524010  -0.004923   0.000001
    35  H    0.000000   0.000000   0.000012  -0.004923   0.519752   0.001261
    36  H   -0.000000   0.000000   0.000000   0.000001   0.001261   0.485527
 Mulliken charges:
               1
     1  C   -0.468393
     2  C   -0.033772
     3  O   -0.476329
     4  C    0.620493
     5  O   -0.559087
     6  C    0.092684
     7  C    0.354963
     8  C   -0.267241
     9  N   -0.407796
    10  C   -0.327167
    11  C    0.569598
    12  O   -0.580431
    13  C    0.060222
    14  C   -0.256427
    15  C    0.396199
    16  F   -0.300589
    17  C   -0.203001
    18  C   -0.165043
    19  C    0.279716
    20  N   -0.560887
    21  C    0.217167
    22  N   -0.551637
    23  H    0.165012
    24  H    0.166192
    25  H    0.165026
    26  H    0.166762
    27  H    0.166874
    28  H    0.218776
    29  H    0.205503
    30  H    0.191028
    31  H    0.180067
    32  H    0.180785
    33  H    0.180848
    34  H    0.184944
    35  H    0.188891
    36  H    0.206049
 Sum of Mulliken charges =  -0.00000
 Mulliken charges with hydrogens summed into heavy atoms:
               1
     1  C    0.027837
     2  C    0.299864
     3  O   -0.476329
     4  C    0.620493
     5  O   -0.559087
     6  C    0.092684
     7  C    0.354963
     8  C    0.157037
     9  N   -0.407796
    10  C    0.224713
    11  C    0.569598
    12  O   -0.580431
    13  C    0.060222
    14  C   -0.075578
    15  C    0.396199
    16  F   -0.300589
    17  C   -0.018057
    18  C    0.023848
    19  C    0.279716
    20  N   -0.560887
    21  C    0.423216
    22  N   -0.551637
 Electronic spatial extent (au):  <R**2>=           8154.9322
 Charge=             -0.0000 electrons
 Dipole moment (field-independent basis, Debye):
    X=             -0.3217    Y=             -2.7167    Z=              2.5267  Tot=              3.7240
 Quadrupole moment (field-independent basis, Debye-Ang):
   XX=           -124.9589   YY=           -120.4076   ZZ=           -126.5936
   XY=            -16.3241   XZ=              5.8079   YZ=              2.8008
 Traceless Quadrupole moment (field-independent basis, Debye-Ang):
   XX=             -0.9722   YY=              3.5791   ZZ=             -2.6069
   XY=            -16.3241   XZ=              5.8079   YZ=              2.8008
 Octapole moment (field-independent basis, Debye-Ang**2):
  XXX=           -166.5195  YYY=            -19.6080  ZZZ=              6.7517  XYY=             24.0115
  XXY=            -31.6825  XXZ=             14.4739  XZZ=             -1.6004  YZZ=             -2.7289
  YYZ=             13.2635  XYZ=             27.4356
 Hexadecapole moment (field-independent basis, Debye-Ang**3):
 XXXX=          -7431.0067 YYYY=          -1796.6493 ZZZZ=           -334.0704 XXXY=            -56.9416
 XXXZ=             17.7353 YYYX=           -194.4955 YYYZ=             24.5713 ZZZX=              7.9812
 ZZZY=              6.6388 XXYY=          -1700.3647 XXZZ=          -1429.4377 YYZZ=           -388.9053
 XXYZ=            -19.5540 YYXZ=             46.0263 ZZXY=            -18.0783
 N-N= 1.775876440839D+03 E-N=-6.047226405008D+03  KE= 1.060292738438D+03
 No NMR shielding tensors so no spin-rotation constants.
 Leave Link  601 at Tue Mar  1 08:22:24 2022, MaxMem=   104857600 cpu:               0.5 elap:               0.2
 (Enter /dades/curu/g16A03_MST/g16/l9999.exe)
 1\1\GINC-PIRINEUSGPU2\SP\RB3LYP\6-31G(d)\C15H14F1N3O3\UBATOR01\01-Mar-
 2022\0\\#p b3lyp/6-31G(d) scrf=(iefpcm,read,solvent=water) geom=allche
 ck guess=read\\251.n.pdb.xyz\\0,1\C,0,6.0443680502,-0.0449703479,0.779
 9304729\C,0,4.7930838462,0.7783917414,1.0004877964\O,0,3.6909428496,0.
 0707631043,0.3769978953\C,0,2.4855381539,0.6504652195,0.4797633237\O,0
 ,2.2954368635,1.7145104674,1.0565861626\C,0,1.4258687396,-0.1299411133
 ,-0.1712909836\C,0,0.0919025777,0.2221824954,-0.2370538263\C,0,-0.7162
 733276,1.3588415331,0.2827762334\N,0,-1.6656774811,0.8976430271,1.3032
 165557\C,0,-1.4484567962,1.342629819,2.6767756106\C,0,-2.7377590173,0.
 1194416599,1.0070165624\O,0,-3.5965628371,-0.1748702136,1.8481130969\C
 ,0,-2.9090372584,-0.3865087491,-0.4087733426\C,0,-4.2418864383,-0.5006
 949505,-0.8247309373\C,0,-4.5433980321,-1.0339446483,-2.063908019\F,0,
 -5.8352713904,-1.1182301979,-2.4407950776\C,0,-3.5567850029,-1.4898474
 87,-2.9293360977\C,0,-2.2314032575,-1.387360441,-2.5273334983\C,0,-1.8
 989290107,-0.8450772094,-1.2800606351\N,0,-0.5229319533,-0.7956821011,
 -0.9271311908\C,0,0.4571996164,-1.7102085409,-1.2479123085\N,0,1.63539
 28212,-1.3414438699,-0.8104401923\H,0,6.2496654057,-0.1678602434,-0.28
 65977566\H,0,6.8979860371,0.4614520904,1.2382241904\H,0,5.9473940506,-
 1.0347469057,1.2338826308\H,0,4.8689391012,1.7697026147,0.5479631861\H
 ,0,4.5672696405,0.9066124869,2.0616131697\H,0,-0.0453959228,2.08012133
 53,0.7425568266\H,0,-1.2530702538,1.8574319507,-0.5307581051\H,0,-2.07
 83677488,0.7512902366,3.3373744714\H,0,-0.3978614782,1.2031963271,2.94
 1380812\H,0,-1.7037446098,2.4015534742,2.7882855704\H,0,-5.0324322081,
 -0.1832674965,-0.1581450408\H,0,-3.8226482226,-1.9015540039,-3.8943591
 905\H,0,-1.4404703659,-1.7187822574,-3.1874785805\H,0,0.2313748597,-2.
 6232388064,-1.7788397846\\Version=ES64L-G16RevA.03\State=1-A\HF=-1069.
 8326101\RMSD=6.470e-09\Dipole=0.4267496,0.3159693,-1.3655207\Quadrupol
 e=-7.0380616,1.8105201,5.2275414,0.9598183,10.4013978,5.1747016\PG=C01
  [X(C15H14F1N3O3)]\\@


 "I COULD HAVE DONE IT IN A MUCH MORE COMPLICATED WAY"
 SAID THE RED QUEEN, IMMENSELY PROUD.

                                      -- LEWIS CARROLL
 Job cpu time:       0 days  0 hours 13 minutes 13.4 seconds.
 Elapsed time:       0 days  0 hours  3 minutes 26.1 seconds.
 File lengths (MBytes):  RWF=    202 Int=      0 D2E=      0 Chk=     23 Scr=      1
 Normal termination of Gaussian 16 at Tue Mar  1 08:22:25 2022.
