 Entering Gaussian System, Link 0=g16
 Input=301.n.pdb.xyz.mst.wat.gau
 Output=301.n.pdb.xyz.mst.wat.log
 Initial command:
 /dades/curu/g16A03_MST/g16/l1.exe "/tmp/ubator01/1954811/Gau-190549.inp" -scrdir="/tmp/ubator01/1954811/"
 Entering Link 1 = /dades/curu/g16A03_MST/g16/l1.exe PID=    190552.
  
 Copyright (c) 1988,1990,1992,1993,1995,1998,2003,2009,2016,
            Gaussian, Inc.  All Rights Reserved.
  
 This is part of the Gaussian(R) 16 program.  It is based on
 the Gaussian(R) 09 system (copyright 2009, Gaussian, Inc.),
 the Gaussian(R) 03 system (copyright 2003, Gaussian, Inc.),
 the Gaussian(R) 98 system (copyright 1998, Gaussian, Inc.),
 the Gaussian(R) 94 system (copyright 1995, Gaussian, Inc.),
 the Gaussian 92(TM) system (copyright 1992, Gaussian, Inc.),
 the Gaussian 90(TM) system (copyright 1990, Gaussian, Inc.),
 the Gaussian 88(TM) system (copyright 1988, Gaussian, Inc.),
 the Gaussian 86(TM) system (copyright 1986, Carnegie Mellon
 University), and the Gaussian 82(TM) system (copyright 1983,
 Carnegie Mellon University). Gaussian is a federally registered
 trademark of Gaussian, Inc.
  
 This software contains proprietary and confidential information,
 including trade secrets, belonging to Gaussian, Inc.
  
 This software is provided under written license and may be
 used, copied, transmitted, or stored only in accord with that
 written license.
  
 The following legend is applicable only to US Government
 contracts under FAR:
  
                    RESTRICTED RIGHTS LEGEND
  
 Use, reproduction and disclosure by the US Government is
 subject to restrictions as set forth in subparagraphs (a)
 and (c) of the Commercial Computer Software - Restricted
 Rights clause in FAR 52.227-19.
  
 Gaussian, Inc.
 340 Quinnipiac St., Bldg. 40, Wallingford CT 06492
  
  
 ---------------------------------------------------------------
 Warning -- This program may not be used in any manner that
 competes with the business of Gaussian, Inc. or will provide
 assistance to any competitor of Gaussian, Inc.  The licensee
 of this program is prohibited from giving any competitor of
 Gaussian, Inc. access to this program.  By using this program,
 the user acknowledges that Gaussian, Inc. is engaged in the
 business of creating and licensing software in the field of
 computational chemistry and represents and warrants to the
 licensee that it is not a competitor of Gaussian, Inc. and that
 it will not use this program in any manner prohibited above.
 ---------------------------------------------------------------
  

 Cite this work as:
 Gaussian 16, Revision A.03,
 M. J. Frisch, G. W. Trucks, H. B. Schlegel, G. E. Scuseria, 
 M. A. Robb, J. R. Cheeseman, G. Scalmani, V. Barone, 
 G. A. Petersson, H. Nakatsuji, X. Li, M. Caricato, A. V. Marenich, 
 J. Bloino, B. G. Janesko, R. Gomperts, B. Mennucci, H. P. Hratchian, 
 J. V. Ortiz, A. F. Izmaylov, J. L. Sonnenberg, D. Williams-Young, 
 F. Ding, F. Lipparini, F. Egidi, J. Goings, B. Peng, A. Petrone, 
 T. Henderson, D. Ranasinghe, V. G. Zakrzewski, J. Gao, N. Rega, 
 G. Zheng, W. Liang, M. Hada, M. Ehara, K. Toyota, R. Fukuda, 
 J. Hasegawa, M. Ishida, T. Nakajima, Y. Honda, O. Kitao, H. Nakai, 
 T. Vreven, K. Throssell, J. A. Montgomery, Jr., J. E. Peralta, 
 F. Ogliaro, M. J. Bearpark, J. J. Heyd, E. N. Brothers, K. N. Kudin, 
 V. N. Staroverov, T. A. Keith, R. Kobayashi, J. Normand, 
 K. Raghavachari, A. P. Rendell, J. C. Burant, S. S. Iyengar, 
 J. Tomasi, M. Cossi, J. M. Millam, M. Klene, C. Adamo, R. Cammi, 
 J. W. Ochterski, R. L. Martin, K. Morokuma, O. Farkas, 
 J. B. Foresman, and D. J. Fox, Gaussian, Inc., Wallingford CT, 2016.
 
 ******************************************
 Gaussian 16:  ES64L-G16RevA.03 25-Dec-2016
                 1-Mar-2022 
 ******************************************
 %nproc=4
 Will use up to    4 processors via shared memory.
 %Chk=301.n.pdb.xyz.mst.wat.chk
 %mem=800MB
 ----------------------------------------------------------------------
 #p b3lyp/6-31G(d) opt=(MaxStep=10,MaxCycles=1000) freq scf=(MaxCycle=2
 000,NoVarAcc,NoIncFock) scrf=(iefpcm,read,solvent=water)
 ----------------------------------------------------------------------
 1/6=1000,8=10,18=20,19=15,26=3,38=1,40=2/1,3;
 2/9=110,12=2,17=6,18=5,40=1/2;
 3/5=1,6=6,7=1,11=2,25=1,30=1,70=2203,71=1,72=1,74=-5/1,2,3;
 4//1;
 5/5=100002,7=2000,38=1,53=1/2;
 6/7=2,8=2,9=2,10=2,28=1/1;
 7//1,2,3,16;
 1/6=1000,8=10,18=20,19=15,26=3/3(2);
 2/9=110/2;
 99//99;
 2/9=110/2;
 3/5=1,6=6,7=1,11=2,25=1,30=1,70=2205,71=1,72=1,74=-5/1,2,3;
 4/5=5,16=3,69=1/1;
 5/5=100002,7=2000,38=1,53=1/2;
 7//1,2,3,16;
 1/6=1000,8=10,18=20,19=15,26=3/3(-5);
 2/9=110/2;
 6/7=2,8=2,9=2,10=2,19=2,28=1/1;
 99/9=1/99;
 Leave Link    1 at Tue Mar  1 05:59:35 2022, MaxMem=   104857600 cpu:               0.1 elap:               0.0
 (Enter /dades/curu/g16A03_MST/g16/l101.exe)
 -------------
 301.n.pdb.xyz
 -------------
 Symbolic Z-matrix:
 Charge =  0 Multiplicity = 1
 C                    -3.753     1.685    -0.235 
 C                    -3.44      0.389    -1.001 
 C                    -3.087     0.712    -2.462 
 C                    -4.701    -0.498    -0.995 
 N                    -2.382    -0.402    -0.34 
 C                    -1.06      0.252    -0.24 
 C                    -0.04     -0.734     0.39 
 O                    -0.104    -1.963    -0.349 
 C                     1.406    -0.279     0.451 
 C                     2.389    -1.205     0.856 
 C                     3.744    -0.853     0.968 
 C                     4.756    -1.899     1.36 
 O                     5.626    -1.439     2.389 
 C                     4.111     0.457     0.653 
 O                     5.429     0.813     0.756 
 C                     3.162     1.396     0.257 
 C                     1.817     1.029     0.161 
 H                    -4.626     2.191    -0.664 
 H                    -3.975     1.481     0.819 
 H                    -2.919     2.394    -0.274 
 H                    -2.802    -0.192    -3.012 
 H                    -3.943     1.157    -2.982 
 H                    -2.261     1.428    -2.537 
 H                    -5.543     0.008    -1.481 
 H                    -5.013    -0.746     0.027 
 H                    -4.53     -1.44     -1.53 
 H                    -2.695    -0.649     0.602 
 H                    -0.709     0.515    -1.243 
 H                    -1.117     1.16      0.368 
 H                    -0.361    -0.958     1.416 
 H                    -1.029    -2.005    -0.67 
 H                     2.082    -2.228     1.08 
 H                     5.359    -2.174     0.488 
 H                     4.268    -2.807     1.729 
 H                     5.86     -0.525     2.136 
 H                     5.528     1.724     0.43 
 H                     3.447     2.418     0.022 
 H                     1.104     1.789    -0.148 
 
 ITRead=  0  0  0  0  0  0  0  0  0  0  0  0  0  0  0  0  0  0  0  0
 ITRead=  0  0  0  0  0  0  0  0  0  0  0  0  0  0  0  0  0  0
 MicOpt= -1 -1 -1 -1 -1 -1 -1 -1 -1 -1 -1 -1 -1 -1 -1 -1 -1 -1 -1 -1
 MicOpt= -1 -1 -1 -1 -1 -1 -1 -1 -1 -1 -1 -1 -1 -1 -1 -1 -1 -1
 NAtoms=     38 NQM=       38 NQMF=       0 NMMI=      0 NMMIF=      0
                NMic=       0 NMicF=      0.
                    Isotopes and Nuclear Properties:
 (Nuclear quadrupole moments (NQMom) in fm**2, nuclear magnetic moments (NMagM)
  in nuclear magnetons)

  Atom         1           2           3           4           5           6           7           8           9          10
 IAtWgt=          12          12          12          12          14          12          12          16          12          12
 AtmWgt=  12.0000000  12.0000000  12.0000000  12.0000000  14.0030740  12.0000000  12.0000000  15.9949146  12.0000000  12.0000000
 NucSpn=           0           0           0           0           2           0           0           0           0           0
 AtZEff=  -0.0000000  -0.0000000  -0.0000000  -0.0000000  -0.0000000  -0.0000000  -0.0000000  -0.0000000  -0.0000000  -0.0000000
 NQMom=    0.0000000   0.0000000   0.0000000   0.0000000   2.0440000   0.0000000   0.0000000   0.0000000   0.0000000   0.0000000
 NMagM=    0.0000000   0.0000000   0.0000000   0.0000000   0.4037610   0.0000000   0.0000000   0.0000000   0.0000000   0.0000000
 AtZNuc=   6.0000000   6.0000000   6.0000000   6.0000000   7.0000000   6.0000000   6.0000000   8.0000000   6.0000000   6.0000000

  Atom        11          12          13          14          15          16          17          18          19          20
 IAtWgt=          12          12          16          12          16          12          12           1           1           1
 AtmWgt=  12.0000000  12.0000000  15.9949146  12.0000000  15.9949146  12.0000000  12.0000000   1.0078250   1.0078250   1.0078250
 NucSpn=           0           0           0           0           0           0           0           1           1           1
 AtZEff=  -0.0000000  -0.0000000  -0.0000000  -0.0000000  -0.0000000  -0.0000000  -0.0000000  -0.0000000  -0.0000000  -0.0000000
 NQMom=    0.0000000   0.0000000   0.0000000   0.0000000   0.0000000   0.0000000   0.0000000   0.0000000   0.0000000   0.0000000
 NMagM=    0.0000000   0.0000000   0.0000000   0.0000000   0.0000000   0.0000000   0.0000000   2.7928460   2.7928460   2.7928460
 AtZNuc=   6.0000000   6.0000000   8.0000000   6.0000000   8.0000000   6.0000000   6.0000000   1.0000000   1.0000000   1.0000000

  Atom        21          22          23          24          25          26          27          28          29          30
 IAtWgt=           1           1           1           1           1           1           1           1           1           1
 AtmWgt=   1.0078250   1.0078250   1.0078250   1.0078250   1.0078250   1.0078250   1.0078250   1.0078250   1.0078250   1.0078250
 NucSpn=           1           1           1           1           1           1           1           1           1           1
 AtZEff=  -0.0000000  -0.0000000  -0.0000000  -0.0000000  -0.0000000  -0.0000000  -0.0000000  -0.0000000  -0.0000000  -0.0000000
 NQMom=    0.0000000   0.0000000   0.0000000   0.0000000   0.0000000   0.0000000   0.0000000   0.0000000   0.0000000   0.0000000
 NMagM=    2.7928460   2.7928460   2.7928460   2.7928460   2.7928460   2.7928460   2.7928460   2.7928460   2.7928460   2.7928460
 AtZNuc=   1.0000000   1.0000000   1.0000000   1.0000000   1.0000000   1.0000000   1.0000000   1.0000000   1.0000000   1.0000000

  Atom        31          32          33          34          35          36          37          38
 IAtWgt=           1           1           1           1           1           1           1           1
 AtmWgt=   1.0078250   1.0078250   1.0078250   1.0078250   1.0078250   1.0078250   1.0078250   1.0078250
 NucSpn=           1           1           1           1           1           1           1           1
 AtZEff=  -0.0000000  -0.0000000  -0.0000000  -0.0000000  -0.0000000  -0.0000000  -0.0000000  -0.0000000
 NQMom=    0.0000000   0.0000000   0.0000000   0.0000000   0.0000000   0.0000000   0.0000000   0.0000000
 NMagM=    2.7928460   2.7928460   2.7928460   2.7928460   2.7928460   2.7928460   2.7928460   2.7928460
 AtZNuc=   1.0000000   1.0000000   1.0000000   1.0000000   1.0000000   1.0000000   1.0000000   1.0000000
 Leave Link  101 at Tue Mar  1 05:59:35 2022, MaxMem=   104857600 cpu:               0.1 elap:               0.1
 (Enter /dades/curu/g16A03_MST/g16/l103.exe)

 GradGradGradGradGradGradGradGradGradGradGradGradGradGradGradGradGradGrad
 Berny optimization.
 Initialization pass.
                           ----------------------------
                           !    Initial Parameters    !
                           ! (Angstroms and Degrees)  !
 --------------------------                            --------------------------
 ! Name  Definition              Value          Derivative Info.                !
 --------------------------------------------------------------------------------
 ! R1    R(1,2)                  1.5376         estimate D2E/DX2                !
 ! R2    R(1,18)                 1.0965         estimate D2E/DX2                !
 ! R3    R(1,19)                 1.0963         estimate D2E/DX2                !
 ! R4    R(1,20)                 1.0953         estimate D2E/DX2                !
 ! R5    R(2,3)                  1.5374         estimate D2E/DX2                !
 ! R6    R(2,4)                  1.5417         estimate D2E/DX2                !
 ! R7    R(2,5)                  1.4771         estimate D2E/DX2                !
 ! R8    R(3,21)                 1.0959         estimate D2E/DX2                !
 ! R9    R(3,22)                 1.096          estimate D2E/DX2                !
 ! R10   R(3,23)                 1.0957         estimate D2E/DX2                !
 ! R11   R(4,24)                 1.096          estimate D2E/DX2                !
 ! R12   R(4,25)                 1.097          estimate D2E/DX2                !
 ! R13   R(4,26)                 1.0967         estimate D2E/DX2                !
 ! R14   R(5,6)                  1.4783         estimate D2E/DX2                !
 ! R15   R(5,27)                 1.0229         estimate D2E/DX2                !
 ! R16   R(6,7)                  1.5523         estimate D2E/DX2                !
 ! R17   R(6,28)                 1.0947         estimate D2E/DX2                !
 ! R18   R(6,29)                 1.0942         estimate D2E/DX2                !
 ! R19   R(7,8)                  1.4355         estimate D2E/DX2                !
 ! R20   R(7,9)                  1.5171         estimate D2E/DX2                !
 ! R21   R(7,30)                 1.0981         estimate D2E/DX2                !
 ! R22   R(8,31)                 0.98           estimate D2E/DX2                !
 ! R23   R(9,10)                 1.4099         estimate D2E/DX2                !
 ! R24   R(9,17)                 1.4014         estimate D2E/DX2                !
 ! R25   R(10,11)                1.4044         estimate D2E/DX2                !
 ! R26   R(10,32)                1.0913         estimate D2E/DX2                !
 ! R27   R(11,12)                1.5073         estimate D2E/DX2                !
 ! R28   R(11,14)                1.3964         estimate D2E/DX2                !
 ! R29   R(12,13)                1.4238         estimate D2E/DX2                !
 ! R30   R(12,33)                1.0953         estimate D2E/DX2                !
 ! R31   R(12,34)                1.0949         estimate D2E/DX2                !
 ! R32   R(13,35)                0.9768         estimate D2E/DX2                !
 ! R33   R(14,15)                1.3691         estimate D2E/DX2                !
 ! R34   R(14,16)                1.3925         estimate D2E/DX2                !
 ! R35   R(15,36)                0.9726         estimate D2E/DX2                !
 ! R36   R(16,17)                1.3975         estimate D2E/DX2                !
 ! R37   R(16,37)                1.0867         estimate D2E/DX2                !
 ! R38   R(17,38)                1.0869         estimate D2E/DX2                !
 ! A1    A(2,1,18)             110.8625         estimate D2E/DX2                !
 ! A2    A(2,1,19)             111.3052         estimate D2E/DX2                !
 ! A3    A(2,1,20)             111.8908         estimate D2E/DX2                !
 ! A4    A(18,1,19)            107.5066         estimate D2E/DX2                !
 ! A5    A(18,1,20)            107.0731         estimate D2E/DX2                !
 ! A6    A(19,1,20)            107.9913         estimate D2E/DX2                !
 ! A7    A(1,2,3)              110.0646         estimate D2E/DX2                !
 ! A8    A(1,2,4)              108.4504         estimate D2E/DX2                !
 ! A9    A(1,2,5)              111.9758         estimate D2E/DX2                !
 ! A10   A(3,2,4)              108.2028         estimate D2E/DX2                !
 ! A11   A(3,2,5)              111.9196         estimate D2E/DX2                !
 ! A12   A(4,2,5)              106.0217         estimate D2E/DX2                !
 ! A13   A(2,3,21)             111.3064         estimate D2E/DX2                !
 ! A14   A(2,3,22)             110.908          estimate D2E/DX2                !
 ! A15   A(2,3,23)             112.0515         estimate D2E/DX2                !
 ! A16   A(21,3,22)            107.4538         estimate D2E/DX2                !
 ! A17   A(21,3,23)            107.9775         estimate D2E/DX2                !
 ! A18   A(22,3,23)            106.9171         estimate D2E/DX2                !
 ! A19   A(2,4,24)             111.1629         estimate D2E/DX2                !
 ! A20   A(2,4,25)             111.4893         estimate D2E/DX2                !
 ! A21   A(2,4,26)             111.3911         estimate D2E/DX2                !
 ! A22   A(24,4,25)            107.3975         estimate D2E/DX2                !
 ! A23   A(24,4,26)            107.4586         estimate D2E/DX2                !
 ! A24   A(25,4,26)            107.7365         estimate D2E/DX2                !
 ! A25   A(2,5,6)              115.7142         estimate D2E/DX2                !
 ! A26   A(2,5,27)             108.7978         estimate D2E/DX2                !
 ! A27   A(6,5,27)             108.5521         estimate D2E/DX2                !
 ! A28   A(5,6,7)              109.516          estimate D2E/DX2                !
 ! A29   A(5,6,28)             109.3318         estimate D2E/DX2                !
 ! A30   A(5,6,29)             110.9836         estimate D2E/DX2                !
 ! A31   A(7,6,28)             108.287          estimate D2E/DX2                !
 ! A32   A(7,6,29)             109.6217         estimate D2E/DX2                !
 ! A33   A(28,6,29)            109.0524         estimate D2E/DX2                !
 ! A34   A(6,7,8)              107.7939         estimate D2E/DX2                !
 ! A35   A(6,7,9)              116.8796         estimate D2E/DX2                !
 ! A36   A(6,7,30)             108.4629         estimate D2E/DX2                !
 ! A37   A(8,7,9)              108.6605         estimate D2E/DX2                !
 ! A38   A(8,7,30)             107.0566         estimate D2E/DX2                !
 ! A39   A(9,7,30)             107.591          estimate D2E/DX2                !
 ! A40   A(7,8,31)             104.3234         estimate D2E/DX2                !
 ! A41   A(7,9,10)             118.6269         estimate D2E/DX2                !
 ! A42   A(7,9,17)             123.4449         estimate D2E/DX2                !
 ! A43   A(10,9,17)            117.9036         estimate D2E/DX2                !
 ! A44   A(9,10,11)            122.0707         estimate D2E/DX2                !
 ! A45   A(9,10,32)            118.5877         estimate D2E/DX2                !
 ! A46   A(11,10,32)           119.3396         estimate D2E/DX2                !
 ! A47   A(10,11,12)           119.6418         estimate D2E/DX2                !
 ! A48   A(10,11,14)           118.0792         estimate D2E/DX2                !
 ! A49   A(12,11,14)           122.2233         estimate D2E/DX2                !
 ! A50   A(11,12,13)           111.9622         estimate D2E/DX2                !
 ! A51   A(11,12,33)           109.6836         estimate D2E/DX2                !
 ! A52   A(11,12,34)           111.3404         estimate D2E/DX2                !
 ! A53   A(13,12,33)           108.6683         estimate D2E/DX2                !
 ! A54   A(13,12,34)           107.2595         estimate D2E/DX2                !
 ! A55   A(33,12,34)           107.7872         estimate D2E/DX2                !
 ! A56   A(12,13,35)           105.1583         estimate D2E/DX2                !
 ! A57   A(11,14,15)           118.6828         estimate D2E/DX2                !
 ! A58   A(11,14,16)           121.1727         estimate D2E/DX2                !
 ! A59   A(15,14,16)           120.1396         estimate D2E/DX2                !
 ! A60   A(14,15,36)           108.4404         estimate D2E/DX2                !
 ! A61   A(14,16,17)           119.8912         estimate D2E/DX2                !
 ! A62   A(14,16,37)           121.1264         estimate D2E/DX2                !
 ! A63   A(17,16,37)           118.9821         estimate D2E/DX2                !
 ! A64   A(9,17,16)            120.8752         estimate D2E/DX2                !
 ! A65   A(9,17,38)            121.2692         estimate D2E/DX2                !
 ! A66   A(16,17,38)           117.8554         estimate D2E/DX2                !
 ! D1    D(18,1,2,3)            62.2893         estimate D2E/DX2                !
 ! D2    D(18,1,2,4)           -55.9039         estimate D2E/DX2                !
 ! D3    D(18,1,2,5)          -172.5441         estimate D2E/DX2                !
 ! D4    D(19,1,2,3)          -178.096          estimate D2E/DX2                !
 ! D5    D(19,1,2,4)            63.7109         estimate D2E/DX2                !
 ! D6    D(19,1,2,5)           -52.9293         estimate D2E/DX2                !
 ! D7    D(20,1,2,3)           -57.1657         estimate D2E/DX2                !
 ! D8    D(20,1,2,4)          -175.3589         estimate D2E/DX2                !
 ! D9    D(20,1,2,5)            68.0009         estimate D2E/DX2                !
 ! D10   D(1,2,3,21)           176.612          estimate D2E/DX2                !
 ! D11   D(1,2,3,22)           -63.8087         estimate D2E/DX2                !
 ! D12   D(1,2,3,23)            55.5866         estimate D2E/DX2                !
 ! D13   D(4,2,3,21)           -65.0424         estimate D2E/DX2                !
 ! D14   D(4,2,3,22)            54.537          estimate D2E/DX2                !
 ! D15   D(4,2,3,23)           173.9322         estimate D2E/DX2                !
 ! D16   D(5,2,3,21)            51.4132         estimate D2E/DX2                !
 ! D17   D(5,2,3,22)           170.9926         estimate D2E/DX2                !
 ! D18   D(5,2,3,23)           -69.6122         estimate D2E/DX2                !
 ! D19   D(1,2,4,24)            60.2573         estimate D2E/DX2                !
 ! D20   D(1,2,4,25)           -59.5435         estimate D2E/DX2                !
 ! D21   D(1,2,4,26)          -179.9304         estimate D2E/DX2                !
 ! D22   D(3,2,4,24)           -59.1118         estimate D2E/DX2                !
 ! D23   D(3,2,4,25)          -178.9127         estimate D2E/DX2                !
 ! D24   D(3,2,4,26)            60.7005         estimate D2E/DX2                !
 ! D25   D(5,2,4,24)          -179.3291         estimate D2E/DX2                !
 ! D26   D(5,2,4,25)            60.8701         estimate D2E/DX2                !
 ! D27   D(5,2,4,26)           -59.5168         estimate D2E/DX2                !
 ! D28   D(1,2,5,6)            -62.4142         estimate D2E/DX2                !
 ! D29   D(1,2,5,27)            60.0624         estimate D2E/DX2                !
 ! D30   D(3,2,5,6)             61.7226         estimate D2E/DX2                !
 ! D31   D(3,2,5,27)          -175.8008         estimate D2E/DX2                !
 ! D32   D(4,2,5,6)            179.4898         estimate D2E/DX2                !
 ! D33   D(4,2,5,27)           -58.0335         estimate D2E/DX2                !
 ! D34   D(2,5,6,7)           -176.331          estimate D2E/DX2                !
 ! D35   D(2,5,6,28)           -57.8325         estimate D2E/DX2                !
 ! D36   D(2,5,6,29)            62.5029         estimate D2E/DX2                !
 ! D37   D(27,5,6,7)            61.0622         estimate D2E/DX2                !
 ! D38   D(27,5,6,28)          179.5607         estimate D2E/DX2                !
 ! D39   D(27,5,6,29)          -60.1039         estimate D2E/DX2                !
 ! D40   D(5,6,7,8)             51.7557         estimate D2E/DX2                !
 ! D41   D(5,6,7,9)            174.4            estimate D2E/DX2                !
 ! D42   D(5,6,7,30)           -63.8341         estimate D2E/DX2                !
 ! D43   D(28,6,7,8)           -67.3896         estimate D2E/DX2                !
 ! D44   D(28,6,7,9)            55.2547         estimate D2E/DX2                !
 ! D45   D(28,6,7,30)          177.0206         estimate D2E/DX2                !
 ! D46   D(29,6,7,8)           173.7416         estimate D2E/DX2                !
 ! D47   D(29,6,7,9)           -63.6141         estimate D2E/DX2                !
 ! D48   D(29,6,7,30)           58.1518         estimate D2E/DX2                !
 ! D49   D(6,7,8,31)           -29.6787         estimate D2E/DX2                !
 ! D50   D(9,7,8,31)          -157.2369         estimate D2E/DX2                !
 ! D51   D(30,7,8,31)           86.8326         estimate D2E/DX2                !
 ! D52   D(6,7,9,10)          -172.0071         estimate D2E/DX2                !
 ! D53   D(6,7,9,17)             9.8358         estimate D2E/DX2                !
 ! D54   D(8,7,9,10)           -49.8122         estimate D2E/DX2                !
 ! D55   D(8,7,9,17)           132.0307         estimate D2E/DX2                !
 ! D56   D(30,7,9,10)           65.7728         estimate D2E/DX2                !
 ! D57   D(30,7,9,17)         -112.3843         estimate D2E/DX2                !
 ! D58   D(7,9,10,11)         -178.4904         estimate D2E/DX2                !
 ! D59   D(7,9,10,32)            2.0297         estimate D2E/DX2                !
 ! D60   D(17,9,10,11)          -0.2304         estimate D2E/DX2                !
 ! D61   D(17,9,10,32)        -179.7103         estimate D2E/DX2                !
 ! D62   D(7,9,17,16)          178.8709         estimate D2E/DX2                !
 ! D63   D(7,9,17,38)           -1.3186         estimate D2E/DX2                !
 ! D64   D(10,9,17,16)           0.7013         estimate D2E/DX2                !
 ! D65   D(10,9,17,38)        -179.4881         estimate D2E/DX2                !
 ! D66   D(9,10,11,12)        -177.8988         estimate D2E/DX2                !
 ! D67   D(9,10,11,14)          -0.5528         estimate D2E/DX2                !
 ! D68   D(32,10,11,12)          1.5772         estimate D2E/DX2                !
 ! D69   D(32,10,11,14)        178.9232         estimate D2E/DX2                !
 ! D70   D(10,11,12,13)       -132.3628         estimate D2E/DX2                !
 ! D71   D(10,11,12,33)        106.9194         estimate D2E/DX2                !
 ! D72   D(10,11,12,34)        -12.2955         estimate D2E/DX2                !
 ! D73   D(14,11,12,13)         50.4053         estimate D2E/DX2                !
 ! D74   D(14,11,12,33)        -70.3126         estimate D2E/DX2                !
 ! D75   D(14,11,12,34)        170.4726         estimate D2E/DX2                !
 ! D76   D(10,11,14,15)       -179.906          estimate D2E/DX2                !
 ! D77   D(10,11,14,16)          0.8917         estimate D2E/DX2                !
 ! D78   D(12,11,14,15)         -2.6327         estimate D2E/DX2                !
 ! D79   D(12,11,14,16)        178.165          estimate D2E/DX2                !
 ! D80   D(11,12,13,35)        -43.0964         estimate D2E/DX2                !
 ! D81   D(33,12,13,35)         78.2088         estimate D2E/DX2                !
 ! D82   D(34,12,13,35)       -165.5199         estimate D2E/DX2                !
 ! D83   D(11,14,15,36)        175.1042         estimate D2E/DX2                !
 ! D84   D(16,14,15,36)         -5.685          estimate D2E/DX2                !
 ! D85   D(11,14,16,17)         -0.4427         estimate D2E/DX2                !
 ! D86   D(11,14,16,37)        179.3574         estimate D2E/DX2                !
 ! D87   D(15,14,16,17)       -179.6334         estimate D2E/DX2                !
 ! D88   D(15,14,16,37)          0.1666         estimate D2E/DX2                !
 ! D89   D(14,16,17,9)          -0.3801         estimate D2E/DX2                !
 ! D90   D(14,16,17,38)        179.803          estimate D2E/DX2                !
 ! D91   D(37,16,17,9)         179.8156         estimate D2E/DX2                !
 ! D92   D(37,16,17,38)         -0.0013         estimate D2E/DX2                !
 --------------------------------------------------------------------------------
 Trust Radius=1.00D-01 FncErr=1.00D-07 GrdErr=1.00D-06 EigMax=2.50D+02 EigMin=1.00D-04
 Number of steps in this run=    228 maximum allowed number of steps=    228.
 GradGradGradGradGradGradGradGradGradGradGradGradGradGradGradGradGradGrad

 Leave Link  103 at Tue Mar  1 05:59:35 2022, MaxMem=   104857600 cpu:               0.0 elap:               0.0
 (Enter /dades/curu/g16A03_MST/g16/l202.exe)
                          Input orientation:                          
 ---------------------------------------------------------------------
 Center     Atomic      Atomic             Coordinates (Angstroms)
 Number     Number       Type             X           Y           Z
 ---------------------------------------------------------------------
      1          6           0       -3.753000    1.685000   -0.235000
      2          6           0       -3.440000    0.389000   -1.001000
      3          6           0       -3.087000    0.712000   -2.462000
      4          6           0       -4.701000   -0.498000   -0.995000
      5          7           0       -2.382000   -0.402000   -0.340000
      6          6           0       -1.060000    0.252000   -0.240000
      7          6           0       -0.040000   -0.734000    0.390000
      8          8           0       -0.104000   -1.963000   -0.349000
      9          6           0        1.406000   -0.279000    0.451000
     10          6           0        2.389000   -1.205000    0.856000
     11          6           0        3.744000   -0.853000    0.968000
     12          6           0        4.756000   -1.899000    1.360000
     13          8           0        5.626000   -1.439000    2.389000
     14          6           0        4.111000    0.457000    0.653000
     15          8           0        5.429000    0.813000    0.756000
     16          6           0        3.162000    1.396000    0.257000
     17          6           0        1.817000    1.029000    0.161000
     18          1           0       -4.626000    2.191000   -0.664000
     19          1           0       -3.975000    1.481000    0.819000
     20          1           0       -2.919000    2.394000   -0.274000
     21          1           0       -2.802000   -0.192000   -3.012000
     22          1           0       -3.943000    1.157000   -2.982000
     23          1           0       -2.261000    1.428000   -2.537000
     24          1           0       -5.543000    0.008000   -1.481000
     25          1           0       -5.013000   -0.746000    0.027000
     26          1           0       -4.530000   -1.440000   -1.530000
     27          1           0       -2.695000   -0.649000    0.602000
     28          1           0       -0.709000    0.515000   -1.243000
     29          1           0       -1.117000    1.160000    0.368000
     30          1           0       -0.361000   -0.958000    1.416000
     31          1           0       -1.029000   -2.005000   -0.670000
     32          1           0        2.082000   -2.228000    1.080000
     33          1           0        5.359000   -2.174000    0.488000
     34          1           0        4.268000   -2.807000    1.729000
     35          1           0        5.860000   -0.525000    2.136000
     36          1           0        5.528000    1.724000    0.430000
     37          1           0        3.447000    2.418000    0.022000
     38          1           0        1.104000    1.789000   -0.148000
 ---------------------------------------------------------------------
                    Distance matrix (angstroms):
                    1          2          3          4          5
     1  C    0.000000
     2  C    1.537641   0.000000
     3  C    2.519884   1.537355   0.000000
     4  C    2.498358   1.541728   2.494230   0.000000
     5  N    2.499247   1.477148   2.498180   2.411639   0.000000
     6  C    3.050535   2.502457   3.042633   3.793337   1.478310
     7  C    4.475327   3.841355   4.416903   4.868146   2.475498
     8  O    5.161017   4.133510   4.529755   4.867849   2.761537
     9  C    5.562659   5.102768   5.445613   6.279676   3.871660
    10  C    6.875067   6.321908   6.683606   7.361668   4.983740
    11  C    8.005852   7.551780   7.802351   8.677409   6.280298
    12  C    9.369747   8.830837   9.107011   9.845998   7.488795
    13  O   10.227922   9.850180  10.201734  10.907973   8.523548
    14  C    8.008684   7.730326   7.847258   9.015502   6.624423
    15  O    9.276400   9.051297   9.104284  10.363475   7.980549
    16  C    6.938502   6.795809   6.849147   8.184223   5.858767
    17  C    5.622460   5.421798   5.570443   6.793555   4.464344
    18  H    1.096452   2.183431   2.790836   2.710333   3.444439
    19  H    1.096274   2.188856   3.484948   2.781027   2.725182
    20  H    1.095335   2.195449   2.764904   3.472611   2.847866
    21  H    3.484144   2.188316   1.095875   2.787136   2.712947
    22  H    2.803728   2.183390   1.095975   2.694765   3.442000
    23  H    2.755234   2.197466   1.095699   3.469991   2.861879
    24  H    2.751172   2.190473   2.736771   1.095991   3.385543
    25  H    2.750637   2.195299   3.468481   1.096965   2.678654
    26  H    3.470789   2.193897   2.753539   1.096736   2.665980
    27  H    2.695828   2.049897   3.375512   2.568510   1.022909
    28  H    3.413341   2.744595   2.679488   4.125983   2.110741
    29  H    2.754583   2.804448   3.477140   4.177534   2.131040
    30  H    4.606182   4.139630   5.025819   4.985992   2.734431
    31  H    4.607114   3.413754   3.850807   3.982494   2.123468
    32  H    7.147588   6.455365   6.921555   7.301206   5.027720
    33  H    9.921852   9.284853   9.400341  10.305914   7.984275
    34  H    9.400628   8.779555   9.167544   9.653736   7.367991
    35  H   10.144728   9.857290  10.135116  11.015381   8.606757
    36  H    9.304875   9.179053   9.143633  10.564107   8.226839
    37  H    7.241777   7.252182   7.195405   8.713624   6.485421
    38  H    4.858892   4.830688   4.907036   6.296491   4.121837
                    6          7          8          9         10
     6  C    0.000000
     7  C    1.552255   0.000000
     8  O    2.414962   1.435499   0.000000
     9  C    2.615454   1.517123   2.399157   0.000000
    10  C    3.901239   2.517745   2.870825   1.409890   0.000000
    11  C    5.075303   3.829739   4.215886   2.462318   1.404448
    12  C    6.404113   5.029885   5.152124   3.830559   2.517606
    13  O    7.380631   6.049511   6.372136   4.786423   3.589292
    14  C    5.251544   4.326483   4.962522   2.810609   2.401820
    15  O    6.588919   5.695360   6.288187   4.179715   3.650195
    16  C    4.402389   3.848038   4.724074   2.434501   2.778764
    17  C    3.006935   2.570809   3.591992   1.401387   2.408519
    18  H    4.081158   5.540572   6.148449   6.612802   7.940620
    19  H    3.336038   4.535911   5.311309   5.673463   6.907710
    20  H    2.836406   4.302781   5.187803   5.135774   6.511879
    21  H    3.303889   4.415429   4.184162   5.450431   6.552410
    22  H    4.080353   5.493603   5.604017   6.516087   7.771970
    23  H    2.846329   4.263146   4.575901   5.028805   6.329900
    24  H    4.657994   5.859540   5.894827   7.218282   8.357605
    25  H    4.085768   4.986245   5.071562   6.449917   7.462408
    26  H    4.070364   4.934059   4.610614   6.364619   7.322621
    27  H    2.047923   2.664807   3.056841   4.120425   5.120616
    28  H    1.094705   2.162002   2.702914   2.823703   4.118471
    29  H    1.094247   2.178910   3.360563   2.905708   4.257159
    30  H    2.166803   1.098132   2.047266   2.124748   2.817288
    31  H    2.297805   1.927994   0.980015   3.188251   3.827715
    32  H    4.214850   2.685334   2.625045   2.156668   1.091308
    33  H    6.900654   5.588596   5.530774   4.383903   3.145677
    34  H    6.451513   4.964787   4.913736   4.026799   2.619002
    35  H    7.357683   6.156476   6.619091   4.768423   3.761468
    36  H    6.783615   6.086542   6.776447   4.582939   4.314376
    37  H    5.007320   4.714838   5.651584   3.409330   3.865365
    38  H    2.655886   2.822004   3.946792   2.174081   3.409293
                   11         12         13         14         15
    11  C    0.000000
    12  C    1.507290   0.000000
    13  O    2.429930   1.423847   0.000000
    14  C    1.396429   2.542953   2.983913   0.000000
    15  O    2.379018   2.858792   2.788728   1.369112   0.000000
    16  C    2.429454   3.822888   4.319021   1.392529   2.393361
    17  C    2.811850   4.318392   5.056035   2.414888   3.667046
    18  H    9.054626  10.432957  11.296071   9.004244  10.247844
    19  H    8.065527   9.378030  10.157288   8.152271   9.427906
    20  H    7.515394   8.944575   9.736554   7.350660   8.558596
    21  H    7.689437   8.896718  10.087467   7.851305   9.108085
    22  H    8.873137  10.191403  11.276197   8.863980  10.095809
    23  H    7.317651   8.688718   9.730875   7.191754   8.387978
    24  H    9.642992  10.852526  11.908706   9.897236  11.226619
    25  H    8.808063   9.926714  10.920056   9.224232  10.582877
    26  H    8.662774   9.736148  10.885904   9.112134  10.463436
    27  H    6.452619   7.593054   8.547310   6.895468   8.255939
    28  H    5.156467   6.516842   7.559217   5.179824   6.462186
    29  H    5.295422   6.695795   7.503818   5.282747   6.566663
    30  H    4.130709   5.203105   6.084592   4.752176   6.090660
    31  H    5.176068   6.131750   7.346214   5.850758   7.188906
    32  H    2.159957   2.708674   3.859526   3.392403   4.533770
    33  H    2.140950   1.095271   2.055557   2.916657   2.999815
    34  H    2.161438   1.094883   2.037446   3.440366   3.924162
    35  H    2.439111   1.925842   0.976812   2.494517   1.969874
    36  H    3.180099   3.819295   3.721808   1.913872   0.972624
    37  H    3.417977   4.705339   5.022667   2.164389   2.653885
    38  H    3.898105   5.404860   6.107769   3.384948   4.524977
                   16         17         18         19         20
    16  C    0.000000
    17  C    1.397473   0.000000
    18  H    7.882462   6.598721   0.000000
    19  H    7.159598   5.846754   1.768386   0.000000
    20  H    6.185186   4.947944   1.762713   1.772951   0.000000
    21  H    6.984082   5.735323   3.810350   4.341822   3.767987
    22  H    7.812123   6.562959   2.628454   3.814918   3.148334
    23  H    6.100524   4.905965   3.111836   3.768732   2.547016
    24  H    8.984665   7.609744   2.504769   3.149342   3.746361
    25  H    8.454093   7.058150   3.041910   2.581518   3.786164
    26  H    8.390657   7.017111   3.734077   3.789204   4.344239
    27  H    6.213332   4.834078   3.660207   2.494472   3.174492
    28  H    4.243914   2.935317   4.299663   3.981426   3.058382
    29  H    4.286940   2.944209   3.800140   2.911118   2.276428
    30  H    4.392736   3.204197   5.694983   4.400696   4.542617
    31  H    5.476368   4.242102   5.526741   4.800858   4.804177
    32  H    3.870026   3.394530   8.219876   7.107183   6.943069
    33  H    4.198222   4.786638  10.958127  10.029563   9.485386
    34  H    4.588598   4.814657  10.479012   9.336064   9.094800
    35  H    3.807898   4.760398  11.188067  10.123525   9.560309
    36  H    2.394884   3.785090  10.223436   9.514062   8.502725
    37  H    1.086708   2.146053   8.105273   7.523248   6.372923
    38  H    2.133972   1.086945   5.767214   5.179401   4.070188
                   21         22         23         24         25
    21  H    0.000000
    22  H    1.767083   0.000000
    23  H    1.772768   1.760849   0.000000
    24  H    3.145956   2.476530   3.728681   0.000000
    25  H    3.798810   3.717579   4.344407   1.767337   0.000000
    26  H    2.596115   3.032702   3.793130   1.767844   1.771771
    27  H    3.644351   4.202879   3.788879   3.589100   2.390221
    28  H    2.830169   3.727605   2.217365   4.866338   4.661270
    29  H    4.011425   4.382783   3.133622   4.933090   4.350624
    30  H    5.113944   6.053623   4.992915   6.014889   4.859565
    31  H    3.451878   4.882109   4.097438   5.008601   4.235935
    32  H    6.689037   8.016152   6.731320   8.348595   7.324217
    33  H    9.098365  10.472042   8.954855  11.291222  10.479985
    34  H    8.905066  10.262911   8.874786  10.699722   9.658234
    35  H   10.081817  11.185788   9.570882  11.974773  11.077854
    36  H    9.214517  10.082811   8.340217  11.365017  10.834020
    37  H    7.420732   8.076276   6.333233   9.428001   9.032304
    38  H    5.232943   5.822645   4.142568   7.009384   6.623786
                   26         27         28         29         30
    26  H    0.000000
    27  H    2.922042   0.000000
    28  H    4.301678   2.950105   0.000000
    29  H    4.691585   2.411912   1.782641   0.000000
    30  H    5.127553   2.491111   3.059594   2.481081   0.000000
    31  H    3.649086   2.496453   2.604060   3.332028   2.427721
    32  H    7.152034   5.053855   4.550831   4.713713   2.773814
    33  H   10.119457   8.197898   6.859133   7.284815   5.921000
    34  H    9.481275   7.376345   6.681242   6.825514   4.994438
    35  H   11.055717   8.692327   7.459960   7.392129   6.277478
    36  H   10.724545   8.560283   6.569686   6.669180   6.545658
    37  H    8.995854   6.889634   4.742781   4.746828   5.276502
    38  H    6.639151   4.575887   2.471653   2.365320   3.484011
                   31         32         33         34         35
    31  H    0.000000
    32  H    3.576388   0.000000
    33  H    6.494311   3.330482   0.000000
    34  H    5.869976   2.352666   1.769478   0.000000
    35  H    7.584349   4.276521   2.384556   2.812052   0.000000
    36  H    7.622971   5.283533   3.902093   4.879033   2.842299
    37  H    6.330590   4.956602   4.995935   5.557744   4.353483
    38  H    4.383675   4.312859   5.849350   5.887040   5.761145
                   36         37         38
    36  H    0.000000
    37  H    2.231291   0.000000
    38  H    4.462072   2.431911   0.000000
 Stoichiometry    C13H21NO3
 Framework group  C1[X(C13H21NO3)]
 Deg. of freedom   108
 Full point group                 C1      NOp   1
 Largest Abelian subgroup         C1      NOp   1
 Largest concise Abelian subgroup C1      NOp   1
                         Standard orientation:                         
 ---------------------------------------------------------------------
 Center     Atomic      Atomic             Coordinates (Angstroms)
 Number     Number       Type             X           Y           Z
 ---------------------------------------------------------------------
      1          6           0        4.526805    1.169659   -1.132589
      2          6           0        4.304111    0.121956   -0.029382
      3          6           0        4.376553    0.788976    1.353837
      4          6           0        5.430677   -0.926823   -0.117911
      5          7           0        3.040772   -0.619808   -0.218397
      6          6           0        1.806033    0.191019   -0.160259
      7          6           0        0.568958   -0.738597   -0.282553
      8          8           0        0.707727   -1.783899    0.691483
      9          6           0       -0.793449   -0.093429   -0.111474
     10          6           0       -1.930624   -0.924171   -0.044459
     11          6           0       -3.228593   -0.402821    0.081809
     12          6           0       -4.401521   -1.342525    0.196352
     13          8           0       -5.462640   -0.979109   -0.680743
     14          6           0       -3.375834    0.983996    0.153040
     15          8           0       -4.635530    1.505496    0.278229
     16          6           0       -2.272451    1.830571    0.082366
     17          6           0       -0.989675    1.292923   -0.053098
     18          1           0        5.525070    1.615873   -1.051556
     19          1           0        4.445891    0.721432   -2.129766
     20          1           0        3.802362    1.988824   -1.070077
     21          1           0        4.161254    0.071455    2.153682
     22          1           0        5.376495    1.197559    1.539141
     23          1           0        3.669848    1.621134    1.446773
     24          1           0        6.414031   -0.464173    0.024095
     25          1           0        5.440444   -1.424544   -1.095413
     26          1           0        5.317418   -1.701355    0.650271
     27          1           0        3.072469   -1.100200   -1.120927
     28          1           0        1.755248    0.705196    0.804843
     29          1           0        1.787519    0.934788   -0.962657
     30          1           0        0.588585   -1.215296   -1.271626
     31          1           0        1.676247   -1.897616    0.788777
     32          1           0       -1.790301   -2.005694   -0.084100
     33          1           0       -4.779184   -1.337556    1.224439
     34          1           0       -4.114322   -2.370066   -0.049504
     35          1           0       -5.535509   -0.007980   -0.604853
     36          1           0       -4.559929    2.468452    0.392238
     37          1           0       -2.388862    2.910083    0.127495
     38          1           0       -0.152564    1.984042   -0.108325
 ---------------------------------------------------------------------
 Rotational constants (GHZ):           1.2925112           0.1631782           0.1520094
 Leave Link  202 at Tue Mar  1 05:59:35 2022, MaxMem=   104857600 cpu:               0.0 elap:               0.0
 (Enter /dades/curu/g16A03_MST/g16/l301.exe)
 Standard basis: 6-31G(d) (6D, 7F)
 Ernie: Thresh=  0.10000D-02 Tol=  0.10000D-05 Strict=F.
 There are   297 symmetry adapted cartesian basis functions of A   symmetry.
 There are   297 symmetry adapted basis functions of A   symmetry.
   297 basis functions,   560 primitive gaussians,   297 cartesian basis functions
    65 alpha electrons       65 beta electrons
       nuclear repulsion energy      1217.5089311623 Hartrees.
 IExCor=  402 DFT=T Ex+Corr=B3LYP ExCW=0 ScaHFX=  0.200000
 ScaDFX=  0.800000  0.720000  1.000000  0.810000 ScalE2=  1.000000  1.000000
 IRadAn=      5 IRanWt=     -1 IRanGd=            0 ICorTp=0 IEmpDi=  4
 NAtoms=   38 NActive=   38 NUniq=   38 SFac= 1.00D+00 NAtFMM=   60 NAOKFM=F Big=F
 Integral buffers will be    131072 words long.
 Raffenetti 2 integral format.
 Two-electron integral symmetry is turned on.
 Using the following non-standard input for PCM:
 MSTModel=DFT cav
 --- end of non-standard input.
 MST model for solvation energy: B3LYP parametrization.
 MST cavity parameters:
 ISph   IAn     Re0     Alpha   Atom Type   QCorr
 ------------------------------------------------
   1      6     1.50     1.25      CH3        F
   2      6     1.50     1.25      C          F
   3      6     1.50     1.25      CH3        F
   4      6     1.50     1.25      CH3        F
   5      7     1.40     1.25      NH         F
   6      6     1.50     1.25      CH2        F
   7      6     1.50     1.25      CH         F
   8      8     1.40     1.25      OH         F
   9      6     1.50     1.25      C          F
  10      6     1.50     1.25      CH         F
  11      6     1.50     1.25      C          F
  12      6     1.50     1.25      CH2        F
  13      8     1.40     1.25      OH         F
  14      6     1.50     1.25      C          F
  15      8     1.40     1.25      OH         F
  16      6     1.50     1.25      CH         F
  17      6     1.50     1.25      CH         F
  18      1     1.20     1.25      CH3        F
  19      1     1.20     1.25      CH3        F
  20      1     1.20     1.25      CH3        F
  21      1     1.20     1.25      CH3        F
  22      1     1.20     1.25      CH3        F
  23      1     1.20     1.25      CH3        F
  24      1     1.20     1.25      CH3        F
  25      1     1.20     1.25      CH3        F
  26      1     1.20     1.25      CH3        F
  27      1     0.90     1.25      NH         F
  28      1     1.20     1.25      CH2        F
  29      1     1.20     1.25      CH2        F
  30      1     1.20     1.25      CH         F
  31      1     0.90     1.25      OH         F
  32      1     1.20     1.25      CH         F
  33      1     1.20     1.25      CH2        F
  34      1     1.20     1.25      CH2        F
  35      1     0.90     1.25      OH         F
  36      1     0.90     1.25      OH         F
  37      1     1.20     1.25      CH         F
  38      1     1.20     1.25      CH         F
 ------------------------------------------------------------------------------
 Polarizable Continuum Model (PCM)
 =================================
 Model                : PCM.
 Atomic radii         : MST.
 Polarization charges : Total charges.
 Charge compensation  : None.
 Solution method      : On-the-fly selection.
 Cavity type          : Scaled VdW (van der Waals Surface) (Alpha=1.250).
 Cavity algorithm     : GePol (No added spheres)
                        Default sphere list used, NSphG=   38.
                        Lebedev-Laikov grids with approx.  5.0 points / Ang**2.
                        Smoothing algorithm: York/Karplus (Gamma=1.0000).
                        Polarization charges: spherical gaussians, with
                                              point-specific exponents (IZeta= 3).
                        Self-potential: point-specific (ISelfS= 7).
                        Self-field    : sphere-specific E.n sum rule (ISelfD= 2).
 1st derivatives      : Analytical E(r).r(x)/FMM algorithm (CHGder, D1EAlg=3).
                        Cavity 1st derivative terms included.
 Solvent              : Water, Eps=  78.355300 Eps(inf)=   1.777849
 ------------------------------------------------------------------------------
 GePol: Number of generator spheres                  =      38
 GePol: Total number of spheres                      =      38
 GePol: Number of exposed spheres                    =      38 (100.00%)
 GePol: Number of points                             =    2434
 GePol: Average weight of points                     =       0.13
 GePol: Minimum weight of points                     =   0.22D-09
 GePol: Maximum weight of points                     =    0.22001
 GePol: Number of points with low weight             =     191
 GePol: Fraction of low-weight points (<1% of avg)   =       7.85%
 GePol: Cavity surface area                          =    326.840 Ang**2
 GePol: Cavity volume                                =    309.457 Ang**3
 Surface areas from nonelectrostatic (unscaled) cavity and vdw tensions:
 Sphere =    1 Type =  CH3 Surf =        4.894 Tension =       -0.140
 Sphere =    2 Type =  C   Surf =        2.027 Tension =       -0.101
 Sphere =    3 Type =  CH3 Surf =        4.800 Tension =       -0.140
 Sphere =    4 Type =  CH3 Surf =        4.759 Tension =       -0.140
 Sphere =    5 Type =  NH  Surf =        7.401 Tension =       -0.159
 Sphere =    6 Type =  CH2 Surf =        3.971 Tension =       -0.139
 Sphere =    7 Type =  CH  Surf =        3.237 Tension =       -0.140
 Sphere =    8 Type =  OH  Surf =       14.202 Tension =       -0.156
 Sphere =    9 Type =  C   Surf =        6.213 Tension =       -0.101
 Sphere =   10 Type =  CH  Surf =        7.558 Tension =       -0.140
 Sphere =   11 Type =  C   Surf =        6.172 Tension =       -0.101
 Sphere =   12 Type =  CH2 Surf =        4.461 Tension =       -0.139
 Sphere =   13 Type =  OH  Surf =       14.506 Tension =       -0.156
 Sphere =   14 Type =  C   Surf =        6.641 Tension =       -0.101
 Sphere =   15 Type =  OH  Surf =       13.257 Tension =       -0.156
 Sphere =   16 Type =  CH  Surf =        7.735 Tension =       -0.140
 Sphere =   17 Type =  CH  Surf =        7.718 Tension =       -0.140
 Sphere =   18 Type =  CH3 Surf =       10.112 Tension =       -0.140
 Sphere =   19 Type =  CH3 Surf =       10.151 Tension =       -0.140
 Sphere =   20 Type =  CH3 Surf =        9.712 Tension =       -0.140
 Sphere =   21 Type =  CH3 Surf =       10.147 Tension =       -0.140
 Sphere =   22 Type =  CH3 Surf =       10.093 Tension =       -0.140
 Sphere =   23 Type =  CH3 Surf =        9.525 Tension =       -0.140
 Sphere =   24 Type =  CH3 Surf =       10.116 Tension =       -0.140
 Sphere =   25 Type =  CH3 Surf =       10.147 Tension =       -0.140
 Sphere =   26 Type =  CH3 Surf =       10.145 Tension =       -0.140
 Sphere =   27 Type =  NH  Surf =        4.744 Tension =       -0.159
 Sphere =   28 Type =  CH2 Surf =        9.304 Tension =       -0.139
 Sphere =   29 Type =  CH2 Surf =        9.501 Tension =       -0.139
 Sphere =   30 Type =  CH  Surf =        9.976 Tension =       -0.140
 Sphere =   31 Type =  OH  Surf =        3.929 Tension =       -0.156
 Sphere =   32 Type =  CH  Surf =       10.015 Tension =       -0.140
 Sphere =   33 Type =  CH2 Surf =       10.091 Tension =       -0.139
 Sphere =   34 Type =  CH2 Surf =        9.849 Tension =       -0.139
 Sphere =   35 Type =  OH  Surf =        3.365 Tension =       -0.156
 Sphere =   36 Type =  OH  Surf =        4.428 Tension =       -0.156
 Sphere =   37 Type =  CH  Surf =       10.225 Tension =       -0.140
 Sphere =   38 Type =  CH  Surf =        9.775 Tension =       -0.140
 PCM non-electrostatic energy =         0.0012963598 Hartrees.
 Nuclear repulsion after PCM non-electrostatic terms =     1217.5102275221 Hartrees.
 Leave Link  301 at Tue Mar  1 05:59:35 2022, MaxMem=   104857600 cpu:               0.1 elap:               0.1
 (Enter /dades/curu/g16A03_MST/g16/l302.exe)
 NPDir=0 NMtPBC=     1 NCelOv=     1 NCel=       1 NClECP=     1 NCelD=      1
         NCelK=      1 NCelE2=     1 NClLst=     1 CellRange=     0.0.
 One-electron integrals computed using PRISM.
 One-electron integral symmetry used in STVInt
 NBasis=   297 RedAO= T EigKep=  3.74D-04  NBF=   297
 NBsUse=   297 1.00D-06 EigRej= -1.00D+00 NBFU=   297
 Precomputing XC quadrature grid using
 IXCGrd= 4 IRadAn=           5 IRanWt=          -1 IRanGd=           0 AccXCQ= 0.00D+00.
 Generated NRdTot=       0 NPtTot=           0 NUsed=           0 NTot=          32
 NSgBfM=   294   294   294   294   294 MxSgAt=    38 MxSgA2=    38.
 Leave Link  302 at Tue Mar  1 05:59:36 2022, MaxMem=   104857600 cpu:               4.8 elap:               1.3
 (Enter /dades/curu/g16A03_MST/g16/l303.exe)
 DipDrv:  MaxL=1.
 Leave Link  303 at Tue Mar  1 05:59:36 2022, MaxMem=   104857600 cpu:               0.1 elap:               0.1
 (Enter /dades/curu/g16A03_MST/g16/l401.exe)
 ExpMin= 1.61D-01 ExpMax= 5.48D+03 ExpMxC= 8.25D+02 IAcc=3 IRadAn=         5 AccDes= 0.00D+00
 Harris functional with IExCor=  402 and IRadAn=       5 diagonalized for initial guess.
 HarFok:  IExCor=  402 AccDes= 0.00D+00 IRadAn=         5 IDoV= 1 UseB2=F ITyADJ=14
 ICtDFT=  3500011 ScaDFX=  1.000000  1.000000  1.000000  1.000000
 FoFCou: FMM=F IPFlag=           0 FMFlag=      100000 FMFlg1=           0
         NFxFlg=           0 DoJE=T BraDBF=F KetDBF=T FulRan=T
         wScrn=  0.000000 ICntrl=       500 IOpCl=  0 I1Cent=   200000004 NGrid=           0
         NMat0=    1 NMatS0=      1 NMatT0=    0 NMatD0=    1 NMtDS0=    0 NMtDT0=    0
 Petite list used in FoFCou.
 Harris En= -788.473002411569    
 JPrj=0 DoOrth=F DoCkMO=F.
 Leave Link  401 at Tue Mar  1 05:59:44 2022, MaxMem=   104857600 cpu:              30.4 elap:               7.7
 (Enter /dades/curu/g16A03_MST/g16/l502.exe)
 Integral symmetry usage will be decided dynamically.
 Closed shell SCF:
 Using DIIS extrapolation, IDIIS=  1040.
 NGot=   104857600 LenX=   104675861 LenY=   104587211
 Requested convergence on RMS density matrix=1.00D-08 within2000 cycles.
 Requested convergence on MAX density matrix=1.00D-06.
 Requested convergence on             energy=1.00D-06.
 No special actions if energy rises.

 Cycle   1  Pass 1  IDiag  1:
 FoFJK:  IHMeth= 1 ICntrl=       0 DoSepK=F KAlg= 0 I1Cent=           0 FoldK=F
 IRaf= 760000000 NMat=       1 IRICut=       1 DoRegI=T DoRafI=F ISym2E= 0 IDoP0=0 IntGTp=1.
 FoFCou: FMM=F IPFlag=           0 FMFlag=      100000 FMFlg1=           0
         NFxFlg=           0 DoJE=F BraDBF=F KetDBF=F FulRan=T
         wScrn=  0.000000 ICntrl=         0 IOpCl=  0 I1Cent=           0 NGrid=           0
         NMat0=    1 NMatS0=      1 NMatT0=    0 NMatD0=    1 NMtDS0=    0 NMtDT0=    0
 Symmetry not used in FoFCou.
 Inv3:  Mode=1 IEnd=    17773068.
 Iteration    1 A*A^-1 deviation from unit magnitude is 5.88D-15 for   1214.
 Iteration    1 A*A^-1 deviation from orthogonality  is 2.30D-15 for   1299    754.
 Iteration    1 A^-1*A deviation from unit magnitude is 5.66D-15 for   1214.
 Iteration    1 A^-1*A deviation from orthogonality  is 2.05D-15 for   2389    604.
 E= -787.984522171224    
 DIIS: error= 3.38D-02 at cycle   1 NSaved=   1.
 NSaved= 1 IEnMin= 1 EnMin= -787.984522171224     IErMin= 1 ErrMin= 3.38D-02
 ErrMax= 3.38D-02  0.00D+00 EMaxC= 1.00D-01 BMatC= 4.77D-01 BMatP= 4.77D-01
 IDIUse=3 WtCom= 6.62D-01 WtEn= 3.38D-01
 Coeff-Com:  0.100D+01
 Coeff-En:   0.100D+01
 Coeff:      0.100D+01
 Gap=     0.230 Goal=   None    Shift=    0.000
 GapD=    0.230 DampG=1.000 DampE=0.500 DampFc=0.5000 IDamp=-1.
 Damping current iteration by 5.00D-01
 RMSDP=4.80D-03 MaxDP=1.36D-01              OVMax= 1.63D-01

 Cycle   2  Pass 1  IDiag  1:
 E= -788.196849332605     Delta-E=       -0.212327161381 Rises=F Damp=T
 DIIS: error= 6.11D-03 at cycle   2 NSaved=   2.
 NSaved= 2 IEnMin= 2 EnMin= -788.196849332605     IErMin= 2 ErrMin= 6.11D-03
 ErrMax= 6.11D-03  0.00D+00 EMaxC= 1.00D-01 BMatC= 2.27D-02 BMatP= 4.77D-01
 IDIUse=3 WtCom= 9.39D-01 WtEn= 6.11D-02
 Coeff-Com:  0.511D-01 0.949D+00
 Coeff-En:   0.685D-01 0.932D+00
 Coeff:      0.522D-01 0.948D+00
 Gap=     0.247 Goal=   None    Shift=    0.000
 RMSDP=9.60D-04 MaxDP=2.60D-02 DE=-2.12D-01 OVMax= 9.36D-02

 Cycle   3  Pass 1  IDiag  1:
 E= -788.435317550422     Delta-E=       -0.238468217817 Rises=F Damp=F
 DIIS: error= 3.30D-03 at cycle   3 NSaved=   3.
 NSaved= 3 IEnMin= 3 EnMin= -788.435317550422     IErMin= 3 ErrMin= 3.30D-03
 ErrMax= 3.30D-03  0.00D+00 EMaxC= 1.00D-01 BMatC= 8.95D-03 BMatP= 2.27D-02
 IDIUse=3 WtCom= 9.67D-01 WtEn= 3.30D-02
 Coeff-Com: -0.148D-01 0.356D+00 0.658D+00
 Coeff-En:   0.000D+00 0.000D+00 0.100D+01
 Coeff:     -0.143D-01 0.345D+00 0.670D+00
 Gap=     0.216 Goal=   None    Shift=    0.000
 RMSDP=4.37D-04 MaxDP=1.57D-02 DE=-2.38D-01 OVMax= 1.96D-02

 Cycle   4  Pass 1  IDiag  1:
 E= -788.440881960413     Delta-E=       -0.005564409991 Rises=F Damp=F
 DIIS: error= 1.67D-03 at cycle   4 NSaved=   4.
 NSaved= 4 IEnMin= 4 EnMin= -788.440881960413     IErMin= 4 ErrMin= 1.67D-03
 ErrMax= 1.67D-03  0.00D+00 EMaxC= 1.00D-01 BMatC= 2.47D-03 BMatP= 8.95D-03
 IDIUse=3 WtCom= 9.83D-01 WtEn= 1.67D-02
 Coeff-Com: -0.990D-02 0.616D-01 0.363D+00 0.585D+00
 Coeff-En:   0.000D+00 0.000D+00 0.218D+00 0.782D+00
 Coeff:     -0.973D-02 0.606D-01 0.360D+00 0.589D+00
 Gap=     0.217 Goal=   None    Shift=    0.000
 RMSDP=1.66D-04 MaxDP=6.37D-03 DE=-5.56D-03 OVMax= 1.07D-02

 Cycle   5  Pass 1  IDiag  1:
 E= -788.442961749050     Delta-E=       -0.002079788636 Rises=F Damp=F
 DIIS: error= 3.90D-04 at cycle   5 NSaved=   5.
 NSaved= 5 IEnMin= 5 EnMin= -788.442961749050     IErMin= 5 ErrMin= 3.90D-04
 ErrMax= 3.90D-04  0.00D+00 EMaxC= 1.00D-01 BMatC= 7.84D-05 BMatP= 2.47D-03
 IDIUse=3 WtCom= 9.96D-01 WtEn= 3.90D-03
 Coeff-Com: -0.340D-02 0.113D-01 0.134D+00 0.265D+00 0.593D+00
 Coeff-En:   0.000D+00 0.000D+00 0.000D+00 0.000D+00 0.100D+01
 Coeff:     -0.339D-02 0.113D-01 0.134D+00 0.264D+00 0.594D+00
 Gap=     0.215 Goal=   None    Shift=    0.000
 RMSDP=3.91D-05 MaxDP=1.66D-03 DE=-2.08D-03 OVMax= 3.58D-03

 Cycle   6  Pass 1  IDiag  1:
 E= -788.443029897423     Delta-E=       -0.000068148374 Rises=F Damp=F
 DIIS: error= 1.49D-04 at cycle   6 NSaved=   6.
 NSaved= 6 IEnMin= 6 EnMin= -788.443029897423     IErMin= 6 ErrMin= 1.49D-04
 ErrMax= 1.49D-04  0.00D+00 EMaxC= 1.00D-01 BMatC= 9.30D-06 BMatP= 7.84D-05
 IDIUse=3 WtCom= 9.99D-01 WtEn= 1.49D-03
 Coeff-Com: -0.103D-02 0.132D-02 0.443D-01 0.969D-01 0.318D+00 0.540D+00
 Coeff-En:   0.000D+00 0.000D+00 0.000D+00 0.000D+00 0.403D-01 0.960D+00
 Coeff:     -0.103D-02 0.132D-02 0.443D-01 0.967D-01 0.318D+00 0.541D+00
 Gap=     0.215 Goal=   None    Shift=    0.000
 RMSDP=1.26D-05 MaxDP=6.83D-04 DE=-6.81D-05 OVMax= 1.33D-03

 Cycle   7  Pass 1  IDiag  1:
 E= -788.443039026775     Delta-E=       -0.000009129352 Rises=F Damp=F
 DIIS: error= 3.57D-05 at cycle   7 NSaved=   7.
 NSaved= 7 IEnMin= 7 EnMin= -788.443039026775     IErMin= 7 ErrMin= 3.57D-05
 ErrMax= 3.57D-05  0.00D+00 EMaxC= 1.00D-01 BMatC= 6.22D-07 BMatP= 9.30D-06
 IDIUse=1 WtCom= 1.00D+00 WtEn= 0.00D+00
 Coeff-Com: -0.373D-03 0.141D-03 0.168D-01 0.384D-01 0.141D+00 0.294D+00
 Coeff-Com:  0.510D+00
 Coeff:     -0.373D-03 0.141D-03 0.168D-01 0.384D-01 0.141D+00 0.294D+00
 Coeff:      0.510D+00
 Gap=     0.215 Goal=   None    Shift=    0.000
 RMSDP=3.15D-06 MaxDP=1.27D-04 DE=-9.13D-06 OVMax= 3.19D-04

 Cycle   8  Pass 1  IDiag  1:
 E= -788.443039639615     Delta-E=       -0.000000612840 Rises=F Damp=F
 DIIS: error= 5.76D-06 at cycle   8 NSaved=   8.
 NSaved= 8 IEnMin= 8 EnMin= -788.443039639615     IErMin= 8 ErrMin= 5.76D-06
 ErrMax= 5.76D-06  0.00D+00 EMaxC= 1.00D-01 BMatC= 2.46D-08 BMatP= 6.22D-07
 IDIUse=1 WtCom= 1.00D+00 WtEn= 0.00D+00
 Coeff-Com: -0.340D-04-0.111D-03 0.170D-02 0.448D-02 0.201D-01 0.551D-01
 Coeff-Com:  0.201D+00 0.717D+00
 Coeff:     -0.340D-04-0.111D-03 0.170D-02 0.448D-02 0.201D-01 0.551D-01
 Coeff:      0.201D+00 0.717D+00
 Gap=     0.215 Goal=   None    Shift=    0.000
 RMSDP=7.00D-07 MaxDP=3.47D-05 DE=-6.13D-07 OVMax= 6.27D-05

 Cycle   9  Pass 1  IDiag  1:
 E= -788.443039659793     Delta-E=       -0.000000020178 Rises=F Damp=F
 DIIS: error= 2.16D-06 at cycle   9 NSaved=   9.
 NSaved= 9 IEnMin= 9 EnMin= -788.443039659793     IErMin= 9 ErrMin= 2.16D-06
 ErrMax= 2.16D-06  0.00D+00 EMaxC= 1.00D-01 BMatC= 3.55D-09 BMatP= 2.46D-08
 IDIUse=1 WtCom= 1.00D+00 WtEn= 0.00D+00
 Coeff-Com:  0.586D-05-0.669D-04-0.193D-03-0.119D-03 0.133D-02 0.926D-02
 Coeff-Com:  0.709D-01 0.364D+00 0.555D+00
 Coeff:      0.586D-05-0.669D-04-0.193D-03-0.119D-03 0.133D-02 0.926D-02
 Coeff:      0.709D-01 0.364D+00 0.555D+00
 Gap=     0.215 Goal=   None    Shift=    0.000
 RMSDP=2.27D-07 MaxDP=1.19D-05 DE=-2.02D-08 OVMax= 2.70D-05

 Cycle  10  Pass 1  IDiag  1:
 E= -788.443039662966     Delta-E=       -0.000000003173 Rises=F Damp=F
 DIIS: error= 4.33D-07 at cycle  10 NSaved=  10.
 NSaved=10 IEnMin=10 EnMin= -788.443039662966     IErMin=10 ErrMin= 4.33D-07
 ErrMax= 4.33D-07  0.00D+00 EMaxC= 1.00D-01 BMatC= 2.10D-10 BMatP= 3.55D-09
 IDIUse=1 WtCom= 1.00D+00 WtEn= 0.00D+00
 Coeff-Com:  0.510D-05-0.141D-04-0.274D-03-0.547D-03-0.165D-02-0.189D-02
 Coeff-Com:  0.980D-02 0.780D-01 0.242D+00 0.675D+00
 Coeff:      0.510D-05-0.141D-04-0.274D-03-0.547D-03-0.165D-02-0.189D-02
 Coeff:      0.980D-02 0.780D-01 0.242D+00 0.675D+00
 Gap=     0.215 Goal=   None    Shift=    0.000
 RMSDP=5.42D-08 MaxDP=1.84D-06 DE=-3.17D-09 OVMax= 5.05D-06

 Cycle  11  Pass 1  IDiag  1:
 E= -788.443039663165     Delta-E=       -0.000000000199 Rises=F Damp=F
 DIIS: error= 1.19D-07 at cycle  11 NSaved=  11.
 NSaved=11 IEnMin=11 EnMin= -788.443039663165     IErMin=11 ErrMin= 1.19D-07
 ErrMax= 1.19D-07  0.00D+00 EMaxC= 1.00D-01 BMatC= 1.31D-11 BMatP= 2.10D-10
 IDIUse=1 WtCom= 1.00D+00 WtEn= 0.00D+00
 Coeff-Com:  0.205D-05-0.436D-05-0.125D-03-0.255D-03-0.818D-03-0.116D-02
 Coeff-Com:  0.266D-02 0.257D-01 0.104D+00 0.326D+00 0.544D+00
 Coeff:      0.205D-05-0.436D-05-0.125D-03-0.255D-03-0.818D-03-0.116D-02
 Coeff:      0.266D-02 0.257D-01 0.104D+00 0.326D+00 0.544D+00
 Gap=     0.215 Goal=   None    Shift=    0.000
 RMSDP=1.48D-08 MaxDP=6.79D-07 DE=-1.99D-10 OVMax= 1.55D-06

 Cycle  12  Pass 1  IDiag  1:
 E= -788.443039663157     Delta-E=        0.000000000008 Rises=F Damp=F
 DIIS: error= 4.25D-08 at cycle  12 NSaved=  12.
 NSaved=12 IEnMin=11 EnMin= -788.443039663165     IErMin=12 ErrMin= 4.25D-08
 ErrMax= 4.25D-08  0.00D+00 EMaxC= 1.00D-01 BMatC= 1.68D-12 BMatP= 1.31D-11
 IDIUse=1 WtCom= 1.00D+00 WtEn= 0.00D+00
 Coeff-Com:  0.213D-07 0.587D-06-0.138D-04-0.308D-04-0.117D-03-0.244D-03
 Coeff-Com: -0.400D-03-0.180D-02 0.941D-02 0.337D-01 0.270D+00 0.689D+00
 Coeff:      0.213D-07 0.587D-06-0.138D-04-0.308D-04-0.117D-03-0.244D-03
 Coeff:     -0.400D-03-0.180D-02 0.941D-02 0.337D-01 0.270D+00 0.689D+00
 Gap=     0.215 Goal=   None    Shift=    0.000
 RMSDP=4.83D-09 MaxDP=2.07D-07 DE= 7.50D-12 OVMax= 4.32D-07

 Error on total polarization charges =  0.02068
 SCF Done:  E(RB3LYP) =  -788.443039663     A.U. after   12 cycles
            NFock= 12  Conv=0.48D-08     -V/T= 2.0094
 KE= 7.810735146588D+02 PE=-4.270764016944D+03 EE= 1.483737235100D+03
 Leave Link  502 at Tue Mar  1 06:02:45 2022, MaxMem=   104857600 cpu:             696.1 elap:             180.8
 (Enter /dades/curu/g16A03_MST/g16/l601.exe)
 Copying SCF densities to generalized density rwf, IOpCl= 0 IROHF=0.

 **********************************************************************

            Population analysis using the SCF density.

 **********************************************************************

 Orbital symmetries:
       Occupied  (A) (A) (A) (A) (A) (A) (A) (A) (A) (A) (A) (A)
                 (A) (A) (A) (A) (A) (A) (A) (A) (A) (A) (A) (A)
                 (A) (A) (A) (A) (A) (A) (A) (A) (A) (A) (A) (A)
                 (A) (A) (A) (A) (A) (A) (A) (A) (A) (A) (A) (A)
                 (A) (A) (A) (A) (A) (A) (A) (A) (A) (A) (A) (A)
                 (A) (A) (A) (A) (A)
       Virtual   (A) (A) (A) (A) (A) (A) (A) (A) (A) (A) (A) (A)
                 (A) (A) (A) (A) (A) (A) (A) (A) (A) (A) (A) (A)
                 (A) (A) (A) (A) (A) (A) (A) (A) (A) (A) (A) (A)
                 (A) (A) (A) (A) (A) (A) (A) (A) (A) (A) (A) (A)
                 (A) (A) (A) (A) (A) (A) (A) (A) (A) (A) (A) (A)
                 (A) (A) (A) (A) (A) (A) (A) (A) (A) (A) (A) (A)
                 (A) (A) (A) (A) (A) (A) (A) (A) (A) (A) (A) (A)
                 (A) (A) (A) (A) (A) (A) (A) (A) (A) (A) (A) (A)
                 (A) (A) (A) (A) (A) (A) (A) (A) (A) (A) (A) (A)
                 (A) (A) (A) (A) (A) (A) (A) (A) (A) (A) (A) (A)
                 (A) (A) (A) (A) (A) (A) (A) (A) (A) (A) (A) (A)
                 (A) (A) (A) (A) (A) (A) (A) (A) (A) (A) (A) (A)
                 (A) (A) (A) (A) (A) (A) (A) (A) (A) (A) (A) (A)
                 (A) (A) (A) (A) (A) (A) (A) (A) (A) (A) (A) (A)
                 (A) (A) (A) (A) (A) (A) (A) (A) (A) (A) (A) (A)
                 (A) (A) (A) (A) (A) (A) (A) (A) (A) (A) (A) (A)
                 (A) (A) (A) (A) (A) (A) (A) (A) (A) (A) (A) (A)
                 (A) (A) (A) (A) (A) (A) (A) (A) (A) (A) (A) (A)
                 (A) (A) (A) (A) (A) (A) (A) (A) (A) (A) (A) (A)
                 (A) (A) (A) (A)
 The electronic state is 1-A.
 Alpha  occ. eigenvalues --  -19.18336 -19.13389 -19.13019 -14.31993 -10.25192
 Alpha  occ. eigenvalues --  -10.23564 -10.23083 -10.22010 -10.20495 -10.19484
 Alpha  occ. eigenvalues --  -10.19320 -10.19267 -10.19219 -10.18947 -10.17001
 Alpha  occ. eigenvalues --  -10.16821 -10.16683  -1.06453  -1.00828  -1.00656
 Alpha  occ. eigenvalues --   -0.90240  -0.85490  -0.78359  -0.76813  -0.75365
 Alpha  occ. eigenvalues --   -0.69764  -0.68212  -0.67907  -0.67293  -0.62668
 Alpha  occ. eigenvalues --   -0.62133  -0.56629  -0.55016  -0.54518  -0.49936
 Alpha  occ. eigenvalues --   -0.48980  -0.48711  -0.46844  -0.46150  -0.45648
 Alpha  occ. eigenvalues --   -0.45116  -0.44351  -0.43014  -0.42540  -0.41790
 Alpha  occ. eigenvalues --   -0.41231  -0.40871  -0.39268  -0.38836  -0.37353
 Alpha  occ. eigenvalues --   -0.37165  -0.36907  -0.36053  -0.35601  -0.34887
 Alpha  occ. eigenvalues --   -0.33369  -0.33332  -0.32802  -0.31982  -0.31320
 Alpha  occ. eigenvalues --   -0.26343  -0.26071  -0.24986  -0.22771  -0.22261
 Alpha virt. eigenvalues --   -0.00761   0.00368   0.07824   0.08660   0.10247
 Alpha virt. eigenvalues --    0.11113   0.12363   0.12670   0.13134   0.13468
 Alpha virt. eigenvalues --    0.14195   0.14459   0.15543   0.16065   0.16436
 Alpha virt. eigenvalues --    0.17523   0.17874   0.18162   0.18813   0.19539
 Alpha virt. eigenvalues --    0.20228   0.20267   0.20897   0.21851   0.22670
 Alpha virt. eigenvalues --    0.23123   0.23998   0.24706   0.24962   0.25973
 Alpha virt. eigenvalues --    0.26312   0.27169   0.28615   0.29151   0.30480
 Alpha virt. eigenvalues --    0.34793   0.36085   0.36858   0.39396   0.48447
 Alpha virt. eigenvalues --    0.49733   0.50603   0.51217   0.51679   0.52327
 Alpha virt. eigenvalues --    0.53670   0.54785   0.54952   0.56563   0.57162
 Alpha virt. eigenvalues --    0.57856   0.59158   0.59704   0.60572   0.60992
 Alpha virt. eigenvalues --    0.62036   0.62314   0.63746   0.64021   0.66477
 Alpha virt. eigenvalues --    0.67174   0.67643   0.68947   0.70975   0.72181
 Alpha virt. eigenvalues --    0.72528   0.73366   0.74096   0.74549   0.75764
 Alpha virt. eigenvalues --    0.76834   0.78389   0.78635   0.79157   0.82606
 Alpha virt. eigenvalues --    0.82653   0.84299   0.85018   0.85186   0.86576
 Alpha virt. eigenvalues --    0.87767   0.88110   0.89118   0.89506   0.90674
 Alpha virt. eigenvalues --    0.90930   0.91180   0.91349   0.91579   0.93798
 Alpha virt. eigenvalues --    0.94179   0.94456   0.95073   0.96158   0.96691
 Alpha virt. eigenvalues --    0.96979   0.98738   1.00087   1.00611   1.01906
 Alpha virt. eigenvalues --    1.02449   1.03260   1.04630   1.05852   1.07301
 Alpha virt. eigenvalues --    1.07884   1.09503   1.10292   1.12310   1.13301
 Alpha virt. eigenvalues --    1.15329   1.17942   1.19744   1.20830   1.22464
 Alpha virt. eigenvalues --    1.23757   1.27598   1.30474   1.31012   1.35000
 Alpha virt. eigenvalues --    1.37040   1.38008   1.39543   1.40245   1.42246
 Alpha virt. eigenvalues --    1.43563   1.45540   1.47483   1.48855   1.50031
 Alpha virt. eigenvalues --    1.52548   1.58195   1.62160   1.62694   1.66134
 Alpha virt. eigenvalues --    1.68258   1.70271   1.70884   1.72670   1.72972
 Alpha virt. eigenvalues --    1.74218   1.74740   1.75430   1.78265   1.78983
 Alpha virt. eigenvalues --    1.79348   1.80465   1.83914   1.85894   1.86488
 Alpha virt. eigenvalues --    1.88649   1.89797   1.90199   1.92523   1.93297
 Alpha virt. eigenvalues --    1.94672   1.95407   1.97043   1.97804   1.99208
 Alpha virt. eigenvalues --    2.04586   2.05181   2.06499   2.08479   2.09565
 Alpha virt. eigenvalues --    2.09649   2.10255   2.11525   2.12480   2.13716
 Alpha virt. eigenvalues --    2.14513   2.17469   2.19103   2.22918   2.25116
 Alpha virt. eigenvalues --    2.25584   2.25897   2.27321   2.27347   2.29421
 Alpha virt. eigenvalues --    2.30525   2.31341   2.31784   2.32177   2.35756
 Alpha virt. eigenvalues --    2.37436   2.37709   2.38814   2.42261   2.44790
 Alpha virt. eigenvalues --    2.46204   2.48433   2.50429   2.52803   2.56177
 Alpha virt. eigenvalues --    2.57590   2.60960   2.62242   2.64764   2.65825
 Alpha virt. eigenvalues --    2.68194   2.72512   2.73997   2.76298   2.77755
 Alpha virt. eigenvalues --    2.80170   2.83672   2.84750   2.87374   2.92201
 Alpha virt. eigenvalues --    2.95500   2.99927   3.01996   3.18648   3.41584
 Alpha virt. eigenvalues --    3.77503   3.80398   3.96805   3.98604   4.10352
 Alpha virt. eigenvalues --    4.12450   4.20597   4.21930   4.30007   4.31073
 Alpha virt. eigenvalues --    4.31971   4.32357   4.40186   4.44403   4.57502
 Alpha virt. eigenvalues --    4.68278   4.77728
          Condensed to atoms (all electrons):
               1          2          3          4          5          6
     1  C    5.227815   0.369973  -0.076516  -0.071345  -0.071150  -0.006179
     2  C    0.369973   4.610344   0.388507   0.394575   0.316442  -0.037405
     3  C   -0.076516   0.388507   5.177027  -0.056666  -0.063922  -0.006620
     4  C   -0.071345   0.394575  -0.056666   5.179376  -0.066764   0.005367
     5  N   -0.071150   0.316442  -0.063922  -0.066764   7.021311   0.279125
     6  C   -0.006179  -0.037405  -0.006620   0.005367   0.279125   5.029257
     7  C   -0.000075   0.004222   0.000214  -0.000167  -0.037741   0.350169
     8  O   -0.000014   0.000284  -0.000014  -0.000002  -0.017713  -0.035234
     9  C    0.000007  -0.000075   0.000004   0.000002   0.003234  -0.025642
    10  C    0.000000   0.000001   0.000000  -0.000000  -0.000032   0.006248
    11  C    0.000000  -0.000000   0.000000   0.000000   0.000000  -0.000088
    12  C   -0.000000   0.000000  -0.000000  -0.000000  -0.000000   0.000001
    13  O   -0.000000  -0.000000   0.000000   0.000000   0.000000  -0.000000
    14  C    0.000000  -0.000000   0.000000   0.000000   0.000000   0.000008
    15  O    0.000000  -0.000000   0.000000   0.000000  -0.000000   0.000000
    16  C   -0.000000   0.000000   0.000000  -0.000000  -0.000002  -0.000051
    17  C   -0.000002   0.000003  -0.000004  -0.000000   0.000162  -0.009390
    18  H    0.356558  -0.023425  -0.001391  -0.003985   0.004681   0.000225
    19  H    0.363033  -0.026072   0.005597  -0.004761  -0.002121  -0.000232
    20  H    0.366096  -0.026908  -0.005317   0.005591  -0.003291   0.001211
    21  H    0.006374  -0.026107   0.358873  -0.005872   0.002323  -0.000353
    22  H   -0.001354  -0.025735   0.368012  -0.006532   0.003887   0.000153
    23  H   -0.005763  -0.027743   0.366298   0.005617  -0.002876   0.000668
    24  H   -0.000832  -0.026266  -0.005881   0.362606   0.004681  -0.000172
    25  H   -0.006199  -0.026082   0.005734   0.365074  -0.004412   0.000006
    26  H    0.006661  -0.027317  -0.006590   0.360033   0.002930  -0.000101
    27  H   -0.004864  -0.028437   0.006551  -0.005568   0.296427  -0.036373
    28  H   -0.001418  -0.006659   0.005662   0.000144  -0.045009   0.363719
    29  H    0.007098  -0.006299  -0.001059  -0.000019  -0.046767   0.345283
    30  H   -0.000018  -0.000239   0.000001  -0.000005  -0.006492  -0.053906
    31  H    0.000242  -0.001148  -0.000464  -0.000167   0.058340  -0.019210
    32  H    0.000000   0.000000   0.000000  -0.000000   0.000003   0.000324
    33  H    0.000000  -0.000000  -0.000000   0.000000   0.000000  -0.000000
    34  H   -0.000000   0.000000   0.000000  -0.000000  -0.000000   0.000000
    35  H   -0.000000   0.000000  -0.000000  -0.000000   0.000000   0.000000
    36  H    0.000000   0.000000   0.000000  -0.000000  -0.000000   0.000000
    37  H   -0.000000   0.000000  -0.000000  -0.000000  -0.000000  -0.000001
    38  H    0.000001   0.000006  -0.000002  -0.000000  -0.000068   0.004915
               7          8          9         10         11         12
     1  C   -0.000075  -0.000014   0.000007   0.000000   0.000000  -0.000000
     2  C    0.004222   0.000284  -0.000075   0.000001  -0.000000   0.000000
     3  C    0.000214  -0.000014   0.000004   0.000000   0.000000  -0.000000
     4  C   -0.000167  -0.000002   0.000002  -0.000000   0.000000  -0.000000
     5  N   -0.037741  -0.017713   0.003234  -0.000032   0.000000  -0.000000
     6  C    0.350169  -0.035234  -0.025642   0.006248  -0.000088   0.000001
     7  C    4.875928   0.231985   0.360029  -0.051914   0.004500  -0.000147
     8  O    0.231985   8.387916  -0.054601   0.001207   0.000251  -0.000003
     9  C    0.360029  -0.054601   4.777569   0.475939  -0.021446   0.005676
    10  C   -0.051914   0.001207   0.475939   5.132150   0.510119  -0.041620
    11  C    0.004500   0.000251  -0.021446   0.510119   4.894329   0.310310
    12  C   -0.000147  -0.000003   0.005676  -0.041620   0.310310   4.937716
    13  O    0.000000   0.000000  -0.000071   0.001562  -0.031512   0.249348
    14  C    0.000381   0.000000  -0.038642  -0.026127   0.505991  -0.055514
    15  O    0.000000  -0.000000   0.000095   0.003467  -0.064443  -0.000181
    16  C    0.006915  -0.000045  -0.020842  -0.056348  -0.051880   0.008400
    17  C   -0.056867   0.001250   0.540755  -0.045944  -0.037911  -0.000046
    18  H    0.000002   0.000000  -0.000000  -0.000000   0.000000   0.000000
    19  H   -0.000040   0.000000  -0.000000  -0.000000   0.000000   0.000000
    20  H   -0.000017  -0.000000   0.000005   0.000000  -0.000000  -0.000000
    21  H   -0.000124  -0.000013   0.000000  -0.000000   0.000000  -0.000000
    22  H   -0.000003  -0.000000  -0.000000   0.000000  -0.000000   0.000000
    23  H   -0.000011   0.000004   0.000004  -0.000000   0.000000   0.000000
    24  H    0.000002  -0.000000  -0.000000   0.000000  -0.000000   0.000000
    25  H   -0.000004   0.000001  -0.000000   0.000000   0.000000   0.000000
    26  H   -0.000015  -0.000018  -0.000000   0.000000   0.000000  -0.000000
    27  H   -0.001365   0.000273   0.000019  -0.000008  -0.000000   0.000000
    28  H   -0.026750   0.001188  -0.005501  -0.000133  -0.000007  -0.000000
    29  H   -0.030811   0.003338  -0.003504  -0.000415   0.000005   0.000000
    30  H    0.358925  -0.051094  -0.048037  -0.011070  -0.000174   0.000001
    31  H   -0.038183   0.221879   0.006422  -0.000208   0.000003  -0.000000
    32  H   -0.009015   0.008219  -0.049647   0.358055  -0.043138  -0.009342
    33  H    0.000005  -0.000000  -0.000347   0.001905  -0.038382   0.353065
    34  H   -0.000009  -0.000001   0.000304  -0.003075  -0.032507   0.372499
    35  H    0.000000   0.000000   0.000026   0.000280  -0.011535  -0.032573
    36  H   -0.000000   0.000000  -0.000033  -0.000056   0.005665  -0.000313
    37  H   -0.000150   0.000000   0.003065   0.000931   0.004374  -0.000141
    38  H   -0.011581   0.000108  -0.039448   0.005277   0.000601   0.000008
              13         14         15         16         17         18
     1  C   -0.000000   0.000000   0.000000  -0.000000  -0.000002   0.356558
     2  C   -0.000000  -0.000000  -0.000000   0.000000   0.000003  -0.023425
     3  C    0.000000   0.000000   0.000000   0.000000  -0.000004  -0.001391
     4  C    0.000000   0.000000   0.000000  -0.000000  -0.000000  -0.003985
     5  N    0.000000   0.000000  -0.000000  -0.000002   0.000162   0.004681
     6  C   -0.000000   0.000008   0.000000  -0.000051  -0.009390   0.000225
     7  C    0.000000   0.000381   0.000000   0.006915  -0.056867   0.000002
     8  O    0.000000   0.000000  -0.000000  -0.000045   0.001250   0.000000
     9  C   -0.000071  -0.038642   0.000095  -0.020842   0.540755  -0.000000
    10  C    0.001562  -0.026127   0.003467  -0.056348  -0.045944  -0.000000
    11  C   -0.031512   0.505991  -0.064443  -0.051880  -0.037911   0.000000
    12  C    0.249348  -0.055514  -0.000181   0.008400  -0.000046   0.000000
    13  O    8.327927  -0.006346  -0.011088   0.000162  -0.000013  -0.000000
    14  C   -0.006346   4.627928   0.264040   0.495375  -0.012107  -0.000000
    15  O   -0.011088   0.264040   8.279706  -0.061282   0.004870  -0.000000
    16  C    0.000162   0.495375  -0.061282   5.124268   0.459084   0.000000
    17  C   -0.000013  -0.012107   0.004870   0.459084   5.028788   0.000000
    18  H   -0.000000  -0.000000  -0.000000   0.000000   0.000000   0.576567
    19  H    0.000000  -0.000000   0.000000  -0.000000   0.000000  -0.027989
    20  H    0.000000   0.000000  -0.000000  -0.000000  -0.000007  -0.029939
    21  H   -0.000000  -0.000000   0.000000   0.000000   0.000000  -0.000125
    22  H    0.000000  -0.000000   0.000000  -0.000000   0.000000   0.001627
    23  H    0.000000   0.000000  -0.000000  -0.000000  -0.000007  -0.000015
    24  H    0.000000  -0.000000   0.000000   0.000000  -0.000000   0.001925
    25  H    0.000000  -0.000000  -0.000000   0.000000   0.000000   0.000164
    26  H    0.000000  -0.000000   0.000000   0.000000   0.000000  -0.000077
    27  H    0.000000   0.000000   0.000000  -0.000000   0.000002  -0.000028
[...]
    27  H   -0.000753   0.000473  -0.000088   0.000005  -0.000000  -0.000000
    28  H   -0.029545   0.001153  -0.007495   0.006268  -0.000058   0.000001
    29  H   -0.038881   0.003253   0.001075   0.000362   0.000007  -0.000000
    30  H    0.362697  -0.044030  -0.061230   0.007584  -0.000053   0.000001
    31  H   -0.040642   0.218609   0.005728   0.000127   0.000005  -0.000000
    32  H   -0.011525   0.015870  -0.049290   0.348926  -0.042760  -0.009233
    33  H    0.000002  -0.000000  -0.000243   0.002881  -0.041806   0.356087
    34  H   -0.000001  -0.000004   0.000202  -0.003104  -0.038557   0.372566
    35  H   -0.000000  -0.000000   0.000027  -0.000029  -0.010991  -0.027041
    36  H   -0.000000   0.000000  -0.000032  -0.000073   0.006294  -0.000316
    37  H   -0.000139   0.000000   0.003027   0.000844   0.004788  -0.000150
    38  H   -0.008383   0.000062  -0.042583   0.006357   0.000489   0.000007
              13         14         15         16         17         18
     1  C    0.000000   0.000000   0.000000  -0.000000  -0.000000   0.357603
     2  C   -0.000000   0.000000  -0.000000  -0.000000  -0.000000  -0.023469
     3  C    0.000000   0.000000   0.000000  -0.000000  -0.000000  -0.001911
     4  C   -0.000000  -0.000000   0.000000   0.000000   0.000000  -0.003228
     5  N   -0.000000  -0.000000   0.000000   0.000001   0.000008   0.004657
     6  C    0.000000   0.000030  -0.000000  -0.000180  -0.001208   0.000193
     7  C    0.000001   0.000399   0.000000   0.006294  -0.049556   0.000001
     8  O   -0.000000   0.000009   0.000000  -0.000084   0.001856   0.000000
     9  C   -0.000018  -0.039070   0.000103  -0.017057   0.523851  -0.000000
    10  C    0.000318  -0.024824   0.003554  -0.057279  -0.040351  -0.000000
    11  C   -0.044008   0.495068  -0.065280  -0.053353  -0.039989   0.000000
    12  C    0.252690  -0.053985  -0.002697   0.009103  -0.000113   0.000000
    13  O    8.316361  -0.003560  -0.008754   0.000276  -0.000032   0.000000
    14  C   -0.003560   4.631024   0.274947   0.485419  -0.007783  -0.000000
    15  O   -0.008754   0.274947   8.271955  -0.062573   0.004342  -0.000000
    16  C    0.000276   0.485419  -0.062573   5.128190   0.459271   0.000000
    17  C   -0.000032  -0.007783   0.004342   0.459271   5.036210  -0.000000
    18  H    0.000000  -0.000000  -0.000000   0.000000  -0.000000   0.572912
    19  H   -0.000000  -0.000000  -0.000000   0.000000  -0.000000  -0.027600
    20  H    0.000000  -0.000000   0.000000   0.000000  -0.000001  -0.029444
    21  H    0.000000   0.000000   0.000000  -0.000000   0.000000  -0.000090
    22  H   -0.000000  -0.000000  -0.000000   0.000000   0.000000   0.001869
    23  H   -0.000000   0.000000   0.000000   0.000000   0.000000   0.000025
    24  H   -0.000000   0.000000  -0.000000  -0.000000  -0.000000   0.001949
    25  H    0.000000  -0.000000  -0.000000   0.000000   0.000000   0.000128
    26  H    0.000000   0.000000   0.000000  -0.000000  -0.000000  -0.000115
    27  H   -0.000000   0.000000   0.000000   0.000000  -0.000006  -0.000081
    28  H    0.000000  -0.000009   0.000000  -0.000009   0.000004  -0.000008
    29  H   -0.000000  -0.000006   0.000000  -0.000084   0.003021  -0.000167
    30  H   -0.000000  -0.000002  -0.000000   0.000082  -0.004827  -0.000000
    31  H    0.000000   0.000000   0.000000   0.000005  -0.000149  -0.000005
    32  H    0.000045   0.005809  -0.000057   0.000042   0.006917  -0.000000
    33  H   -0.038859  -0.009030   0.002299   0.000008  -0.000010  -0.000000
    34  H   -0.035330   0.004820   0.000159  -0.000174   0.000007   0.000000
    35  H    0.239149   0.002686   0.025491   0.000193  -0.000028   0.000000
    36  H    0.000243  -0.022026   0.246958  -0.004721   0.000329   0.000000
    37  H    0.000007  -0.037697  -0.004432   0.349142  -0.033125   0.000000
    38  H   -0.000000   0.003303  -0.000051  -0.040350   0.355808  -0.000000
              19         20         21         22         23         24
     1  C    0.362482   0.367539   0.006277  -0.001339  -0.005232  -0.001147
     2  C   -0.026849  -0.026913  -0.026722  -0.027356  -0.027098  -0.027062
     3  C    0.005818  -0.004858   0.361238   0.364580   0.366251  -0.005432
     4  C   -0.005481   0.005476  -0.006210  -0.005941   0.005576   0.365348
     5  N   -0.001408  -0.004919   0.001514   0.004402  -0.003321   0.004578
     6  C   -0.000261   0.003241   0.000011   0.000148  -0.000110  -0.000171
     7  C   -0.000024   0.000006  -0.000161  -0.000003  -0.000102   0.000002
     8  O    0.000000  -0.000001   0.000042   0.000000  -0.000013  -0.000000
     9  C   -0.000001   0.000003  -0.000003  -0.000000   0.000010  -0.000000
    10  C   -0.000000   0.000001   0.000001   0.000000  -0.000014  -0.000000
    11  C    0.000000   0.000000   0.000000   0.000000  -0.000000  -0.000000
    12  C   -0.000000  -0.000000  -0.000000   0.000000  -0.000000   0.000000
    13  O   -0.000000   0.000000   0.000000  -0.000000  -0.000000  -0.000000
    14  C   -0.000000  -0.000000   0.000000  -0.000000   0.000000   0.000000
    15  O   -0.000000   0.000000   0.000000  -0.000000   0.000000  -0.000000
    16  C    0.000000   0.000000  -0.000000   0.000000   0.000000  -0.000000
    17  C   -0.000000  -0.000001   0.000000   0.000000   0.000000  -0.000000
    18  H   -0.027600  -0.029444  -0.000090   0.001869   0.000025   0.001949
    19  H    0.572521  -0.030387  -0.000202  -0.000052  -0.000045  -0.000104
    20  H   -0.030387   0.564929  -0.000043  -0.000033   0.003505  -0.000016
    21  H   -0.000202  -0.000043   0.567078  -0.026666  -0.030501   0.000142
    22  H   -0.000052  -0.000033  -0.026666   0.566968  -0.028606   0.003646
    23  H   -0.000045   0.003505  -0.030501  -0.028606   0.565108  -0.000038
    24  H   -0.000104  -0.000016   0.000142   0.003646  -0.000038   0.563688
    25  H    0.004185  -0.000053  -0.000078  -0.000010  -0.000196  -0.028598
    26  H   -0.000088  -0.000196   0.004630   0.000204  -0.000058  -0.026702
    27  H    0.003679  -0.000222  -0.000084  -0.000182  -0.000160  -0.000141
    28  H    0.000156   0.000519  -0.000011  -0.000225   0.004576  -0.000001
    29  H    0.000053   0.000921   0.000082   0.000015  -0.000003   0.000009
    30  H    0.000004   0.000005   0.000005   0.000000  -0.000004  -0.000000
    31  H   -0.000009  -0.000003   0.001483   0.000017  -0.000032   0.000005
    32  H   -0.000000  -0.000000   0.000008   0.000000   0.000001   0.000000
    33  H    0.000000   0.000000  -0.000000  -0.000000   0.000000  -0.000000
    34  H   -0.000000  -0.000000  -0.000000   0.000000  -0.000000   0.000000
    35  H    0.000000  -0.000000  -0.000000   0.000000   0.000000   0.000000
    36  H   -0.000000  -0.000000  -0.000000   0.000000  -0.000000   0.000000
    37  H    0.000000  -0.000000  -0.000000   0.000000  -0.000000   0.000000
    38  H   -0.000000  -0.000000   0.000000   0.000000  -0.000000   0.000000
              25         26         27         28         29         30
     1  C   -0.006626   0.006614  -0.003563  -0.002472   0.005002  -0.000016
     2  C   -0.026510  -0.027625  -0.030827  -0.005969  -0.005115  -0.000236
     3  C    0.005904  -0.007180   0.007114   0.004808  -0.000325   0.000003
     4  C    0.364679   0.361856  -0.006526   0.000196  -0.000048  -0.000001
     5  N   -0.004796   0.002216   0.294203  -0.044921  -0.037389  -0.005623
     6  C    0.000024  -0.000134  -0.035041   0.363653   0.346335  -0.053622
     7  C   -0.000002  -0.000020  -0.000753  -0.029545  -0.038881   0.362697
     8  O    0.000002  -0.000032   0.000473   0.001153   0.003253  -0.044030
     9  C   -0.000000   0.000000  -0.000088  -0.007495   0.001075  -0.061230
    10  C   -0.000000   0.000000   0.000005   0.006268   0.000362   0.007584
    11  C    0.000000   0.000000  -0.000000  -0.000058   0.000007  -0.000053
    12  C    0.000000  -0.000000  -0.000000   0.000001  -0.000000   0.000001
    13  O    0.000000   0.000000  -0.000000   0.000000  -0.000000  -0.000000
    14  C   -0.000000   0.000000   0.000000  -0.000009  -0.000006  -0.000002
    15  O   -0.000000   0.000000   0.000000   0.000000   0.000000  -0.000000
    16  C    0.000000  -0.000000   0.000000  -0.000009  -0.000084   0.000082
    17  C    0.000000  -0.000000  -0.000006   0.000004   0.003021  -0.004827
    18  H    0.000128  -0.000115  -0.000081  -0.000008  -0.000167  -0.000000
    19  H    0.004185  -0.000088   0.003679   0.000156   0.000053   0.000004
    20  H   -0.000053  -0.000196  -0.000222   0.000519   0.000921   0.000005
    21  H   -0.000078   0.004630  -0.000084  -0.000011   0.000082   0.000005
    22  H   -0.000010   0.000204  -0.000182  -0.000225   0.000015   0.000000
    23  H   -0.000196  -0.000058  -0.000160   0.004576  -0.000003  -0.000004
    24  H   -0.028598  -0.026702  -0.000141  -0.000001   0.000009  -0.000000
    25  H    0.571264  -0.030633   0.006069   0.000004  -0.000028   0.000001
    26  H   -0.030633   0.568287  -0.000503  -0.000018   0.000018   0.000001
    27  H    0.006069  -0.000503   0.431328   0.006388  -0.006122   0.004419
    28  H    0.000004  -0.000018   0.006388   0.580016  -0.038906   0.006732
    29  H   -0.000028   0.000018  -0.006122  -0.038906   0.625950  -0.000908
    30  H    0.000001   0.000001   0.004419   0.006732  -0.000908   0.657245
    31  H   -0.000033   0.000564  -0.002045  -0.001274   0.001949   0.000989
    32  H   -0.000000   0.000000   0.000001   0.001654   0.000044   0.000510
    33  H    0.000000  -0.000000   0.000000  -0.000001   0.000000  -0.000000
    34  H    0.000000  -0.000000  -0.000000   0.000001  -0.000000  -0.000000
    35  H    0.000000  -0.000000   0.000000  -0.000000  -0.000000  -0.000000
    36  H   -0.000000  -0.000000  -0.000000   0.000000  -0.000000   0.000000
    37  H    0.000000  -0.000000   0.000000   0.000000  -0.000000  -0.000005
    38  H   -0.000000   0.000000   0.000001   0.000035   0.000608   0.007149
              31         32         33         34         35         36
     1  C    0.000342   0.000000  -0.000000  -0.000000  -0.000000  -0.000000
     2  C   -0.001802  -0.000003  -0.000000   0.000000   0.000000   0.000000
     3  C   -0.000807   0.000003  -0.000000  -0.000000  -0.000000  -0.000000
     4  C   -0.000213  -0.000000   0.000000  -0.000000  -0.000000  -0.000000
     5  N    0.069488  -0.000045   0.000000  -0.000000  -0.000000  -0.000000
     6  C   -0.020517   0.000452   0.000000  -0.000001   0.000000   0.000000
     7  C   -0.040642  -0.011525   0.000002  -0.000001  -0.000000  -0.000000
     8  O    0.218609   0.015870  -0.000000  -0.000004  -0.000000   0.000000
     9  C    0.005728  -0.049290  -0.000243   0.000202   0.000027  -0.000032
    10  C    0.000127   0.348926   0.002881  -0.003104  -0.000029  -0.000073
    11  C    0.000005  -0.042760  -0.041806  -0.038557  -0.010991   0.006294
    12  C   -0.000000  -0.009233   0.356087   0.372566  -0.027041  -0.000316
    13  O    0.000000   0.000045  -0.038859  -0.035330   0.239149   0.000243
    14  C    0.000000   0.005809  -0.009030   0.004820   0.002686  -0.022026
    15  O    0.000000  -0.000057   0.002299   0.000159   0.025491   0.246958
    16  C    0.000005   0.000042   0.000008  -0.000174   0.000193  -0.004721
    17  C   -0.000149   0.006917  -0.000010   0.000007  -0.000028   0.000329
    18  H   -0.000005  -0.000000  -0.000000   0.000000   0.000000   0.000000
    19  H   -0.000009  -0.000000   0.000000  -0.000000   0.000000  -0.000000
    20  H   -0.000003  -0.000000   0.000000  -0.000000  -0.000000  -0.000000
    21  H    0.001483   0.000008  -0.000000  -0.000000  -0.000000  -0.000000
    22  H    0.000017   0.000000  -0.000000   0.000000   0.000000   0.000000
    23  H   -0.000032   0.000001   0.000000  -0.000000   0.000000  -0.000000
    24  H    0.000005   0.000000  -0.000000   0.000000   0.000000   0.000000
    25  H   -0.000033  -0.000000   0.000000   0.000000   0.000000  -0.000000
    26  H    0.000564   0.000000  -0.000000  -0.000000  -0.000000  -0.000000
    27  H   -0.002045   0.000001   0.000000  -0.000000   0.000000  -0.000000
    28  H   -0.001274   0.001654  -0.000001   0.000001  -0.000000   0.000000
    29  H    0.001949   0.000044   0.000000  -0.000000  -0.000000  -0.000000
    30  H    0.000989   0.000510  -0.000000  -0.000000  -0.000000   0.000000
    31  H    0.353209  -0.000424   0.000000   0.000000   0.000000  -0.000000
    32  H   -0.000424   0.583778   0.000156   0.006783  -0.000001   0.000005
    33  H    0.000000   0.000156   0.630091  -0.041017  -0.005013  -0.000099
    34  H    0.000000   0.006783  -0.041017   0.570009   0.005803   0.000006
    35  H    0.000000  -0.000001  -0.005013   0.005803   0.336136  -0.000494
    36  H   -0.000000   0.000005  -0.000099   0.000006  -0.000494   0.301283
    37  H   -0.000000   0.000016   0.000006   0.000002   0.000004   0.005621
    38  H   -0.000007  -0.000164  -0.000000  -0.000000   0.000000  -0.000010
              37         38
     1  C    0.000000  -0.000000
     2  C    0.000000   0.000000
     3  C   -0.000000  -0.000000
     4  C   -0.000000  -0.000000
     5  N   -0.000000  -0.000022
     6  C    0.000000   0.000095
     7  C   -0.000139  -0.008383
     8  O    0.000000   0.000062
     9  C    0.003027  -0.042583
    10  C    0.000844   0.006357
    11  C    0.004788   0.000489
    12  C   -0.000150   0.000007
    13  O    0.000007  -0.000000
    14  C   -0.037697   0.003303
    15  O   -0.004432  -0.000051
    16  C    0.349142  -0.040350
    17  C   -0.033125   0.355808
    18  H    0.000000  -0.000000
    19  H    0.000000  -0.000000
    20  H   -0.000000  -0.000000
    21  H   -0.000000   0.000000
    22  H    0.000000   0.000000
    23  H   -0.000000  -0.000000
    24  H    0.000000   0.000000
    25  H    0.000000  -0.000000
    26  H   -0.000000   0.000000
    27  H    0.000000   0.000001
    28  H    0.000000   0.000035
    29  H   -0.000000   0.000608
    30  H   -0.000005   0.007149
    31  H   -0.000000  -0.000007
    32  H    0.000016  -0.000164
    33  H    0.000006  -0.000000
    34  H    0.000002  -0.000000
    35  H    0.000004   0.000000
    36  H    0.005621  -0.000010
    37  H    0.561396  -0.005094
    38  H   -0.005094   0.575400
 Mulliken charges:
               1
     1  C   -0.455114
     2  C    0.216314
     3  C   -0.451074
     4  C   -0.458621
     5  N   -0.610593
     6  C   -0.147518
     7  C    0.071037
     8  O   -0.695871
     9  C    0.141676
    10  C   -0.264979
    11  C    0.110189
    12  C   -0.116140
    13  O   -0.678529
    14  C    0.294479
    15  O   -0.685963
    16  C   -0.202159
    17  C   -0.214447
    18  H    0.146780
    19  H    0.143613
    20  H    0.150946
    21  H    0.148259
    22  H    0.148566
    23  H    0.150481
    24  H    0.150044
    25  H    0.145307
    26  H    0.148914
    27  H    0.332664
    28  H    0.154758
    29  H    0.139279
    30  H    0.123128
    31  H    0.415442
    32  H    0.142479
    33  H    0.144548
    34  H    0.157829
    35  H    0.434107
    36  H    0.467031
    37  H    0.155787
    38  H    0.147350
 Sum of Mulliken charges =  -0.00000
 Mulliken charges with hydrogens summed into heavy atoms:
               1
     1  C   -0.013775
     2  C    0.216314
     3  C   -0.003768
     4  C   -0.014355
     5  N   -0.277929
     6  C    0.146519
     7  C    0.194166
     8  O   -0.280429
     9  C    0.141676
    10  C   -0.122499
    11  C    0.110189
    12  C    0.186237
    13  O   -0.244422
    14  C    0.294479
    15  O   -0.218932
    16  C   -0.046372
    17  C   -0.067096
 Electronic spatial extent (au):  <R**2>=           6493.1429
 Charge=             -0.0000 electrons
 Dipole moment (field-independent basis, Debye):
    X=              2.7342    Y=              5.4047    Z=              3.9056  Tot=              7.2070
 Quadrupole moment (field-independent basis, Debye-Ang):
   XX=            -87.3589   YY=            -96.3989   ZZ=           -109.8925
   XY=            -17.3722   XZ=             -8.7523   YZ=             -2.8027
 Traceless Quadrupole moment (field-independent basis, Debye-Ang):
   XX=             10.5245   YY=              1.4845   ZZ=            -12.0090
   XY=            -17.3722   XZ=             -8.7523   YZ=             -2.8027
 Octapole moment (field-independent basis, Debye-Ang**2):
  XXX=            -21.8136  YYY=             27.3250  ZZZ=              9.3858  XYY=             -6.2075
  XXY=            108.5391  XXZ=             43.3948  XZZ=             -2.7409  YZZ=              1.3538
  YYZ=              4.5921  XYZ=             -6.6844
 Hexadecapole moment (field-independent basis, Debye-Ang**3):
 XXXX=          -6344.0479 YYYY=           -939.6636 ZZZZ=           -620.9582 XXXY=           -496.1700
 XXXZ=           -214.4752 YYYX=            -94.2179 YYYZ=              8.7045 ZZZX=            -37.3448
 ZZZY=              1.7507 XXYY=          -1283.0329 XXZZ=          -1239.1467 YYZZ=           -258.0037
 XXYZ=             -3.3284 YYXZ=            -68.7791 ZZXY=             -9.3914
 N-N= 1.230386351505D+03 E-N=-4.296908759079D+03  KE= 7.811564856577D+02
 No NMR shielding tensors so no spin-rotation constants.
 Leave Link  601 at Tue Mar  1 09:09:06 2022, MaxMem=   104857600 cpu:               0.5 elap:               0.2
 (Enter /dades/curu/g16A03_MST/g16/l9999.exe)
 1\1\GINC-PIRINEUSGPU3\SP\RB3LYP\6-31G(d)\C13H21N1O3\UBATOR01\01-Mar-20
 22\0\\#p b3lyp/6-31G(d) scrf=(iefpcm,read,solvent=water) geom=allcheck
  guess=read\\301.n.pdb.xyz\\0,1\C,0,-3.2053981673,1.6748416199,-1.5660
 443426\C,0,-3.1868535218,0.1784614016,-1.20423755\C,0,-2.5871402229,-0
 .6370247512,-2.3581919275\C,0,-4.6187555581,-0.3056703904,-0.938384029
 5\N,0,-2.4173721546,-0.084479843,0.0393196632\C,0,-1.0365560324,0.4027
 234374,0.0907991737\C,0,-0.3156705096,-0.3141445231,1.2514452656\O,0,-
 0.5688997262,-1.7107717216,1.1418804546\C,0,1.1710667651,-0.0460323578
 ,1.2446437579\C,0,2.0358893867,-0.8084821595,0.4496222136\C,0,3.402473
 7506,-0.5460676651,0.3857852956\C,0,4.3347928725,-1.3681080203,-0.4749
 488265\O,0,5.403099701,-1.9683011844,0.2611466878\C,0,3.9174673913,0.5
 184312037,1.1479271763\O,0,5.2662122057,0.7407739466,1.0494365955\C,0,
 3.0775861463,1.2850920241,1.9561337694\C,0,1.712327054,0.9962377161,2.
 0008341268\H,0,-3.8036843778,1.8527478552,-2.465867129\H,0,-3.63761218
 24,2.264475748,-0.7500440602\H,0,-2.1947697368,2.0490286299,-1.7559205
 023\H,0,-2.547009974,-1.6991109848,-2.0977139949\H,0,-3.2026798869,-0.
 5254908529,-3.2555561318\H,0,-1.5747237353,-0.3086884241,-2.6116948522
 \H,0,-5.2440877761,-0.1721493593,-1.8272571432\H,0,-5.0781102882,0.256
 8806496,-0.1176833161\H,0,-4.6228521414,-1.3662295836,-0.6693042001\H,
 0,-2.9287682069,0.3314041037,0.8189957138\H,0,-0.5351928456,0.13186173
 6,-0.8422312208\H,0,-0.9455341881,1.4907711513,0.214435526\H,0,-0.7341
 121766,0.069700101,2.1964100794\H,0,-1.471472029,-1.7342396062,0.75143
 21595\H,0,1.6294640062,-1.6362465721,-0.1222165455\H,0,4.7361443895,-0
 .7479352255,-1.2899362136\H,0,3.7755627308,-2.1877084656,-0.9320046972
 \H,0,5.9105077697,-1.2283868284,0.6411571275\H,0,5.5310218926,1.468439
 4285,1.6405106371\H,0,3.4873007353,2.0948840854,2.5525401822\H,0,1.064
 3386408,1.5905136812,2.6397810774\\Version=ES64L-G16RevA.03\State=1-A\
 HF=-788.4501907\RMSD=3.498e-09\Dipole=-0.9779876,2.6606633,0.0641952\Q
 uadrupole=6.7642304,-6.9339756,0.1697452,11.6340298,6.3028433,7.910390
 5\PG=C01 [X(C13H21N1O3)]\\@


 FROM AN ANONYMOUS WRITER, ON PERSPECTIVE:

 MAN, DESPITE HIS ARTISTIC PRETENSIONS, HIS SOPHISTICATION AND MANY 
 ACCOMPLISHMENTS, OWES THE FACT OF HIS EXISTENCE TO A SIX-INCH LAYER OF 
 TOPSOIL AND THE FACT THAT IT RAINS.
 Job cpu time:       0 days  0 hours 11 minutes 23.1 seconds.
 Elapsed time:       0 days  0 hours  2 minutes 58.6 seconds.
 File lengths (MBytes):  RWF=    183 Int=      0 D2E=      0 Chk=     18 Scr=      1
 Normal termination of Gaussian 16 at Tue Mar  1 09:09:06 2022.
