 Entering Gaussian System, Link 0=g16
 Input=47.n.pdb.xyz.mst.wat.gau
 Output=47.n.pdb.xyz.mst.wat.log
 Initial command:
 /dades/curu/g16A03_MST/g16/l1.exe "/tmp/ubator01/1955330/Gau-13412.inp" -scrdir="/tmp/ubator01/1955330/"
 Entering Link 1 = /dades/curu/g16A03_MST/g16/l1.exe PID=     13413.
  
 Copyright (c) 1988,1990,1992,1993,1995,1998,2003,2009,2016,
            Gaussian, Inc.  All Rights Reserved.
  
 This is part of the Gaussian(R) 16 program.  It is based on
 the Gaussian(R) 09 system (copyright 2009, Gaussian, Inc.),
 the Gaussian(R) 03 system (copyright 2003, Gaussian, Inc.),
 the Gaussian(R) 98 system (copyright 1998, Gaussian, Inc.),
 the Gaussian(R) 94 system (copyright 1995, Gaussian, Inc.),
 the Gaussian 92(TM) system (copyright 1992, Gaussian, Inc.),
 the Gaussian 90(TM) system (copyright 1990, Gaussian, Inc.),
 the Gaussian 88(TM) system (copyright 1988, Gaussian, Inc.),
 the Gaussian 86(TM) system (copyright 1986, Carnegie Mellon
 University), and the Gaussian 82(TM) system (copyright 1983,
 Carnegie Mellon University). Gaussian is a federally registered
 trademark of Gaussian, Inc.
  
 This software contains proprietary and confidential information,
 including trade secrets, belonging to Gaussian, Inc.
  
 This software is provided under written license and may be
 used, copied, transmitted, or stored only in accord with that
 written license.
  
 The following legend is applicable only to US Government
 contracts under FAR:
  
                    RESTRICTED RIGHTS LEGEND
  
 Use, reproduction and disclosure by the US Government is
 subject to restrictions as set forth in subparagraphs (a)
 and (c) of the Commercial Computer Software - Restricted
 Rights clause in FAR 52.227-19.
  
 Gaussian, Inc.
 340 Quinnipiac St., Bldg. 40, Wallingford CT 06492
  
  
 ---------------------------------------------------------------
 Warning -- This program may not be used in any manner that
 competes with the business of Gaussian, Inc. or will provide
 assistance to any competitor of Gaussian, Inc.  The licensee
 of this program is prohibited from giving any competitor of
 Gaussian, Inc. access to this program.  By using this program,
 the user acknowledges that Gaussian, Inc. is engaged in the
 business of creating and licensing software in the field of
 computational chemistry and represents and warrants to the
 licensee that it is not a competitor of Gaussian, Inc. and that
 it will not use this program in any manner prohibited above.
 ---------------------------------------------------------------
  

 Cite this work as:
 Gaussian 16, Revision A.03,
 M. J. Frisch, G. W. Trucks, H. B. Schlegel, G. E. Scuseria, 
 M. A. Robb, J. R. Cheeseman, G. Scalmani, V. Barone, 
 G. A. Petersson, H. Nakatsuji, X. Li, M. Caricato, A. V. Marenich, 
 J. Bloino, B. G. Janesko, R. Gomperts, B. Mennucci, H. P. Hratchian, 
 J. V. Ortiz, A. F. Izmaylov, J. L. Sonnenberg, D. Williams-Young, 
 F. Ding, F. Lipparini, F. Egidi, J. Goings, B. Peng, A. Petrone, 
 T. Henderson, D. Ranasinghe, V. G. Zakrzewski, J. Gao, N. Rega, 
 G. Zheng, W. Liang, M. Hada, M. Ehara, K. Toyota, R. Fukuda, 
 J. Hasegawa, M. Ishida, T. Nakajima, Y. Honda, O. Kitao, H. Nakai, 
 T. Vreven, K. Throssell, J. A. Montgomery, Jr., J. E. Peralta, 
 F. Ogliaro, M. J. Bearpark, J. J. Heyd, E. N. Brothers, K. N. Kudin, 
 V. N. Staroverov, T. A. Keith, R. Kobayashi, J. Normand, 
 K. Raghavachari, A. P. Rendell, J. C. Burant, S. S. Iyengar, 
 J. Tomasi, M. Cossi, J. M. Millam, M. Klene, C. Adamo, R. Cammi, 
 J. W. Ochterski, R. L. Martin, K. Morokuma, O. Farkas, 
 J. B. Foresman, and D. J. Fox, Gaussian, Inc., Wallingford CT, 2016.
 
 ******************************************
 Gaussian 16:  ES64L-G16RevA.03 25-Dec-2016
                 2-Mar-2022 
 ******************************************
 %nproc=4
 Will use up to    4 processors via shared memory.
 %Chk=47.n.pdb.xyz.mst.wat.chk
 %mem=800MB
 ----------------------------------------------------------------------
 #p b3lyp/6-31G(d) opt=(MaxStep=10,MaxCycles=1000) freq scf=(MaxCycle=2
 000,NoVarAcc,NoIncFock) scrf=(iefpcm,read,solvent=water)
 ----------------------------------------------------------------------
 1/6=1000,8=10,18=20,19=15,26=3,38=1,40=2/1,3;
 2/9=110,12=2,17=6,18=5,40=1/2;
 3/5=1,6=6,7=1,11=2,25=1,30=1,70=2203,71=1,72=1,74=-5/1,2,3;
 4//1;
 5/5=100002,7=2000,38=1,53=1/2;
 6/7=2,8=2,9=2,10=2,28=1/1;
 7//1,2,3,16;
 1/6=1000,8=10,18=20,19=15,26=3/3(2);
 2/9=110/2;
 99//99;
 2/9=110/2;
 3/5=1,6=6,7=1,11=2,25=1,30=1,70=2205,71=1,72=1,74=-5/1,2,3;
 4/5=5,16=3,69=1/1;
 5/5=100002,7=2000,38=1,53=1/2;
 7//1,2,3,16;
 1/6=1000,8=10,18=20,19=15,26=3/3(-5);
 2/9=110/2;
 6/7=2,8=2,9=2,10=2,19=2,28=1/1;
 99/9=1/99;
 Leave Link    1 at Wed Mar  2 03:08:33 2022, MaxMem=   104857600 cpu:               0.1 elap:               0.0
 (Enter /dades/curu/g16A03_MST/g16/l101.exe)
 ------------
 47.n.pdb.xyz
 ------------
 Symbolic Z-matrix:
 Charge =  0 Multiplicity = 1
 C                    -4.296    -4.236    -1.088 
 S                    -3.092    -3.778     0.188 
 C                    -3.3      -2.005     0.192 
 C                    -4.538    -1.418     0.416 
 C                    -4.646    -0.031     0.424 
 C                    -3.519     0.788     0.216 
 S                    -3.84      2.535     0.223 
 C                    -2.2       3.217     0.244 
 C                    -1.035     2.455     0.018 
 C                     0.187     3.166     0.046 
 C                     0.254     4.546     0.276 
 C                    -0.907     5.269     0.489 
 C                    -2.128     4.607     0.472 
 N                    -1.094     1.048    -0.205 
 C                     0.121     0.393    -0.746 
 C                     1.042    -0.121     0.373 
 C                     2.244    -0.918    -0.169 
 C                     3.203    -0.042    -0.995 
 C                     4.442    -0.821    -1.43 
 C                     5.104    -1.5      -0.237 
 C                     4.091    -2.325     0.551 
 N                     2.95     -1.515     0.977 
 C                    -2.245     0.228    -0.006 
 C                    -2.176    -1.185     0.001 
 H                    -4.104    -3.685    -2.013 
 H                    -5.317    -4.039    -0.751 
 H                    -4.204    -5.305    -1.296 
 H                    -5.422    -2.021     0.6 
 H                    -5.623     0.415     0.599 
 H                     1.139     2.667    -0.094 
 H                     1.219     5.047     0.291 
 H                    -0.866     6.34      0.668 
 H                    -3.036     5.182     0.639 
 H                     0.657     1.079    -1.412 
 H                    -0.147    -0.427    -1.425 
 H                     0.468    -0.76      1.054 
 H                     1.397     0.714     0.99 
 H                     1.86     -1.73     -0.801 
 H                     3.513     0.832    -0.406 
 H                     2.702     0.339    -1.891 
 H                     4.154    -1.579    -2.168 
 H                     5.154    -0.148    -1.922 
 H                     5.92     -2.143    -0.582 
 H                     5.549    -0.739     0.417 
 H                     4.576    -2.748     1.438 
 H                     3.741    -3.174    -0.049 
 H                     3.278    -0.776     1.6 
 H                    -1.227    -1.696    -0.128 
 
 ITRead=  0  0  0  0  0  0  0  0  0  0  0  0  0  0  0  0  0  0  0  0
 ITRead=  0  0  0  0  0  0  0  0  0  0  0  0  0  0  0  0  0  0  0  0
 ITRead=  0  0  0  0  0  0  0  0
 MicOpt= -1 -1 -1 -1 -1 -1 -1 -1 -1 -1 -1 -1 -1 -1 -1 -1 -1 -1 -1 -1
 MicOpt= -1 -1 -1 -1 -1 -1 -1 -1 -1 -1 -1 -1 -1 -1 -1 -1 -1 -1 -1 -1
 MicOpt= -1 -1 -1 -1 -1 -1 -1 -1
 NAtoms=     48 NQM=       48 NQMF=       0 NMMI=      0 NMMIF=      0
                NMic=       0 NMicF=      0.
                    Isotopes and Nuclear Properties:
 (Nuclear quadrupole moments (NQMom) in fm**2, nuclear magnetic moments (NMagM)
  in nuclear magnetons)

  Atom         1           2           3           4           5           6           7           8           9          10
 IAtWgt=          12          32          12          12          12          12          32          12          12          12
 AtmWgt=  12.0000000  31.9720718  12.0000000  12.0000000  12.0000000  12.0000000  31.9720718  12.0000000  12.0000000  12.0000000
 NucSpn=           0           0           0           0           0           0           0           0           0           0
 AtZEff=  -0.0000000  -0.0000000  -0.0000000  -0.0000000  -0.0000000  -0.0000000  -0.0000000  -0.0000000  -0.0000000  -0.0000000
 NQMom=    0.0000000   0.0000000   0.0000000   0.0000000   0.0000000   0.0000000   0.0000000   0.0000000   0.0000000   0.0000000
 NMagM=    0.0000000   0.0000000   0.0000000   0.0000000   0.0000000   0.0000000   0.0000000   0.0000000   0.0000000   0.0000000
 AtZNuc=   6.0000000  16.0000000   6.0000000   6.0000000   6.0000000   6.0000000  16.0000000   6.0000000   6.0000000   6.0000000

  Atom        11          12          13          14          15          16          17          18          19          20
 IAtWgt=          12          12          12          14          12          12          12          12          12          12
 AtmWgt=  12.0000000  12.0000000  12.0000000  14.0030740  12.0000000  12.0000000  12.0000000  12.0000000  12.0000000  12.0000000
 NucSpn=           0           0           0           2           0           0           0           0           0           0
 AtZEff=  -0.0000000  -0.0000000  -0.0000000  -0.0000000  -0.0000000  -0.0000000  -0.0000000  -0.0000000  -0.0000000  -0.0000000
 NQMom=    0.0000000   0.0000000   0.0000000   2.0440000   0.0000000   0.0000000   0.0000000   0.0000000   0.0000000   0.0000000
 NMagM=    0.0000000   0.0000000   0.0000000   0.4037610   0.0000000   0.0000000   0.0000000   0.0000000   0.0000000   0.0000000
 AtZNuc=   6.0000000   6.0000000   6.0000000   7.0000000   6.0000000   6.0000000   6.0000000   6.0000000   6.0000000   6.0000000

  Atom        21          22          23          24          25          26          27          28          29          30
 IAtWgt=          12          14          12          12           1           1           1           1           1           1
 AtmWgt=  12.0000000  14.0030740  12.0000000  12.0000000   1.0078250   1.0078250   1.0078250   1.0078250   1.0078250   1.0078250
 NucSpn=           0           2           0           0           1           1           1           1           1           1
 AtZEff=  -0.0000000  -0.0000000  -0.0000000  -0.0000000  -0.0000000  -0.0000000  -0.0000000  -0.0000000  -0.0000000  -0.0000000
 NQMom=    0.0000000   2.0440000   0.0000000   0.0000000   0.0000000   0.0000000   0.0000000   0.0000000   0.0000000   0.0000000
 NMagM=    0.0000000   0.4037610   0.0000000   0.0000000   2.7928460   2.7928460   2.7928460   2.7928460   2.7928460   2.7928460
 AtZNuc=   6.0000000   7.0000000   6.0000000   6.0000000   1.0000000   1.0000000   1.0000000   1.0000000   1.0000000   1.0000000

  Atom        31          32          33          34          35          36          37          38          39          40
 IAtWgt=           1           1           1           1           1           1           1           1           1           1
 AtmWgt=   1.0078250   1.0078250   1.0078250   1.0078250   1.0078250   1.0078250   1.0078250   1.0078250   1.0078250   1.0078250
 NucSpn=           1           1           1           1           1           1           1           1           1           1
 AtZEff=  -0.0000000  -0.0000000  -0.0000000  -0.0000000  -0.0000000  -0.0000000  -0.0000000  -0.0000000  -0.0000000  -0.0000000
 NQMom=    0.0000000   0.0000000   0.0000000   0.0000000   0.0000000   0.0000000   0.0000000   0.0000000   0.0000000   0.0000000
 NMagM=    2.7928460   2.7928460   2.7928460   2.7928460   2.7928460   2.7928460   2.7928460   2.7928460   2.7928460   2.7928460
 AtZNuc=   1.0000000   1.0000000   1.0000000   1.0000000   1.0000000   1.0000000   1.0000000   1.0000000   1.0000000   1.0000000

  Atom        41          42          43          44          45          46          47          48
 IAtWgt=           1           1           1           1           1           1           1           1
 AtmWgt=   1.0078250   1.0078250   1.0078250   1.0078250   1.0078250   1.0078250   1.0078250   1.0078250
 NucSpn=           1           1           1           1           1           1           1           1
 AtZEff=  -0.0000000  -0.0000000  -0.0000000  -0.0000000  -0.0000000  -0.0000000  -0.0000000  -0.0000000
 NQMom=    0.0000000   0.0000000   0.0000000   0.0000000   0.0000000   0.0000000   0.0000000   0.0000000
 NMagM=    2.7928460   2.7928460   2.7928460   2.7928460   2.7928460   2.7928460   2.7928460   2.7928460
 AtZNuc=   1.0000000   1.0000000   1.0000000   1.0000000   1.0000000   1.0000000   1.0000000   1.0000000
 Leave Link  101 at Wed Mar  2 03:08:33 2022, MaxMem=   104857600 cpu:               0.1 elap:               0.1
 (Enter /dades/curu/g16A03_MST/g16/l103.exe)

 GradGradGradGradGradGradGradGradGradGradGradGradGradGradGradGradGradGrad
 Berny optimization.
 Initialization pass.
                           ----------------------------
                           !    Initial Parameters    !
                           ! (Angstroms and Degrees)  !
 --------------------------                            --------------------------
 ! Name  Definition              Value          Derivative Info.                !
 --------------------------------------------------------------------------------
 ! R1    R(1,2)                  1.8132         estimate D2E/DX2                !
 ! R2    R(1,25)                 1.0937         estimate D2E/DX2                !
 ! R3    R(1,26)                 1.0931         estimate D2E/DX2                !
 ! R4    R(1,27)                 1.0929         estimate D2E/DX2                !
 ! R5    R(2,3)                  1.7852         estimate D2E/DX2                !
 ! R6    R(3,4)                  1.3883         estimate D2E/DX2                !
 ! R7    R(3,24)                 1.4044         estimate D2E/DX2                !
 ! R8    R(4,5)                  1.3912         estimate D2E/DX2                !
 ! R9    R(4,28)                 1.0858         estimate D2E/DX2                !
 ! R10   R(5,6)                  1.4086         estimate D2E/DX2                !
 ! R11   R(5,29)                 1.0881         estimate D2E/DX2                !
 ! R12   R(6,7)                  1.7763         estimate D2E/DX2                !
 ! R13   R(6,23)                 1.4092         estimate D2E/DX2                !
 ! R14   R(7,8)                  1.7763         estimate D2E/DX2                !
 ! R15   R(8,9)                  1.4103         estimate D2E/DX2                !
 ! R16   R(8,13)                 1.4104         estimate D2E/DX2                !
 ! R17   R(9,10)                 1.4141         estimate D2E/DX2                !
 ! R18   R(9,14)                 1.4258         estimate D2E/DX2                !
 ! R19   R(10,11)                1.4006         estimate D2E/DX2                !
 ! R20   R(10,30)                1.0839         estimate D2E/DX2                !
 ! R21   R(11,12)                1.3842         estimate D2E/DX2                !
 ! R22   R(11,31)                1.0874         estimate D2E/DX2                !
 ! R23   R(12,13)                1.389          estimate D2E/DX2                !
 ! R24   R(12,32)                1.0866         estimate D2E/DX2                !
 ! R25   R(13,33)                1.0876         estimate D2E/DX2                !
 ! R26   R(14,15)                1.4825         estimate D2E/DX2                !
 ! R27   R(14,23)                1.4272         estimate D2E/DX2                !
 ! R28   R(15,16)                1.5377         estimate D2E/DX2                !
 ! R29   R(15,34)                1.0961         estimate D2E/DX2                !
 ! R30   R(15,35)                1.0978         estimate D2E/DX2                !
 ! R31   R(16,17)                1.5407         estimate D2E/DX2                !
 ! R32   R(16,36)                1.0962         estimate D2E/DX2                !
 ! R33   R(16,37)                1.0972         estimate D2E/DX2                !
 ! R34   R(17,18)                1.5393         estimate D2E/DX2                !
 ! R35   R(17,22)                1.4725         estimate D2E/DX2                !
 ! R36   R(17,38)                1.0983         estimate D2E/DX2                !
 ! R37   R(18,19)                1.5268         estimate D2E/DX2                !
 ! R38   R(18,39)                1.0986         estimate D2E/DX2                !
 ! R39   R(18,40)                1.095          estimate D2E/DX2                !
 ! R40   R(19,20)                1.524          estimate D2E/DX2                !
 ! R41   R(19,41)                1.0964         estimate D2E/DX2                !
 ! R42   R(19,42)                1.0963         estimate D2E/DX2                !
 ! R43   R(20,21)                1.5257         estimate D2E/DX2                !
 ! R44   R(20,43)                1.0947         estimate D2E/DX2                !
 ! R45   R(20,44)                1.0977         estimate D2E/DX2                !
 ! R46   R(21,22)                1.4627         estimate D2E/DX2                !
 ! R47   R(21,45)                1.0959         estimate D2E/DX2                !
 ! R48   R(21,46)                1.097          estimate D2E/DX2                !
 ! R49   R(22,47)                1.0207         estimate D2E/DX2                !
 ! R50   R(23,24)                1.4147         estimate D2E/DX2                !
 ! R51   R(24,48)                1.0855         estimate D2E/DX2                !
 ! A1    A(2,1,25)             110.5716         estimate D2E/DX2                !
 ! A2    A(2,1,26)             110.9624         estimate D2E/DX2                !
 ! A3    A(2,1,27)             108.9718         estimate D2E/DX2                !
 ! A4    A(25,1,26)            109.5081         estimate D2E/DX2                !
 ! A5    A(25,1,27)            108.484          estimate D2E/DX2                !
 ! A6    A(26,1,27)            108.2752         estimate D2E/DX2                !
 ! A7    A(1,2,3)              100.0835         estimate D2E/DX2                !
 ! A8    A(2,3,4)              121.6144         estimate D2E/DX2                !
 ! A9    A(2,3,24)             119.1012         estimate D2E/DX2                !
 ! A10   A(4,3,24)             119.2599         estimate D2E/DX2                !
 ! A11   A(3,4,5)              119.4516         estimate D2E/DX2                !
 ! A12   A(3,4,28)             121.2345         estimate D2E/DX2                !
 ! A13   A(5,4,28)             119.3076         estimate D2E/DX2                !
 ! A14   A(4,5,6)              121.1115         estimate D2E/DX2                !
 ! A15   A(4,5,29)             118.6365         estimate D2E/DX2                !
 ! A16   A(6,5,29)             120.2516         estimate D2E/DX2                !
 ! A17   A(5,6,7)              115.257          estimate D2E/DX2                !
 ! A18   A(5,6,23)             121.0321         estimate D2E/DX2                !
 ! A19   A(7,6,23)             123.6987         estimate D2E/DX2                !
 ! A20   A(6,7,8)              102.1703         estimate D2E/DX2                !
 ! A21   A(7,8,9)              123.5966         estimate D2E/DX2                !
 ! A22   A(7,8,13)             115.3049         estimate D2E/DX2                !
 ! A23   A(9,8,13)             121.0794         estimate D2E/DX2                !
 ! A24   A(8,9,10)             116.0414         estimate D2E/DX2                !
 ! A25   A(8,9,14)             121.6059         estimate D2E/DX2                !
 ! A26   A(10,9,14)            122.3465         estimate D2E/DX2                !
 ! A27   A(9,10,11)            122.6826         estimate D2E/DX2                !
 ! A28   A(9,10,30)            121.6656         estimate D2E/DX2                !
 ! A29   A(11,10,30)           115.6438         estimate D2E/DX2                !
 ! A30   A(10,11,12)           119.9849         estimate D2E/DX2                !
 ! A31   A(10,11,31)           119.9112         estimate D2E/DX2                !
 ! A32   A(12,11,31)           120.1034         estimate D2E/DX2                !
 ! A33   A(11,12,13)           119.109          estimate D2E/DX2                !
 ! A34   A(11,12,32)           120.5647         estimate D2E/DX2                !
 ! A35   A(13,12,32)           120.3263         estimate D2E/DX2                !
 ! A36   A(8,13,12)            121.1011         estimate D2E/DX2                !
 ! A37   A(8,13,33)            120.213          estimate D2E/DX2                !
 ! A38   A(12,13,33)           118.6859         estimate D2E/DX2                !
 ! A39   A(9,14,15)            117.3322         estimate D2E/DX2                !
 ! A40   A(9,14,23)            125.3494         estimate D2E/DX2                !
 ! A41   A(15,14,23)           117.2573         estimate D2E/DX2                !
 ! A42   A(14,15,16)           111.8997         estimate D2E/DX2                !
 ! A43   A(14,15,34)           110.2413         estimate D2E/DX2                !
 ! A44   A(14,15,35)           110.8319         estimate D2E/DX2                !
 ! A45   A(16,15,34)           111.0062         estimate D2E/DX2                !
 ! A46   A(16,15,35)           110.2804         estimate D2E/DX2                !
 ! A47   A(34,15,35)           102.1832         estimate D2E/DX2                !
 ! A48   A(15,16,17)           112.5931         estimate D2E/DX2                !
 ! A49   A(15,16,36)           109.4701         estimate D2E/DX2                !
 ! A50   A(15,16,37)           110.4021         estimate D2E/DX2                !
 ! A51   A(17,16,36)           108.9975         estimate D2E/DX2                !
 ! A52   A(17,16,37)           109.8199         estimate D2E/DX2                !
 ! A53   A(36,16,37)           105.2894         estimate D2E/DX2                !
 ! A54   A(16,17,18)           112.361          estimate D2E/DX2                !
 ! A55   A(16,17,22)           108.0595         estimate D2E/DX2                !
 ! A56   A(16,17,38)           108.1868         estimate D2E/DX2                !
 ! A57   A(18,17,22)           110.4666         estimate D2E/DX2                !
 ! A58   A(18,17,38)           109.2564         estimate D2E/DX2                !
 ! A59   A(22,17,38)           108.4056         estimate D2E/DX2                !
 ! A60   A(17,18,19)           111.5986         estimate D2E/DX2                !
 ! A61   A(17,18,39)           109.9293         estimate D2E/DX2                !
 ! A62   A(17,18,40)           110.6137         estimate D2E/DX2                !
 ! A63   A(19,18,39)           109.2487         estimate D2E/DX2                !
 ! A64   A(19,18,40)           108.4023         estimate D2E/DX2                !
 ! A65   A(39,18,40)           106.9182         estimate D2E/DX2                !
 ! A66   A(18,19,20)           110.9033         estimate D2E/DX2                !
 ! A67   A(18,19,41)           109.3501         estimate D2E/DX2                !
 ! A68   A(18,19,42)           109.9786         estimate D2E/DX2                !
 ! A69   A(20,19,41)           109.4504         estimate D2E/DX2                !
 ! A70   A(20,19,42)           110.0414         estimate D2E/DX2                !
 ! A71   A(41,19,42)           107.0324         estimate D2E/DX2                !
 ! A72   A(19,20,21)           110.905          estimate D2E/DX2                !
 ! A73   A(19,20,43)           109.8034         estimate D2E/DX2                !
 ! A74   A(19,20,44)           109.4889         estimate D2E/DX2                !
 ! A75   A(21,20,43)           109.8821         estimate D2E/DX2                !
 ! A76   A(21,20,44)           109.6537         estimate D2E/DX2                !
 ! A77   A(43,20,44)           107.026          estimate D2E/DX2                !
 ! A78   A(20,21,22)           111.6486         estimate D2E/DX2                !
 ! A79   A(20,21,45)           109.4461         estimate D2E/DX2                !
 ! A80   A(20,21,46)           110.3562         estimate D2E/DX2                !
 ! A81   A(22,21,45)           108.86           estimate D2E/DX2                !
 ! A82   A(22,21,46)           109.8165         estimate D2E/DX2                !
 ! A83   A(45,21,46)           106.5699         estimate D2E/DX2                !
 ! A84   A(17,22,21)           111.831          estimate D2E/DX2                !
 ! A85   A(17,22,47)           109.6071         estimate D2E/DX2                !
 ! A86   A(21,22,47)           109.1493         estimate D2E/DX2                !
 ! A87   A(6,23,14)            121.5164         estimate D2E/DX2                !
 ! A88   A(6,23,24)            116.1175         estimate D2E/DX2                !
 ! A89   A(14,23,24)           122.3594         estimate D2E/DX2                !
 ! A90   A(3,24,23)            123.0128         estimate D2E/DX2                !
 ! A91   A(3,24,48)            116.1677         estimate D2E/DX2                !
 ! A92   A(23,24,48)           120.8122         estimate D2E/DX2                !
 ! D1    D(25,1,2,3)            54.173          estimate D2E/DX2                !
 ! D2    D(26,1,2,3)           -67.5457         estimate D2E/DX2                !
 ! D3    D(27,1,2,3)           173.3237         estimate D2E/DX2                !
 ! D4    D(1,2,3,4)             56.4341         estimate D2E/DX2                !
 ! D5    D(1,2,3,24)          -125.3799         estimate D2E/DX2                !
 ! D6    D(2,3,4,5)            179.2896         estimate D2E/DX2                !
 ! D7    D(2,3,4,28)             0.2133         estimate D2E/DX2                !
 ! D8    D(24,3,4,5)             1.1065         estimate D2E/DX2                !
 ! D9    D(24,3,4,28)         -177.9698         estimate D2E/DX2                !
 ! D10   D(2,3,24,23)         -179.7564         estimate D2E/DX2                !
 ! D11   D(2,3,24,48)           -0.7357         estimate D2E/DX2                !
 ! D12   D(4,3,24,23)           -1.5272         estimate D2E/DX2                !
 ! D13   D(4,3,24,48)          177.4936         estimate D2E/DX2                !
 ! D14   D(3,4,5,6)             -0.3555         estimate D2E/DX2                !
 ! D15   D(3,4,5,29)           179.8865         estimate D2E/DX2                !
 ! D16   D(28,4,5,6)           178.7389         estimate D2E/DX2                !
 ! D17   D(28,4,5,29)           -1.0192         estimate D2E/DX2                !
 ! D18   D(4,5,6,7)            178.7318         estimate D2E/DX2                !
 ! D19   D(4,5,6,23)            -0.0482         estimate D2E/DX2                !
 ! D20   D(29,5,6,7)            -1.5141         estimate D2E/DX2                !
 ! D21   D(29,5,6,23)          179.706          estimate D2E/DX2                !
 ! D22   D(5,6,7,8)            169.8507         estimate D2E/DX2                !
 ! D23   D(23,6,7,8)           -11.4058         estimate D2E/DX2                !
 ! D24   D(5,6,23,14)         -179.3841         estimate D2E/DX2                !
 ! D25   D(5,6,23,24)           -0.3022         estimate D2E/DX2                !
 ! D26   D(7,6,23,14)            1.9422         estimate D2E/DX2                !
 ! D27   D(7,6,23,24)         -178.9759         estimate D2E/DX2                !
 ! D28   D(6,7,8,9)             11.467          estimate D2E/DX2                !
 ! D29   D(6,7,8,13)          -170.109          estimate D2E/DX2                !
 ! D30   D(7,8,9,10)           178.8137         estimate D2E/DX2                !
 ! D31   D(7,8,9,14)            -2.0787         estimate D2E/DX2                !
 ! D32   D(13,8,9,10)            0.4772         estimate D2E/DX2                !
 ! D33   D(13,8,9,14)          179.5849         estimate D2E/DX2                !
 ! D34   D(7,8,13,12)         -178.8429         estimate D2E/DX2                !
 ! D35   D(7,8,13,33)            1.1755         estimate D2E/DX2                !
 ! D36   D(9,8,13,12)           -0.3756         estimate D2E/DX2                !
 ! D37   D(9,8,13,33)          179.6428         estimate D2E/DX2                !
 ! D38   D(8,9,10,11)           -0.3287         estimate D2E/DX2                !
 ! D39   D(8,9,10,30)          178.5988         estimate D2E/DX2                !
 ! D40   D(14,9,10,11)        -179.4291         estimate D2E/DX2                !
 ! D41   D(14,9,10,30)          -0.5016         estimate D2E/DX2                !
 ! D42   D(8,9,14,15)          165.8252         estimate D2E/DX2                !
 ! D43   D(8,9,14,23)          -11.2437         estimate D2E/DX2                !
 ! D44   D(10,9,14,15)         -15.1238         estimate D2E/DX2                !
 ! D45   D(10,9,14,23)         167.8073         estimate D2E/DX2                !
 ! D46   D(9,10,11,12)           0.0631         estimate D2E/DX2                !
 ! D47   D(9,10,11,31)         179.8093         estimate D2E/DX2                !
 ! D48   D(30,10,11,12)       -178.9243         estimate D2E/DX2                !
 ! D49   D(30,10,11,31)          0.8219         estimate D2E/DX2                !
 ! D50   D(10,11,12,13)          0.0647         estimate D2E/DX2                !
 ! D51   D(10,11,12,32)       -179.9789         estimate D2E/DX2                !
 ! D52   D(31,11,12,13)       -179.6811         estimate D2E/DX2                !
 ! D53   D(31,11,12,32)          0.2753         estimate D2E/DX2                !
 ! D54   D(11,12,13,8)           0.0892         estimate D2E/DX2                !
 ! D55   D(11,12,13,33)       -179.929          estimate D2E/DX2                !
 ! D56   D(32,12,13,8)        -179.8674         estimate D2E/DX2                !
 ! D57   D(32,12,13,33)          0.1145         estimate D2E/DX2                !
 ! D58   D(9,14,15,16)          91.3905         estimate D2E/DX2                !
 ! D59   D(9,14,15,34)         -32.6661         estimate D2E/DX2                !
 ! D60   D(9,14,15,35)        -145.0599         estimate D2E/DX2                !
 ! D61   D(23,14,15,16)        -91.2987         estimate D2E/DX2                !
 ! D62   D(23,14,15,34)        144.6447         estimate D2E/DX2                !
 ! D63   D(23,14,15,35)         32.2509         estimate D2E/DX2                !
 ! D64   D(9,14,23,6)           11.315          estimate D2E/DX2                !
 ! D65   D(9,14,23,24)        -167.7091         estimate D2E/DX2                !
 ! D66   D(15,14,23,6)        -165.7558         estimate D2E/DX2                !
 ! D67   D(15,14,23,24)         15.22           estimate D2E/DX2                !
 ! D68   D(14,15,16,17)        174.7182         estimate D2E/DX2                !
 ! D69   D(14,15,16,36)         53.3134         estimate D2E/DX2                !
 ! D70   D(14,15,16,37)        -62.1478         estimate D2E/DX2                !
 ! D71   D(34,15,16,17)        -61.6546         estimate D2E/DX2                !
 ! D72   D(34,15,16,36)        176.9406         estimate D2E/DX2                !
 ! D73   D(34,15,16,37)         61.4794         estimate D2E/DX2                !
 ! D74   D(35,15,16,17)         50.8585         estimate D2E/DX2                !
 ! D75   D(35,15,16,36)        -70.5463         estimate D2E/DX2                !
 ! D76   D(35,15,16,37)        173.9925         estimate D2E/DX2                !
 ! D77   D(15,16,17,18)         65.5255         estimate D2E/DX2                !
 ! D78   D(15,16,17,22)       -172.346          estimate D2E/DX2                !
 ! D79   D(15,16,17,38)        -55.1724         estimate D2E/DX2                !
 ! D80   D(36,16,17,18)       -172.8011         estimate D2E/DX2                !
 ! D81   D(36,16,17,22)        -50.6725         estimate D2E/DX2                !
 ! D82   D(36,16,17,38)         66.5011         estimate D2E/DX2                !
 ! D83   D(37,16,17,18)        -57.9331         estimate D2E/DX2                !
 ! D84   D(37,16,17,22)         64.1954         estimate D2E/DX2                !
 ! D85   D(37,16,17,38)       -178.631          estimate D2E/DX2                !
 ! D86   D(16,17,18,19)        175.4889         estimate D2E/DX2                !
 ! D87   D(16,17,18,39)         54.1101         estimate D2E/DX2                !
 ! D88   D(16,17,18,40)        -63.736          estimate D2E/DX2                !
 ! D89   D(22,17,18,19)         54.7364         estimate D2E/DX2                !
 ! D90   D(22,17,18,39)        -66.6424         estimate D2E/DX2                !
 ! D91   D(22,17,18,40)        175.5115         estimate D2E/DX2                !
 ! D92   D(38,17,18,19)        -64.4314         estimate D2E/DX2                !
 ! D93   D(38,17,18,39)        174.1898         estimate D2E/DX2                !
 ! D94   D(38,17,18,40)         56.3437         estimate D2E/DX2                !
 ! D95   D(16,17,22,21)        178.4275         estimate D2E/DX2                !
 ! D96   D(16,17,22,47)        -60.3859         estimate D2E/DX2                !
 ! D97   D(18,17,22,21)        -58.2869         estimate D2E/DX2                !
 ! D98   D(18,17,22,47)         62.8997         estimate D2E/DX2                !
 ! D99   D(38,17,22,21)         61.3953         estimate D2E/DX2                !
 ! D100  D(38,17,22,47)       -177.4181         estimate D2E/DX2                !
 ! D101  D(17,18,19,20)        -52.0353         estimate D2E/DX2                !
 ! D102  D(17,18,19,41)         68.7563         estimate D2E/DX2                !
 ! D103  D(17,18,19,42)       -173.9856         estimate D2E/DX2                !
 ! D104  D(39,18,19,20)         69.7375         estimate D2E/DX2                !
 ! D105  D(39,18,19,41)       -169.4708         estimate D2E/DX2                !
 ! D106  D(39,18,19,42)        -52.2128         estimate D2E/DX2                !
 ! D107  D(40,18,19,20)       -174.0932         estimate D2E/DX2                !
 ! D108  D(40,18,19,41)        -53.3015         estimate D2E/DX2                !
 ! D109  D(40,18,19,42)         63.9565         estimate D2E/DX2                !
 ! D110  D(18,19,20,21)         51.9928         estimate D2E/DX2                !
 ! D111  D(18,19,20,43)        173.6256         estimate D2E/DX2                !
 ! D112  D(18,19,20,44)        -69.1446         estimate D2E/DX2                !
 ! D113  D(41,19,20,21)        -68.7395         estimate D2E/DX2                !
 ! D114  D(41,19,20,43)         52.8933         estimate D2E/DX2                !
 ! D115  D(41,19,20,44)        170.1231         estimate D2E/DX2                !
 ! D116  D(42,19,20,21)        173.9065         estimate D2E/DX2                !
 ! D117  D(42,19,20,43)        -64.4607         estimate D2E/DX2                !
 ! D118  D(42,19,20,44)         52.7691         estimate D2E/DX2                !
 ! D119  D(19,20,21,22)        -55.7057         estimate D2E/DX2                !
 ! D120  D(19,20,21,45)       -176.3004         estimate D2E/DX2                !
 ! D121  D(19,20,21,46)         66.7262         estimate D2E/DX2                !
 ! D122  D(43,20,21,22)       -177.2924         estimate D2E/DX2                !
 ! D123  D(43,20,21,45)         62.1129         estimate D2E/DX2                !
 ! D124  D(43,20,21,46)        -54.8605         estimate D2E/DX2                !
 ! D125  D(44,20,21,22)         65.3345         estimate D2E/DX2                !
 ! D126  D(44,20,21,45)        -55.2602         estimate D2E/DX2                !
 ! D127  D(44,20,21,46)       -172.2336         estimate D2E/DX2                !
 ! D128  D(20,21,22,17)         59.3346         estimate D2E/DX2                !
 ! D129  D(20,21,22,47)        -62.1167         estimate D2E/DX2                !
 ! D130  D(45,21,22,17)       -179.7288         estimate D2E/DX2                !
 ! D131  D(45,21,22,47)         58.8199         estimate D2E/DX2                !
 ! D132  D(46,21,22,17)        -63.4061         estimate D2E/DX2                !
 ! D133  D(46,21,22,47)        175.1427         estimate D2E/DX2                !
 ! D134  D(6,23,24,3)            1.0984         estimate D2E/DX2                !
 ! D135  D(6,23,24,48)        -177.8783         estimate D2E/DX2                !
 ! D136  D(14,23,24,3)        -179.8281         estimate D2E/DX2                !
 ! D137  D(14,23,24,48)          1.1952         estimate D2E/DX2                !
 --------------------------------------------------------------------------------
 Trust Radius=1.00D-01 FncErr=1.00D-07 GrdErr=1.00D-06 EigMax=2.50D+02 EigMin=1.00D-04
 Number of steps in this run=    288 maximum allowed number of steps=    288.
 GradGradGradGradGradGradGradGradGradGradGradGradGradGradGradGradGradGrad

 Leave Link  103 at Wed Mar  2 03:08:33 2022, MaxMem=   104857600 cpu:               0.1 elap:               0.0
 (Enter /dades/curu/g16A03_MST/g16/l202.exe)
                          Input orientation:                          
 ---------------------------------------------------------------------
 Center     Atomic      Atomic             Coordinates (Angstroms)
 Number     Number       Type             X           Y           Z
 ---------------------------------------------------------------------
      1          6           0       -4.296000   -4.236000   -1.088000
      2         16           0       -3.092000   -3.778000    0.188000
      3          6           0       -3.300000   -2.005000    0.192000
      4          6           0       -4.538000   -1.418000    0.416000
      5          6           0       -4.646000   -0.031000    0.424000
      6          6           0       -3.519000    0.788000    0.216000
      7         16           0       -3.840000    2.535000    0.223000
      8          6           0       -2.200000    3.217000    0.244000
      9          6           0       -1.035000    2.455000    0.018000
     10          6           0        0.187000    3.166000    0.046000
     11          6           0        0.254000    4.546000    0.276000
     12          6           0       -0.907000    5.269000    0.489000
     13          6           0       -2.128000    4.607000    0.472000
     14          7           0       -1.094000    1.048000   -0.205000
     15          6           0        0.121000    0.393000   -0.746000
     16          6           0        1.042000   -0.121000    0.373000
     17          6           0        2.244000   -0.918000   -0.169000
     18          6           0        3.203000   -0.042000   -0.995000
     19          6           0        4.442000   -0.821000   -1.430000
     20          6           0        5.104000   -1.500000   -0.237000
     21          6           0        4.091000   -2.325000    0.551000
     22          7           0        2.950000   -1.515000    0.977000
     23          6           0       -2.245000    0.228000   -0.006000
     24          6           0       -2.176000   -1.185000    0.001000
     25          1           0       -4.104000   -3.685000   -2.013000
     26          1           0       -5.317000   -4.039000   -0.751000
     27          1           0       -4.204000   -5.305000   -1.296000
     28          1           0       -5.422000   -2.021000    0.600000
     29          1           0       -5.623000    0.415000    0.599000
     30          1           0        1.139000    2.667000   -0.094000
     31          1           0        1.219000    5.047000    0.291000
     32          1           0       -0.866000    6.340000    0.668000
     33          1           0       -3.036000    5.182000    0.639000
     34          1           0        0.657000    1.079000   -1.412000
     35          1           0       -0.147000   -0.427000   -1.425000
     36          1           0        0.468000   -0.760000    1.054000
     37          1           0        1.397000    0.714000    0.990000
     38          1           0        1.860000   -1.730000   -0.801000
     39          1           0        3.513000    0.832000   -0.406000
     40          1           0        2.702000    0.339000   -1.891000
     41          1           0        4.154000   -1.579000   -2.168000
     42          1           0        5.154000   -0.148000   -1.922000
     43          1           0        5.920000   -2.143000   -0.582000
     44          1           0        5.549000   -0.739000    0.417000
     45          1           0        4.576000   -2.748000    1.438000
     46          1           0        3.741000   -3.174000   -0.049000
     47          1           0        3.278000   -0.776000    1.600000
     48          1           0       -1.227000   -1.696000   -0.128000
 ---------------------------------------------------------------------
                    Distance matrix (angstroms):
                    1          2          3          4          5
     1  C    0.000000
     2  S    1.813162   0.000000
     3  C    2.758220   1.785164   0.000000
     4  C    3.203389   2.777139   1.388304   0.000000
     5  C    4.482262   4.063326   2.400462   1.391221   0.000000
     6  C    5.248306   4.586008   2.801676   2.438195   1.408600
     7  S    6.911809   6.357256   4.572107   4.018789   2.697108
     8  C    7.855867   7.051867   5.336852   5.194136   4.069990
     9  C    7.525081   6.565854   5.005207   5.237322   4.402767
    10  C    8.727706   7.680569   6.238568   6.593602   5.807029
    11  C    9.984314   8.971758   7.453427   7.651938   6.706775
    12  C   10.213583   9.311983   7.663272   7.609564   6.486474
    13  C    9.237558   8.445009   6.720902   6.489365   5.277658
    14  N    6.241246   5.238008   3.787460   4.281114   3.765181
    15  C    6.407378   5.347239   4.281762   5.131885   4.926760
    16  C    6.896520   5.522484   4.736579   5.728914   5.688941
    17  C    7.390892   6.064647   5.661080   6.825522   6.972124
    18  C    8.592630   7.415134   6.895748   7.987952   7.976245
    19  C    9.387856   8.253662   7.998206   9.187194   9.308768
    20  C    9.826998   8.517296   8.430082   9.664435   9.882175
    21  C    8.756712   7.337470   7.406630   8.677587   9.034032
    22  N    8.010779   6.499958   6.318135   7.509612   7.759335
    23  C    5.030370   4.099156   2.477603   2.853988   2.452913
    24  C    3.871553   2.756388   1.404371   2.409473   2.758903
    25  H    1.093659   2.424292   2.886320   3.350774   4.425432
    26  H    1.093078   2.429088   3.015741   2.972940   4.230240
    27  H    1.092927   2.402193   3.731134   4.260431   5.564965
    28  H    3.003905   2.947150   2.160927   1.085781   2.143187
    29  H    5.122372   4.914889   3.379109   2.137897   1.088150
    30  H    8.841870   7.714850   6.450899   7.012535   6.404198
    31  H   10.885355   9.822217   8.376268   8.657650   7.758995
    32  H   11.256119  10.371085   8.705743   8.586830   7.411989
    33  H    9.657580   8.971518   7.205725   6.772424   5.460192
    34  H    7.272304   6.340777   5.267041   6.046868   5.720560
    35  H    5.642362   4.743838   3.878941   4.863357   4.880227
    36  H    6.274268   4.746776   4.060898   5.089209   5.203973
    37  H    7.825013   6.400968   5.485579   6.332387   6.115000
    38  H    6.652724   5.449287   5.261870   6.520187   6.834856
    39  H    9.334357   8.076569   7.404265   8.399809   8.246390
    40  H    8.399252   7.405563   6.771797   7.799160   7.712926
    41  H    8.923483   7.930375   7.830274   9.069390   9.303481
    42  H   10.330044   9.253406   8.909970  10.050573  10.077569
    43  H   10.440467   9.191424   9.253460  10.530498  10.821873
    44  H   10.555475   9.162688   8.941934  10.109827  10.219557
    45  H    9.343832   7.837195   8.008492   9.267059   9.667242
    46  H    8.173172   6.863736   7.141451   8.475943   8.969055
    47  H    8.749995   7.182106   6.838347   7.931196   8.045357
    48  H    4.097800   2.812971   2.120191   3.366889   3.842719
                    6          7          8          9         10
     6  C    0.000000
     7  S    1.776260   0.000000
     8  C    2.764161   1.776278   0.000000
     9  C    2.998058   2.813619   1.410300   0.000000
    10  C    4.406611   4.079978   2.395741   1.414068   0.000000
    11  C    5.325570   4.561553   2.790946   2.469892   1.400639
    12  C    5.193884   4.018458   2.437740   2.856015   2.411575
    13  C    4.072490   2.699283   1.410414   2.455986   2.759924
    14  N    2.474968   3.151963   2.475762   1.425784   2.487948
    15  C    3.785640   4.606153   3.787099   2.484326   2.884640
    16  C    4.653348   5.559745   4.655046   3.328022   3.412085
    17  C    6.022527   7.006563   6.084236   4.707859   4.577830
    18  C    6.880458   7.597914   6.430289   5.022133   4.524511
    19  C    8.287081   9.087721   7.951345   6.544189   6.014962
    20  C    8.932876   9.822829   8.708035   7.307145   6.784433
    21  C    8.228918   9.307413   8.389559   7.029108   6.756280
    22  N    6.908755   7.941984   7.032184   5.706208   5.514770
    23  C    1.409241   2.814021   2.999774   2.534602   3.814338
    24  C    2.396373   4.081247   4.408767   3.814678   4.951464
    25  H    5.031739   6.614967   7.507121   7.158444   8.341964
    26  H    5.240975   6.807913   7.959601   7.816580   9.101717
    27  H    6.315063   7.994089   8.888875   8.484501   9.635335
    28  H    3.414578   4.837560   6.159924   6.294368   7.659815
    29  H    2.170860   2.795508   4.437810   5.054592   6.452124
    30  H    5.032266   4.990827   3.400833   2.187182   1.083930
    31  H    6.371291   5.648739   3.878230   3.445796   2.159447
    32  H    6.169880   4.849817   3.422347   3.942624   3.401466
    33  H    4.440659   2.797513   2.171669   3.438920   3.847549
    34  H    4.491552   5.001617   3.933933   2.607900   2.588867
    35  H    3.942016   5.012743   4.503233   3.343160   3.896799
    36  H    4.358293   5.486934   4.857042   3.697098   4.063065
    37  H    4.977108   5.597365   4.445215   3.144915   2.892670
    38  H    6.025633   7.192274   6.484476   5.154223   5.242819
    39  H    7.059592   7.573801   6.224877   4.847495   4.088293
    40  H    6.583456   7.217283   6.072126   4.699671   4.250779
    41  H    8.376221   9.303006   8.318214   6.926577   6.569164
    42  H    8.981540   9.627645   8.372341   6.988772   6.287027
    43  H    9.915759  10.853078   9.764542   8.359045   7.838824
    44  H    9.197867   9.945352   8.702118   7.328703   6.643622
    45  H    8.917713  10.010763   9.106099   7.782733   7.495090
    46  H    8.274978   9.494115   8.730762   7.382432   7.268806
    47  H    7.110609   7.970243   6.913123   5.616409   5.244860
    48  H    3.397331   4.985211   5.022219   4.158002   5.066430
                   11         12         13         14         15
    11  C    0.000000
    12  C    1.384203   0.000000
    13  C    2.390829   1.389019   0.000000
    14  N    3.779480   4.281757   3.767488   0.000000
    15  C    4.278970   5.133944   4.929434   1.482542   0.000000
    16  C    4.734051   5.732727   5.693214   2.502627   1.537725
    17  C    5.832103   6.974291   7.074665   3.874106   2.561011
    18  C    5.600159   6.877578   7.223908   4.502933   3.122491
    19  C    7.018153   8.329614   8.731878   5.970015   4.540120
    20  C    7.767869   9.081771   9.492100   6.701383   5.354701
    21  C    7.874569   9.091352   9.313153   6.231604   4.983035
    22  N    6.670498   7.819031   7.969943   4.931534   3.822621
    23  C    4.996964   5.238984   4.406565   1.427166   2.484508
    24  C    6.230962   6.595652   5.811317   2.489869   2.885187
    25  H    9.590675   9.831324   8.879024   5.893238   6.007162
    26  H   10.285572  10.374226   9.296169   6.633959   7.015304
    27  H   10.926443  11.218998  10.280240   7.157024   7.174631
    28  H    8.686049   8.575643   7.402513   5.366411   6.193865
    29  H    7.190871   6.768609   5.459306   4.643161   5.899411
    30  H    2.109684   3.361013   3.841516   2.760393   2.575365
    31  H    1.087406   2.146710   3.380646   4.646287   4.892922
    32  H    2.150930   1.086629   2.152754   5.368368   6.191960
    33  H    3.370514   2.136050   1.087648   4.644745   5.900796
    34  H    3.877092   4.859629   4.873650   2.126925   1.096106
    35  H    5.271141   6.056848   5.732724   2.135611   1.097846
    36  H    5.367003   6.209564   5.990211   2.700702   2.165599
    37  H    4.062077   5.129078   5.277253   2.782923   2.178282
    38  H    6.567141   7.635862   7.594883   4.098611   2.744863
    39  H    4.987986   6.326484   6.844150   4.616439   3.437148
    40  H    5.327987   6.556995   6.865020   4.213656   2.824093
    41  H    7.661512   8.920116   9.203245   6.188376   4.709135
    42  H    7.132660   8.478946   9.020465   6.589083   5.196802
    43  H    8.808090  10.133741  10.556691   7.714973   6.331397
    44  H    7.482522   8.819364   9.355163   6.907221   5.665437
    45  H    8.557591   9.758903   9.998640   7.018402   5.872202
    46  H    8.477216   9.652854   9.760152   6.420813   5.129688
    47  H    6.262686   7.435763   7.711933   5.069456   4.103282
    48  H    6.427997   6.999594   6.395280   2.748300   2.561825
                   16         17         18         19         20
    16  C    0.000000
    17  C    1.540707   0.000000
    18  C    2.558825   1.539264   0.000000
    19  C    3.911625   2.535889   1.526823   0.000000
    20  C    4.332850   2.919409   2.512793   1.523986   0.000000
    21  C    3.766391   2.430938   2.896679   2.511887   1.525693
    22  N    2.438958   1.472468   2.474373   2.915707   2.472597
    23  C    3.327133   4.635839   5.543620   6.916946   7.552956
    24  C    3.409693   4.431319   5.588569   6.780721   7.290697
    25  H    6.698986   7.166152   8.228002   9.031971   9.628897
    26  H    7.553210   8.200493   9.414135  10.298284  10.738154
    27  H    7.561741   7.879886   9.091393   9.740510  10.111299
    28  H    6.741278   7.783028   8.991723  10.141962  10.572071
    29  H    6.690336   8.016009   8.980421  10.341603  10.928616
    30  H    2.828505   3.752183   3.522865   4.986065   5.753743
    31  H    5.171680   6.069881   5.611415   6.912524   7.631200
    32  H    6.743294   7.940481   7.749339   9.157313   9.895733
    33  H    6.694972   8.108099   8.299714   9.810059  10.567691
    34  H    2.185051   2.837539   2.812943   4.235156   5.273298
    35  H    2.177191   2.745086   3.399357   4.605886   5.489597
    36  H    1.096156   2.162145   3.492012   4.686860   4.868961
    37  H    1.097242   2.173503   2.788081   4.181465   4.488783
    38  H    2.153202   1.098282   2.165786   2.808673   3.300687
    39  H    2.760596   2.174633   1.098589   2.155000   2.828085
    40  H    2.844802   2.180618   1.094979   2.141430   3.447788
    41  H    4.273990   2.842714   2.154692   1.096427   2.153486
    42  H    4.709172   3.483390   2.162629   1.096329   2.160932
    43  H    5.366134   3.896687   3.459315   2.156681   1.094683
    44  H    4.549386   3.361318   2.825468   2.154897   1.097662
    45  H    4.530398   3.371880   3.889351   3.457847   2.154510
    46  H    4.096766   2.710156   3.315688   2.816944   2.166885
    47  H    2.633296   2.053943   2.697852   3.246201   2.689428
    48  H    2.807131   3.557359   4.807526   5.882040   6.334971
                   21         22         23         24         25
    21  C    0.000000
    22  N    1.462688   0.000000
    23  C    6.853682   5.567078   0.000000
    24  C    6.393543   5.228513   1.414701   0.000000
    25  H    8.693775   7.962909   4.774463   3.744780   0.000000
    26  H    9.651086   8.814752   5.310320   4.310070   1.785869
    27  H    9.005489   8.408944   6.009648   4.771729   1.774398
    28  H    9.517982   8.395746   3.939361   3.405028   3.366569
    29  H   10.093151   8.795687   3.436841   3.847001   5.093123
    30  H    5.835271   4.681441   4.172280   5.082928   8.456921
    31  H    7.915957   6.821056   5.942244   7.102672  10.482870
    32  H    9.983374   8.738327   6.301782   7.667243  10.870742
    33  H   10.351663   8.988673   5.058045   6.456418   9.316513
    34  H    5.218519   4.206424   3.335062   3.892063   6.761954
    35  H    5.046546   4.067525   2.616140   2.593238   5.159279
    36  H    3.978488   2.595434   3.075730   2.877528   6.234204
    37  H    4.084835   2.716693   3.806885   4.165411   7.657037
    38  H    2.675685   2.096571   4.617014   4.150846   6.392203
    39  H    3.349117   2.781738   5.803394   6.049683   9.000246
    40  H    3.871638   3.424068   5.295126   5.449507   7.907534
    41  H    2.820185   3.368195   6.991902   6.702887   8.523721
    42  H    3.461940   3.889795   7.652296   7.648673   9.911065
    43  H    2.159179   3.412589   8.521775   8.173302  10.242368
    44  H    2.158499   2.769581   7.865142   7.749038  10.380955
    45  H    1.095866   2.092053   7.580749   7.077955   9.387746
    46  H    1.096951   2.104908   6.885321   6.242556   8.103237
    47  H    2.039797   1.020703   5.838731   5.698263   8.718370
    48  H    5.397945   4.324479   2.180134   1.085524   3.973220
                   26         27         28         29         30
    26  H    0.000000
    27  H    1.771595   0.000000
    28  H    2.430751   3.982838   0.000000
    29  H    4.664145   6.190556   2.444279   0.000000
    30  H    9.331775   9.671879   8.093559   7.160754   0.000000
    31  H   11.241017  11.793702   9.703349   8.268207   2.412266
    32  H   11.381942  12.272146   9.521979   7.598647   4.253422
    33  H    9.600099  10.727797   7.587999   5.423879   4.928807
    34  H    7.894271   8.024851   7.114238   6.627474   2.119243
    35  H    6.342690   6.345926   5.870868   5.898484   3.605301
    36  H    6.890290   6.928716   6.040558   6.219962   3.675932
    37  H    8.408322   8.533777   7.357383   7.037235   2.248517
    38  H    7.539450   7.056752   7.421254   7.909255   4.511463
    39  H   10.090320   9.899846   9.433232   9.200566   3.016694
    40  H    9.207108   8.938769   8.818960   8.689735   3.330430
    41  H    9.887332   9.192368   9.977824  10.354808   5.605374
    42  H   11.231784  10.703209  11.032696  11.082244   5.233167
    43  H   11.397085  10.630306  11.404077  11.881876   6.799427
    44  H   11.415962  10.904299  11.047165  11.232917   5.595539
    45  H   10.214199   9.544706  10.059363  10.711120   6.594105
    46  H    9.126247   8.319807   9.258033  10.049145   6.394506
    47  H    9.489383   9.212979   8.845339   9.035944   4.393086
    48  H    4.754564   4.821995   4.270086   4.930483   4.963354
                   31         32         33         34         35
    31  H    0.000000
    32  H    2.482177   0.000000
    33  H    4.271341   2.459818   0.000000
    34  H    4.354432   5.858673   5.888927   0.000000
    35  H    5.897058   7.119684   6.638320   1.707226   0.000000
    36  H    5.904864   7.234539   6.910688   3.082012   2.575763
    37  H    4.392627   6.072621   6.303786   2.539769   3.085132
    38  H    6.894278   8.643722   8.591866   3.116250   2.472900
    39  H    4.849172   7.118088   7.931200   3.038055   4.002380
    40  H    5.396821   7.435799   7.923395   2.226896   2.986756
    41  H    7.652763   9.795604  10.260920   4.457074   4.514173
    42  H    6.882559   9.221857  10.101669   4.689204   5.331552
    43  H    8.634676  10.934971  11.634277   6.226504   6.361116
    44  H    7.227902   9.556541  10.431191   5.530102   5.994558
    45  H    8.564291  10.620735  11.021154   6.174706   5.990871
    46  H    8.605866  10.595033  10.780715   5.427415   4.955394
    47  H    6.313501   8.287268   8.734293   4.402591   4.582909
    48  H    7.185160   8.083392   7.153157   3.591481   2.111627
                   36         37         38         39         40
    36  H    0.000000
    37  H    1.743506   0.000000
    38  H    2.513879   3.065157   0.000000
    39  H    3.733375   2.537754   3.074456   0.000000
    40  H    3.856369   3.184935   2.485523   1.762383   0.000000
    41  H    4.963733   4.778270   2.674682   3.054250   2.421520
    42  H    5.584775   4.830925   3.822277   2.439577   2.500087
    43  H    5.857772   5.575945   4.086824   3.830829   4.269582
    44  H    5.120817   4.436062   4.009280   2.700123   3.820256
    45  H    4.579876   4.721460   3.664164   4.164938   4.911587
    46  H    4.213850   4.657295   2.487730   4.028333   4.100446
    47  H    2.862599   2.475957   2.947141   2.581652   3.709728
    48  H    2.268534   3.734086   3.159692   5.379188   4.763028
                   41         42         43         44         45
    41  H    0.000000
    42  H    1.763031   0.000000
    43  H    2.439723   2.522376   0.000000
    44  H    3.055135   2.444632   1.762628   0.000000
    45  H    3.814168   4.287620   2.500552   2.454639   0.000000
    46  H    2.684167   3.829017   2.468824   3.068427   1.757803
    47  H    3.950950   4.039585   3.689170   2.560918   2.366396
    48  H    5.755906   6.806754   7.175342   6.864914   6.101956
                   46         47         48
    46  H    0.000000
    47  H    2.946858   0.000000
    48  H    5.183797   4.911966   0.000000
 Stoichiometry    C20H24N2S2
 Framework group  C1[X(C20H24N2S2)]
 Deg. of freedom   138
 Full point group                 C1      NOp   1
 Largest Abelian subgroup         C1      NOp   1
 Largest concise Abelian subgroup C1      NOp   1
                         Standard orientation:                         
 ---------------------------------------------------------------------
 Center     Atomic      Atomic             Coordinates (Angstroms)
 Number     Number       Type             X           Y           Z
 ---------------------------------------------------------------------
      1          6           0        2.754627   -4.939181    0.977772
      2         16           0        1.701210   -4.233826   -0.318508
      3          6           0        2.181544   -2.517783   -0.212264
      4          6           0        3.505182   -2.122633   -0.350923
      5          6           0        3.827199   -0.771328   -0.274928
      6          6           0        2.831881    0.203495   -0.067040
      7         16           0        3.419825    1.876246    0.039387
      8          6           0        1.908508    2.808248   -0.010194
      9          6           0        0.629661    2.228906    0.123443
     10          6           0       -0.464391    3.124017    0.085805
     11          6           0       -0.305076    4.507120   -0.067274
     12          6           0        0.963130    5.047976   -0.190344
     13          6           0        2.064340    4.201901   -0.160911
     14          7           0        0.458615    0.820786    0.267661
     15          6           0       -0.868649    0.339048    0.719579
     16          6           0       -1.801369    0.033324   -0.464128
     17          6           0       -3.137874   -0.590558   -0.018816
     18          6           0       -3.989349    0.383018    0.815733
     19          6           0       -5.354245   -0.211916    1.153816
     20          6           0       -6.053324   -0.717455   -0.102469
     21          6           0       -5.142553   -1.651146   -0.893959
     22          7           0       -3.869991   -1.010652   -1.225335
     23          6           0        1.477009   -0.159255    0.069685
     24          6           0        1.190187   -1.541594   -0.021153
     25          1           0        2.604595   -4.411916    1.924118
     26          1           0        3.809314   -4.888816    0.695075
     27          1           0        2.487752   -5.989415    1.120168
     28          1           0        4.293041   -2.847355   -0.532523
     29          1           0        4.869021   -0.476583   -0.383572
     30          1           0       -1.488022    2.774819    0.157531
     31          1           0       -1.178766    5.153986   -0.093369
     32          1           0        1.097648    6.119678   -0.309191
     33          1           0        3.057687    4.634338   -0.257029
     34          1           0       -1.324268    1.066633    1.401106
     35          1           0       -0.765159   -0.545944    1.360941
     36          1           0       -1.300223   -0.653142   -1.156353
     37          1           0       -1.991457    0.943703   -1.046378
     38          1           0       -2.916354   -1.483575    0.580913
     39          1           0       -4.130384    1.323368    0.265507
     40          1           0       -3.480548    0.634916    1.752027
     41          1           0       -5.224344   -1.041870    1.858411
     42          1           0       -5.976872    0.539300    1.653763
     43          1           0       -6.975300   -1.240378    0.171106
     44          1           0       -6.341843    0.135975   -0.729585
     45          1           0       -5.642528   -1.947437   -1.823022
     46          1           0       -4.958723   -2.573692   -0.329675
     47          1           0       -4.048026   -0.198904   -1.817958
     48          1           0        0.168202   -1.902548    0.039036
 ---------------------------------------------------------------------
 Rotational constants (GHZ):           0.1968748           0.1517973           0.0891190
 Leave Link  202 at Wed Mar  2 03:08:33 2022, MaxMem=   104857600 cpu:               0.0 elap:               0.0
 (Enter /dades/curu/g16A03_MST/g16/l301.exe)
 Standard basis: 6-31G(d) (6D, 7F)
 Ernie: Thresh=  0.10000D-02 Tol=  0.10000D-05 Strict=F.
 There are   416 symmetry adapted cartesian basis functions of A   symmetry.
 There are   416 symmetry adapted basis functions of A   symmetry.
   416 basis functions,   816 primitive gaussians,   416 cartesian basis functions
    95 alpha electrons       95 beta electrons
       nuclear repulsion energy      2280.9000835230 Hartrees.
 IExCor=  402 DFT=T Ex+Corr=B3LYP ExCW=0 ScaHFX=  0.200000
 ScaDFX=  0.800000  0.720000  1.000000  0.810000 ScalE2=  1.000000  1.000000
 IRadAn=      5 IRanWt=     -1 IRanGd=            0 ICorTp=0 IEmpDi=  4
 NAtoms=   48 NActive=   48 NUniq=   48 SFac= 1.00D+00 NAtFMM=   60 NAOKFM=F Big=F
 Integral buffers will be    131072 words long.
 Raffenetti 2 integral format.
 Two-electron integral symmetry is turned on.
 Using the following non-standard input for PCM:
 MSTModel=DFT cav
 --- end of non-standard input.
 MST model for solvation energy: B3LYP parametrization.
 MST cavity parameters:
 ISph   IAn     Re0     Alpha   Atom Type   QCorr
 ------------------------------------------------
   1      6     1.50     1.25      CH3        F
   2     16     1.75     1.25      S          F
   3      6     1.50     1.25      C          F
   4      6     1.50     1.25      CH         F
   5      6     1.50     1.25      CH         F
   6      6     1.50     1.25      C          F
   7     16     1.75     1.25      S          F
   8      6     1.50     1.25      C          F
   9      6     1.50     1.25      C          F
  10      6     1.50     1.25      CH         F
  11      6     1.50     1.25      CH         F
  12      6     1.50     1.25      CH         F
  13      6     1.50     1.25      CH         F
  14      7     1.40     1.25      N          F
  15      6     1.50     1.25      CH2        F
  16      6     1.50     1.25      CH2        F
  17      6     1.50     1.25      CH         F
  18      6     1.50     1.25      CH2        F
  19      6     1.50     1.25      CH2        F
  20      6     1.50     1.25      CH2        F
  21      6     1.50     1.25      CH2        F
  22      7     1.40     1.25      NH         F
  23      6     1.50     1.25      C          F
  24      6     1.50     1.25      CH         F
  25      1     1.20     1.25      CH3        F
  26      1     1.20     1.25      CH3        F
  27      1     1.20     1.25      CH3        F
  28      1     1.20     1.25      CH         F
  29      1     1.20     1.25      CH         F
  30      1     1.20     1.25      CH         F
  31      1     1.20     1.25      CH         F
  32      1     1.20     1.25      CH         F
  33      1     1.20     1.25      CH         F
  34      1     1.20     1.25      CH2        F
  35      1     1.20     1.25      CH2        F
  36      1     1.20     1.25      CH2        F
  37      1     1.20     1.25      CH2        F
  38      1     1.20     1.25      CH         F
  39      1     1.20     1.25      CH2        F
  40      1     1.20     1.25      CH2        F
  41      1     1.20     1.25      CH2        F
  42      1     1.20     1.25      CH2        F
  43      1     1.20     1.25      CH2        F
  44      1     1.20     1.25      CH2        F
  45      1     1.20     1.25      CH2        F
  46      1     1.20     1.25      CH2        F
  47      1     0.90     1.25      NH         F
  48      1     1.20     1.25      CH         F
 ------------------------------------------------------------------------------
 Polarizable Continuum Model (PCM)
 =================================
 Model                : PCM.
 Atomic radii         : MST.
 Polarization charges : Total charges.
 Charge compensation  : None.
 Solution method      : On-the-fly selection.
 Cavity type          : Scaled VdW (van der Waals Surface) (Alpha=1.250).
 Cavity algorithm     : GePol (No added spheres)
                        Default sphere list used, NSphG=   48.
                        Lebedev-Laikov grids with approx.  5.0 points / Ang**2.
                        Smoothing algorithm: York/Karplus (Gamma=1.0000).
                        Polarization charges: spherical gaussians, with
                                              point-specific exponents (IZeta= 3).
                        Self-potential: point-specific (ISelfS= 7).
                        Self-field    : sphere-specific E.n sum rule (ISelfD= 2).
 1st derivatives      : Analytical E(r).r(x)/FMM algorithm (CHGder, D1EAlg=3).
                        Cavity 1st derivative terms included.
 Solvent              : Water, Eps=  78.355300 Eps(inf)=   1.777849
 ------------------------------------------------------------------------------
 GePol: Number of generator spheres                  =      48
 GePol: Total number of spheres                      =      48
 GePol: Number of exposed spheres                    =      48 (100.00%)
 GePol: Number of points                             =    3261
 GePol: Average weight of points                     =       0.13
 GePol: Minimum weight of points                     =   0.95D-11
 GePol: Maximum weight of points                     =    0.22001
 GePol: Number of points with low weight             =     236
 GePol: Fraction of low-weight points (<1% of avg)   =       7.24%
 GePol: Cavity surface area                          =    432.676 Ang**2
 GePol: Cavity volume                                =    436.977 Ang**3
 Surface areas from nonelectrostatic (unscaled) cavity and vdw tensions:
 Sphere =    1 Type =  CH3 Surf =        4.990 Tension =       -0.140
 Sphere =    2 Type =  S   Surf =       23.731 Tension =       -0.125
 Sphere =    3 Type =  C   Surf =        5.783 Tension =       -0.101
 Sphere =    4 Type =  CH  Surf =        7.656 Tension =       -0.140
 Sphere =    5 Type =  CH  Surf =        7.522 Tension =       -0.140
 Sphere =    6 Type =  C   Surf =        5.832 Tension =       -0.101
 Sphere =    7 Type =  S   Surf =       23.288 Tension =       -0.125
 Sphere =    8 Type =  C   Surf =        5.839 Tension =       -0.101
 Sphere =    9 Type =  C   Surf =        6.718 Tension =       -0.101
 Sphere =   10 Type =  CH  Surf =        7.455 Tension =       -0.140
 Sphere =   11 Type =  CH  Surf =        7.758 Tension =       -0.140
 Sphere =   12 Type =  CH  Surf =        7.764 Tension =       -0.140
 Sphere =   13 Type =  CH  Surf =        7.526 Tension =       -0.140
 Sphere =   14 Type =  N   Surf =        4.583 Tension =       -0.105
 Sphere =   15 Type =  CH2 Surf =        3.341 Tension =       -0.139
 Sphere =   16 Type =  CH2 Surf =        3.744 Tension =       -0.139
 Sphere =   17 Type =  CH  Surf =        2.780 Tension =       -0.140
 Sphere =   18 Type =  CH2 Surf =        3.653 Tension =       -0.139
 Sphere =   19 Type =  CH2 Surf =        3.695 Tension =       -0.139
 Sphere =   20 Type =  CH2 Surf =        3.750 Tension =       -0.139
 Sphere =   21 Type =  CH2 Surf =        4.069 Tension =       -0.139
 Sphere =   22 Type =  NH  Surf =        8.129 Tension =       -0.159
 Sphere =   23 Type =  C   Surf =        6.723 Tension =       -0.101
 Sphere =   24 Type =  CH  Surf =        7.307 Tension =       -0.140
 Sphere =   25 Type =  CH3 Surf =       10.088 Tension =       -0.140
 Sphere =   26 Type =  CH3 Surf =       10.028 Tension =       -0.140
 Sphere =   27 Type =  CH3 Surf =       10.038 Tension =       -0.140
 Sphere =   28 Type =  CH  Surf =       10.152 Tension =       -0.140
 Sphere =   29 Type =  CH  Surf =       10.052 Tension =       -0.140
 Sphere =   30 Type =  CH  Surf =        8.480 Tension =       -0.140
 Sphere =   31 Type =  CH  Surf =       10.235 Tension =       -0.140
 Sphere =   32 Type =  CH  Surf =       10.240 Tension =       -0.140
 Sphere =   33 Type =  CH  Surf =       10.053 Tension =       -0.140
 Sphere =   34 Type =  CH2 Surf =        8.291 Tension =       -0.139
 Sphere =   35 Type =  CH2 Surf =        8.908 Tension =       -0.139
 Sphere =   36 Type =  CH2 Surf =        9.554 Tension =       -0.139
 Sphere =   37 Type =  CH2 Surf =        9.524 Tension =       -0.139
 Sphere =   38 Type =  CH  Surf =        9.958 Tension =       -0.140
 Sphere =   39 Type =  CH2 Surf =       10.061 Tension =       -0.139
 Sphere =   40 Type =  CH2 Surf =        9.412 Tension =       -0.139
 Sphere =   41 Type =  CH2 Surf =       10.041 Tension =       -0.139
 Sphere =   42 Type =  CH2 Surf =       10.068 Tension =       -0.139
 Sphere =   43 Type =  CH2 Surf =       10.053 Tension =       -0.139
 Sphere =   44 Type =  CH2 Surf =       10.060 Tension =       -0.139
 Sphere =   45 Type =  CH2 Surf =       10.091 Tension =       -0.139
 Sphere =   46 Type =  CH2 Surf =       10.093 Tension =       -0.139
 Sphere =   47 Type =  NH  Surf =        4.739 Tension =       -0.159
 Sphere =   48 Type =  CH  Surf =        8.351 Tension =       -0.140
 PCM non-electrostatic energy =         0.0031593217 Hartrees.
 Nuclear repulsion after PCM non-electrostatic terms =     2280.9032428447 Hartrees.
 Leave Link  301 at Wed Mar  2 03:08:34 2022, MaxMem=   104857600 cpu:               0.2 elap:               0.1
 (Enter /dades/curu/g16A03_MST/g16/l302.exe)
 NPDir=0 NMtPBC=     1 NCelOv=     1 NCel=       1 NClECP=     1 NCelD=      1
         NCelK=      1 NCelE2=     1 NClLst=     1 CellRange=     0.0.
 One-electron integrals computed using PRISM.
 One-electron integral symmetry used in STVInt
 NBasis=   416 RedAO= T EigKep=  3.98D-04  NBF=   416
 NBsUse=   416 1.00D-06 EigRej= -1.00D+00 NBFU=   416
 Precomputing XC quadrature grid using
 IXCGrd= 4 IRadAn=           5 IRanWt=          -1 IRanGd=           0 AccXCQ= 0.00D+00.
 Generated NRdTot=       0 NPtTot=           0 NUsed=           0 NTot=          32
 NSgBfM=   412   412   412   412   412 MxSgAt=    48 MxSgA2=    48.
 Leave Link  302 at Wed Mar  2 03:08:36 2022, MaxMem=   104857600 cpu:              10.1 elap:               2.7
 (Enter /dades/curu/g16A03_MST/g16/l303.exe)
 DipDrv:  MaxL=1.
 Leave Link  303 at Wed Mar  2 03:08:36 2022, MaxMem=   104857600 cpu:               0.1 elap:               0.1
 (Enter /dades/curu/g16A03_MST/g16/l401.exe)
 ExpMin= 1.17D-01 ExpMax= 2.19D+04 ExpMxC= 3.30D+03 IAcc=3 IRadAn=         5 AccDes= 0.00D+00
 Harris functional with IExCor=  402 and IRadAn=       5 diagonalized for initial guess.
 HarFok:  IExCor=  402 AccDes= 0.00D+00 IRadAn=         5 IDoV= 1 UseB2=F ITyADJ=14
 ICtDFT=  3500011 ScaDFX=  1.000000  1.000000  1.000000  1.000000
 FoFCou: FMM=F IPFlag=           0 FMFlag=      100000 FMFlg1=           0
         NFxFlg=           0 DoJE=T BraDBF=F KetDBF=T FulRan=T
         wScrn=  0.000000 ICntrl=       500 IOpCl=  0 I1Cent=   200000004 NGrid=           0
         NMat0=    1 NMatS0=      1 NMatT0=    0 NMatD0=    1 NMtDS0=    0 NMtDT0=    0
 Petite list used in FoFCou.
 Harris En= -1682.37031646614    
 JPrj=0 DoOrth=F DoCkMO=F.
 Leave Link  401 at Wed Mar  2 03:08:52 2022, MaxMem=   104857600 cpu:              60.8 elap:              15.4
 (Enter /dades/curu/g16A03_MST/g16/l502.exe)
 Integral symmetry usage will be decided dynamically.
 Closed shell SCF:
 Using DIIS extrapolation, IDIIS=  1040.
 NGot=   104857600 LenX=   104504274 LenY=   104330777
 Requested convergence on RMS density matrix=1.00D-08 within2000 cycles.
 Requested convergence on MAX density matrix=1.00D-06.
 Requested convergence on             energy=1.00D-06.
 No special actions if energy rises.

 Cycle   1  Pass 1  IDiag  1:
 FoFJK:  IHMeth= 1 ICntrl=       0 DoSepK=F KAlg= 0 I1Cent=           0 FoldK=F
 IRaf= 720000000 NMat=       1 IRICut=       1 DoRegI=T DoRafI=F ISym2E= 0 IDoP0=0 IntGTp=1.
 FoFCou: FMM=F IPFlag=           0 FMFlag=      100000 FMFlg1=           0
         NFxFlg=           0 DoJE=F BraDBF=F KetDBF=F FulRan=T
         wScrn=  0.000000 ICntrl=         0 IOpCl=  0 I1Cent=           0 NGrid=           0
         NMat0=    1 NMatS0=      1 NMatT0=    0 NMatD0=    1 NMtDS0=    0 NMtDT0=    0
 Symmetry not used in FoFCou.
 Inv3:  Mode=1 IEnd=    31902363.
 Iteration    1 A*A^-1 deviation from unit magnitude is 6.77D-15 for   3252.
 Iteration    1 A*A^-1 deviation from orthogonality  is 2.70D-15 for   2255    437.
 Iteration    1 A^-1*A deviation from unit magnitude is 6.00D-15 for   3252.
 Iteration    1 A^-1*A deviation from orthogonality  is 4.24D-12 for   1973   1951.
 E= -1681.82047360839    
 DIIS: error= 2.46D-02 at cycle   1 NSaved=   1.
 NSaved= 1 IEnMin= 1 EnMin= -1681.82047360839     IErMin= 1 ErrMin= 2.46D-02
 ErrMax= 2.46D-02  0.00D+00 EMaxC= 1.00D-01 BMatC= 5.98D-01 BMatP= 5.98D-01
 IDIUse=3 WtCom= 7.54D-01 WtEn= 2.46D-01
 Coeff-Com:  0.100D+01
 Coeff-En:   0.100D+01
 Coeff:      0.100D+01
 Gap=     0.230 Goal=   None    Shift=    0.000
 GapD=    0.230 DampG=1.000 DampE=0.500 DampFc=0.5000 IDamp=-1.
 Damping current iteration by 5.00D-01
 RMSDP=4.60D-03 MaxDP=1.76D-01              OVMax= 2.74D-01

 Cycle   2  Pass 1  IDiag  1:
 E= -1682.08891345231     Delta-E=       -0.268439843921 Rises=F Damp=T
 DIIS: error= 7.46D-03 at cycle   2 NSaved=   2.
 NSaved= 2 IEnMin= 2 EnMin= -1682.08891345231     IErMin= 2 ErrMin= 7.46D-03
 ErrMax= 7.46D-03  0.00D+00 EMaxC= 1.00D-01 BMatC= 4.58D-02 BMatP= 5.98D-01
 IDIUse=3 WtCom= 9.25D-01 WtEn= 7.46D-02
 Coeff-Com:  0.949D-01 0.905D+00
 Coeff-En:   0.170D+00 0.830D+00
 Coeff:      0.101D+00 0.899D+00
 Gap=     0.255 Goal=   None    Shift=    0.000
 RMSDP=1.19D-03 MaxDP=7.77D-02 DE=-2.68D-01 OVMax= 2.30D-01

 Cycle   3  Pass 1  IDiag  1:
 E= -1682.43378921236     Delta-E=       -0.344875760049 Rises=F Damp=F
 DIIS: error= 6.82D-03 at cycle   3 NSaved=   3.
 NSaved= 3 IEnMin= 3 EnMin= -1682.43378921236     IErMin= 3 ErrMin= 6.82D-03
 ErrMax= 6.82D-03  0.00D+00 EMaxC= 1.00D-01 BMatC= 2.87D-02 BMatP= 4.58D-02
 IDIUse=3 WtCom= 9.32D-01 WtEn= 6.82D-02
 Coeff-Com:  0.158D-02 0.429D+00 0.570D+00
 Coeff-En:   0.000D+00 0.000D+00 0.100D+01
 Coeff:      0.148D-02 0.400D+00 0.599D+00
 Gap=     0.159 Goal=   None    Shift=    0.000
 RMSDP=7.61D-04 MaxDP=5.29D-02 DE=-3.45D-01 OVMax= 1.07D-01

 Cycle   4  Pass 1  IDiag  1:
 E= -1682.45288208448     Delta-E=       -0.019092872119 Rises=F Damp=F
 DIIS: error= 4.36D-03 at cycle   4 NSaved=   4.
 NSaved= 4 IEnMin= 4 EnMin= -1682.45288208448     IErMin= 4 ErrMin= 4.36D-03
 ErrMax= 4.36D-03  0.00D+00 EMaxC= 1.00D-01 BMatC= 1.13D-02 BMatP= 2.87D-02
 IDIUse=3 WtCom= 9.56D-01 WtEn= 4.36D-02
 Coeff-Com: -0.948D-02 0.887D-01 0.394D+00 0.527D+00
 Coeff-En:   0.000D+00 0.000D+00 0.313D+00 0.687D+00
 Coeff:     -0.907D-02 0.849D-01 0.390D+00 0.534D+00
 Gap=     0.152 Goal=   None    Shift=    0.000
 RMSDP=3.21D-04 MaxDP=2.13D-02 DE=-1.91D-02 OVMax= 3.92D-02

 Cycle   5  Pass 1  IDiag  1:
 E= -1682.46469069028     Delta-E=       -0.011808605799 Rises=F Damp=F
 DIIS: error= 5.93D-04 at cycle   5 NSaved=   5.
 NSaved= 5 IEnMin= 5 EnMin= -1682.46469069028     IErMin= 5 ErrMin= 5.93D-04
 ErrMax= 5.93D-04  0.00D+00 EMaxC= 1.00D-01 BMatC= 2.51D-04 BMatP= 1.13D-02
 IDIUse=3 WtCom= 9.94D-01 WtEn= 5.93D-03
 Coeff-Com: -0.260D-02 0.755D-02 0.128D+00 0.226D+00 0.641D+00
 Coeff-En:   0.000D+00 0.000D+00 0.000D+00 0.000D+00 0.100D+01
 Coeff:     -0.258D-02 0.750D-02 0.127D+00 0.225D+00 0.643D+00
 Gap=     0.151 Goal=   None    Shift=    0.000
 RMSDP=6.03D-05 MaxDP=6.07D-03 DE=-1.18D-02 OVMax= 4.37D-03

 Cycle   6  Pass 1  IDiag  1:
 E= -1682.46493451867     Delta-E=       -0.000243828394 Rises=F Damp=F
 DIIS: error= 1.17D-04 at cycle   6 NSaved=   6.
 NSaved= 6 IEnMin= 6 EnMin= -1682.46493451867     IErMin= 6 ErrMin= 1.17D-04
 ErrMax= 1.17D-04  0.00D+00 EMaxC= 1.00D-01 BMatC= 2.53D-05 BMatP= 2.51D-04
 IDIUse=3 WtCom= 9.99D-01 WtEn= 1.17D-03
 Coeff-Com: -0.703D-03-0.732D-03 0.444D-01 0.842D-01 0.323D+00 0.549D+00
 Coeff-En:   0.000D+00 0.000D+00 0.000D+00 0.000D+00 0.000D+00 0.100D+01
 Coeff:     -0.702D-03-0.731D-03 0.443D-01 0.841D-01 0.323D+00 0.550D+00
 Gap=     0.151 Goal=   None    Shift=    0.000
 RMSDP=1.63D-05 MaxDP=9.18D-04 DE=-2.44D-04 OVMax= 1.39D-03

 Cycle   7  Pass 1  IDiag  1:
 E= -1682.46495844539     Delta-E=       -0.000023926720 Rises=F Damp=F
 DIIS: error= 4.80D-05 at cycle   7 NSaved=   7.
 NSaved= 7 IEnMin= 7 EnMin= -1682.46495844539     IErMin= 7 ErrMin= 4.80D-05
 ErrMax= 4.80D-05  0.00D+00 EMaxC= 1.00D-01 BMatC= 2.76D-06 BMatP= 2.53D-05
 IDIUse=1 WtCom= 1.00D+00 WtEn= 0.00D+00
 Coeff-Com: -0.312D-04-0.130D-02 0.991D-02 0.191D-01 0.100D+00 0.290D+00
 Coeff-Com:  0.582D+00
 Coeff:     -0.312D-04-0.130D-02 0.991D-02 0.191D-01 0.100D+00 0.290D+00
 Coeff:      0.582D+00
 Gap=     0.151 Goal=   None    Shift=    0.000
 RMSDP=5.53D-06 MaxDP=3.45D-04 DE=-2.39D-05 OVMax= 6.79D-04

 Cycle   8  Pass 1  IDiag  1:
 E= -1682.46496109137     Delta-E=       -0.000002645979 Rises=F Damp=F
 DIIS: error= 1.96D-05 at cycle   8 NSaved=   8.
 NSaved= 8 IEnMin= 8 EnMin= -1682.46496109137     IErMin= 8 ErrMin= 1.96D-05
 ErrMax= 1.96D-05  0.00D+00 EMaxC= 1.00D-01 BMatC= 3.33D-07 BMatP= 2.76D-06
 IDIUse=1 WtCom= 1.00D+00 WtEn= 0.00D+00
 Coeff-Com:  0.117D-03-0.637D-03-0.517D-03-0.168D-02 0.943D-02 0.836D-01
 Coeff-Com:  0.302D+00 0.607D+00
 Coeff:      0.117D-03-0.637D-03-0.517D-03-0.168D-02 0.943D-02 0.836D-01
 Coeff:      0.302D+00 0.607D+00
 Gap=     0.151 Goal=   None    Shift=    0.000
 RMSDP=1.96D-06 MaxDP=1.21D-04 DE=-2.65D-06 OVMax= 2.46D-04

 Cycle   9  Pass 1  IDiag  1:
 E= -1682.46496143745     Delta-E=       -0.000000346082 Rises=F Damp=F
 DIIS: error= 6.46D-06 at cycle   9 NSaved=   9.
 NSaved= 9 IEnMin= 9 EnMin= -1682.46496143745     IErMin= 9 ErrMin= 6.46D-06
 ErrMax= 6.46D-06  0.00D+00 EMaxC= 1.00D-01 BMatC= 4.16D-08 BMatP= 3.33D-07
 IDIUse=1 WtCom= 1.00D+00 WtEn= 0.00D+00
 Coeff-Com:  0.778D-04-0.210D-03-0.140D-02-0.336D-02-0.702D-02 0.106D-01
 Coeff-Com:  0.872D-01 0.321D+00 0.593D+00
 Coeff:      0.778D-04-0.210D-03-0.140D-02-0.336D-02-0.702D-02 0.106D-01
 Coeff:      0.872D-01 0.321D+00 0.593D+00
 Gap=     0.151 Goal=   None    Shift=    0.000
 RMSDP=6.79D-07 MaxDP=4.86D-05 DE=-3.46D-07 OVMax= 7.60D-05

 Cycle  10  Pass 1  IDiag  1:
 E= -1682.46496148380     Delta-E=       -0.000000046344 Rises=F Damp=F
 DIIS: error= 1.50D-06 at cycle  10 NSaved=  10.
 NSaved=10 IEnMin=10 EnMin= -1682.46496148380     IErMin=10 ErrMin= 1.50D-06
 ErrMax= 1.50D-06  0.00D+00 EMaxC= 1.00D-01 BMatC= 1.76D-09 BMatP= 4.16D-08
 IDIUse=1 WtCom= 1.00D+00 WtEn= 0.00D+00
 Coeff-Com:  0.221D-04-0.274D-04-0.449D-03-0.116D-02-0.335D-02-0.272D-02
[...]
    20  C    0.000000  -0.000000  -0.000000   0.000000   0.000000   0.000001
    21  C   -0.000000   0.000000  -0.000000   0.000000   0.000000   0.000000
    22  N    0.000000   0.000000  -0.000000   0.000000  -0.000000  -0.000007
    23  C   -0.000000  -0.000001   0.000001   0.000656   0.003641  -0.000129
    24  C    0.000063   0.000068  -0.000031   0.004197   0.000788  -0.000011
    25  H    0.527560  -0.036175  -0.022262   0.001904   0.000003   0.000000
    26  H   -0.036175   0.527452  -0.022067   0.001832   0.000006  -0.000000
    27  H   -0.022262  -0.022067   0.494074   0.000044  -0.000000  -0.000000
    28  H    0.001904   0.001832   0.000044   0.558252  -0.005160   0.000000
    29  H    0.000003   0.000006  -0.000000  -0.005160   0.550982   0.000000
    30  H    0.000000  -0.000000  -0.000000   0.000000   0.000000   0.567763
    31  H    0.000000   0.000000  -0.000000   0.000000  -0.000000  -0.005754
    32  H    0.000000  -0.000000  -0.000000  -0.000000  -0.000000  -0.000172
    33  H   -0.000000   0.000000  -0.000000  -0.000000   0.000001   0.000014
    34  H   -0.000000   0.000000  -0.000000  -0.000000  -0.000000  -0.001009
    35  H    0.000000   0.000000  -0.000000   0.000000   0.000000   0.000164
    36  H   -0.000000   0.000000  -0.000000   0.000000  -0.000000  -0.000191
    37  H   -0.000000   0.000000  -0.000000  -0.000000   0.000000   0.005580
    38  H   -0.000000   0.000000  -0.000000  -0.000000   0.000000   0.000019
    39  H   -0.000000   0.000000  -0.000000   0.000000  -0.000000   0.001348
    40  H   -0.000000   0.000000   0.000000  -0.000000   0.000000   0.000191
    41  H   -0.000000  -0.000000   0.000000   0.000000  -0.000000   0.000001
    42  H    0.000000  -0.000000   0.000000   0.000000  -0.000000  -0.000001
    43  H   -0.000000   0.000000  -0.000000  -0.000000   0.000000  -0.000000
    44  H    0.000000  -0.000000   0.000000  -0.000000  -0.000000  -0.000000
    45  H    0.000000  -0.000000   0.000000   0.000000  -0.000000   0.000000
    46  H    0.000000  -0.000000   0.000000  -0.000000   0.000000  -0.000000
    47  H   -0.000000   0.000000  -0.000000   0.000000  -0.000000  -0.000012
    48  H    0.000003   0.000005  -0.000001  -0.000161   0.000015   0.000001
              31         32         33         34         35         36
     1  C    0.000000   0.000000   0.000000   0.000000   0.000000  -0.000000
     2  S   -0.000000   0.000000  -0.000000   0.000000  -0.000016   0.000066
     3  C    0.000000  -0.000000   0.000000  -0.000006   0.000301   0.000086
     4  C   -0.000000   0.000000   0.000000   0.000000  -0.000014  -0.000002
     5  C    0.000000  -0.000000   0.000002   0.000002  -0.000025  -0.000005
     6  C    0.000000   0.000000   0.000065  -0.000113  -0.000019  -0.000071
     7  S    0.000017  -0.000168  -0.000562  -0.000157  -0.000172  -0.000001
     8  C    0.000813   0.004799  -0.044488  -0.000030  -0.000103   0.000003
     9  C    0.003694   0.000620   0.003931  -0.005461   0.004137   0.000053
    10  C   -0.037592   0.004757   0.000589   0.006525   0.000256   0.000223
    11  C    0.361615  -0.040824   0.004557   0.000276  -0.000006  -0.000005
    12  C   -0.040677   0.364578  -0.037428  -0.000017   0.000000  -0.000000
    13  C    0.004705  -0.041461   0.361417  -0.000024   0.000002  -0.000000
    14  N   -0.000097   0.000003  -0.000095  -0.036734  -0.038576  -0.003651
    15  C    0.000008  -0.000000   0.000002   0.371733   0.374883  -0.036854
    16  C    0.000000   0.000000  -0.000000  -0.047026  -0.051578   0.356452
    17  C    0.000000  -0.000000   0.000000  -0.002393  -0.000996  -0.033036
    18  C   -0.000001   0.000000   0.000000   0.002034  -0.000652   0.006513
    19  C    0.000000  -0.000000   0.000000  -0.000119  -0.000015  -0.000143
    20  C   -0.000000  -0.000000  -0.000000   0.000001   0.000000   0.000033
    21  C   -0.000000  -0.000000   0.000000   0.000003   0.000004   0.000205
    22  N    0.000000   0.000000  -0.000000  -0.000028  -0.000029   0.008252
    23  C    0.000000   0.000000  -0.000009   0.004105  -0.005850   0.001488
    24  C   -0.000000   0.000000  -0.000000   0.000299   0.006441   0.001529
    25  H    0.000000   0.000000  -0.000000  -0.000000   0.000000  -0.000000
    26  H    0.000000  -0.000000   0.000000   0.000000   0.000000   0.000000
    27  H   -0.000000  -0.000000  -0.000000  -0.000000  -0.000000  -0.000000
    28  H    0.000000  -0.000000  -0.000000  -0.000000   0.000000   0.000000
    29  H   -0.000000  -0.000000   0.000001  -0.000000   0.000000  -0.000000
    30  H   -0.005754  -0.000172   0.000014  -0.001009   0.000164  -0.000191
    31  H    0.564009  -0.004891  -0.000178  -0.000003  -0.000000   0.000000
    32  H   -0.004891   0.566177  -0.005105   0.000000  -0.000000  -0.000000
    33  H   -0.000178  -0.005105   0.556590   0.000000  -0.000000   0.000000
    34  H   -0.000003   0.000000   0.000000   0.550499  -0.025101   0.004662
    35  H   -0.000000  -0.000000  -0.000000  -0.025101   0.556372  -0.005598
    36  H    0.000000  -0.000000   0.000000   0.004662  -0.005598   0.580908
    37  H    0.000005   0.000000  -0.000000  -0.005777   0.004993  -0.033420
    38  H    0.000000   0.000000  -0.000000   0.000061   0.005437  -0.005155
    39  H   -0.000001   0.000000  -0.000000   0.000193   0.000060  -0.000075
    40  H   -0.000000   0.000000  -0.000000   0.004043   0.000586  -0.000242
    41  H   -0.000000   0.000000  -0.000000   0.000008  -0.000004   0.000001
    42  H   -0.000000  -0.000000  -0.000000   0.000005   0.000000   0.000003
    43  H    0.000000  -0.000000   0.000000   0.000000  -0.000000  -0.000001
    44  H    0.000000  -0.000000  -0.000000   0.000000  -0.000000  -0.000001
    45  H   -0.000000   0.000000  -0.000000   0.000000   0.000000  -0.000024
    46  H    0.000000  -0.000000   0.000000   0.000001  -0.000003  -0.000054
    47  H    0.000000   0.000000   0.000000   0.000012   0.000012  -0.000877
    48  H   -0.000000   0.000000   0.000000   0.000145  -0.000336   0.003824
              37         38         39         40         41         42
     1  C    0.000000   0.000000   0.000000  -0.000000   0.000000  -0.000000
     2  S    0.000000   0.000003  -0.000000  -0.000000  -0.000000   0.000000
     3  C   -0.000008  -0.000003  -0.000000   0.000000   0.000000   0.000000
     4  C   -0.000000   0.000000   0.000000  -0.000000  -0.000000  -0.000000
     5  C   -0.000000  -0.000000  -0.000000   0.000000   0.000000  -0.000000
     6  C    0.000007   0.000000  -0.000000  -0.000000  -0.000000  -0.000000
     7  S   -0.000003  -0.000000  -0.000000  -0.000000   0.000000   0.000000
     8  C   -0.000052  -0.000000   0.000000  -0.000000   0.000000  -0.000000
     9  C    0.001572   0.000002   0.000011  -0.000010   0.000000  -0.000000
    10  C    0.000151  -0.000014  -0.000376  -0.000063  -0.000000   0.000000
    11  C    0.000084   0.000000   0.000002   0.000001  -0.000000  -0.000000
    12  C    0.000001  -0.000000   0.000000   0.000000   0.000000  -0.000000
    13  C   -0.000004  -0.000000  -0.000000  -0.000000  -0.000000   0.000000
    14  N   -0.002565   0.000036  -0.000014   0.000052  -0.000000  -0.000000
    15  C   -0.039322  -0.005606  -0.000520  -0.000114  -0.000021   0.000000
    16  C    0.365144  -0.043622  -0.005238  -0.004205   0.000031  -0.000135
    17  C   -0.029378   0.378408  -0.038596  -0.026928  -0.005393   0.004159
    18  C   -0.009563  -0.062473   0.362665   0.353574  -0.041206  -0.032088
    19  C    0.000070  -0.003683  -0.039959  -0.031889   0.373888   0.373124
    20  C   -0.000048  -0.002288  -0.004469   0.004587  -0.041678  -0.033266
    21  C   -0.000019  -0.004177  -0.000492   0.000071  -0.004376   0.004771
    22  N   -0.003086  -0.052768  -0.002575   0.004822  -0.000290  -0.000143
    23  C    0.000121   0.000005   0.000001  -0.000005   0.000000   0.000000
    24  C    0.000113  -0.000076  -0.000001   0.000003  -0.000000  -0.000000
    25  H   -0.000000  -0.000000  -0.000000  -0.000000  -0.000000   0.000000
    26  H    0.000000   0.000000   0.000000   0.000000  -0.000000  -0.000000
    27  H   -0.000000  -0.000000  -0.000000   0.000000   0.000000   0.000000
    28  H   -0.000000  -0.000000   0.000000  -0.000000   0.000000   0.000000
    29  H    0.000000   0.000000  -0.000000   0.000000  -0.000000  -0.000000
    30  H    0.005580   0.000019   0.001348   0.000191   0.000001  -0.000001
    31  H    0.000005   0.000000  -0.000001  -0.000000  -0.000000  -0.000000
    32  H    0.000000   0.000000   0.000000   0.000000   0.000000  -0.000000
    33  H   -0.000000  -0.000000  -0.000000  -0.000000  -0.000000  -0.000000
    34  H   -0.005777   0.000061   0.000193   0.004043   0.000008   0.000005
    35  H    0.004993   0.005437   0.000060   0.000586  -0.000004   0.000000
    36  H   -0.033420  -0.005155  -0.000075  -0.000242   0.000001   0.000003
    37  H    0.577954   0.005702   0.005001   0.000142   0.000005  -0.000001
    38  H    0.005702   0.631652   0.006514  -0.001637   0.005258  -0.000094
    39  H    0.005001   0.006514   0.606110  -0.034182   0.005864  -0.004572
    40  H    0.000142  -0.001637  -0.034182   0.596224  -0.004032  -0.002669
    41  H    0.000005   0.005258   0.005864  -0.004032   0.607547  -0.036701
    42  H   -0.000001  -0.000094  -0.004572  -0.002669  -0.036701   0.597939
    43  H    0.000000   0.000032  -0.000002  -0.000108  -0.004311  -0.002401
    44  H   -0.000003   0.000212   0.004662  -0.000002   0.006005  -0.004738
    45  H    0.000007   0.000016  -0.000021   0.000016  -0.000054  -0.000162
    46  H    0.000007   0.007847   0.000205   0.000019   0.004980  -0.000086
    47  H    0.004803   0.007520   0.004981  -0.000043   0.000160  -0.000004
    48  H   -0.000089   0.000551   0.000001  -0.000001   0.000000  -0.000000
              43         44         45         46         47         48
     1  C   -0.000000   0.000000  -0.000000  -0.000000   0.000000   0.000027
     2  S   -0.000000  -0.000000  -0.000000  -0.000000  -0.000000  -0.000375
     3  C    0.000000   0.000000   0.000000   0.000000  -0.000000  -0.047209
     4  C    0.000000  -0.000000  -0.000000  -0.000000  -0.000000   0.005028
     5  C    0.000000   0.000000   0.000000   0.000000  -0.000000   0.000302
     6  C   -0.000000  -0.000000  -0.000000  -0.000000  -0.000000   0.005855
     7  S   -0.000000   0.000000   0.000000   0.000000   0.000000  -0.000218
     8  C    0.000000  -0.000000  -0.000000   0.000000   0.000000   0.000002
     9  C   -0.000000   0.000000  -0.000000  -0.000000   0.000000  -0.000119
    10  C    0.000000   0.000000  -0.000000   0.000000  -0.000006  -0.000013
    11  C   -0.000000  -0.000000   0.000000  -0.000000  -0.000000  -0.000000
    12  C   -0.000000  -0.000000   0.000000  -0.000000  -0.000000   0.000000
    13  C    0.000000   0.000000   0.000000   0.000000   0.000000   0.000000
    14  N   -0.000000  -0.000000  -0.000000   0.000000   0.000001  -0.011671
    15  C   -0.000000  -0.000001   0.000001  -0.000002  -0.000062   0.006244
    16  C    0.000008  -0.000035  -0.000193   0.000060  -0.005403  -0.002191
    17  C    0.000194  -0.000881   0.005071  -0.006334  -0.038664   0.000540
    18  C    0.004814  -0.004228  -0.000044  -0.001697  -0.005523  -0.000025
    19  C   -0.033423  -0.041798   0.004707  -0.004859  -0.000658   0.000000
    20  C    0.354040   0.368951  -0.040131  -0.052942  -0.004048  -0.000000
    21  C   -0.026352  -0.038972   0.376239   0.378011  -0.040280  -0.000001
    22  N    0.004707  -0.001385  -0.035592  -0.045734   0.302117  -0.000093
    23  C   -0.000000  -0.000000  -0.000000  -0.000000   0.000000  -0.037085
    24  C    0.000000   0.000000   0.000000  -0.000000  -0.000001   0.350716
    25  H   -0.000000   0.000000   0.000000   0.000000  -0.000000   0.000003
    26  H    0.000000  -0.000000  -0.000000  -0.000000   0.000000   0.000005
    27  H   -0.000000   0.000000   0.000000   0.000000  -0.000000  -0.000001
    28  H   -0.000000  -0.000000   0.000000  -0.000000   0.000000  -0.000161
    29  H    0.000000  -0.000000  -0.000000   0.000000  -0.000000   0.000015
    30  H   -0.000000  -0.000000   0.000000  -0.000000  -0.000012   0.000001
    31  H    0.000000   0.000000  -0.000000   0.000000   0.000000  -0.000000
    32  H   -0.000000  -0.000000   0.000000  -0.000000   0.000000   0.000000
    33  H    0.000000  -0.000000  -0.000000   0.000000   0.000000   0.000000
    34  H    0.000000   0.000000   0.000000   0.000001   0.000012   0.000145
    35  H   -0.000000  -0.000000   0.000000  -0.000003   0.000012  -0.000336
    36  H   -0.000001  -0.000001  -0.000024  -0.000054  -0.000877   0.003824
    37  H    0.000000  -0.000003   0.000007   0.000007   0.004803  -0.000089
    38  H    0.000032   0.000212   0.000016   0.007847   0.007520   0.000551
    39  H   -0.000002   0.004662  -0.000021   0.000205   0.004981   0.000001
    40  H   -0.000108  -0.000002   0.000016   0.000019  -0.000043  -0.000001
    41  H   -0.004311   0.006005  -0.000054   0.004980   0.000160   0.000000
    42  H   -0.002401  -0.004738  -0.000162  -0.000086  -0.000004  -0.000000
    43  H    0.604452  -0.033597  -0.000377  -0.001729  -0.000033   0.000000
    44  H   -0.033597   0.606812  -0.004582   0.005987   0.004511   0.000000
    45  H   -0.000377  -0.004582   0.591577  -0.033751  -0.004304   0.000000
    46  H   -0.001729   0.005987  -0.033751   0.604671   0.006792   0.000001
    47  H   -0.000033   0.004511  -0.004304   0.006792   0.447938   0.000004
    48  H    0.000000   0.000000   0.000000   0.000001   0.000004   0.561976
 Mulliken charges:
               1
     1  C   -0.606184
     2  S    0.091011
     3  C   -0.080635
     4  C   -0.173288
     5  C   -0.186124
     6  C   -0.142525
     7  S    0.133327
     8  C   -0.135235
     9  C    0.327855
    10  C   -0.187271
    11  C   -0.166128
    12  C   -0.141114
    13  C   -0.194135
    14  N   -0.603897
    15  C   -0.181094
    16  C   -0.291476
    17  C    0.032057
    18  C   -0.274175
    19  C   -0.266885
    20  C   -0.263027
    21  C   -0.146288
    22  N   -0.596139
    23  C    0.347580
    24  C   -0.232876
    25  H    0.203108
    26  H    0.203116
    27  H    0.207952
    28  H    0.160287
    29  H    0.163970
    30  H    0.157941
    31  H    0.154329
    32  H    0.151688
    33  H    0.160697
    34  H    0.179392
    35  H    0.175443
    36  H    0.155107
    37  H    0.151876
    38  H    0.132321
    39  H    0.133473
    40  H    0.141801
    41  H    0.134318
    42  H    0.137060
    43  H    0.134085
    44  H    0.133083
    45  H    0.141600
    46  H    0.138610
    47  H    0.321063
    48  H    0.164347
 Sum of Mulliken charges =  -0.00000
 Mulliken charges with hydrogens summed into heavy atoms:
               1
     1  C    0.007991
     2  S    0.091011
     3  C   -0.080635
     4  C   -0.013001
     5  C   -0.022154
     6  C   -0.142525
     7  S    0.133327
     8  C   -0.135235
     9  C    0.327855
    10  C   -0.029330
    11  C   -0.011800
    12  C    0.010573
    13  C   -0.033437
    14  N   -0.603897
    15  C    0.173741
    16  C    0.015507
    17  C    0.164378
    18  C    0.001099
    19  C    0.004492
    20  C    0.004142
    21  C    0.133922
    22  N   -0.275076
    23  C    0.347580
    24  C   -0.068529
 Electronic spatial extent (au):  <R**2>=          11618.8587
 Charge=             -0.0000 electrons
 Dipole moment (field-independent basis, Debye):
    X=             -2.2712    Y=             -0.1047    Z=             -0.3509  Tot=              2.3005
 Quadrupole moment (field-independent basis, Debye-Ang):
   XX=           -135.4519   YY=           -144.1840   ZZ=           -161.7038
   XY=            -18.1909   XZ=             -3.4156   YZ=             -4.3293
 Traceless Quadrupole moment (field-independent basis, Debye-Ang):
   XX=             11.6614   YY=              2.9292   ZZ=            -14.5906
   XY=            -18.1909   XZ=             -3.4156   YZ=             -4.3293
 Octapole moment (field-independent basis, Debye-Ang**2):
  XXX=            -20.5977  YYY=            -21.7629  ZZZ=             -2.7822  XYY=             62.8508
  XXY=            -55.8969  XXZ=            -18.3815  XZZ=            -22.5754  YZZ=             -4.5870
  YYZ=            -25.7348  XYZ=             11.1431
 Hexadecapole moment (field-independent basis, Debye-Ang**3):
 XXXX=          -8354.4384 YYYY=          -5691.1484 ZZZZ=           -515.8693 XXXY=           -221.8870
 XXXZ=             25.5625 YYYX=           -312.2569 YYYZ=            -65.4554 ZZZX=             13.7144
 ZZZY=             12.1106 XXYY=          -2281.1450 XXZZ=          -1572.5209 YYZZ=          -1220.3893
 XXYZ=            -10.6602 YYXZ=            -62.6518 ZZXY=            -21.0109
 N-N= 2.290230749685D+03 E-N=-8.525224990051D+03  KE= 1.671269126099D+03
 No NMR shielding tensors so no spin-rotation constants.
 Leave Link  601 at Wed Mar  2 07:57:50 2022, MaxMem=   104857600 cpu:               0.8 elap:               0.3
 (Enter /dades/curu/g16A03_MST/g16/l9999.exe)
 1\1\GINC-PIRINEUS20\SP\RB3LYP\6-31G(d)\C20H24N2S2\UBATOR01\02-Mar-2022
 \0\\#p b3lyp/6-31G(d) scrf=(iefpcm,read,solvent=water) geom=allcheck g
 uess=read\\47.n.pdb.xyz\\0,1\C,0,-4.5976979883,-4.3727232382,-0.040684
 6471\S,0,-2.9292376607,-3.6730447695,-0.2564133506\C,0,-3.2272582792,-
 1.9141439457,-0.2664238303\C,0,-4.4954644558,-1.3441759416,-0.14566279
 73\C,0,-4.6102977029,0.047515259,-0.176271532\C,0,-3.4953911121,0.8637
 52928,-0.3415233996\S,0,-3.7412386079,2.6041248238,-0.603888932\C,0,-2
 .2044614493,3.2136860114,0.0511309143\C,0,-1.0284629333,2.4423697322,-
 0.0623375218\C,0,0.1791005429,3.0517515611,0.3226784785\C,0,0.21136380
 52,4.3619686428,0.801882332\C,0,-0.9627022572,5.0971494571,0.940124848
 2\C,0,-2.171811487,4.5082059798,0.5691381255\N,0,-1.0598723725,1.12213
 83356,-0.5662358465\C,0,0.2106417472,0.491635107,-0.9515280727\C,0,1.0
 212073426,-0.1617910838,0.1826831051\C,0,2.2895773383,-0.8616596505,-0
 .3230691494\C,0,3.3193605481,0.1127447695,-0.926770689\C,0,4.592870758
 6,-0.6235386148,-1.3603465282\C,0,5.1605075886,-1.4621527055,-0.212391
 1946\C,0,4.0768819827,-2.377938305,0.3662440364\N,0,2.8518925572,-1.67
 39381671,0.7731852122\C,0,-2.2007123681,0.3045890238,-0.4267550237\C,0
 ,-2.0956986153,-1.0934544471,-0.3889450265\H,0,-5.2494516684,-4.103311
 2693,-0.8730599732\H,0,-5.040812198,-4.0499709086,0.9025951452\H,0,-4.
 4641671376,-5.455340652,-0.0239037468\H,0,-5.3806730938,-1.9568174034,
 -0.0360600429\H,0,-5.5903351759,0.506853188,-0.0992712414\H,0,1.108537
 3628,2.5055840121,0.2512672386\H,0,1.166379267,4.7954756626,1.07873803
 64\H,0,-0.9446143144,6.110618033,1.3248716467\H,0,-3.1015447495,5.0611
 577442,0.6548048352\H,0,0.807331197,1.2587879616,-1.4484428155\H,0,-0.
 023356272,-0.2578747489,-1.7122336506\H,0,0.4089414335,-0.9024547168,0
 .7038844274\H,0,1.2957180808,0.5892388244,0.9315852107\H,0,1.998404027
 2,-1.5743125915,-1.1098635509\H,0,3.570673588,0.8681095539,-0.16846214
 53\H,0,2.8871080785,0.648756494,-1.779700641\H,0,4.3568633367,-1.28324
 11168,-2.2063249505\H,0,5.339704964,0.0912838475,-1.7225551039\H,0,6.0
 154647282,-2.0581715645,-0.5527823466\H,0,5.5280127204,-0.7983101193,0
 .5814872609\H,0,4.4574841054,-2.9266738696,1.2334694283\H,0,3.79427711
 93,-3.1263113545,-0.3859460379\H,0,3.0947334931,-1.0399680619,1.537498
 2234\H,0,-1.1247758142,-1.5641777063,-0.451414717\\Version=ES64L-G16Re
 vA.03\State=1-A\HF=-1682.4727986\RMSD=3.026e-09\Dipole=0.8790883,-0.17
 53024,0.1251249\Quadrupole=12.3242597,-1.941693,-10.3825667,12.1852497
 ,-1.4016592,4.0423329\PG=C01 [X(C20H24N2S2)]\\@


 Spring appears, and we are once more children.
                                  -- Anonymous
 Job cpu time:       0 days  0 hours 23 minutes  9.3 seconds.
 Elapsed time:       0 days  0 hours  5 minutes 58.2 seconds.
 File lengths (MBytes):  RWF=    298 Int=      0 D2E=      0 Chk=     30 Scr=      1
 Normal termination of Gaussian 16 at Wed Mar  2 07:57:51 2022.
