 Entering Gaussian System, Link 0=g16
 Input=61.n.pdb.xyz.mst.wat.gau
 Output=61.n.pdb.xyz.mst.wat.log
 Initial command:
 /dades/curu/g16A03_MST/g16/l1.exe "/tmp/ubator01/1954817/Gau-102745.inp" -scrdir="/tmp/ubator01/1954817/"
 Entering Link 1 = /dades/curu/g16A03_MST/g16/l1.exe PID=    102746.
  
 Copyright (c) 1988,1990,1992,1993,1995,1998,2003,2009,2016,
            Gaussian, Inc.  All Rights Reserved.
  
 This is part of the Gaussian(R) 16 program.  It is based on
 the Gaussian(R) 09 system (copyright 2009, Gaussian, Inc.),
 the Gaussian(R) 03 system (copyright 2003, Gaussian, Inc.),
 the Gaussian(R) 98 system (copyright 1998, Gaussian, Inc.),
 the Gaussian(R) 94 system (copyright 1995, Gaussian, Inc.),
 the Gaussian 92(TM) system (copyright 1992, Gaussian, Inc.),
 the Gaussian 90(TM) system (copyright 1990, Gaussian, Inc.),
 the Gaussian 88(TM) system (copyright 1988, Gaussian, Inc.),
 the Gaussian 86(TM) system (copyright 1986, Carnegie Mellon
 University), and the Gaussian 82(TM) system (copyright 1983,
 Carnegie Mellon University). Gaussian is a federally registered
 trademark of Gaussian, Inc.
  
 This software contains proprietary and confidential information,
 including trade secrets, belonging to Gaussian, Inc.
  
 This software is provided under written license and may be
 used, copied, transmitted, or stored only in accord with that
 written license.
  
 The following legend is applicable only to US Government
 contracts under FAR:
  
                    RESTRICTED RIGHTS LEGEND
  
 Use, reproduction and disclosure by the US Government is
 subject to restrictions as set forth in subparagraphs (a)
 and (c) of the Commercial Computer Software - Restricted
 Rights clause in FAR 52.227-19.
  
 Gaussian, Inc.
 340 Quinnipiac St., Bldg. 40, Wallingford CT 06492
  
  
 ---------------------------------------------------------------
 Warning -- This program may not be used in any manner that
 competes with the business of Gaussian, Inc. or will provide
 assistance to any competitor of Gaussian, Inc.  The licensee
 of this program is prohibited from giving any competitor of
 Gaussian, Inc. access to this program.  By using this program,
 the user acknowledges that Gaussian, Inc. is engaged in the
 business of creating and licensing software in the field of
 computational chemistry and represents and warrants to the
 licensee that it is not a competitor of Gaussian, Inc. and that
 it will not use this program in any manner prohibited above.
 ---------------------------------------------------------------
  

 Cite this work as:
 Gaussian 16, Revision A.03,
 M. J. Frisch, G. W. Trucks, H. B. Schlegel, G. E. Scuseria, 
 M. A. Robb, J. R. Cheeseman, G. Scalmani, V. Barone, 
 G. A. Petersson, H. Nakatsuji, X. Li, M. Caricato, A. V. Marenich, 
 J. Bloino, B. G. Janesko, R. Gomperts, B. Mennucci, H. P. Hratchian, 
 J. V. Ortiz, A. F. Izmaylov, J. L. Sonnenberg, D. Williams-Young, 
 F. Ding, F. Lipparini, F. Egidi, J. Goings, B. Peng, A. Petrone, 
 T. Henderson, D. Ranasinghe, V. G. Zakrzewski, J. Gao, N. Rega, 
 G. Zheng, W. Liang, M. Hada, M. Ehara, K. Toyota, R. Fukuda, 
 J. Hasegawa, M. Ishida, T. Nakajima, Y. Honda, O. Kitao, H. Nakai, 
 T. Vreven, K. Throssell, J. A. Montgomery, Jr., J. E. Peralta, 
 F. Ogliaro, M. J. Bearpark, J. J. Heyd, E. N. Brothers, K. N. Kudin, 
 V. N. Staroverov, T. A. Keith, R. Kobayashi, J. Normand, 
 K. Raghavachari, A. P. Rendell, J. C. Burant, S. S. Iyengar, 
 J. Tomasi, M. Cossi, J. M. Millam, M. Klene, C. Adamo, R. Cammi, 
 J. W. Ochterski, R. L. Martin, K. Morokuma, O. Farkas, 
 J. B. Foresman, and D. J. Fox, Gaussian, Inc., Wallingford CT, 2016.
 
 ******************************************
 Gaussian 16:  ES64L-G16RevA.03 25-Dec-2016
                 1-Mar-2022 
 ******************************************
 %nproc=4
 Will use up to    4 processors via shared memory.
 %Chk=61.n.pdb.xyz.mst.wat.chk
 %mem=800MB
 ----------------------------------------------------------------------
 #p b3lyp/6-31G(d) opt=(MaxStep=10,MaxCycles=1000) freq scf=(MaxCycle=2
 000,NoVarAcc,NoIncFock) scrf=(iefpcm,read,solvent=water)
 ----------------------------------------------------------------------
 1/6=1000,8=10,18=20,19=15,26=3,38=1,40=2/1,3;
 2/9=110,12=2,17=6,18=5,40=1/2;
 3/5=1,6=6,7=1,11=2,25=1,30=1,70=2203,71=1,72=1,74=-5/1,2,3;
 4//1;
 5/5=100002,7=2000,38=1,53=1/2;
 6/7=2,8=2,9=2,10=2,28=1/1;
 7//1,2,3,16;
 1/6=1000,8=10,18=20,19=15,26=3/3(2);
 2/9=110/2;
 99//99;
 2/9=110/2;
 3/5=1,6=6,7=1,11=2,25=1,30=1,70=2205,71=1,72=1,74=-5/1,2,3;
 4/5=5,16=3,69=1/1;
 5/5=100002,7=2000,38=1,53=1/2;
 7//1,2,3,16;
 1/6=1000,8=10,18=20,19=15,26=3/3(-5);
 2/9=110/2;
 6/7=2,8=2,9=2,10=2,19=2,28=1/1;
 99/9=1/99;
 Leave Link    1 at Tue Mar  1 07:10:13 2022, MaxMem=   104857600 cpu:               0.0 elap:               0.0
 (Enter /dades/curu/g16A03_MST/g16/l101.exe)
 ------------
 61.n.pdb.xyz
 ------------
 Symbolic Z-matrix:
 Charge =  0 Multiplicity = 1
 O                    -1.774    -2.897    -2.357 
 C                    -1.613    -1.804    -1.468 
 N                    -0.221    -1.591    -1.108 
 C                     0.113    -0.51     -0.489 
 C                     1.562    -0.361    -0.141 
 C                     2.527    -0.785    -1.062 
 C                     3.884    -0.658    -0.761 
 C                     4.28     -0.119     0.463 
 C                     3.321     0.286     1.392 
 C                     1.962     0.161     1.096 
 C                    -0.831     0.581    -0.086 
 C                    -0.405     1.911    -0.241 
 C                    -1.167     2.954     0.28 
 Cl                   -0.629     4.577     0.103 
 C                    -2.35      2.688     0.963 
 C                    -2.792     1.37      1.097 
 C                    -2.062     0.312     0.538 
 N                    -2.63     -0.965     0.658 
 C                    -2.415    -2.045    -0.161 
 O                    -2.917    -3.132     0.134 
 H                    -1.394    -3.648    -1.867 
 H                    -2.03     -0.935    -1.989 
 H                     2.225    -1.215    -2.015 
 H                     4.632    -0.986    -1.479 
 H                     5.337    -0.026     0.698 
 H                     3.634     0.69      2.352 
 H                     1.232     0.458     1.844 
 H                     0.53      2.138    -0.749 
 H                    -2.939     3.501     1.382 
 H                    -3.735     1.187     1.608 
 H                    -3.335    -1.134     1.364 
 
 ITRead=  0  0  0  0  0  0  0  0  0  0  0  0  0  0  0  0  0  0  0  0
 ITRead=  0  0  0  0  0  0  0  0  0  0  0
 MicOpt= -1 -1 -1 -1 -1 -1 -1 -1 -1 -1 -1 -1 -1 -1 -1 -1 -1 -1 -1 -1
 MicOpt= -1 -1 -1 -1 -1 -1 -1 -1 -1 -1 -1
 NAtoms=     31 NQM=       31 NQMF=       0 NMMI=      0 NMMIF=      0
                NMic=       0 NMicF=      0.
                    Isotopes and Nuclear Properties:
 (Nuclear quadrupole moments (NQMom) in fm**2, nuclear magnetic moments (NMagM)
  in nuclear magnetons)

  Atom         1           2           3           4           5           6           7           8           9          10
 IAtWgt=          16          12          14          12          12          12          12          12          12          12
 AtmWgt=  15.9949146  12.0000000  14.0030740  12.0000000  12.0000000  12.0000000  12.0000000  12.0000000  12.0000000  12.0000000
 NucSpn=           0           0           2           0           0           0           0           0           0           0
 AtZEff=  -0.0000000  -0.0000000  -0.0000000  -0.0000000  -0.0000000  -0.0000000  -0.0000000  -0.0000000  -0.0000000  -0.0000000
 NQMom=    0.0000000   0.0000000   2.0440000   0.0000000   0.0000000   0.0000000   0.0000000   0.0000000   0.0000000   0.0000000
 NMagM=    0.0000000   0.0000000   0.4037610   0.0000000   0.0000000   0.0000000   0.0000000   0.0000000   0.0000000   0.0000000
 AtZNuc=   8.0000000   6.0000000   7.0000000   6.0000000   6.0000000   6.0000000   6.0000000   6.0000000   6.0000000   6.0000000

  Atom        11          12          13          14          15          16          17          18          19          20
 IAtWgt=          12          12          12          35          12          12          12          14          12          16
 AtmWgt=  12.0000000  12.0000000  12.0000000  34.9688527  12.0000000  12.0000000  12.0000000  14.0030740  12.0000000  15.9949146
 NucSpn=           0           0           0           3           0           0           0           2           0           0
 AtZEff=  -0.0000000  -0.0000000  -0.0000000  -0.0000000  -0.0000000  -0.0000000  -0.0000000  -0.0000000  -0.0000000  -0.0000000
 NQMom=    0.0000000   0.0000000   0.0000000  -8.1650000   0.0000000   0.0000000   0.0000000   2.0440000   0.0000000   0.0000000
 NMagM=    0.0000000   0.0000000   0.0000000   0.8218740   0.0000000   0.0000000   0.0000000   0.4037610   0.0000000   0.0000000
 AtZNuc=   6.0000000   6.0000000   6.0000000  17.0000000   6.0000000   6.0000000   6.0000000   7.0000000   6.0000000   8.0000000

  Atom        21          22          23          24          25          26          27          28          29          30
 IAtWgt=           1           1           1           1           1           1           1           1           1           1
 AtmWgt=   1.0078250   1.0078250   1.0078250   1.0078250   1.0078250   1.0078250   1.0078250   1.0078250   1.0078250   1.0078250
 NucSpn=           1           1           1           1           1           1           1           1           1           1
 AtZEff=  -0.0000000  -0.0000000  -0.0000000  -0.0000000  -0.0000000  -0.0000000  -0.0000000  -0.0000000  -0.0000000  -0.0000000
 NQMom=    0.0000000   0.0000000   0.0000000   0.0000000   0.0000000   0.0000000   0.0000000   0.0000000   0.0000000   0.0000000
 NMagM=    2.7928460   2.7928460   2.7928460   2.7928460   2.7928460   2.7928460   2.7928460   2.7928460   2.7928460   2.7928460
 AtZNuc=   1.0000000   1.0000000   1.0000000   1.0000000   1.0000000   1.0000000   1.0000000   1.0000000   1.0000000   1.0000000

  Atom        31
 IAtWgt=           1
 AtmWgt=   1.0078250
 NucSpn=           1
 AtZEff=  -0.0000000
 NQMom=    0.0000000
 NMagM=    2.7928460
 AtZNuc=   1.0000000
 Leave Link  101 at Tue Mar  1 07:10:13 2022, MaxMem=   104857600 cpu:               0.1 elap:               0.1
 (Enter /dades/curu/g16A03_MST/g16/l103.exe)

 GradGradGradGradGradGradGradGradGradGradGradGradGradGradGradGradGradGrad
 Berny optimization.
 Initialization pass.
                           ----------------------------
                           !    Initial Parameters    !
                           ! (Angstroms and Degrees)  !
 --------------------------                            --------------------------
 ! Name  Definition              Value          Derivative Info.                !
 --------------------------------------------------------------------------------
 ! R1    R(1,2)                  1.4181         estimate D2E/DX2                !
 ! R2    R(1,21)                 0.9739         estimate D2E/DX2                !
 ! R3    R(2,3)                  1.4535         estimate D2E/DX2                !
 ! R4    R(2,19)                 1.5523         estimate D2E/DX2                !
 ! R5    R(2,22)                 1.0957         estimate D2E/DX2                !
 ! R6    R(3,4)                  1.2897         estimate D2E/DX2                !
 ! R7    R(4,5)                  1.4976         estimate D2E/DX2                !
 ! R8    R(4,11)                 1.4979         estimate D2E/DX2                !
 ! R9    R(5,6)                  1.3997         estimate D2E/DX2                !
 ! R10   R(5,10)                 1.4009         estimate D2E/DX2                !
 ! R11   R(6,7)                  1.3958         estimate D2E/DX2                !
 ! R12   R(6,23)                 1.0883         estimate D2E/DX2                !
 ! R13   R(7,8)                  1.3948         estimate D2E/DX2                !
 ! R14   R(7,24)                 1.0875         estimate D2E/DX2                !
 ! R15   R(8,9)                  1.3953         estimate D2E/DX2                !
 ! R16   R(8,25)                 1.0868         estimate D2E/DX2                !
 ! R17   R(9,10)                 1.3965         estimate D2E/DX2                !
 ! R18   R(9,26)                 1.0876         estimate D2E/DX2                !
 ! R19   R(10,27)                1.0866         estimate D2E/DX2                !
 ! R20   R(11,12)                1.4051         estimate D2E/DX2                !
 ! R21   R(11,17)                1.4061         estimate D2E/DX2                !
 ! R22   R(12,13)                1.3928         estimate D2E/DX2                !
 ! R23   R(12,28)                1.088          estimate D2E/DX2                !
 ! R24   R(13,14)                1.719          estimate D2E/DX2                !
 ! R25   R(13,15)                1.3917         estimate D2E/DX2                !
 ! R26   R(15,16)                1.3966         estimate D2E/DX2                !
 ! R27   R(15,29)                1.0879         estimate D2E/DX2                !
 ! R28   R(16,17)                1.4017         estimate D2E/DX2                !
 ! R29   R(16,30)                1.0881         estimate D2E/DX2                !
 ! R30   R(17,18)                1.4028         estimate D2E/DX2                !
 ! R31   R(18,19)                1.3724         estimate D2E/DX2                !
 ! R32   R(18,31)                1.0119         estimate D2E/DX2                !
 ! R33   R(19,20)                1.2331         estimate D2E/DX2                !
 ! A1    A(2,1,21)             103.5704         estimate D2E/DX2                !
 ! A2    A(1,2,3)              112.1454         estimate D2E/DX2                !
 ! A3    A(1,2,19)             110.4586         estimate D2E/DX2                !
 ! A4    A(1,2,22)             105.6645         estimate D2E/DX2                !
 ! A5    A(3,2,19)             107.9998         estimate D2E/DX2                !
 ! A6    A(3,2,22)             111.4713         estimate D2E/DX2                !
 ! A7    A(19,2,22)            109.0793         estimate D2E/DX2                !
 ! A8    A(2,3,4)              119.3229         estimate D2E/DX2                !
 ! A9    A(3,4,5)              116.4546         estimate D2E/DX2                !
 ! A10   A(3,4,11)             125.1979         estimate D2E/DX2                !
 ! A11   A(5,4,11)             118.3435         estimate D2E/DX2                !
 ! A12   A(4,5,6)              118.947          estimate D2E/DX2                !
 ! A13   A(4,5,10)             121.2313         estimate D2E/DX2                !
 ! A14   A(6,5,10)             119.8022         estimate D2E/DX2                !
 ! A15   A(5,6,7)              120.0537         estimate D2E/DX2                !
 ! A16   A(5,6,23)             120.3031         estimate D2E/DX2                !
 ! A17   A(7,6,23)             119.6433         estimate D2E/DX2                !
 ! A18   A(6,7,8)              120.0281         estimate D2E/DX2                !
 ! A19   A(6,7,24)             119.927          estimate D2E/DX2                !
 ! A20   A(8,7,24)             120.0436         estimate D2E/DX2                !
 ! A21   A(7,8,9)              120.0871         estimate D2E/DX2                !
 ! A22   A(7,8,25)             119.9302         estimate D2E/DX2                !
 ! A23   A(9,8,25)             119.9783         estimate D2E/DX2                !
 ! A24   A(8,9,10)             120.1174         estimate D2E/DX2                !
 ! A25   A(8,9,26)             119.851          estimate D2E/DX2                !
 ! A26   A(10,9,26)            120.0286         estimate D2E/DX2                !
 ! A27   A(5,10,9)             119.8923         estimate D2E/DX2                !
 ! A28   A(5,10,27)            121.1895         estimate D2E/DX2                !
 ! A29   A(9,10,27)            118.9099         estimate D2E/DX2                !
 ! A30   A(4,11,12)            117.9468         estimate D2E/DX2                !
 ! A31   A(4,11,17)            122.1258         estimate D2E/DX2                !
 ! A32   A(12,11,17)           119.6998         estimate D2E/DX2                !
 ! A33   A(11,12,13)           120.1108         estimate D2E/DX2                !
 ! A34   A(11,12,28)           120.6314         estimate D2E/DX2                !
 ! A35   A(13,12,28)           119.2459         estimate D2E/DX2                !
 ! A36   A(12,13,14)           119.8206         estimate D2E/DX2                !
 ! A37   A(12,13,15)           120.3654         estimate D2E/DX2                !
 ! A38   A(14,13,15)           119.8049         estimate D2E/DX2                !
 ! A39   A(13,15,16)           119.7691         estimate D2E/DX2                !
 ! A40   A(13,15,29)           120.4263         estimate D2E/DX2                !
 ! A41   A(16,15,29)           119.8            estimate D2E/DX2                !
 ! A42   A(15,16,17)           120.6132         estimate D2E/DX2                !
 ! A43   A(15,16,30)           118.5603         estimate D2E/DX2                !
 ! A44   A(17,16,30)           120.7781         estimate D2E/DX2                !
 ! A45   A(11,17,16)           119.2438         estimate D2E/DX2                !
 ! A46   A(11,17,18)           124.5145         estimate D2E/DX2                !
 ! A47   A(16,17,18)           116.2401         estimate D2E/DX2                !
 ! A48   A(17,18,19)           127.0075         estimate D2E/DX2                !
 ! A49   A(17,18,31)           119.5914         estimate D2E/DX2                !
 ! A50   A(19,18,31)           113.2082         estimate D2E/DX2                !
 ! A51   A(2,19,18)            117.4676         estimate D2E/DX2                !
 ! A52   A(2,19,20)            123.2724         estimate D2E/DX2                !
 ! A53   A(18,19,20)           119.1543         estimate D2E/DX2                !
 ! D1    D(21,1,2,3)            58.254          estimate D2E/DX2                !
 ! D2    D(21,1,2,19)          -62.2709         estimate D2E/DX2                !
 ! D3    D(21,1,2,22)          179.8924         estimate D2E/DX2                !
 ! D4    D(1,2,3,4)            168.6438         estimate D2E/DX2                !
 ! D5    D(19,2,3,4)           -69.4168         estimate D2E/DX2                !
 ! D6    D(22,2,3,4)            50.3934         estimate D2E/DX2                !
 ! D7    D(1,2,19,18)         -164.6603         estimate D2E/DX2                !
 ! D8    D(1,2,19,20)           11.5631         estimate D2E/DX2                !
 ! D9    D(3,2,19,18)           72.3661         estimate D2E/DX2                !
 ! D10   D(3,2,19,20)         -111.4105         estimate D2E/DX2                !
 ! D11   D(22,2,19,18)         -48.9409         estimate D2E/DX2                !
 ! D12   D(22,2,19,20)         127.2825         estimate D2E/DX2                !
 ! D13   D(2,3,4,5)            179.5926         estimate D2E/DX2                !
 ! D14   D(2,3,4,11)             0.3372         estimate D2E/DX2                !
 ! D15   D(3,4,5,6)             39.2392         estimate D2E/DX2                !
 ! D16   D(3,4,5,10)          -139.1494         estimate D2E/DX2                !
 ! D17   D(11,4,5,6)          -141.452          estimate D2E/DX2                !
 ! D18   D(11,4,5,10)           40.1594         estimate D2E/DX2                !
 ! D19   D(3,4,11,12)         -139.4874         estimate D2E/DX2                !
 ! D20   D(3,4,11,17)           46.0151         estimate D2E/DX2                !
 ! D21   D(5,4,11,12)           41.2699         estimate D2E/DX2                !
 ! D22   D(5,4,11,17)         -133.2276         estimate D2E/DX2                !
 ! D23   D(4,5,6,7)           -179.9466         estimate D2E/DX2                !
 ! D24   D(4,5,6,23)             0.0386         estimate D2E/DX2                !
 ! D25   D(10,5,6,7)            -1.5345         estimate D2E/DX2                !
 ! D26   D(10,5,6,23)          178.4507         estimate D2E/DX2                !
 ! D27   D(4,5,10,9)           179.9154         estimate D2E/DX2                !
 ! D28   D(4,5,10,27)            0.9705         estimate D2E/DX2                !
 ! D29   D(6,5,10,9)             1.5404         estimate D2E/DX2                !
 ! D30   D(6,5,10,27)         -177.4045         estimate D2E/DX2                !
 ! D31   D(5,6,7,8)              0.5566         estimate D2E/DX2                !
 ! D32   D(5,6,7,24)          -179.8607         estimate D2E/DX2                !
 ! D33   D(23,6,7,8)          -179.4287         estimate D2E/DX2                !
 ! D34   D(23,6,7,24)            0.154          estimate D2E/DX2                !
 ! D35   D(6,7,8,9)              0.4186         estimate D2E/DX2                !
 ! D36   D(6,7,8,25)           179.657          estimate D2E/DX2                !
 ! D37   D(24,7,8,9)          -179.1637         estimate D2E/DX2                !
 ! D38   D(24,7,8,25)            0.0748         estimate D2E/DX2                !
 ! D39   D(7,8,9,10)            -0.4105         estimate D2E/DX2                !
 ! D40   D(7,8,9,26)           178.9571         estimate D2E/DX2                !
 ! D41   D(25,8,9,10)         -179.6486         estimate D2E/DX2                !
 ! D42   D(25,8,9,26)           -0.281          estimate D2E/DX2                !
 ! D43   D(8,9,10,5)            -0.5714         estimate D2E/DX2                !
 ! D44   D(8,9,10,27)          178.3975         estimate D2E/DX2                !
 ! D45   D(26,9,10,5)         -179.9378         estimate D2E/DX2                !
 ! D46   D(26,9,10,27)          -0.9689         estimate D2E/DX2                !
 ! D47   D(4,11,12,13)        -171.4636         estimate D2E/DX2                !
 ! D48   D(4,11,12,28)           7.2738         estimate D2E/DX2                !
 ! D49   D(17,11,12,13)          3.1721         estimate D2E/DX2                !
 ! D50   D(17,11,12,28)       -178.0905         estimate D2E/DX2                !
 ! D51   D(4,11,17,16)         169.0354         estimate D2E/DX2                !
 ! D52   D(4,11,17,18)         -10.4891         estimate D2E/DX2                !
 ! D53   D(12,11,17,16)         -5.3684         estimate D2E/DX2                !
 ! D54   D(12,11,17,18)        175.1071         estimate D2E/DX2                !
 ! D55   D(11,12,13,14)        179.2461         estimate D2E/DX2                !
 ! D56   D(11,12,13,15)          0.3466         estimate D2E/DX2                !
 ! D57   D(28,12,13,14)          0.4912         estimate D2E/DX2                !
 ! D58   D(28,12,13,15)       -178.4083         estimate D2E/DX2                !
 ! D59   D(12,13,15,16)         -1.6175         estimate D2E/DX2                !
 ! D60   D(12,13,15,29)        179.1694         estimate D2E/DX2                !
 ! D61   D(14,13,15,16)        179.4827         estimate D2E/DX2                !
 ! D62   D(14,13,15,29)          0.2697         estimate D2E/DX2                !
 ! D63   D(13,15,16,17)         -0.6494         estimate D2E/DX2                !
 ! D64   D(13,15,16,30)       -178.1387         estimate D2E/DX2                !
 ! D65   D(29,15,16,17)        178.5687         estimate D2E/DX2                !
 ! D66   D(29,15,16,30)          1.0793         estimate D2E/DX2                !
 ! D67   D(15,16,17,11)          4.1378         estimate D2E/DX2                !
 ! D68   D(15,16,17,18)       -176.299          estimate D2E/DX2                !
 ! D69   D(30,16,17,11)       -178.4289         estimate D2E/DX2                !
 ! D70   D(30,16,17,18)          1.1344         estimate D2E/DX2                !
 ! D71   D(11,17,18,19)        -25.7818         estimate D2E/DX2                !
 ! D72   D(11,17,18,31)        159.6273         estimate D2E/DX2                !
 ! D73   D(16,17,18,19)        154.6807         estimate D2E/DX2                !
 ! D74   D(16,17,18,31)        -19.9102         estimate D2E/DX2                !
 ! D75   D(17,18,19,2)          -8.7963         estimate D2E/DX2                !
 ! D76   D(17,18,19,20)        174.8191         estimate D2E/DX2                !
 ! D77   D(31,18,19,2)         166.0868         estimate D2E/DX2                !
 ! D78   D(31,18,19,20)        -10.2978         estimate D2E/DX2                !
 --------------------------------------------------------------------------------
 Trust Radius=1.00D-01 FncErr=1.00D-07 GrdErr=1.00D-06 EigMax=2.50D+02 EigMin=1.00D-04
 Number of steps in this run=    186 maximum allowed number of steps=    186.
 GradGradGradGradGradGradGradGradGradGradGradGradGradGradGradGradGradGrad

 Leave Link  103 at Tue Mar  1 07:10:13 2022, MaxMem=   104857600 cpu:               0.0 elap:               0.0
 (Enter /dades/curu/g16A03_MST/g16/l202.exe)
                          Input orientation:                          
 ---------------------------------------------------------------------
 Center     Atomic      Atomic             Coordinates (Angstroms)
 Number     Number       Type             X           Y           Z
 ---------------------------------------------------------------------
      1          8           0       -1.774000   -2.897000   -2.357000
      2          6           0       -1.613000   -1.804000   -1.468000
      3          7           0       -0.221000   -1.591000   -1.108000
      4          6           0        0.113000   -0.510000   -0.489000
      5          6           0        1.562000   -0.361000   -0.141000
      6          6           0        2.527000   -0.785000   -1.062000
      7          6           0        3.884000   -0.658000   -0.761000
      8          6           0        4.280000   -0.119000    0.463000
      9          6           0        3.321000    0.286000    1.392000
     10          6           0        1.962000    0.161000    1.096000
     11          6           0       -0.831000    0.581000   -0.086000
     12          6           0       -0.405000    1.911000   -0.241000
     13          6           0       -1.167000    2.954000    0.280000
     14         17           0       -0.629000    4.577000    0.103000
     15          6           0       -2.350000    2.688000    0.963000
     16          6           0       -2.792000    1.370000    1.097000
     17          6           0       -2.062000    0.312000    0.538000
     18          7           0       -2.630000   -0.965000    0.658000
     19          6           0       -2.415000   -2.045000   -0.161000
     20          8           0       -2.917000   -3.132000    0.134000
     21          1           0       -1.394000   -3.648000   -1.867000
     22          1           0       -2.030000   -0.935000   -1.989000
     23          1           0        2.225000   -1.215000   -2.015000
     24          1           0        4.632000   -0.986000   -1.479000
     25          1           0        5.337000   -0.026000    0.698000
     26          1           0        3.634000    0.690000    2.352000
     27          1           0        1.232000    0.458000    1.844000
     28          1           0        0.530000    2.138000   -0.749000
     29          1           0       -2.939000    3.501000    1.382000
     30          1           0       -3.735000    1.187000    1.608000
     31          1           0       -3.335000   -1.134000    1.364000
 ---------------------------------------------------------------------
                    Distance matrix (angstroms):
                    1          2          3          4          5
     1  O    0.000000
     2  C    1.418059   0.000000
     3  N    2.382739   1.453490   0.000000
     4  C    3.570429   2.368956   1.289681   0.000000
     5  C    4.740343   3.731461   2.372146   1.497633   0.000000
     6  C    4.963484   4.282849   2.864133   2.496267   1.399729
     7  C    6.290731   5.659521   4.223970   3.783693   2.421630
     8  C    7.233298   6.426152   4.989371   4.292211   2.794799
     9  C    7.081350   6.073883   4.724288   3.803031   2.421318
    10  C    5.935678   4.818293   3.562669   2.526117   1.400947
    11  C    4.259480   2.865253   2.476725   1.497941   2.572322
    12  C    5.428488   4.094633   3.612416   2.488186   3.006838
    13  C    6.446427   5.088515   4.845460   3.772142   4.314384
    14  Cl   7.951308   6.644807   6.298985   5.174804   5.407759
    15  C    6.522760   5.160523   5.208793   4.289741   5.081236
    16  C    5.583344   4.247769   4.498843   3.806418   4.846269
    17  C    4.331472   2.950101   3.117692   2.541857   3.747979
    18  N    3.681791   2.501617   3.051870   3.007770   4.309998
    19  C    2.441147   1.552267   2.432398   2.975667   4.318887
    20  O    2.750774   2.455688   3.344497   4.055109   5.274041
    21  H    0.973910   1.899341   2.486616   3.743925   4.745670
    22  H    2.012562   1.095669   2.116360   2.650108   4.080079
    23  H    4.351791   3.921272   2.635705   2.699305   2.163507
    24  H    6.742377   6.298355   4.904618   4.650595   3.406724
    25  H    8.254816   7.493687   6.049977   5.378978   3.881594
    26  H    8.017962   6.952945   5.659999   4.680675   3.407761
    27  H    6.159583   4.917318   3.876069   2.762621   2.172530
    28  H    5.765874   4.544092   3.820775   2.693212   2.771225
    29  H    7.501450   6.166344   6.286182   5.376194   6.123200
    30  H    6.020449   4.786517   5.238524   4.699396   5.789086
    31  H    4.403491   3.381480   4.002078   3.963797   5.181039
                    6          7          8          9         10
     6  C    0.000000
     7  C    1.395772   0.000000
     8  C    2.417062   1.394816   0.000000
     9  C    2.792775   2.417336   1.395259   0.000000
    10  C    2.423036   2.795227   2.419135   1.396468   0.000000
    11  C    3.754290   4.921582   5.187844   4.417082   3.061760
    12  C    4.066827   5.026498   5.154196   4.380684   3.233073
    13  C    5.424640   6.296255   6.256727   5.338250   4.272862
    14  Cl   6.329977   6.965550   6.802962   5.972998   5.215399
    15  C    6.320402   7.282214   7.217073   6.173644   4.999676
    16  C    6.131645   7.220383   7.254810   6.215372   4.905323
    17  C    4.982201   6.163053   6.357071   5.450384   4.065309
    18  N    5.439251   6.673830   6.964326   6.125207   4.748282
    19  C    5.179070   6.477744   6.994418   6.383343   5.060100
    20  O    6.047806   7.292140   7.809175   7.223429   5.964389
    21  H    4.921284   6.166086   7.076512   6.951882   5.877975
    22  H    4.652750   6.046496   6.818670   6.446333   5.162800
    23  H    1.088261   2.152916   3.400695   3.880962   3.411871
    24  H    2.155299   1.087480   2.155680   3.402844   3.882671
    25  H    3.401438   2.153907   1.086795   2.154817   3.403527
    26  H    3.880267   3.401525   2.154093   1.087559   2.157072
    27  H    3.415686   3.881312   3.395643   2.144250   1.086560
    28  H    3.553858   4.366586   4.541530   3.975357   3.059931
    29  H    7.363429   8.273032   8.127910   7.037324   5.937777
    30  H    7.087336   8.189344   8.201030   7.116572   5.811250
    31  H    6.353764   7.540303   7.735002   6.805845   5.459584
                   11         12         13         14         15
    11  C    0.000000
    12  C    1.405134   0.000000
    13  C    2.424455   1.392815   0.000000
    14  Cl   4.005564   2.697419   1.718983   0.000000
    15  C    2.801287   2.415858   1.391666   2.696250   0.000000
    16  C    2.422299   2.789390   2.411881   3.993927   1.396583
    17  C    1.406093   2.430903   2.801384   4.520281   2.430832
    18  N    2.485971   3.745691   4.200216   5.918259   3.676389
    19  C    3.067663   4.438067   5.171265   6.863700   4.865068
    20  O    4.264524   5.646470   6.334289   8.041429   5.906025
    21  H    4.623134   5.875753   6.946045   8.492158   7.004836
    22  H    2.712428   3.714276   4.584479   6.059819   4.684318
    23  H    4.035566   4.453746   5.844078   6.795477   6.710627
    24  H    5.851522   5.941096   7.228145   7.818428   8.258932
    25  H    6.247186   6.132231   7.166390   7.558756   8.156347
    26  H    5.088413   4.952576   5.698112   6.191925   6.459844
    27  H    2.827720   3.022946   3.798857   4.843611   4.310427
    28  H    2.171667   1.088034   2.145811   2.831591   3.395268
    29  H    3.889099   3.403437   2.157220   2.851266   1.087865
    30  H    3.416151   3.877096   3.388288   4.837805   2.141787
    31  H    3.363590   4.520282   4.752581   6.444228   3.967204
                   16         17         18         19         20
    16  C    0.000000
    17  C    1.401694   0.000000
    18  N    2.381426   1.402766   0.000000
    19  C    3.658814   2.483679   1.372365   0.000000
    20  O    4.605540   3.571467   2.247851   1.233125   0.000000
    21  H    5.993332   4.681009   3.886105   2.553916   2.567058
    22  H    3.926457   2.818113   2.714316   2.172995   3.181306
    23  H    6.444925   5.218037   5.547833   5.065157   5.893493
    24  H    8.203797   7.110747   7.569931   7.246987   8.012146
    25  H    8.257642   7.408444   8.022245   8.056534   8.837072
    26  H    6.582621   5.989816   6.696742   7.098295   7.902076
    27  H    4.193129   3.546461   4.283290   4.856505   5.746860
    28  H    3.877270   3.421858   4.646919   5.149394   6.358805
    29  H    2.154993   3.413383   4.534844   5.780445   6.749420
    30  H    1.088053   2.170128   2.598967   3.913769   4.636331
    31  H    2.576073   2.096120   1.011940   2.000486   2.383197
                   21         22         23         24         25
    21  H    0.000000
    22  H    2.789220   0.000000
    23  H    4.363319   4.264282   0.000000
    24  H    6.599202   6.681687   2.476567   0.000000
    25  H    8.062535   7.894235   4.296351   2.481523   0.000000
    26  H    7.867591   7.318866   4.968400   4.299016   2.479633
    27  H    6.125899   5.222354   4.321673   4.968648   4.289359
    28  H    6.199153   4.187425   3.964642   5.207560   5.466622
    29  H    8.003201   5.645177   7.774777   9.254109   9.022182
    30  H    6.397901   4.510911   7.376810   9.179226   9.197861
    31  H    4.530677   3.603503   6.506750   8.460357   8.767828
                   26         27         28         29         30
    26  H    0.000000
    27  H    2.466068   0.000000
    28  H    4.620359   3.168415   0.000000
    29  H    7.214357   5.183680   4.293354   0.000000
    30  H    7.423120   5.025756   4.964884   2.457496   0.000000
    31  H    7.271182   4.860283   5.487165   4.651921   2.367821
                   31
    31  H    0.000000
 Stoichiometry    C15H11ClN2O2
 Framework group  C1[X(C15H11ClN2O2)]
 Deg. of freedom    87
 Full point group                 C1      NOp   1
 Largest Abelian subgroup         C1      NOp   1
 Largest concise Abelian subgroup C1      NOp   1
                         Standard orientation:                         
 ---------------------------------------------------------------------
 Center     Atomic      Atomic             Coordinates (Angstroms)
 Number     Number       Type             X           Y           Z
 ---------------------------------------------------------------------
      1          8           0        3.816393    0.704359   -1.517318
      2          6           0        2.669039    0.144553   -0.899996
      3          7           0        1.662495    1.149535   -0.600810
      4          6           0        0.481423    0.773902   -0.244095
      5          6           0       -0.502069    1.862253    0.057806
      6          6           0       -0.511330    3.008821   -0.745024
      7          6           0       -1.417422    4.037843   -0.483699
      8          6           0       -2.307068    3.929817    0.585119
      9          6           0       -2.287172    2.797450    1.400040
     10          6           0       -1.382563    1.765072    1.143135
     11          6           0        0.035368   -0.648519   -0.097197
     12          6           0       -1.251077   -0.985451   -0.551000
     13          6           0       -1.780564   -2.244587   -0.278688
     14         17           0       -3.362702   -2.642069   -0.820674
     15          6           0       -1.044774   -3.174714    0.449467
     16          6           0        0.244704   -2.854996    0.880130
     17          6           0        0.811224   -1.609902    0.574285
     18          7           0        2.139222   -1.415705    0.982283
     19          6           0        3.056125   -0.557251    0.429354
     20          8           0        4.159890   -0.431115    0.964508
     21          1           0        4.125150    1.363720   -0.870470
     22          1           0        2.290520   -0.605086   -1.603740
     23          1           0        0.186282    3.103748   -1.574868
     24          1           0       -1.424349    4.926736   -1.110144
     25          1           0       -3.008130    4.734451    0.790545
     26          1           0       -2.971008    2.724774    2.242578
     27          1           0       -1.366027    0.904129    1.805794
     28          1           0       -1.852330   -0.263196   -1.099325
     29          1           0       -1.462687   -4.153623    0.674273
     30          1           0        0.813982   -3.607859    1.421406
     31          1           0        2.529170   -2.001137    1.709766
 ---------------------------------------------------------------------
 Rotational constants (GHZ):           0.3165953           0.2911339           0.1726034
 Leave Link  202 at Tue Mar  1 07:10:13 2022, MaxMem=   104857600 cpu:               0.0 elap:               0.0
 (Enter /dades/curu/g16A03_MST/g16/l301.exe)
 Standard basis: 6-31G(d) (6D, 7F)
 Ernie: Thresh=  0.10000D-02 Tol=  0.10000D-05 Strict=F.
 There are   326 symmetry adapted cartesian basis functions of A   symmetry.
 There are   326 symmetry adapted basis functions of A   symmetry.
   326 basis functions,   628 primitive gaussians,   326 cartesian basis functions
    74 alpha electrons       74 beta electrons
       nuclear repulsion energy      1575.7878246140 Hartrees.
 IExCor=  402 DFT=T Ex+Corr=B3LYP ExCW=0 ScaHFX=  0.200000
 ScaDFX=  0.800000  0.720000  1.000000  0.810000 ScalE2=  1.000000  1.000000
 IRadAn=      5 IRanWt=     -1 IRanGd=            0 ICorTp=0 IEmpDi=  4
 NAtoms=   31 NActive=   31 NUniq=   31 SFac= 1.00D+00 NAtFMM=   60 NAOKFM=F Big=F
 Integral buffers will be    131072 words long.
 Raffenetti 2 integral format.
 Two-electron integral symmetry is turned on.
 Using the following non-standard input for PCM:
 MSTModel=DFT cav
 --- end of non-standard input.
 MST model for solvation energy: B3LYP parametrization.
 MST cavity parameters:
 ISph   IAn     Re0     Alpha   Atom Type   QCorr
 ------------------------------------------------
   1      8     1.40     1.25      OH         F
   2      6     1.50     1.25      CH         F
   3      7     1.40     1.25      N          F
   4      6     1.50     1.25      C          F
   5      6     1.50     1.25      C          F
   6      6     1.50     1.25      CH         F
   7      6     1.50     1.25      CH         F
   8      6     1.50     1.25      CH         F
   9      6     1.50     1.25      CH         F
  10      6     1.50     1.25      CH         F
  11      6     1.50     1.25      C          F
  12      6     1.50     1.25      CH         F
  13      6     1.50     1.25      C          F
  14     17     1.80     1.25      Cl         F
  15      6     1.50     1.25      CH         F
  16      6     1.50     1.25      CH         F
  17      6     1.50     1.25      C          F
  18      7     1.40     1.25      NH         F
  19      6     1.50     1.25      C          F
  20      8     1.40     1.25      O          F
  21      1     0.90     1.25      OH         F
  22      1     1.20     1.25      CH         F
  23      1     1.20     1.25      CH         F
  24      1     1.20     1.25      CH         F
  25      1     1.20     1.25      CH         F
  26      1     1.20     1.25      CH         F
  27      1     1.20     1.25      CH         F
  28      1     1.20     1.25      CH         F
  29      1     1.20     1.25      CH         F
  30      1     1.20     1.25      CH         F
  31      1     0.90     1.25      NH         F
 ------------------------------------------------------------------------------
 Polarizable Continuum Model (PCM)
 =================================
 Model                : PCM.
 Atomic radii         : MST.
 Polarization charges : Total charges.
 Charge compensation  : None.
 Solution method      : On-the-fly selection.
 Cavity type          : Scaled VdW (van der Waals Surface) (Alpha=1.250).
 Cavity algorithm     : GePol (No added spheres)
                        Default sphere list used, NSphG=   31.
                        Lebedev-Laikov grids with approx.  5.0 points / Ang**2.
                        Smoothing algorithm: York/Karplus (Gamma=1.0000).
                        Polarization charges: spherical gaussians, with
                                              point-specific exponents (IZeta= 3).
                        Self-potential: point-specific (ISelfS= 7).
                        Self-field    : sphere-specific E.n sum rule (ISelfD= 2).
 1st derivatives      : Analytical E(r).r(x)/FMM algorithm (CHGder, D1EAlg=3).
                        Cavity 1st derivative terms included.
 Solvent              : Water, Eps=  78.355300 Eps(inf)=   1.777849
 ------------------------------------------------------------------------------
 GePol: Number of generator spheres                  =      31
 GePol: Total number of spheres                      =      31
 GePol: Number of exposed spheres                    =      31 (100.00%)
 GePol: Number of points                             =    2488
 GePol: Average weight of points                     =       0.13
 GePol: Minimum weight of points                     =   0.21D-10
 GePol: Maximum weight of points                     =    0.22001
 GePol: Number of points with low weight             =     135
 GePol: Fraction of low-weight points (<1% of avg)   =       5.43%
 GePol: Cavity surface area                          =    321.368 Ang**2
 GePol: Cavity volume                                =    312.249 Ang**3
 Surface areas from nonelectrostatic (unscaled) cavity and vdw tensions:
 Sphere =    1 Type =  OH  Surf =       14.430 Tension =       -0.156
 Sphere =    2 Type =  CH  Surf =        3.479 Tension =       -0.140
 Sphere =    3 Type =  N   Surf =        9.978 Tension =       -0.105
 Sphere =    4 Type =  C   Surf =        6.637 Tension =       -0.101
 Sphere =    5 Type =  C   Surf =        6.211 Tension =       -0.101
 Sphere =    6 Type =  CH  Surf =        7.696 Tension =       -0.140
 Sphere =    7 Type =  CH  Surf =        7.799 Tension =       -0.140
 Sphere =    8 Type =  CH  Surf =        7.796 Tension =       -0.140
 Sphere =    9 Type =  CH  Surf =        7.795 Tension =       -0.140
 Sphere =   10 Type =  CH  Surf =        7.768 Tension =       -0.140
 Sphere =   11 Type =  C   Surf =        6.075 Tension =       -0.101
 Sphere =   12 Type =  CH  Surf =        7.440 Tension =       -0.140
 Sphere =   13 Type =  C   Surf =        5.222 Tension =       -0.101
 Sphere =   14 Type =  Cl  Surf =       32.269 Tension =       -0.112
 Sphere =   15 Type =  CH  Surf =        7.532 Tension =       -0.140
 Sphere =   16 Type =  CH  Surf =        7.728 Tension =       -0.140
 Sphere =   17 Type =  C   Surf =        6.699 Tension =       -0.101
 Sphere =   18 Type =  NH  Surf =        7.399 Tension =       -0.159
 Sphere =   19 Type =  C   Surf =        7.227 Tension =       -0.101
 Sphere =   20 Type =  O   Surf =       16.484 Tension =       -0.117
 Sphere =   21 Type =  OH  Surf =        4.419 Tension =       -0.156
 Sphere =   22 Type =  CH  Surf =        9.946 Tension =       -0.140
 Sphere =   23 Type =  CH  Surf =       10.193 Tension =       -0.140
 Sphere =   24 Type =  CH  Surf =       10.243 Tension =       -0.140
 Sphere =   25 Type =  CH  Surf =       10.238 Tension =       -0.140
 Sphere =   26 Type =  CH  Surf =       10.241 Tension =       -0.140
 Sphere =   27 Type =  CH  Surf =       10.235 Tension =       -0.140
 Sphere =   28 Type =  CH  Surf =       10.044 Tension =       -0.140
 Sphere =   29 Type =  CH  Surf =       10.106 Tension =       -0.140
 Sphere =   30 Type =  CH  Surf =       10.226 Tension =       -0.140
 Sphere =   31 Type =  NH  Surf =        4.708 Tension =       -0.159
 PCM non-electrostatic energy =         0.0031106369 Hartrees.
 Nuclear repulsion after PCM non-electrostatic terms =     1575.7909352509 Hartrees.
 Leave Link  301 at Tue Mar  1 07:10:13 2022, MaxMem=   104857600 cpu:               0.1 elap:               0.1
 (Enter /dades/curu/g16A03_MST/g16/l302.exe)
 NPDir=0 NMtPBC=     1 NCelOv=     1 NCel=       1 NClECP=     1 NCelD=      1
         NCelK=      1 NCelE2=     1 NClLst=     1 CellRange=     0.0.
 One-electron integrals computed using PRISM.
 One-electron integral symmetry used in STVInt
 NBasis=   326 RedAO= T EigKep=  3.70D-04  NBF=   326
 NBsUse=   326 1.00D-06 EigRej= -1.00D+00 NBFU=   326
 Precomputing XC quadrature grid using
 IXCGrd= 4 IRadAn=           5 IRanWt=          -1 IRanGd=           0 AccXCQ= 0.00D+00.
 Generated NRdTot=       0 NPtTot=           0 NUsed=           0 NTot=          32
 NSgBfM=   324   324   324   324   324 MxSgAt=    31 MxSgA2=    31.
 Leave Link  302 at Tue Mar  1 07:10:14 2022, MaxMem=   104857600 cpu:               3.6 elap:               1.0
 (Enter /dades/curu/g16A03_MST/g16/l303.exe)
 DipDrv:  MaxL=1.
 Leave Link  303 at Tue Mar  1 07:10:14 2022, MaxMem=   104857600 cpu:               0.1 elap:               0.1
 (Enter /dades/curu/g16A03_MST/g16/l401.exe)
 ExpMin= 1.43D-01 ExpMax= 2.52D+04 ExpMxC= 3.78D+03 IAcc=3 IRadAn=         5 AccDes= 0.00D+00
 Harris functional with IExCor=  402 and IRadAn=       5 diagonalized for initial guess.
 HarFok:  IExCor=  402 AccDes= 0.00D+00 IRadAn=         5 IDoV= 1 UseB2=F ITyADJ=14
 ICtDFT=  3500011 ScaDFX=  1.000000  1.000000  1.000000  1.000000
 FoFCou: FMM=F IPFlag=           0 FMFlag=      100000 FMFlg1=           0
         NFxFlg=           0 DoJE=T BraDBF=F KetDBF=T FulRan=T
         wScrn=  0.000000 ICntrl=       500 IOpCl=  0 I1Cent=   200000004 NGrid=           0
         NMat0=    1 NMatS0=      1 NMatT0=    0 NMatD0=    1 NMtDS0=    0 NMtDT0=    0
 Petite list used in FoFCou.
 Harris En= -1298.26690664120    
 JPrj=0 DoOrth=F DoCkMO=F.
 Leave Link  401 at Tue Mar  1 07:10:22 2022, MaxMem=   104857600 cpu:              31.6 elap:               8.0
 (Enter /dades/curu/g16A03_MST/g16/l502.exe)
 Integral symmetry usage will be decided dynamically.
 Closed shell SCF:
 Using DIIS extrapolation, IDIIS=  1040.
 NGot=   104857600 LenX=   104639574 LenY=   104532857
 Requested convergence on RMS density matrix=1.00D-08 within2000 cycles.
 Requested convergence on MAX density matrix=1.00D-06.
 Requested convergence on             energy=1.00D-06.
 No special actions if energy rises.

 Cycle   1  Pass 1  IDiag  1:
 FoFJK:  IHMeth= 1 ICntrl=       0 DoSepK=F KAlg= 0 I1Cent=           0 FoldK=F
 IRaf= 810000000 NMat=       1 IRICut=       1 DoRegI=T DoRafI=F ISym2E= 0 IDoP0=0 IntGTp=1.
 FoFCou: FMM=F IPFlag=           0 FMFlag=      100000 FMFlg1=           0
         NFxFlg=           0 DoJE=F BraDBF=F KetDBF=F FulRan=T
         wScrn=  0.000000 ICntrl=         0 IOpCl=  0 I1Cent=           0 NGrid=           0
         NMat0=    1 NMatS0=      1 NMatT0=    0 NMatD0=    1 NMtDS0=    0 NMtDT0=    0
 Symmetry not used in FoFCou.
 Inv3:  Mode=1 IEnd=    18570432.
 Iteration    1 A*A^-1 deviation from unit magnitude is 6.22D-15 for   2484.
 Iteration    1 A*A^-1 deviation from orthogonality  is 2.56D-15 for   1082     68.
 Iteration    1 A^-1*A deviation from unit magnitude is 6.66D-15 for   2484.
 Iteration    1 A^-1*A deviation from orthogonality  is 1.40D-14 for   2488   1880.
 E= -1297.98560999018    
 DIIS: error= 2.54D-02 at cycle   1 NSaved=   1.
 NSaved= 1 IEnMin= 1 EnMin= -1297.98560999018     IErMin= 1 ErrMin= 2.54D-02
 ErrMax= 2.54D-02  0.00D+00 EMaxC= 1.00D-01 BMatC= 4.33D-01 BMatP= 4.33D-01
 IDIUse=3 WtCom= 7.46D-01 WtEn= 2.54D-01
 Coeff-Com:  0.100D+01
 Coeff-En:   0.100D+01
 Coeff:      0.100D+01
 Gap=     0.266 Goal=   None    Shift=    0.000
 GapD=    0.266 DampG=1.000 DampE=0.500 DampFc=0.5000 IDamp=-1.
 Damping current iteration by 5.00D-01
 RMSDP=4.64D-03 MaxDP=1.95D-01              OVMax= 2.06D-01

 Cycle   2  Pass 1  IDiag  1:
 E= -1298.13284247286     Delta-E=       -0.147232482680 Rises=F Damp=T
 DIIS: error= 8.24D-03 at cycle   2 NSaved=   2.
 NSaved= 2 IEnMin= 2 EnMin= -1298.13284247286     IErMin= 2 ErrMin= 8.24D-03
 ErrMax= 8.24D-03  0.00D+00 EMaxC= 1.00D-01 BMatC= 5.22D-02 BMatP= 4.33D-01
 IDIUse=3 WtCom= 9.18D-01 WtEn= 8.24D-02
 Coeff-Com:  0.147D+00 0.853D+00
 Coeff-En:   0.227D+00 0.773D+00
 Coeff:      0.154D+00 0.846D+00
 Gap=     0.244 Goal=   None    Shift=    0.000
 RMSDP=1.46D-03 MaxDP=8.23D-02 DE=-1.47D-01 OVMax= 1.42D-01

 Cycle   3  Pass 1  IDiag  1:
 E= -1298.33877125804     Delta-E=       -0.205928785183 Rises=F Damp=F
 DIIS: error= 8.44D-03 at cycle   3 NSaved=   3.
 NSaved= 3 IEnMin= 3 EnMin= -1298.33877125804     IErMin= 2 ErrMin= 8.24D-03
 ErrMax= 8.44D-03  0.00D+00 EMaxC= 1.00D-01 BMatC= 5.28D-02 BMatP= 5.22D-02
 IDIUse=3 WtCom= 9.16D-01 WtEn= 8.44D-02
 Coeff-Com:  0.836D-02 0.500D+00 0.491D+00
 Coeff-En:   0.000D+00 0.000D+00 0.100D+01
 Coeff:      0.766D-02 0.458D+00 0.534D+00
 Gap=     0.172 Goal=   None    Shift=    0.000
 RMSDP=8.96D-04 MaxDP=5.60D-02 DE=-2.06D-01 OVMax= 6.78D-02

 Cycle   4  Pass 1  IDiag  1:
 E= -1298.37616166755     Delta-E=       -0.037390409512 Rises=F Damp=F
 DIIS: error= 3.33D-03 at cycle   4 NSaved=   4.
 NSaved= 4 IEnMin= 4 EnMin= -1298.37616166755     IErMin= 4 ErrMin= 3.33D-03
 ErrMax= 3.33D-03  0.00D+00 EMaxC= 1.00D-01 BMatC= 8.70D-03 BMatP= 5.22D-02
 IDIUse=3 WtCom= 9.67D-01 WtEn= 3.33D-02
 Coeff-Com: -0.103D-01 0.112D+00 0.311D+00 0.587D+00
 Coeff-En:   0.000D+00 0.000D+00 0.152D+00 0.848D+00
 Coeff:     -0.100D-01 0.108D+00 0.306D+00 0.596D+00
 Gap=     0.169 Goal=   None    Shift=    0.000
 RMSDP=3.10D-04 MaxDP=1.93D-02 DE=-3.74D-02 OVMax= 2.94D-02

 Cycle   5  Pass 1  IDiag  1:
 E= -1298.38275486844     Delta-E=       -0.006593200883 Rises=F Damp=F
 DIIS: error= 7.14D-04 at cycle   5 NSaved=   5.
 NSaved= 5 IEnMin= 5 EnMin= -1298.38275486844     IErMin= 5 ErrMin= 7.14D-04
 ErrMax= 7.14D-04  0.00D+00 EMaxC= 1.00D-01 BMatC= 6.62D-04 BMatP= 8.70D-03
 IDIUse=3 WtCom= 9.93D-01 WtEn= 7.14D-03
 Coeff-Com: -0.555D-02 0.181D-01 0.124D+00 0.333D+00 0.531D+00
 Coeff-En:   0.000D+00 0.000D+00 0.000D+00 0.000D+00 0.100D+01
 Coeff:     -0.551D-02 0.179D-01 0.123D+00 0.331D+00 0.534D+00
 Gap=     0.171 Goal=   None    Shift=    0.000
 RMSDP=9.08D-05 MaxDP=3.51D-03 DE=-6.59D-03 OVMax= 7.34D-03

 Cycle   6  Pass 1  IDiag  1:
 E= -1298.38331259058     Delta-E=       -0.000557722140 Rises=F Damp=F
 DIIS: error= 2.04D-04 at cycle   6 NSaved=   6.
 NSaved= 6 IEnMin= 6 EnMin= -1298.38331259058     IErMin= 6 ErrMin= 2.04D-04
 ErrMax= 2.04D-04  0.00D+00 EMaxC= 1.00D-01 BMatC= 3.31D-05 BMatP= 6.62D-04
 IDIUse=3 WtCom= 9.98D-01 WtEn= 2.04D-03
 Coeff-Com: -0.220D-02 0.307D-02 0.416D-01 0.125D+00 0.268D+00 0.564D+00
 Coeff-En:   0.000D+00 0.000D+00 0.000D+00 0.000D+00 0.000D+00 0.100D+01
 Coeff:     -0.219D-02 0.306D-02 0.415D-01 0.125D+00 0.268D+00 0.565D+00
 Gap=     0.170 Goal=   None    Shift=    0.000
 RMSDP=2.45D-05 MaxDP=1.24D-03 DE=-5.58D-04 OVMax= 1.79D-03

 Cycle   7  Pass 1  IDiag  1:
 E= -1298.38334039373     Delta-E=       -0.000027803153 Rises=F Damp=F
 DIIS: error= 9.47D-05 at cycle   7 NSaved=   7.
 NSaved= 7 IEnMin= 7 EnMin= -1298.38334039373     IErMin= 7 ErrMin= 9.47D-05
 ErrMax= 9.47D-05  0.00D+00 EMaxC= 1.00D-01 BMatC= 4.30D-06 BMatP= 3.31D-05
 IDIUse=1 WtCom= 1.00D+00 WtEn= 0.00D+00
 Coeff-Com: -0.768D-03 0.632D-04 0.127D-01 0.422D-01 0.109D+00 0.321D+00
 Coeff-Com:  0.516D+00
 Coeff:     -0.768D-03 0.632D-04 0.127D-01 0.422D-01 0.109D+00 0.321D+00
 Coeff:      0.516D+00
 Gap=     0.170 Goal=   None    Shift=    0.000
 RMSDP=8.14D-06 MaxDP=4.15D-04 DE=-2.78D-05 OVMax= 6.55D-04

 Cycle   8  Pass 1  IDiag  1:
 E= -1298.38334428403     Delta-E=       -0.000003890300 Rises=F Damp=F
 DIIS: error= 2.66D-05 at cycle   8 NSaved=   8.
 NSaved= 8 IEnMin= 8 EnMin= -1298.38334428403     IErMin= 8 ErrMin= 2.66D-05
 ErrMax= 2.66D-05  0.00D+00 EMaxC= 1.00D-01 BMatC= 4.84D-07 BMatP= 4.30D-06
 IDIUse=1 WtCom= 1.00D+00 WtEn= 0.00D+00
 Coeff-Com: -0.199D-03-0.278D-03 0.265D-02 0.995D-02 0.328D-01 0.120D+00
 Coeff-Com:  0.296D+00 0.540D+00
 Coeff:     -0.199D-03-0.278D-03 0.265D-02 0.995D-02 0.328D-01 0.120D+00
 Coeff:      0.296D+00 0.540D+00
 Gap=     0.170 Goal=   None    Shift=    0.000
 RMSDP=2.58D-06 MaxDP=1.75D-04 DE=-3.89D-06 OVMax= 2.23D-04

 Cycle   9  Pass 1  IDiag  1:
 E= -1298.38334468000     Delta-E=       -0.000000395969 Rises=F Damp=F
 DIIS: error= 7.24D-06 at cycle   9 NSaved=   9.
 NSaved= 9 IEnMin= 9 EnMin= -1298.38334468000     IErMin= 9 ErrMin= 7.24D-06
 ErrMax= 7.24D-06  0.00D+00 EMaxC= 1.00D-01 BMatC= 6.10D-08 BMatP= 4.84D-07
 IDIUse=1 WtCom= 1.00D+00 WtEn= 0.00D+00
 Coeff-Com:  0.617D-05-0.175D-03-0.353D-03-0.725D-03 0.240D-02 0.182D-01
 Coeff-Com:  0.869D-01 0.305D+00 0.589D+00
 Coeff:      0.617D-05-0.175D-03-0.353D-03-0.725D-03 0.240D-02 0.182D-01
 Coeff:      0.869D-01 0.305D+00 0.589D+00
 Gap=     0.170 Goal=   None    Shift=    0.000
 RMSDP=8.39D-07 MaxDP=5.44D-05 DE=-3.96D-07 OVMax= 8.29D-05

 Cycle  10  Pass 1  IDiag  1:
 E= -1298.38334473064     Delta-E=       -0.000000050640 Rises=F Damp=F
 DIIS: error= 1.76D-06 at cycle  10 NSaved=  10.
 NSaved=10 IEnMin=10 EnMin= -1298.38334473064     IErMin=10 ErrMin= 1.76D-06
 ErrMax= 1.76D-06  0.00D+00 EMaxC= 1.00D-01 BMatC= 4.43D-09 BMatP= 6.10D-08
 IDIUse=1 WtCom= 1.00D+00 WtEn= 0.00D+00
 Coeff-Com:  0.171D-04-0.663D-04-0.353D-03-0.109D-02-0.105D-02 0.104D-02
 Coeff-Com:  0.228D-01 0.118D+00 0.309D+00 0.551D+00
 Coeff:      0.171D-04-0.663D-04-0.353D-03-0.109D-02-0.105D-02 0.104D-02
 Coeff:      0.228D-01 0.118D+00 0.309D+00 0.551D+00
 Gap=     0.170 Goal=   None    Shift=    0.000
 RMSDP=2.75D-07 MaxDP=1.40D-05 DE=-5.06D-08 OVMax= 2.20D-05

 Cycle  11  Pass 1  IDiag  1:
 E= -1298.38334473477     Delta-E=       -0.000000004130 Rises=F Damp=F
 DIIS: error= 5.00D-07 at cycle  11 NSaved=  11.
 NSaved=11 IEnMin=11 EnMin= -1298.38334473477     IErMin=11 ErrMin= 5.00D-07
 ErrMax= 5.00D-07  0.00D+00 EMaxC= 1.00D-01 BMatC= 4.45D-10 BMatP= 4.43D-09
 IDIUse=1 WtCom= 1.00D+00 WtEn= 0.00D+00
 Coeff-Com:  0.854D-05-0.141D-04-0.144D-03-0.496D-03-0.860D-03-0.174D-02
 Coeff-Com:  0.417D-03 0.220D-01 0.891D-01 0.283D+00 0.609D+00
 Coeff:      0.854D-05-0.141D-04-0.144D-03-0.496D-03-0.860D-03-0.174D-02
 Coeff:      0.417D-03 0.220D-01 0.891D-01 0.283D+00 0.609D+00
 Gap=     0.170 Goal=   None    Shift=    0.000
 RMSDP=8.71D-08 MaxDP=3.17D-06 DE=-4.13D-09 OVMax= 9.42D-06

 Cycle  12  Pass 1  IDiag  1:
 E= -1298.38334473528     Delta-E=       -0.000000000511 Rises=F Damp=F
 DIIS: error= 2.33D-07 at cycle  12 NSaved=  12.
 NSaved=12 IEnMin=12 EnMin= -1298.38334473528     IErMin=12 ErrMin= 2.33D-07
 ErrMax= 2.33D-07  0.00D+00 EMaxC= 1.00D-01 BMatC= 3.83D-11 BMatP= 4.45D-10
 IDIUse=1 WtCom= 1.00D+00 WtEn= 0.00D+00
 Coeff-Com:  0.136D-05 0.212D-05-0.166D-04-0.775D-04-0.234D-03-0.834D-03
 Coeff-Com: -0.278D-02-0.568D-02 0.244D-02 0.551D-01 0.271D+00 0.681D+00
 Coeff:      0.136D-05 0.212D-05-0.166D-04-0.775D-04-0.234D-03-0.834D-03
 Coeff:     -0.278D-02-0.568D-02 0.244D-02 0.551D-01 0.271D+00 0.681D+00
 Gap=     0.170 Goal=   None    Shift=    0.000
 RMSDP=2.76D-08 MaxDP=1.99D-06 DE=-5.11D-10 OVMax= 2.20D-06

 Cycle  13  Pass 1  IDiag  1:
 E= -1298.38334473528     Delta-E=       -0.000000000000 Rises=F Damp=F
 DIIS: error= 3.85D-08 at cycle  13 NSaved=  13.
 NSaved=13 IEnMin=13 EnMin= -1298.38334473528     IErMin=13 ErrMin= 3.85D-08
 ErrMax= 3.85D-08  0.00D+00 EMaxC= 1.00D-01 BMatC= 2.28D-12 BMatP= 3.83D-11
 IDIUse=1 WtCom= 1.00D+00 WtEn= 0.00D+00
 Coeff-Com: -0.441D-09 0.143D-05 0.323D-05 0.443D-05-0.256D-04-0.156D-03
 Coeff-Com: -0.941D-03-0.339D-02-0.373D-02 0.205D-03 0.564D-01 0.251D+00
 Coeff-Com:  0.701D+00
 Coeff:     -0.441D-09 0.143D-05 0.323D-05 0.443D-05-0.256D-04-0.156D-03
 Coeff:     -0.941D-03-0.339D-02-0.373D-02 0.205D-03 0.564D-01 0.251D+00
 Coeff:      0.701D+00
 Gap=     0.170 Goal=   None    Shift=    0.000
 RMSDP=7.57D-09 MaxDP=3.94D-07 DE=-4.55D-13 OVMax= 7.93D-07

 Error on total polarization charges =  0.01949
 SCF Done:  E(RB3LYP) =  -1298.38334474     A.U. after   13 cycles
            NFock= 13  Conv=0.76D-08     -V/T= 2.0072
 KE= 1.289094792264D+03 PE=-6.193814878156D+03 EE= 2.030545805905D+03
 Leave Link  502 at Tue Mar  1 07:14:36 2022, MaxMem=   104857600 cpu:             983.6 elap:             253.4
 (Enter /dades/curu/g16A03_MST/g16/l601.exe)
 Copying SCF densities to generalized density rwf, IOpCl= 0 IROHF=0.

 **********************************************************************

            Population analysis using the SCF density.

 **********************************************************************

 Orbital symmetries:
       Occupied  (A) (A) (A) (A) (A) (A) (A) (A) (A) (A) (A) (A)
                 (A) (A) (A) (A) (A) (A) (A) (A) (A) (A) (A) (A)
                 (A) (A) (A) (A) (A) (A) (A) (A) (A) (A) (A) (A)
                 (A) (A) (A) (A) (A) (A) (A) (A) (A) (A) (A) (A)
                 (A) (A) (A) (A) (A) (A) (A) (A) (A) (A) (A) (A)
                 (A) (A) (A) (A) (A) (A) (A) (A) (A) (A) (A) (A)
                 (A) (A)
       Virtual   (A) (A) (A) (A) (A) (A) (A) (A) (A) (A) (A) (A)
                 (A) (A) (A) (A) (A) (A) (A) (A) (A) (A) (A) (A)
                 (A) (A) (A) (A) (A) (A) (A) (A) (A) (A) (A) (A)
                 (A) (A) (A) (A) (A) (A) (A) (A) (A) (A) (A) (A)
                 (A) (A) (A) (A) (A) (A) (A) (A) (A) (A) (A) (A)
                 (A) (A) (A) (A) (A) (A) (A) (A) (A) (A) (A) (A)
                 (A) (A) (A) (A) (A) (A) (A) (A) (A) (A) (A) (A)
                 (A) (A) (A) (A) (A) (A) (A) (A) (A) (A) (A) (A)
                 (A) (A) (A) (A) (A) (A) (A) (A) (A) (A) (A) (A)
                 (A) (A) (A) (A) (A) (A) (A) (A) (A) (A) (A) (A)
                 (A) (A) (A) (A) (A) (A) (A) (A) (A) (A) (A) (A)
                 (A) (A) (A) (A) (A) (A) (A) (A) (A) (A) (A) (A)
                 (A) (A) (A) (A) (A) (A) (A) (A) (A) (A) (A) (A)
                 (A) (A) (A) (A) (A) (A) (A) (A) (A) (A) (A) (A)
                 (A) (A) (A) (A) (A) (A) (A) (A) (A) (A) (A) (A)
                 (A) (A) (A) (A) (A) (A) (A) (A) (A) (A) (A) (A)
                 (A) (A) (A) (A) (A) (A) (A) (A) (A) (A) (A) (A)
                 (A) (A) (A) (A) (A) (A) (A) (A) (A) (A) (A) (A)
                 (A) (A) (A) (A) (A) (A) (A) (A) (A) (A) (A) (A)
                 (A) (A) (A) (A) (A) (A) (A) (A) (A) (A) (A) (A)
                 (A) (A) (A) (A) (A) (A) (A) (A) (A) (A) (A) (A)
 The electronic state is 1-A.
 Alpha  occ. eigenvalues -- -101.55824 -19.15677 -19.13479 -14.38354 -14.34139
 Alpha  occ. eigenvalues --  -10.30527 -10.27966 -10.25909 -10.25746 -10.25662
 Alpha  occ. eigenvalues --  -10.22326 -10.21625 -10.21412 -10.20958 -10.20737
 Alpha  occ. eigenvalues --  -10.19887 -10.19694 -10.19598 -10.19513 -10.19469
 Alpha  occ. eigenvalues --   -9.47512  -7.23895  -7.22942  -7.22906  -1.05866
 Alpha  occ. eigenvalues --   -1.02769  -0.96072  -0.92904  -0.90334  -0.86008
 Alpha  occ. eigenvalues --   -0.84483  -0.78459  -0.76217  -0.75020  -0.74582
 Alpha  occ. eigenvalues --   -0.70913  -0.66783  -0.63302  -0.61431  -0.61111
 Alpha  occ. eigenvalues --   -0.59219  -0.57061  -0.55508  -0.52734  -0.51610
 Alpha  occ. eigenvalues --   -0.50659  -0.48136  -0.47778  -0.47660  -0.45691
 Alpha  occ. eigenvalues --   -0.45227  -0.44648  -0.43509  -0.42694  -0.42444
 Alpha  occ. eigenvalues --   -0.42167  -0.40209  -0.39977  -0.38345  -0.37830
 Alpha  occ. eigenvalues --   -0.37386  -0.35944  -0.35185  -0.34912  -0.32856
 Alpha  occ. eigenvalues --   -0.32262  -0.30513  -0.29844  -0.28546  -0.27263
 Alpha  occ. eigenvalues --   -0.26486  -0.25661  -0.24502  -0.22972
 Alpha virt. eigenvalues --   -0.05948  -0.02967  -0.02330  -0.00584   0.01560
 Alpha virt. eigenvalues --    0.03292   0.04264   0.09858   0.10407   0.11130
 Alpha virt. eigenvalues --    0.12285   0.13618   0.14293   0.14617   0.15439
 Alpha virt. eigenvalues --    0.16003   0.16376   0.17573   0.18964   0.19051
 Alpha virt. eigenvalues --    0.20626   0.21917   0.23057   0.24145   0.24920
 Alpha virt. eigenvalues --    0.26727   0.27854   0.28639   0.29948   0.30324
 Alpha virt. eigenvalues --    0.30810   0.32704   0.33829   0.35119   0.36608
 Alpha virt. eigenvalues --    0.38818   0.40029   0.40350   0.42951   0.43575
 Alpha virt. eigenvalues --    0.43773   0.45562   0.49111   0.50367   0.51317
 Alpha virt. eigenvalues --    0.51878   0.52682   0.53346   0.53793   0.54335
 Alpha virt. eigenvalues --    0.54655   0.55776   0.56476   0.56599   0.57836
 Alpha virt. eigenvalues --    0.58783   0.59017   0.59242   0.59691   0.59999
 Alpha virt. eigenvalues --    0.60449   0.60767   0.61640   0.61700   0.63206
 Alpha virt. eigenvalues --    0.63835   0.64312   0.65328   0.65900   0.67203
 Alpha virt. eigenvalues --    0.67579   0.68741   0.70298   0.73669   0.74644
 Alpha virt. eigenvalues --    0.75509   0.77070   0.77387   0.78845   0.80046
 Alpha virt. eigenvalues --    0.80723   0.82343   0.83126   0.83783   0.83972
 Alpha virt. eigenvalues --    0.84256   0.84594   0.85411   0.85595   0.86332
 Alpha virt. eigenvalues --    0.86673   0.87248   0.89082   0.89749   0.90863
 Alpha virt. eigenvalues --    0.91984   0.92371   0.93312   0.94133   0.94603
 Alpha virt. eigenvalues --    0.96231   0.97886   0.98021   1.00383   1.01299
 Alpha virt. eigenvalues --    1.02692   1.03626   1.05346   1.06684   1.08150
 Alpha virt. eigenvalues --    1.08378   1.09670   1.10516   1.12545   1.13505
 Alpha virt. eigenvalues --    1.14326   1.15603   1.17121   1.18131   1.19946
 Alpha virt. eigenvalues --    1.22400   1.23117   1.24138   1.27114   1.27676
 Alpha virt. eigenvalues --    1.29835   1.32272   1.34657   1.36655   1.39139
 Alpha virt. eigenvalues --    1.40489   1.42194   1.42558   1.43685   1.44527
 Alpha virt. eigenvalues --    1.45937   1.47361   1.48156   1.48594   1.49176
 Alpha virt. eigenvalues --    1.50314   1.50526   1.52986   1.54198   1.55893
 Alpha virt. eigenvalues --    1.58188   1.64453   1.66706   1.68096   1.69987
 Alpha virt. eigenvalues --    1.72240   1.73266   1.75801   1.77300   1.78320
 Alpha virt. eigenvalues --    1.80210   1.81217   1.82493   1.84280   1.85309
 Alpha virt. eigenvalues --    1.86056   1.86509   1.87831   1.89307   1.90109
 Alpha virt. eigenvalues --    1.91831   1.92417   1.95552   1.96974   1.98007
 Alpha virt. eigenvalues --    1.99146   2.01235   2.02533   2.04980   2.05289
 Alpha virt. eigenvalues --    2.06333   2.08154   2.10364   2.12748   2.14092
 Alpha virt. eigenvalues --    2.14210   2.14708   2.15218   2.15925   2.17530
 Alpha virt. eigenvalues --    2.20127   2.23163   2.23379   2.24486   2.28166
 Alpha virt. eigenvalues --    2.29225   2.29524   2.30286   2.30480   2.32594
 Alpha virt. eigenvalues --    2.34612   2.37408   2.40198   2.42774   2.44788
 Alpha virt. eigenvalues --    2.50049   2.52593   2.53763   2.56911   2.58162
 Alpha virt. eigenvalues --    2.59269   2.59614   2.60986   2.63008   2.64713
 Alpha virt. eigenvalues --    2.65928   2.68244   2.69932   2.72823   2.73523
 Alpha virt. eigenvalues --    2.74502   2.74892   2.77065   2.77382   2.81031
 Alpha virt. eigenvalues --    2.85779   2.87684   2.89276   2.92847   2.96181
 Alpha virt. eigenvalues --    2.98367   3.05560   3.12101   3.16666   3.27025
 Alpha virt. eigenvalues --    3.38879   3.41933   3.76715   4.01881   4.05299
 Alpha virt. eigenvalues --    4.06871   4.08697   4.10917   4.11347   4.13714
 Alpha virt. eigenvalues --    4.14929   4.17758   4.24727   4.27570   4.33559
 Alpha virt. eigenvalues --    4.35509   4.38671   4.42289   4.46728   4.60321
 Alpha virt. eigenvalues --    4.69147   4.76482
          Condensed to atoms (all electrons):
               1          2          3          4          5          6
     1  O    8.263298   0.279069  -0.056996   0.003343  -0.000026  -0.000028
     2  C    0.279069   5.004170   0.211199  -0.048573   0.008349  -0.000297
     3  N   -0.056996   0.211199   7.060897   0.480514  -0.081438  -0.002173
     4  C    0.003343  -0.048573   0.480514   4.916774   0.347721  -0.043395
     5  C   -0.000026   0.008349  -0.081438   0.347721   4.821649   0.507582
     6  C   -0.000028  -0.000297  -0.002173  -0.043395   0.507582   4.991155
     7  C   -0.000000   0.000001   0.000544   0.005858  -0.018758   0.507848
     8  C    0.000000   0.000000   0.000008   0.000456  -0.034291  -0.037883
     9  C   -0.000000   0.000002  -0.000091   0.005527  -0.017739  -0.044007
    10  C    0.000000  -0.000056   0.001608  -0.051972   0.526718  -0.052193
    11  C   -0.000081  -0.013440  -0.063999   0.299582  -0.068388   0.007147
    12  C    0.000001  -0.000259   0.005473  -0.053575  -0.005703   0.000151
    13  C   -0.000000  -0.000020  -0.000221   0.004681   0.000540   0.000031
    14  Cl   0.000000   0.000000   0.000001  -0.000114  -0.000027  -0.000002
    15  C   -0.000000   0.000008   0.000018   0.000032   0.000036   0.000000
    16  C   -0.000001  -0.000630  -0.000158   0.007520  -0.000020   0.000002
    17  C   -0.000077   0.003161  -0.012742  -0.037954   0.001377  -0.000078
    18  N    0.003094  -0.092293   0.006151  -0.013822  -0.000003  -0.000006
    19  C   -0.031861   0.241677  -0.047237   0.000717  -0.000635   0.000041
    20  O   -0.005293  -0.072833  -0.000157  -0.000271  -0.000003   0.000000
    21  H    0.237186  -0.036403   0.005297   0.000778  -0.000079   0.000004
    22  H   -0.041728   0.362034  -0.044485  -0.003547  -0.000476   0.000045
    23  H    0.000005  -0.000460   0.010884  -0.007822  -0.048208   0.361734
    24  H   -0.000000  -0.000000  -0.000006  -0.000172   0.003641  -0.037953
    25  H   -0.000000  -0.000000   0.000000   0.000006   0.000528   0.004630
    26  H    0.000000  -0.000000   0.000001  -0.000167   0.003527   0.000819
    27  H   -0.000000  -0.000015   0.000017  -0.009127  -0.041402   0.005456
    28  H    0.000000   0.000005   0.000276  -0.007836   0.006649   0.000394
    29  H    0.000000  -0.000000   0.000000   0.000006   0.000000   0.000000
    30  H    0.000000  -0.000010   0.000002  -0.000135   0.000001  -0.000000
    31  H   -0.000054   0.005860  -0.000244  -0.000317   0.000002  -0.000000
               7          8          9         10         11         12
     1  O   -0.000000   0.000000  -0.000000   0.000000  -0.000081   0.000001
     2  C    0.000001   0.000000   0.000002  -0.000056  -0.013440  -0.000259
     3  N    0.000544   0.000008  -0.000091   0.001608  -0.063999   0.005473
     4  C    0.005858   0.000456   0.005527  -0.051972   0.299582  -0.053575
     5  C   -0.018758  -0.034291  -0.017739   0.526718  -0.068388  -0.005703
     6  C    0.507848  -0.037883  -0.044007  -0.052193   0.007147   0.000151
     7  C    4.904805   0.540287  -0.027791  -0.044139  -0.000114  -0.000042
     8  C    0.540287   4.871662   0.544122  -0.039053   0.000010  -0.000004
     9  C   -0.027791   0.544122   4.887695   0.518987   0.000130  -0.000158
    10  C   -0.044139  -0.039053   0.518987   4.989533  -0.008210  -0.001572
    11  C   -0.000114   0.000010   0.000130  -0.008210   4.968270   0.463321
    12  C   -0.000042  -0.000004  -0.000158  -0.001572   0.463321   5.103530
    13  C    0.000000  -0.000001  -0.000035  -0.000335  -0.016324   0.485261
    14  Cl   0.000000  -0.000000   0.000004   0.000027   0.003963  -0.068720
    15  C   -0.000000   0.000000  -0.000001  -0.000016  -0.033063  -0.032189
    16  C   -0.000000   0.000000  -0.000000  -0.000049  -0.044536  -0.056196
    17  C    0.000001  -0.000000   0.000014   0.000325   0.505818  -0.021534
    18  N    0.000000  -0.000000  -0.000000   0.000026  -0.055867   0.007601
    19  C    0.000000   0.000000  -0.000000  -0.000017  -0.007690   0.000068
    20  O   -0.000000   0.000000   0.000000  -0.000000   0.000378   0.000002
    21  H   -0.000000   0.000000   0.000000  -0.000001   0.000032  -0.000001
    22  H   -0.000000  -0.000000   0.000000  -0.000013   0.008519   0.000195
    23  H   -0.042578   0.004675   0.000211   0.005500   0.000549  -0.000041
    24  H    0.362205  -0.041694   0.004471   0.000713   0.000001   0.000000
    25  H   -0.041975   0.363602  -0.041895   0.004891   0.000000   0.000000
    26  H    0.004369  -0.041247   0.362436  -0.038277   0.000003  -0.000003
    27  H    0.000218   0.004582  -0.040797   0.359533   0.006286   0.001217
    28  H    0.000026  -0.000016  -0.000079   0.001692  -0.035251   0.360713
    29  H    0.000000  -0.000000   0.000000   0.000000   0.000702   0.004183
    30  H    0.000000   0.000000   0.000000   0.000000   0.004172   0.000698
    31  H    0.000000  -0.000000  -0.000000   0.000001   0.003061  -0.000076
              13         14         15         16         17         18
     1  O   -0.000000   0.000000  -0.000000  -0.000001  -0.000077   0.003094
     2  C   -0.000020   0.000000   0.000008  -0.000630   0.003161  -0.092293
     3  N   -0.000221   0.000001   0.000018  -0.000158  -0.012742   0.006151
     4  C    0.004681  -0.000114   0.000032   0.007520  -0.037954  -0.013822
     5  C    0.000540  -0.000027   0.000036  -0.000020   0.001377  -0.000003
     6  C    0.000031  -0.000002   0.000000   0.000002  -0.000078  -0.000006
     7  C    0.000000   0.000000  -0.000000  -0.000000   0.000001   0.000000
     8  C   -0.000001  -0.000000   0.000000   0.000000  -0.000000  -0.000000
     9  C   -0.000035   0.000004  -0.000001  -0.000000   0.000014  -0.000000
    10  C   -0.000335   0.000027  -0.000016  -0.000049   0.000325   0.000026
    11  C   -0.016324   0.003963  -0.033063  -0.044536   0.505818  -0.055867
    12  C    0.485261  -0.068720  -0.032189  -0.056196  -0.021534   0.007601
    13  C    5.002353   0.226597   0.513408  -0.025379  -0.035938  -0.000072
    14  Cl   0.226597  16.923158  -0.069660   0.004636   0.000746   0.000004
    15  C    0.513408  -0.069660   4.920629   0.512475  -0.013581   0.005648
    16  C   -0.025379   0.004636   0.512475   5.047341   0.482469  -0.071722
    17  C   -0.035938   0.000746  -0.013581   0.482469   4.626887   0.223602
    18  N   -0.000072   0.000004   0.005648  -0.071722   0.223602   7.269016
    19  C    0.000028  -0.000000  -0.000117   0.003837  -0.011802   0.235652
    20  O   -0.000000   0.000000   0.000001  -0.000186   0.001849  -0.098548
    21  H    0.000000  -0.000000  -0.000000   0.000001   0.000006   0.000415
    22  H    0.000012   0.000000  -0.000048   0.000293   0.006416  -0.002892
    23  H    0.000001  -0.000000  -0.000000   0.000000   0.000001  -0.000001
    24  H   -0.000000   0.000000  -0.000000   0.000000  -0.000000  -0.000000
    25  H    0.000000  -0.000000  -0.000000  -0.000000   0.000000  -0.000000
    26  H    0.000000  -0.000000  -0.000000   0.000000  -0.000000  -0.000000
    27  H    0.000041  -0.000008  -0.000014   0.000135   0.000020  -0.000047
    28  H   -0.042221   0.000209   0.004229   0.000377   0.003987  -0.000066
    29  H   -0.042809  -0.000246   0.362805  -0.030705   0.003348  -0.000102
    30  H    0.004123  -0.000159  -0.034479   0.358500  -0.037524  -0.006268
    31  H    0.000007  -0.000000   0.000051  -0.005697  -0.016968   0.286725
              19         20         21         22         23         24
     1  O   -0.031861  -0.005293   0.237186  -0.041728   0.000005  -0.000000
     2  C    0.241677  -0.072833  -0.036403   0.362034  -0.000460  -0.000000
     3  N   -0.047237  -0.000157   0.005297  -0.044485   0.010884  -0.000006
     4  C    0.000717  -0.000271   0.000778  -0.003547  -0.007822  -0.000172
     5  C   -0.000635  -0.000003  -0.000079  -0.000476  -0.048208   0.003641
     6  C    0.000041   0.000000   0.000004   0.000045   0.361734  -0.037953
     7  C    0.000000  -0.000000  -0.000000  -0.000000  -0.042578   0.362205
     8  C    0.000000   0.000000   0.000000  -0.000000   0.004675  -0.041694
     9  C   -0.000000   0.000000   0.000000   0.000000   0.000211   0.004471
    10  C   -0.000017  -0.000000  -0.000001  -0.000013   0.005500   0.000713
    11  C   -0.007690   0.000378   0.000032   0.008519   0.000549   0.000001
    12  C    0.000068   0.000002  -0.000001   0.000195  -0.000041   0.000000
    13  C    0.000028  -0.000000   0.000000   0.000012   0.000001  -0.000000
    14  Cl  -0.000000   0.000000  -0.000000   0.000000  -0.000000   0.000000
    15  C   -0.000117   0.000001  -0.000000  -0.000048  -0.000000  -0.000000
    16  C    0.003837  -0.000186   0.000001   0.000293   0.000000   0.000000
    17  C   -0.011802   0.001849   0.000006   0.006416   0.000001  -0.000000
    18  N    0.235652  -0.098548   0.000415  -0.002892  -0.000001  -0.000000
    19  C    4.519723   0.583616  -0.003166  -0.039115   0.000024  -0.000000
    20  O    0.583616   8.129910   0.010307   0.001243  -0.000000   0.000000
    21  H   -0.003166   0.010307   0.345360   0.007823   0.000015   0.000000
    22  H   -0.039115   0.001243   0.007823   0.559804   0.000019   0.000000
    23  H    0.000024  -0.000000   0.000015   0.000019   0.565635  -0.005125
    24  H   -0.000000   0.000000   0.000000   0.000000  -0.005125   0.563486
    25  H   -0.000000   0.000000   0.000000  -0.000000  -0.000157  -0.005264
    26  H    0.000000   0.000000   0.000000   0.000000   0.000016  -0.000167
    27  H    0.000005   0.000000   0.000000  -0.000000  -0.000131   0.000015
    28  H   -0.000003   0.000000  -0.000000  -0.000013  -0.000017  -0.000001
    29  H    0.000000  -0.000000   0.000000   0.000000   0.000000   0.000000
    30  H    0.000002  -0.000014  -0.000000  -0.000014  -0.000000  -0.000000
    31  H   -0.009857   0.008865  -0.000020  -0.000295   0.000000  -0.000000
              25         26         27         28         29         30
     1  O   -0.000000   0.000000  -0.000000   0.000000   0.000000   0.000000
     2  C   -0.000000  -0.000000  -0.000015   0.000005  -0.000000  -0.000010
     3  N    0.000000   0.000001   0.000017   0.000276   0.000000   0.000002
     4  C    0.000006  -0.000167  -0.009127  -0.007836   0.000006  -0.000135
     5  C    0.000528   0.003527  -0.041402   0.006649   0.000000   0.000001
     6  C    0.004630   0.000819   0.005456   0.000394   0.000000  -0.000000
     7  C   -0.041975   0.004369   0.000218   0.000026   0.000000   0.000000
     8  C    0.363602  -0.041247   0.004582  -0.000016  -0.000000   0.000000
     9  C   -0.041895   0.362436  -0.040797  -0.000079   0.000000   0.000000
    10  C    0.004891  -0.038277   0.359533   0.001692   0.000000   0.000000
    11  C    0.000000   0.000003   0.006286  -0.035251   0.000702   0.004172
    12  C    0.000000  -0.000003   0.001217   0.360713   0.004183   0.000698
    13  C    0.000000   0.000000   0.000041  -0.042221  -0.042809   0.004123
    14  Cl  -0.000000  -0.000000  -0.000008   0.000209  -0.000246  -0.000159
    15  C   -0.000000  -0.000000  -0.000014   0.004229   0.362805  -0.034479
    16  C   -0.000000   0.000000   0.000135   0.000377  -0.030705   0.358500
    17  C    0.000000  -0.000000   0.000020   0.003987   0.003348  -0.037524
    18  N   -0.000000  -0.000000  -0.000047  -0.000066  -0.000102  -0.006268
    19  C   -0.000000   0.000000   0.000005  -0.000003   0.000000   0.000002
    20  O    0.000000   0.000000   0.000000   0.000000  -0.000000  -0.000014
    21  H    0.000000   0.000000   0.000000  -0.000000   0.000000  -0.000000
    22  H   -0.000000   0.000000  -0.000000  -0.000013   0.000000  -0.000014
    23  H   -0.000157   0.000016  -0.000131  -0.000017   0.000000  -0.000000
    24  H   -0.005264  -0.000167   0.000015  -0.000001   0.000000  -0.000000
    25  H    0.565884  -0.005264  -0.000162  -0.000000  -0.000000   0.000000
    26  H   -0.005264   0.562575  -0.004975  -0.000003   0.000000  -0.000000
    27  H   -0.000162  -0.004975   0.558942  -0.000107  -0.000000  -0.000001
    28  H   -0.000000  -0.000003  -0.000107   0.521613  -0.000161   0.000013
    29  H   -0.000000   0.000000  -0.000000  -0.000161   0.527012  -0.005231
    30  H    0.000000  -0.000000  -0.000001   0.000013  -0.005231   0.530658
    31  H    0.000000   0.000000  -0.000002   0.000001  -0.000010   0.003783
              31
     1  O   -0.000054
     2  C    0.005860
     3  N   -0.000244
     4  C   -0.000317
     5  C    0.000002
     6  C   -0.000000
     7  C    0.000000
     8  C   -0.000000
     9  C   -0.000000
    10  C    0.000001
    11  C    0.003061
    12  C   -0.000076
    13  C    0.000007
    14  Cl  -0.000000
    15  C    0.000051
    16  C   -0.005697
    17  C   -0.016968
    18  N    0.286725
    19  C   -0.009857
    20  O    0.008865
    21  H   -0.000020
    22  H   -0.000295
    23  H    0.000000
    24  H   -0.000000
    25  H    0.000000
    26  H    0.000000
    27  H   -0.000002
    28  H    0.000001
    29  H   -0.000010
    30  H    0.003783
    31  H    0.326213
 Mulliken charges:
               1
     1  O   -0.649852
     2  C    0.149754
     3  N   -0.472942
     4  C    0.205284
     5  C    0.088877
     6  C   -0.169025
     7  C   -0.150766
     8  C   -0.135215
     9  C   -0.151005
    10  C   -0.173652
    11  C    0.075019
    12  C   -0.192344
    13  C   -0.073730
    14  Cl  -0.020409
    15  C   -0.136169
    16  C   -0.182307
    17  C    0.328172
    18  N   -0.696224
    19  C    0.566111
    20  O   -0.558867
    21  H    0.432448
    22  H    0.186220
    23  H    0.155271
    24  H    0.155850
    25  H    0.155177
    26  H    0.156357
    27  H    0.160320
    28  H    0.185588
    29  H    0.181205
    30  H    0.181882
    31  H    0.398969
 Sum of Mulliken charges =  -0.00000
 Mulliken charges with hydrogens summed into heavy atoms:
               1
     1  O   -0.217404
     2  C    0.335974
     3  N   -0.472942
     4  C    0.205284
     5  C    0.088877
     6  C   -0.013754
     7  C    0.005084
     8  C    0.019962
     9  C    0.005352
    10  C   -0.013332
    11  C    0.075019
    12  C   -0.006755
    13  C   -0.073730
    14  Cl  -0.020409
    15  C    0.045036
    16  C   -0.000425
    17  C    0.328172
    18  N   -0.297254
    19  C    0.566111
    20  O   -0.558867
 Electronic spatial extent (au):  <R**2>=           6148.0195
 Charge=             -0.0000 electrons
 Dipole moment (field-independent basis, Debye):
    X=             -4.4179    Y=             -2.3195    Z=              2.6655  Tot=              5.6571
 Quadrupole moment (field-independent basis, Debye-Ang):
   XX=           -144.9700   YY=           -101.3320   ZZ=           -118.8282
   XY=            -11.3094   XZ=              0.2288   YZ=             -7.2470
 Traceless Quadrupole moment (field-independent basis, Debye-Ang):
   XX=            -23.2599   YY=             20.3781   ZZ=              2.8818
   XY=            -11.3094   XZ=              0.2288   YZ=             -7.2470
 Octapole moment (field-independent basis, Debye-Ang**2):
  XXX=            -89.8172  YYY=            -15.0173  ZZZ=             10.2975  XYY=              4.6775
  XXY=             26.5350  XXZ=             14.4629  XZZ=            -10.8965  YZZ=            -10.4570
  YYZ=             16.9556  XYZ=             -8.0178
 Hexadecapole moment (field-independent basis, Debye-Ang**3):
 XXXX=          -4204.2443 YYYY=          -3347.3545 ZZZZ=           -623.8925 XXXY=             50.5449
 XXXZ=            -38.1888 YYYX=           -119.9673 YYYZ=           -147.0832 ZZZX=             30.0289
[...]
 Alpha virt. eigenvalues --    1.60780   1.64328   1.66918   1.68717   1.69560
 Alpha virt. eigenvalues --    1.72236   1.74113   1.75889   1.77971   1.78737
 Alpha virt. eigenvalues --    1.79882   1.80832   1.82156   1.83719   1.84963
 Alpha virt. eigenvalues --    1.86553   1.87644   1.88430   1.89976   1.90425
 Alpha virt. eigenvalues --    1.91830   1.91994   1.95826   1.97415   1.98366
 Alpha virt. eigenvalues --    1.99335   2.01490   2.01881   2.04566   2.05315
 Alpha virt. eigenvalues --    2.06375   2.07799   2.11616   2.13424   2.13880
 Alpha virt. eigenvalues --    2.14517   2.14806   2.15118   2.16305   2.17573
 Alpha virt. eigenvalues --    2.21139   2.22885   2.24837   2.25383   2.28698
 Alpha virt. eigenvalues --    2.29113   2.29570   2.30320   2.30988   2.32720
 Alpha virt. eigenvalues --    2.34921   2.37763   2.40525   2.43726   2.47104
 Alpha virt. eigenvalues --    2.52004   2.53364   2.55986   2.56825   2.58798
 Alpha virt. eigenvalues --    2.59383   2.60000   2.61747   2.62115   2.64844
 Alpha virt. eigenvalues --    2.65369   2.68603   2.68869   2.72798   2.74219
 Alpha virt. eigenvalues --    2.74611   2.75369   2.77205   2.78355   2.81353
 Alpha virt. eigenvalues --    2.85669   2.87641   2.89228   2.93896   2.96947
 Alpha virt. eigenvalues --    2.99519   3.04685   3.13117   3.17709   3.25221
 Alpha virt. eigenvalues --    3.38639   3.42607   3.83679   4.03495   4.05033
 Alpha virt. eigenvalues --    4.07454   4.08648   4.11028   4.11959   4.13995
 Alpha virt. eigenvalues --    4.15502   4.18088   4.25273   4.27679   4.33363
 Alpha virt. eigenvalues --    4.35183   4.37765   4.42068   4.48014   4.61052
 Alpha virt. eigenvalues --    4.68575   4.77206
          Condensed to atoms (all electrons):
               1          2          3          4          5          6
     1  O    8.275743   0.308590  -0.068375   0.003289  -0.000008  -0.000045
     2  C    0.308590   4.973581   0.199222  -0.042431   0.008739  -0.000430
     3  N   -0.068375   0.199222   7.104012   0.478375  -0.079878  -0.004906
     4  C    0.003289  -0.042431   0.478375   4.924378   0.341823  -0.042375
     5  C   -0.000008   0.008739  -0.079878   0.341823   4.829037   0.498908
     6  C   -0.000045  -0.000430  -0.004906  -0.042375   0.498908   5.010259
     7  C   -0.000000  -0.000004   0.000627   0.006234  -0.016564   0.504633
     8  C    0.000000   0.000000   0.000009   0.000396  -0.034231  -0.035994
     9  C   -0.000000   0.000002  -0.000093   0.005852  -0.017604  -0.044204
    10  C    0.000001  -0.000038   0.002949  -0.051933   0.523644  -0.059001
    11  C   -0.000044  -0.017703  -0.067584   0.286337  -0.065840   0.009239
    12  C    0.000004  -0.000421   0.005805  -0.056661  -0.006204   0.000085
    13  C   -0.000000  -0.000030  -0.000225   0.005066   0.000575   0.000018
    14  Cl   0.000000   0.000001   0.000001  -0.000102  -0.000025  -0.000001
    15  C   -0.000000   0.000006   0.000031  -0.000026   0.000024  -0.000000
    16  C   -0.000003  -0.000819  -0.000200   0.007755  -0.000046   0.000002
    17  C   -0.000112   0.006513  -0.018303  -0.041266   0.002419  -0.000076
    18  N    0.003578  -0.104235   0.007288  -0.016031  -0.000103  -0.000004
    19  C   -0.029453   0.273550  -0.041685  -0.000594  -0.000544   0.000052
    20  O   -0.015307  -0.076678  -0.000927  -0.000161  -0.000001  -0.000000
    21  H    0.233035  -0.047146   0.002974   0.000217  -0.000010   0.000001
    22  H   -0.045577   0.361254  -0.059995  -0.000730  -0.000521   0.000059
    23  H    0.000014  -0.000545   0.014499  -0.009745  -0.047944   0.360246
    24  H   -0.000000  -0.000000  -0.000007  -0.000169   0.003482  -0.037843
    25  H   -0.000000  -0.000000   0.000000   0.000006   0.000562   0.004480
    26  H    0.000000  -0.000000   0.000001  -0.000172   0.003439   0.000833
    27  H   -0.000000  -0.000008  -0.000041  -0.010877  -0.041764   0.005984
    28  H    0.000000   0.000006   0.000237  -0.008355   0.007420  -0.000097
    29  H    0.000000  -0.000000   0.000000   0.000007   0.000000   0.000000
    30  H    0.000000   0.000004   0.000002  -0.000139   0.000001  -0.000000
    31  H   -0.000040   0.006120  -0.000215  -0.000325   0.000005  -0.000000
               7          8          9         10         11         12
     1  O   -0.000000   0.000000  -0.000000   0.000001  -0.000044   0.000004
     2  C   -0.000004   0.000000   0.000002  -0.000038  -0.017703  -0.000421
     3  N    0.000627   0.000009  -0.000093   0.002949  -0.067584   0.005805
     4  C    0.006234   0.000396   0.005852  -0.051933   0.286337  -0.056661
     5  C   -0.016564  -0.034231  -0.017604   0.523644  -0.065840  -0.006204
     6  C    0.504633  -0.035994  -0.044204  -0.059001   0.009239   0.000085
     7  C    4.911826   0.534985  -0.027275  -0.044977  -0.000154  -0.000021
     8  C    0.534985   4.875067   0.543600  -0.037804   0.000003  -0.000003
     9  C   -0.027275   0.543600   4.886405   0.518048   0.000180  -0.000102
    10  C   -0.044977  -0.037804   0.518048   5.014382  -0.011380  -0.004782
    11  C   -0.000154   0.000003   0.000180  -0.011380   4.989189   0.456391
    12  C   -0.000021  -0.000003  -0.000102  -0.004782   0.456391   5.114776
    13  C   -0.000000  -0.000000  -0.000028  -0.000375  -0.016457   0.487326
    14  Cl   0.000000  -0.000000   0.000003   0.000030   0.003452  -0.064510
    15  C   -0.000000   0.000000  -0.000001  -0.000009  -0.032656  -0.032160
    16  C   -0.000000   0.000000  -0.000001  -0.000023  -0.040555  -0.057658
    17  C    0.000001  -0.000000   0.000007   0.000389   0.504626  -0.024138
    18  N    0.000000  -0.000000  -0.000000   0.000006  -0.052725   0.008207
    19  C    0.000000   0.000000  -0.000000  -0.000021  -0.009926   0.000068
    20  O   -0.000000   0.000000   0.000000  -0.000000   0.000303   0.000002
    21  H   -0.000000   0.000000   0.000000  -0.000000  -0.000021  -0.000001
    22  H   -0.000000  -0.000000   0.000000  -0.000016   0.006965   0.000023
    23  H   -0.044083   0.004723   0.000176   0.006058   0.000582  -0.000046
    24  H    0.362915  -0.041651   0.004454   0.000716   0.000001   0.000000
    25  H   -0.041494   0.363800  -0.041361   0.004817   0.000000   0.000000
    26  H    0.004328  -0.041056   0.362852  -0.038110   0.000007  -0.000006
    27  H    0.000206   0.004554  -0.040016   0.356466   0.007810   0.003080
    28  H   -0.000015  -0.000024   0.000069   0.003655  -0.036670   0.359237
    29  H   -0.000000  -0.000000   0.000000   0.000000   0.000721   0.004063
    30  H    0.000000   0.000000   0.000000   0.000000   0.004259   0.000655
    31  H    0.000000  -0.000000  -0.000000   0.000001   0.003041  -0.000085
              13         14         15         16         17         18
     1  O   -0.000000   0.000000  -0.000000  -0.000003  -0.000112   0.003578
     2  C   -0.000030   0.000001   0.000006  -0.000819   0.006513  -0.104235
     3  N   -0.000225   0.000001   0.000031  -0.000200  -0.018303   0.007288
     4  C    0.005066  -0.000102  -0.000026   0.007755  -0.041266  -0.016031
     5  C    0.000575  -0.000025   0.000024  -0.000046   0.002419  -0.000103
     6  C    0.000018  -0.000001  -0.000000   0.000002  -0.000076  -0.000004
     7  C   -0.000000   0.000000  -0.000000  -0.000000   0.000001   0.000000
     8  C   -0.000000  -0.000000   0.000000   0.000000  -0.000000  -0.000000
     9  C   -0.000028   0.000003  -0.000001  -0.000001   0.000007  -0.000000
    10  C   -0.000375   0.000030  -0.000009  -0.000023   0.000389   0.000006
    11  C   -0.016457   0.003452  -0.032656  -0.040555   0.504626  -0.052725
    12  C    0.487326  -0.064510  -0.032160  -0.057658  -0.024138   0.008207
    13  C    4.992738   0.229660   0.509987  -0.024660  -0.037149  -0.000109
    14  Cl   0.229660  16.921200  -0.063983   0.004163   0.000781   0.000004
    15  C    0.509987  -0.063983   4.916330   0.512213  -0.012620   0.005985
    16  C   -0.024660   0.004163   0.512213   5.025279   0.490621  -0.075278
    17  C   -0.037149   0.000781  -0.012620   0.490621   4.662247   0.222729
    18  N   -0.000109   0.000004   0.005985  -0.075278   0.222729   7.258480
    19  C    0.000035  -0.000000  -0.000090   0.004408  -0.018154   0.242281
    20  O   -0.000000   0.000000   0.000001  -0.000113   0.000996  -0.086067
    21  H    0.000000  -0.000000  -0.000000   0.000001  -0.000011   0.001628
    22  H    0.000054   0.000000  -0.000109   0.000572   0.010790  -0.006679
    23  H    0.000001  -0.000000  -0.000000   0.000000   0.000006  -0.000001
    24  H   -0.000000   0.000000  -0.000000   0.000000  -0.000000  -0.000000
    25  H    0.000000  -0.000000  -0.000000  -0.000000   0.000000  -0.000000
    26  H    0.000000  -0.000000  -0.000000   0.000000  -0.000000   0.000000
    27  H    0.000159  -0.000009  -0.000017   0.000046  -0.000263  -0.000023
    28  H   -0.040413  -0.000143   0.004153   0.000353   0.004425  -0.000077
    29  H   -0.040776  -0.000185   0.362382  -0.029709   0.003224  -0.000100
    30  H    0.004176  -0.000148  -0.034350   0.357912  -0.037470  -0.005508
    31  H    0.000010  -0.000000   0.000048  -0.005006  -0.020419   0.290606
              19         20         21         22         23         24
     1  O   -0.029453  -0.015307   0.233035  -0.045577   0.000014  -0.000000
     2  C    0.273550  -0.076678  -0.047146   0.361254  -0.000545  -0.000000
     3  N   -0.041685  -0.000927   0.002974  -0.059995   0.014499  -0.000007
     4  C   -0.000594  -0.000161   0.000217  -0.000730  -0.009745  -0.000169
     5  C   -0.000544  -0.000001  -0.000010  -0.000521  -0.047944   0.003482
     6  C    0.000052  -0.000000   0.000001   0.000059   0.360246  -0.037843
     7  C    0.000000  -0.000000  -0.000000  -0.000000  -0.044083   0.362915
     8  C    0.000000   0.000000   0.000000  -0.000000   0.004723  -0.041651
     9  C   -0.000000   0.000000   0.000000   0.000000   0.000176   0.004454
    10  C   -0.000021  -0.000000  -0.000000  -0.000016   0.006058   0.000716
    11  C   -0.009926   0.000303  -0.000021   0.006965   0.000582   0.000001
    12  C    0.000068   0.000002  -0.000001   0.000023  -0.000046   0.000000
    13  C    0.000035  -0.000000   0.000000   0.000054   0.000001  -0.000000
    14  Cl  -0.000000   0.000000  -0.000000   0.000000  -0.000000   0.000000
    15  C   -0.000090   0.000001  -0.000000  -0.000109  -0.000000  -0.000000
    16  C    0.004408  -0.000113   0.000001   0.000572   0.000000   0.000000
    17  C   -0.018154   0.000996  -0.000011   0.010790   0.000006  -0.000000
    18  N    0.242281  -0.086067   0.001628  -0.006679  -0.000001  -0.000000
    19  C    4.481005   0.571324  -0.006022  -0.033125   0.000033  -0.000000
    20  O    0.571324   8.116983   0.036928   0.001773  -0.000000   0.000000
    21  H   -0.006022   0.036928   0.340953   0.007362   0.000001   0.000000
    22  H   -0.033125   0.001773   0.007362   0.579797   0.000036   0.000000
    23  H    0.000033  -0.000000   0.000001   0.000036   0.566832  -0.005136
    24  H   -0.000000   0.000000   0.000000   0.000000  -0.005136   0.561818
    25  H    0.000000   0.000000   0.000000   0.000000  -0.000151  -0.005088
    26  H    0.000000   0.000000  -0.000000   0.000000   0.000016  -0.000167
    27  H    0.000003   0.000000   0.000000   0.000000  -0.000145   0.000016
    28  H   -0.000005   0.000000  -0.000000  -0.000023  -0.000016  -0.000001
    29  H    0.000000  -0.000000   0.000000  -0.000000   0.000000   0.000000
    30  H    0.000051  -0.000014   0.000000  -0.000024  -0.000000  -0.000000
    31  H   -0.009467   0.005554  -0.000069  -0.000273   0.000000  -0.000000
              25         26         27         28         29         30
     1  O   -0.000000   0.000000  -0.000000   0.000000   0.000000   0.000000
     2  C   -0.000000  -0.000000  -0.000008   0.000006  -0.000000   0.000004
     3  N    0.000000   0.000001  -0.000041   0.000237   0.000000   0.000002
     4  C    0.000006  -0.000172  -0.010877  -0.008355   0.000007  -0.000139
     5  C    0.000562   0.003439  -0.041764   0.007420   0.000000   0.000001
     6  C    0.004480   0.000833   0.005984  -0.000097   0.000000  -0.000000
     7  C   -0.041494   0.004328   0.000206  -0.000015  -0.000000   0.000000
     8  C    0.363800  -0.041056   0.004554  -0.000024  -0.000000   0.000000
     9  C   -0.041361   0.362852  -0.040016   0.000069   0.000000   0.000000
    10  C    0.004817  -0.038110   0.356466   0.003655   0.000000   0.000000
    11  C    0.000000   0.000007   0.007810  -0.036670   0.000721   0.004259
    12  C    0.000000  -0.000006   0.003080   0.359237   0.004063   0.000655
    13  C    0.000000   0.000000   0.000159  -0.040413  -0.040776   0.004176
    14  Cl  -0.000000  -0.000000  -0.000009  -0.000143  -0.000185  -0.000148
    15  C   -0.000000  -0.000000  -0.000017   0.004153   0.362382  -0.034350
    16  C   -0.000000   0.000000   0.000046   0.000353  -0.029709   0.357912
    17  C    0.000000  -0.000000  -0.000263   0.004425   0.003224  -0.037470
    18  N   -0.000000   0.000000  -0.000023  -0.000077  -0.000100  -0.005508
    19  C    0.000000   0.000000   0.000003  -0.000005   0.000000   0.000051
    20  O    0.000000   0.000000   0.000000   0.000000  -0.000000  -0.000014
    21  H    0.000000  -0.000000   0.000000  -0.000000   0.000000   0.000000
    22  H    0.000000   0.000000   0.000000  -0.000023  -0.000000  -0.000024
    23  H   -0.000151   0.000016  -0.000145  -0.000016   0.000000  -0.000000
    24  H   -0.005088  -0.000167   0.000016  -0.000001   0.000000  -0.000000
    25  H    0.562524  -0.005100  -0.000158   0.000000  -0.000000   0.000000
    26  H   -0.005100   0.560859  -0.004986  -0.000003   0.000000  -0.000000
    27  H   -0.000158  -0.004986   0.560519  -0.000822   0.000000  -0.000001
    28  H    0.000000  -0.000003  -0.000822   0.520176  -0.000158   0.000014
    29  H   -0.000000   0.000000   0.000000  -0.000158   0.519372  -0.005145
    30  H    0.000000  -0.000000  -0.000001   0.000014  -0.005145   0.528279
    31  H   -0.000000   0.000000  -0.000001   0.000002  -0.000009   0.003637
              31
     1  O   -0.000040
     2  C    0.006120
     3  N   -0.000215
     4  C   -0.000325
     5  C    0.000005
     6  C   -0.000000
     7  C    0.000000
     8  C   -0.000000
     9  C   -0.000000
    10  C    0.000001
    11  C    0.003041
    12  C   -0.000085
    13  C    0.000010
    14  Cl  -0.000000
    15  C    0.000048
    16  C   -0.005006
    17  C   -0.020419
    18  N    0.290606
    19  C   -0.009467
    20  O    0.005554
    21  H   -0.000069
    22  H   -0.000273
    23  H    0.000000
    24  H   -0.000000
    25  H   -0.000000
    26  H    0.000000
    27  H   -0.000001
    28  H    0.000002
    29  H   -0.000009
    30  H    0.003637
    31  H    0.324722
 Mulliken charges:
               1
     1  O   -0.665290
     2  C    0.152899
     3  N   -0.473595
     4  C    0.222355
     5  C    0.091208
     6  C   -0.169822
     7  C   -0.151169
     8  C   -0.136373
     9  C   -0.150963
    10  C   -0.182691
    11  C    0.078609
    12  C   -0.192926
    13  C   -0.069582
    14  Cl  -0.030188
    15  C   -0.135138
    16  C   -0.169255
    17  C    0.300209
    18  N   -0.693851
    19  C    0.576276
    20  O   -0.554596
    21  H    0.430178
    22  H    0.178386
    23  H    0.154587
    24  H    0.156658
    25  H    0.157163
    26  H    0.157266
    27  H    0.160287
    28  H    0.187075
    29  H    0.186313
    30  H    0.183809
    31  H    0.402164
 Sum of Mulliken charges =  -0.00000
 Mulliken charges with hydrogens summed into heavy atoms:
               1
     1  O   -0.235112
     2  C    0.331285
     3  N   -0.473595
     4  C    0.222355
     5  C    0.091208
     6  C   -0.015236
     7  C    0.005488
     8  C    0.020789
     9  C    0.006303
    10  C   -0.022404
    11  C    0.078609
    12  C   -0.005851
    13  C   -0.069582
    14  Cl  -0.030188
    15  C    0.051176
    16  C    0.014554
    17  C    0.300209
    18  N   -0.291688
    19  C    0.576276
    20  O   -0.554596
 Electronic spatial extent (au):  <R**2>=           6172.6614
 Charge=              0.0000 electrons
 Dipole moment (field-independent basis, Debye):
    X=             -2.9920    Y=             -4.2233    Z=              3.3789  Tot=              6.1810
 Quadrupole moment (field-independent basis, Debye-Ang):
   XX=           -130.6616   YY=           -111.6142   ZZ=           -119.6658
   XY=            -21.9478   XZ=              3.3074   YZ=             -6.3037
 Traceless Quadrupole moment (field-independent basis, Debye-Ang):
   XX=            -10.0144   YY=              9.0330   ZZ=              0.9814
   XY=            -21.9478   XZ=              3.3074   YZ=             -6.3037
 Octapole moment (field-independent basis, Debye-Ang**2):
  XXX=            -65.3188  YYY=            -12.8825  ZZZ=             13.4335  XYY=              5.1726
  XXY=             -0.4746  XXZ=             21.6639  XZZ=             -2.8829  YZZ=            -15.7305
  YYZ=             14.2442  XYZ=             -7.0411
 Hexadecapole moment (field-independent basis, Debye-Ang**3):
 XXXX=          -3928.2915 YYYY=          -3533.3113 ZZZZ=           -579.2559 XXXY=           -120.7202
 XXXZ=            -63.2364 YYYX=           -125.7676 YYYZ=           -121.0331 ZZZX=             50.0968
 ZZZY=             -7.9583 XXYY=          -1138.2212 XXZZ=           -733.1743 YYZZ=           -733.9309
 XXYZ=              0.0548 YYXZ=             38.0655 ZZXY=            -39.8265
 N-N= 1.577823161339D+03 E-N=-6.197962847085D+03  KE= 1.289207872631D+03
 No NMR shielding tensors so no spin-rotation constants.
 Leave Link  601 at Tue Mar  1 10:56:40 2022, MaxMem=   104857600 cpu:               0.5 elap:               0.3
 (Enter /dades/curu/g16A03_MST/g16/l9999.exe)
 1\1\GINC-PIRINEUS10\SP\RB3LYP\6-31G(d)\C15H11Cl1N2O2\UBATOR01\01-Mar-2
 022\0\\#p b3lyp/6-31G(d) scrf=(iefpcm,read,solvent=water) geom=allchec
 k guess=read\\61.n.pdb.xyz\\0,1\O,0,-1.7498947017,-2.7273455242,-2.421
 2047171\C,0,-1.5931008789,-1.7116942661,-1.4755346206\N,0,-0.201463514
 2,-1.5651692562,-1.083749969\C,0,0.1542359688,-0.4995847005,-0.4519080
 115\C,0,1.6024485427,-0.3410238884,-0.1380111261\C,0,2.5600211866,-0.9
 093486341,-0.9937492858\C,0,3.9173609931,-0.8102364135,-0.7021520128\C
 ,0,4.3400922718,-0.1500685302,0.4549619654\C,0,3.3968040868,0.41171909
 25,1.3162583383\C,0,2.0366834255,0.3218202548,1.0201713472\C,0,-0.7876
 134305,0.565706508,-0.0151562988\C,0,-0.3971066177,1.9126231181,-0.118
 3756912\C,0,-1.2286004497,2.9233658067,0.3342625351\Cl,0,-0.7220352258
 ,4.5992698898,0.1717627242\C,0,-2.4581651047,2.6333319625,0.9281023086
 \C,0,-2.860653623,1.309960859,1.027032329\C,0,-2.0522201032,0.26958306
 5,0.5431411028\N,0,-2.5180940581,-1.0490641893,0.6931118399\C,0,-2.401
 0843026,-2.0549651529,-0.2175700799\O,0,-2.8786537767,-3.1740294728,-0
 .054758635\H,0,-1.9697669227,-3.5353637232,-1.9151598568\H,0,-1.975086
 0074,-0.7785266047,-1.9101906762\H,0,2.2229711572,-1.4202488411,-1.887
 9407119\H,0,4.6467273418,-1.2435815731,-1.3783679423\H,0,5.3982716121,
 -0.0732501859,0.6815963061\H,0,3.7173717915,0.9188546898,2.2200463362\
 H,0,1.3089406919,0.75372623,1.6972688234\H,0,0.5634372203,2.1550414216
 ,-0.5535718024\H,0,-3.093482537,3.430012215,1.2942511398\H,0,-3.819845
 6481,1.0731778282,1.4726260469\H,0,-3.1584993882,-1.2316919847,1.46180
 82945\\Version=ES64L-G16RevA.03\State=1-A\HF=-1298.3885999\RMSD=9.721e
 -09\Dipole=-0.2971189,1.6402041,1.7706222\Quadrupole=15.6056943,-15.97
 57705,0.3700763,-6.7637607,-6.5930066,-2.4788363\PG=C01 [X(C15H11Cl1N2
 O2)]\\@


 ... IT IS NO ONE DREAME THAT
     CAN PLEASE THESE ALL ...

                -- BEN JONSON
 Job cpu time:       0 days  0 hours 12 minutes 53.7 seconds.
 Elapsed time:       0 days  0 hours  3 minutes 21.1 seconds.
 File lengths (MBytes):  RWF=    172 Int=      0 D2E=      0 Chk=     20 Scr=      1
 Normal termination of Gaussian 16 at Tue Mar  1 10:56:40 2022.
