 Entering Gaussian System, Link 0=g16
 Input=9.n.pdb.xyz.mst.wat.gau
 Output=9.n.pdb.xyz.mst.wat.log
 Initial command:
 /dades/curu/g16A03_MST/g16/l1.exe "/tmp/ubator01/1955402/Gau-83878.inp" -scrdir="/tmp/ubator01/1955402/"
 Entering Link 1 = /dades/curu/g16A03_MST/g16/l1.exe PID=     83879.
  
 Copyright (c) 1988,1990,1992,1993,1995,1998,2003,2009,2016,
            Gaussian, Inc.  All Rights Reserved.
  
 This is part of the Gaussian(R) 16 program.  It is based on
 the Gaussian(R) 09 system (copyright 2009, Gaussian, Inc.),
 the Gaussian(R) 03 system (copyright 2003, Gaussian, Inc.),
 the Gaussian(R) 98 system (copyright 1998, Gaussian, Inc.),
 the Gaussian(R) 94 system (copyright 1995, Gaussian, Inc.),
 the Gaussian 92(TM) system (copyright 1992, Gaussian, Inc.),
 the Gaussian 90(TM) system (copyright 1990, Gaussian, Inc.),
 the Gaussian 88(TM) system (copyright 1988, Gaussian, Inc.),
 the Gaussian 86(TM) system (copyright 1986, Carnegie Mellon
 University), and the Gaussian 82(TM) system (copyright 1983,
 Carnegie Mellon University). Gaussian is a federally registered
 trademark of Gaussian, Inc.
  
 This software contains proprietary and confidential information,
 including trade secrets, belonging to Gaussian, Inc.
  
 This software is provided under written license and may be
 used, copied, transmitted, or stored only in accord with that
 written license.
  
 The following legend is applicable only to US Government
 contracts under FAR:
  
                    RESTRICTED RIGHTS LEGEND
  
 Use, reproduction and disclosure by the US Government is
 subject to restrictions as set forth in subparagraphs (a)
 and (c) of the Commercial Computer Software - Restricted
 Rights clause in FAR 52.227-19.
  
 Gaussian, Inc.
 340 Quinnipiac St., Bldg. 40, Wallingford CT 06492
  
  
 ---------------------------------------------------------------
 Warning -- This program may not be used in any manner that
 competes with the business of Gaussian, Inc. or will provide
 assistance to any competitor of Gaussian, Inc.  The licensee
 of this program is prohibited from giving any competitor of
 Gaussian, Inc. access to this program.  By using this program,
 the user acknowledges that Gaussian, Inc. is engaged in the
 business of creating and licensing software in the field of
 computational chemistry and represents and warrants to the
 licensee that it is not a competitor of Gaussian, Inc. and that
 it will not use this program in any manner prohibited above.
 ---------------------------------------------------------------
  

 Cite this work as:
 Gaussian 16, Revision A.03,
 M. J. Frisch, G. W. Trucks, H. B. Schlegel, G. E. Scuseria, 
 M. A. Robb, J. R. Cheeseman, G. Scalmani, V. Barone, 
 G. A. Petersson, H. Nakatsuji, X. Li, M. Caricato, A. V. Marenich, 
 J. Bloino, B. G. Janesko, R. Gomperts, B. Mennucci, H. P. Hratchian, 
 J. V. Ortiz, A. F. Izmaylov, J. L. Sonnenberg, D. Williams-Young, 
 F. Ding, F. Lipparini, F. Egidi, J. Goings, B. Peng, A. Petrone, 
 T. Henderson, D. Ranasinghe, V. G. Zakrzewski, J. Gao, N. Rega, 
 G. Zheng, W. Liang, M. Hada, M. Ehara, K. Toyota, R. Fukuda, 
 J. Hasegawa, M. Ishida, T. Nakajima, Y. Honda, O. Kitao, H. Nakai, 
 T. Vreven, K. Throssell, J. A. Montgomery, Jr., J. E. Peralta, 
 F. Ogliaro, M. J. Bearpark, J. J. Heyd, E. N. Brothers, K. N. Kudin, 
 V. N. Staroverov, T. A. Keith, R. Kobayashi, J. Normand, 
 K. Raghavachari, A. P. Rendell, J. C. Burant, S. S. Iyengar, 
 J. Tomasi, M. Cossi, J. M. Millam, M. Klene, C. Adamo, R. Cammi, 
 J. W. Ochterski, R. L. Martin, K. Morokuma, O. Farkas, 
 J. B. Foresman, and D. J. Fox, Gaussian, Inc., Wallingford CT, 2016.
 
 ******************************************
 Gaussian 16:  ES64L-G16RevA.03 25-Dec-2016
                 2-Mar-2022 
 ******************************************
 %nproc=4
 Will use up to    4 processors via shared memory.
 %Chk=9.n.pdb.xyz.mst.wat.chk
 %mem=800MB
 ----------------------------------------------------------------------
 #p b3lyp/6-31G(d) opt=(MaxStep=10,MaxCycles=1000) freq scf=(MaxCycle=2
 000,NoVarAcc,NoIncFock) scrf=(iefpcm,read,solvent=water)
 ----------------------------------------------------------------------
 1/6=1000,8=10,18=20,19=15,26=3,38=1,40=2/1,3;
 2/9=110,12=2,17=6,18=5,40=1/2;
 3/5=1,6=6,7=1,11=2,25=1,30=1,70=2203,71=1,72=1,74=-5/1,2,3;
 4//1;
 5/5=100002,7=2000,38=1,53=1/2;
 6/7=2,8=2,9=2,10=2,28=1/1;
 7//1,2,3,16;
 1/6=1000,8=10,18=20,19=15,26=3/3(2);
 2/9=110/2;
 99//99;
 2/9=110/2;
 3/5=1,6=6,7=1,11=2,25=1,30=1,70=2205,71=1,72=1,74=-5/1,2,3;
 4/5=5,16=3,69=1/1;
 5/5=100002,7=2000,38=1,53=1/2;
 7//1,2,3,16;
 1/6=1000,8=10,18=20,19=15,26=3/3(-5);
 2/9=110/2;
 6/7=2,8=2,9=2,10=2,19=2,28=1/1;
 99/9=1/99;
 Leave Link    1 at Wed Mar  2 05:06:23 2022, MaxMem=   104857600 cpu:               0.1 elap:               0.0
 (Enter /dades/curu/g16A03_MST/g16/l101.exe)
 -----------
 9.n.pdb.xyz
 -----------
 Symbolic Z-matrix:
 Charge =  0 Multiplicity = 1
 C                     5.323    -0.314     0.309 
 N                     3.962    -0.158     0.803 
 C                     2.988    -0.281    -0.28 
 C                     1.573    -0.088     0.268 
 C                     0.535    -0.264    -0.851 
 N                    -0.847    -0.039    -0.367 
 C                    -1.57     -1.175     0.104 
 C                    -0.934    -2.396     0.421 
 C                    -1.643    -3.506     0.893 
 Cl                   -0.803    -4.964     1.259 
 C                    -3.014    -3.443     1.069 
 C                    -3.673    -2.257     0.772 
 C                    -2.967    -1.132     0.298 
 S                    -3.966     0.291    -0.064 
 C                    -2.744     1.553    -0.327 
 C                    -1.366     1.285    -0.469 
 C                    -0.537     2.408    -0.696 
 C                    -1.038     3.713    -0.787 
 C                    -2.395     3.944    -0.65 
 C                    -3.244     2.867    -0.422 
 H                     6.026    -0.231     1.144 
 H                     5.576     0.46     -0.422 
 H                     5.468    -1.299    -0.146 
 H                     3.869     0.752     1.255 
 H                     3.068    -1.273    -0.74 
 H                     3.185     0.47     -1.055 
 H                     1.389    -0.805     1.077 
 H                     1.485     0.905     0.723 
 H                     0.767     0.401    -1.693 
 H                     0.634    -1.257    -1.308 
 H                     0.14     -2.516     0.327 
 H                    -3.571    -4.301     1.435 
 H                    -4.752    -2.209     0.91 
 H                     0.539     2.31     -0.794 
 H                    -0.358     4.543    -0.959 
 H                    -2.794     4.952    -0.719 
 H                    -4.311     3.056    -0.318 
 
 ITRead=  0  0  0  0  0  0  0  0  0  0  0  0  0  0  0  0  0  0  0  0
 ITRead=  0  0  0  0  0  0  0  0  0  0  0  0  0  0  0  0  0
 MicOpt= -1 -1 -1 -1 -1 -1 -1 -1 -1 -1 -1 -1 -1 -1 -1 -1 -1 -1 -1 -1
 MicOpt= -1 -1 -1 -1 -1 -1 -1 -1 -1 -1 -1 -1 -1 -1 -1 -1 -1
 NAtoms=     37 NQM=       37 NQMF=       0 NMMI=      0 NMMIF=      0
                NMic=       0 NMicF=      0.
                    Isotopes and Nuclear Properties:
 (Nuclear quadrupole moments (NQMom) in fm**2, nuclear magnetic moments (NMagM)
  in nuclear magnetons)

  Atom         1           2           3           4           5           6           7           8           9          10
 IAtWgt=          12          14          12          12          12          14          12          12          12          35
 AtmWgt=  12.0000000  14.0030740  12.0000000  12.0000000  12.0000000  14.0030740  12.0000000  12.0000000  12.0000000  34.9688527
 NucSpn=           0           2           0           0           0           2           0           0           0           3
 AtZEff=  -0.0000000  -0.0000000  -0.0000000  -0.0000000  -0.0000000  -0.0000000  -0.0000000  -0.0000000  -0.0000000  -0.0000000
 NQMom=    0.0000000   2.0440000   0.0000000   0.0000000   0.0000000   2.0440000   0.0000000   0.0000000   0.0000000  -8.1650000
 NMagM=    0.0000000   0.4037610   0.0000000   0.0000000   0.0000000   0.4037610   0.0000000   0.0000000   0.0000000   0.8218740
 AtZNuc=   6.0000000   7.0000000   6.0000000   6.0000000   6.0000000   7.0000000   6.0000000   6.0000000   6.0000000  17.0000000

  Atom        11          12          13          14          15          16          17          18          19          20
 IAtWgt=          12          12          12          32          12          12          12          12          12          12
 AtmWgt=  12.0000000  12.0000000  12.0000000  31.9720718  12.0000000  12.0000000  12.0000000  12.0000000  12.0000000  12.0000000
 NucSpn=           0           0           0           0           0           0           0           0           0           0
 AtZEff=  -0.0000000  -0.0000000  -0.0000000  -0.0000000  -0.0000000  -0.0000000  -0.0000000  -0.0000000  -0.0000000  -0.0000000
 NQMom=    0.0000000   0.0000000   0.0000000   0.0000000   0.0000000   0.0000000   0.0000000   0.0000000   0.0000000   0.0000000
 NMagM=    0.0000000   0.0000000   0.0000000   0.0000000   0.0000000   0.0000000   0.0000000   0.0000000   0.0000000   0.0000000
 AtZNuc=   6.0000000   6.0000000   6.0000000  16.0000000   6.0000000   6.0000000   6.0000000   6.0000000   6.0000000   6.0000000

  Atom        21          22          23          24          25          26          27          28          29          30
 IAtWgt=           1           1           1           1           1           1           1           1           1           1
 AtmWgt=   1.0078250   1.0078250   1.0078250   1.0078250   1.0078250   1.0078250   1.0078250   1.0078250   1.0078250   1.0078250
 NucSpn=           1           1           1           1           1           1           1           1           1           1
 AtZEff=  -0.0000000  -0.0000000  -0.0000000  -0.0000000  -0.0000000  -0.0000000  -0.0000000  -0.0000000  -0.0000000  -0.0000000
 NQMom=    0.0000000   0.0000000   0.0000000   0.0000000   0.0000000   0.0000000   0.0000000   0.0000000   0.0000000   0.0000000
 NMagM=    2.7928460   2.7928460   2.7928460   2.7928460   2.7928460   2.7928460   2.7928460   2.7928460   2.7928460   2.7928460
 AtZNuc=   1.0000000   1.0000000   1.0000000   1.0000000   1.0000000   1.0000000   1.0000000   1.0000000   1.0000000   1.0000000

  Atom        31          32          33          34          35          36          37
 IAtWgt=           1           1           1           1           1           1           1
 AtmWgt=   1.0078250   1.0078250   1.0078250   1.0078250   1.0078250   1.0078250   1.0078250
 NucSpn=           1           1           1           1           1           1           1
 AtZEff=  -0.0000000  -0.0000000  -0.0000000  -0.0000000  -0.0000000  -0.0000000  -0.0000000
 NQMom=    0.0000000   0.0000000   0.0000000   0.0000000   0.0000000   0.0000000   0.0000000
 NMagM=    2.7928460   2.7928460   2.7928460   2.7928460   2.7928460   2.7928460   2.7928460
 AtZNuc=   1.0000000   1.0000000   1.0000000   1.0000000   1.0000000   1.0000000   1.0000000
 Leave Link  101 at Wed Mar  2 05:06:23 2022, MaxMem=   104857600 cpu:               0.1 elap:               0.1
 (Enter /dades/curu/g16A03_MST/g16/l103.exe)

 GradGradGradGradGradGradGradGradGradGradGradGradGradGradGradGradGradGrad
 Berny optimization.
 Initialization pass.
                           ----------------------------
                           !    Initial Parameters    !
                           ! (Angstroms and Degrees)  !
 --------------------------                            --------------------------
 ! Name  Definition              Value          Derivative Info.                !
 --------------------------------------------------------------------------------
 ! R1    R(1,2)                  1.4563         estimate D2E/DX2                !
 ! R2    R(1,21)                 1.0947         estimate D2E/DX2                !
 ! R3    R(1,22)                 1.0943         estimate D2E/DX2                !
 ! R4    R(1,23)                 1.0947         estimate D2E/DX2                !
 ! R5    R(2,3)                  1.4617         estimate D2E/DX2                !
 ! R6    R(2,24)                 1.0203         estimate D2E/DX2                !
 ! R7    R(3,4)                  1.5296         estimate D2E/DX2                !
 ! R8    R(3,25)                 1.0964         estimate D2E/DX2                !
 ! R9    R(3,26)                 1.097          estimate D2E/DX2                !
 ! R10   R(4,5)                  1.5364         estimate D2E/DX2                !
 ! R11   R(4,27)                 1.0966         estimate D2E/DX2                !
 ! R12   R(4,28)                 1.0958         estimate D2E/DX2                !
 ! R13   R(5,6)                  1.4815         estimate D2E/DX2                !
 ! R14   R(5,29)                 1.0977         estimate D2E/DX2                !
 ! R15   R(5,30)                 1.0976         estimate D2E/DX2                !
 ! R16   R(6,7)                  1.4266         estimate D2E/DX2                !
 ! R17   R(6,16)                 1.4257         estimate D2E/DX2                !
 ! R18   R(7,8)                  1.4127         estimate D2E/DX2                !
 ! R19   R(7,13)                 1.4111         estimate D2E/DX2                !
 ! R20   R(8,9)                  1.3991         estimate D2E/DX2                !
 ! R21   R(8,31)                 1.0848         estimate D2E/DX2                !
 ! R22   R(9,10)                 1.722          estimate D2E/DX2                !
 ! R23   R(9,11)                 1.3837         estimate D2E/DX2                !
 ! R24   R(11,12)                1.3889         estimate D2E/DX2                !
 ! R25   R(11,32)                1.0864         estimate D2E/DX2                !
 ! R26   R(12,13)                1.4102         estimate D2E/DX2                !
 ! R27   R(12,33)                1.0888         estimate D2E/DX2                !
 ! R28   R(13,14)                1.7759         estimate D2E/DX2                !
 ! R29   R(14,15)                1.7763         estimate D2E/DX2                !
 ! R30   R(15,16)                1.411          estimate D2E/DX2                !
 ! R31   R(15,20)                1.4091         estimate D2E/DX2                !
 ! R32   R(16,17)                1.4142         estimate D2E/DX2                !
 ! R33   R(17,18)                1.4008         estimate D2E/DX2                !
 ! R34   R(17,34)                1.0849         estimate D2E/DX2                !
 ! R35   R(18,19)                1.3833         estimate D2E/DX2                !
 ! R36   R(18,35)                1.0867         estimate D2E/DX2                !
 ! R37   R(19,20)                1.3902         estimate D2E/DX2                !
 ! R38   R(19,36)                1.0863         estimate D2E/DX2                !
 ! R39   R(20,37)                1.0886         estimate D2E/DX2                !
 ! A1    A(2,1,21)             109.4699         estimate D2E/DX2                !
 ! A2    A(2,1,22)             111.5256         estimate D2E/DX2                !
 ! A3    A(2,1,23)             111.1733         estimate D2E/DX2                !
 ! A4    A(21,1,22)            107.9053         estimate D2E/DX2                !
 ! A5    A(21,1,23)            107.4704         estimate D2E/DX2                !
 ! A6    A(22,1,23)            109.1576         estimate D2E/DX2                !
 ! A7    A(1,2,3)              111.2474         estimate D2E/DX2                !
 ! A8    A(1,2,24)             109.3297         estimate D2E/DX2                !
 ! A9    A(3,2,24)             110.031          estimate D2E/DX2                !
 ! A10   A(2,3,4)              109.8979         estimate D2E/DX2                !
 ! A11   A(2,3,25)             109.7773         estimate D2E/DX2                !
 ! A12   A(2,3,26)             110.2522         estimate D2E/DX2                !
 ! A13   A(4,3,25)             109.3884         estimate D2E/DX2                !
 ! A14   A(4,3,26)             109.4412         estimate D2E/DX2                !
 ! A15   A(25,3,26)            108.0532         estimate D2E/DX2                !
 ! A16   A(3,4,5)              110.4622         estimate D2E/DX2                !
 ! A17   A(3,4,27)             109.6961         estimate D2E/DX2                !
 ! A18   A(3,4,28)             109.7171         estimate D2E/DX2                !
 ! A19   A(5,4,27)             110.43           estimate D2E/DX2                !
 ! A20   A(5,4,28)             110.6071         estimate D2E/DX2                !
 ! A21   A(27,4,28)            105.8256         estimate D2E/DX2                !
 ! A22   A(4,5,6)              112.0175         estimate D2E/DX2                !
 ! A23   A(4,5,29)             110.2714         estimate D2E/DX2                !
 ! A24   A(4,5,30)             110.2396         estimate D2E/DX2                !
 ! A25   A(6,5,29)             110.8387         estimate D2E/DX2                !
 ! A26   A(6,5,30)             110.951          estimate D2E/DX2                !
 ! A27   A(29,5,30)            102.1011         estimate D2E/DX2                !
 ! A28   A(5,6,7)              117.368          estimate D2E/DX2                !
 ! A29   A(5,6,16)             117.2091         estimate D2E/DX2                !
 ! A30   A(7,6,16)             125.354          estimate D2E/DX2                !
 ! A31   A(6,7,8)              122.2875         estimate D2E/DX2                !
 ! A32   A(6,7,13)             121.5263         estimate D2E/DX2                !
 ! A33   A(8,7,13)             116.1799         estimate D2E/DX2                !
 ! A34   A(7,8,9)              122.2248         estimate D2E/DX2                !
 ! A35   A(7,8,31)             121.459          estimate D2E/DX2                !
 ! A36   A(9,8,31)             116.3073         estimate D2E/DX2                !
 ! A37   A(8,9,10)             119.7508         estimate D2E/DX2                !
 ! A38   A(8,9,11)             120.5897         estimate D2E/DX2                !
 ! A39   A(10,9,11)            119.6595         estimate D2E/DX2                !
 ! A40   A(9,11,12)            118.8031         estimate D2E/DX2                !
 ! A41   A(9,11,32)            120.9889         estimate D2E/DX2                !
 ! A42   A(12,11,32)           120.2078         estimate D2E/DX2                !
 ! A43   A(11,12,13)           121.0333         estimate D2E/DX2                !
 ! A44   A(11,12,33)           118.7325         estimate D2E/DX2                !
 ! A45   A(13,12,33)           120.234          estimate D2E/DX2                !
 ! A46   A(7,13,12)            121.1675         estimate D2E/DX2                !
 ! A47   A(7,13,14)            123.5941         estimate D2E/DX2                !
 ! A48   A(12,13,14)           115.2206         estimate D2E/DX2                !
 ! A49   A(13,14,15)           102.2673         estimate D2E/DX2                !
 ! A50   A(14,15,16)           123.4929         estimate D2E/DX2                !
 ! A51   A(14,15,20)           115.3656         estimate D2E/DX2                !
 ! A52   A(16,15,20)           121.1225         estimate D2E/DX2                !
 ! A53   A(6,16,15)            121.6478         estimate D2E/DX2                !
 ! A54   A(6,16,17)            122.3796         estimate D2E/DX2                !
 ! A55   A(15,16,17)           115.9653         estimate D2E/DX2                !
 ! A56   A(16,17,18)           122.7213         estimate D2E/DX2                !
 ! A57   A(16,17,34)           121.6124         estimate D2E/DX2                !
 ! A58   A(18,17,34)           115.6582         estimate D2E/DX2                !
 ! A59   A(17,18,19)           119.9983         estimate D2E/DX2                !
 ! A60   A(17,18,35)           119.8695         estimate D2E/DX2                !
 ! A61   A(19,18,35)           120.1311         estimate D2E/DX2                !
 ! A62   A(18,19,20)           119.0748         estimate D2E/DX2                !
 ! A63   A(18,19,36)           120.5959         estimate D2E/DX2                !
 ! A64   A(20,19,36)           120.3294         estimate D2E/DX2                !
 ! A65   A(15,20,19)           121.1155         estimate D2E/DX2                !
 ! A66   A(15,20,37)           120.2154         estimate D2E/DX2                !
 ! A67   A(19,20,37)           118.669          estimate D2E/DX2                !
 ! D1    D(21,1,2,3)          -179.2074         estimate D2E/DX2                !
 ! D2    D(21,1,2,24)           59.0667         estimate D2E/DX2                !
 ! D3    D(22,1,2,3)            61.4532         estimate D2E/DX2                !
 ! D4    D(22,1,2,24)          -60.2727         estimate D2E/DX2                !
 ! D5    D(23,1,2,3)           -60.6259         estimate D2E/DX2                !
 ! D6    D(23,1,2,24)          177.6482         estimate D2E/DX2                !
 ! D7    D(1,2,3,4)           -179.011          estimate D2E/DX2                !
 ! D8    D(1,2,3,25)            60.6361         estimate D2E/DX2                !
 ! D9    D(1,2,3,26)           -58.291          estimate D2E/DX2                !
 ! D10   D(24,2,3,4)           -57.6941         estimate D2E/DX2                !
 ! D11   D(24,2,3,25)         -178.0471         estimate D2E/DX2                !
 ! D12   D(24,2,3,26)           63.0258         estimate D2E/DX2                !
 ! D13   D(2,3,4,5)           -178.0015         estimate D2E/DX2                !
 ! D14   D(2,3,4,27)           -56.0437         estimate D2E/DX2                !
 ! D15   D(2,3,4,28)            59.8047         estimate D2E/DX2                !
 ! D16   D(25,3,4,5)           -57.4135         estimate D2E/DX2                !
 ! D17   D(25,3,4,27)           64.5444         estimate D2E/DX2                !
 ! D18   D(25,3,4,28)         -179.6072         estimate D2E/DX2                !
 ! D19   D(26,3,4,5)            60.7906         estimate D2E/DX2                !
 ! D20   D(26,3,4,27)         -177.2516         estimate D2E/DX2                !
 ! D21   D(26,3,4,28)          -61.4032         estimate D2E/DX2                !
 ! D22   D(3,4,5,6)           -178.0752         estimate D2E/DX2                !
 ! D23   D(3,4,5,29)           -54.1289         estimate D2E/DX2                !
 ! D24   D(3,4,5,30)            57.8563         estimate D2E/DX2                !
 ! D25   D(27,4,5,6)            60.4002         estimate D2E/DX2                !
 ! D26   D(27,4,5,29)         -175.6535         estimate D2E/DX2                !
 ! D27   D(27,4,5,30)          -63.6683         estimate D2E/DX2                !
 ! D28   D(28,4,5,6)           -56.4058         estimate D2E/DX2                !
 ! D29   D(28,4,5,29)           67.5404         estimate D2E/DX2                !
 ! D30   D(28,4,5,30)          179.5257         estimate D2E/DX2                !
 ! D31   D(4,5,6,7)            -91.449          estimate D2E/DX2                !
 ! D32   D(4,5,6,16)            91.407          estimate D2E/DX2                !
 ! D33   D(29,5,6,7)           144.9226         estimate D2E/DX2                !
 ! D34   D(29,5,6,16)          -32.2214         estimate D2E/DX2                !
 ! D35   D(30,5,6,7)            32.2212         estimate D2E/DX2                !
 ! D36   D(30,5,6,16)         -144.9229         estimate D2E/DX2                !
 ! D37   D(5,6,7,8)             15.4945         estimate D2E/DX2                !
 ! D38   D(5,6,7,13)          -165.4515         estimate D2E/DX2                !
 ! D39   D(16,6,7,8)          -167.6199         estimate D2E/DX2                !
 ! D40   D(16,6,7,13)           11.434          estimate D2E/DX2                !
 ! D41   D(5,6,16,15)          165.4638         estimate D2E/DX2                !
 ! D42   D(5,6,16,17)          -15.56           estimate D2E/DX2                !
 ! D43   D(7,6,16,15)          -11.4262         estimate D2E/DX2                !
 ! D44   D(7,6,16,17)          167.55           estimate D2E/DX2                !
 ! D45   D(6,7,8,9)            179.4783         estimate D2E/DX2                !
 ! D46   D(6,7,8,31)             0.6012         estimate D2E/DX2                !
 ! D47   D(13,7,8,9)             0.3769         estimate D2E/DX2                !
 ! D48   D(13,7,8,31)         -178.5002         estimate D2E/DX2                !
 ! D49   D(6,7,13,12)         -179.5949         estimate D2E/DX2                !
 ! D50   D(6,7,13,14)            2.0188         estimate D2E/DX2                !
 ! D51   D(8,7,13,12)           -0.4861         estimate D2E/DX2                !
 ! D52   D(8,7,13,14)         -178.8724         estimate D2E/DX2                !
 ! D53   D(7,8,9,10)           179.963          estimate D2E/DX2                !
 ! D54   D(7,8,9,11)            -0.0567         estimate D2E/DX2                !
 ! D55   D(31,8,9,10)           -1.1055         estimate D2E/DX2                !
 ! D56   D(31,8,9,11)          178.8747         estimate D2E/DX2                !
 ! D57   D(8,9,11,12)           -0.1666         estimate D2E/DX2                !
 ! D58   D(8,9,11,32)          179.9924         estimate D2E/DX2                !
 ! D59   D(10,9,11,12)         179.8137         estimate D2E/DX2                !
 ! D60   D(10,9,11,32)          -0.0273         estimate D2E/DX2                !
 ! D61   D(9,11,12,13)           0.0536         estimate D2E/DX2                !
 ! D62   D(9,11,12,33)         179.9414         estimate D2E/DX2                !
 ! D63   D(32,11,12,13)        179.8958         estimate D2E/DX2                !
 ! D64   D(32,11,12,33)         -0.2164         estimate D2E/DX2                !
 ! D65   D(11,12,13,7)           0.2868         estimate D2E/DX2                !
 ! D66   D(11,12,13,14)        178.801          estimate D2E/DX2                !
 ! D67   D(33,12,13,7)        -179.5994         estimate D2E/DX2                !
 ! D68   D(33,12,13,14)         -1.0852         estimate D2E/DX2                !
 ! D69   D(7,13,14,15)         -11.5855         estimate D2E/DX2                !
 ! D70   D(12,13,14,15)        169.9407         estimate D2E/DX2                !
 ! D71   D(13,14,15,16)         11.5901         estimate D2E/DX2                !
 ! D72   D(13,14,15,20)       -169.9809         estimate D2E/DX2                !
 ! D73   D(14,15,16,6)          -2.0396         estimate D2E/DX2                !
 ! D74   D(14,15,16,17)        178.9222         estimate D2E/DX2                !
 ! D75   D(20,15,16,6)         179.6187         estimate D2E/DX2                !
 ! D76   D(20,15,16,17)          0.5805         estimate D2E/DX2                !
 ! D77   D(14,15,20,19)       -178.8994         estimate D2E/DX2                !
 ! D78   D(14,15,20,37)          1.0395         estimate D2E/DX2                !
 ! D79   D(16,15,20,19)         -0.4299         estimate D2E/DX2                !
 ! D80   D(16,15,20,37)        179.5091         estimate D2E/DX2                !
 ! D81   D(6,16,17,18)        -179.4864         estimate D2E/DX2                !
 ! D82   D(6,16,17,34)          -0.569          estimate D2E/DX2                !
 ! D83   D(15,16,17,18)         -0.4559         estimate D2E/DX2                !
 ! D84   D(15,16,17,34)        178.4615         estimate D2E/DX2                !
 ! D85   D(16,17,18,19)          0.1628         estimate D2E/DX2                !
 ! D86   D(16,17,18,35)        179.7772         estimate D2E/DX2                !
 ! D87   D(34,17,18,19)       -178.8144         estimate D2E/DX2                !
 ! D88   D(34,17,18,35)          0.8            estimate D2E/DX2                !
 ! D89   D(17,18,19,20)          0.0231         estimate D2E/DX2                !
 ! D90   D(17,18,19,36)       -179.9902         estimate D2E/DX2                !
 ! D91   D(35,18,19,20)       -179.5902         estimate D2E/DX2                !
 ! D92   D(35,18,19,36)          0.3964         estimate D2E/DX2                !
 ! D93   D(18,19,20,15)          0.1094         estimate D2E/DX2                !
 ! D94   D(18,19,20,37)       -179.8306         estimate D2E/DX2                !
 ! D95   D(36,19,20,15)       -179.8773         estimate D2E/DX2                !
 ! D96   D(36,19,20,37)          0.1828         estimate D2E/DX2                !
 --------------------------------------------------------------------------------
 Trust Radius=1.00D-01 FncErr=1.00D-07 GrdErr=1.00D-06 EigMax=2.50D+02 EigMin=1.00D-04
 Number of steps in this run=    222 maximum allowed number of steps=    222.
 GradGradGradGradGradGradGradGradGradGradGradGradGradGradGradGradGradGrad

 Leave Link  103 at Wed Mar  2 05:06:23 2022, MaxMem=   104857600 cpu:               0.0 elap:               0.0
 (Enter /dades/curu/g16A03_MST/g16/l202.exe)
                          Input orientation:                          
 ---------------------------------------------------------------------
 Center     Atomic      Atomic             Coordinates (Angstroms)
 Number     Number       Type             X           Y           Z
 ---------------------------------------------------------------------
      1          6           0        5.323000   -0.314000    0.309000
      2          7           0        3.962000   -0.158000    0.803000
      3          6           0        2.988000   -0.281000   -0.280000
      4          6           0        1.573000   -0.088000    0.268000
      5          6           0        0.535000   -0.264000   -0.851000
      6          7           0       -0.847000   -0.039000   -0.367000
      7          6           0       -1.570000   -1.175000    0.104000
      8          6           0       -0.934000   -2.396000    0.421000
      9          6           0       -1.643000   -3.506000    0.893000
     10         17           0       -0.803000   -4.964000    1.259000
     11          6           0       -3.014000   -3.443000    1.069000
     12          6           0       -3.673000   -2.257000    0.772000
     13          6           0       -2.967000   -1.132000    0.298000
     14         16           0       -3.966000    0.291000   -0.064000
     15          6           0       -2.744000    1.553000   -0.327000
     16          6           0       -1.366000    1.285000   -0.469000
     17          6           0       -0.537000    2.408000   -0.696000
     18          6           0       -1.038000    3.713000   -0.787000
     19          6           0       -2.395000    3.944000   -0.650000
     20          6           0       -3.244000    2.867000   -0.422000
     21          1           0        6.026000   -0.231000    1.144000
     22          1           0        5.576000    0.460000   -0.422000
     23          1           0        5.468000   -1.299000   -0.146000
     24          1           0        3.869000    0.752000    1.255000
     25          1           0        3.068000   -1.273000   -0.740000
     26          1           0        3.185000    0.470000   -1.055000
     27          1           0        1.389000   -0.805000    1.077000
     28          1           0        1.485000    0.905000    0.723000
     29          1           0        0.767000    0.401000   -1.693000
     30          1           0        0.634000   -1.257000   -1.308000
     31          1           0        0.140000   -2.516000    0.327000
     32          1           0       -3.571000   -4.301000    1.435000
     33          1           0       -4.752000   -2.209000    0.910000
     34          1           0        0.539000    2.310000   -0.794000
     35          1           0       -0.358000    4.543000   -0.959000
     36          1           0       -2.794000    4.952000   -0.719000
     37          1           0       -4.311000    3.056000   -0.318000
 ---------------------------------------------------------------------
                    Distance matrix (angstroms):
                    1          2          3          4          5
     1  C    0.000000
     2  N    1.456260   0.000000
     3  C    2.408368   1.461743   0.000000
     4  C    3.757028   2.449173   1.529633   0.000000
     5  C    4.926768   3.806742   2.518638   1.536418   0.000000
     6  N    6.213011   4.950711   3.843613   2.502404   1.481487
     7  C    6.949590   5.667973   4.660693   3.329702   2.484546
     8  C    6.595250   5.396794   4.510733   3.411059   2.884678
     9  C    7.684730   6.529413   5.763915   4.734554   4.277357
    10  Cl   7.749379   6.783126   6.218576   5.513876   5.322814
    11  C    8.937215   7.715346   6.916795   5.739181   5.136910
    12  C    9.215076   7.918332   7.027105   5.699043   4.930866
    13  C    8.330267   7.015322   6.043204   4.658587   3.786506
    14  S    9.316151   7.987895   6.980828   5.561869   4.602868
    15  C    8.304618   7.012479   6.018437   4.656543   3.785222
    16  C    6.921330   5.664611   4.630917   3.326563   2.481759
    17  C    6.539030   5.391879   4.453022   3.407552   2.883191
    18  C    7.607908   6.520180   5.693660   4.730533   4.277260
    19  C    8.866666   7.703834   6.853044   5.731036   5.131527
    20  C    9.167694   7.910606   6.983401   5.693120   4.926261
    21  H    1.094679   2.093252   3.355551   4.540598   5.842277
    22  H    1.094279   2.118383   2.695735   4.098831   5.110763
    23  H    1.094657   2.114360   2.684153   4.099871   5.089473
    24  H    2.036023   1.020320   2.049262   2.636548   4.072229
    25  H    2.665541   2.103167   1.096387   2.157618   2.728826
    26  H    2.654467   2.109568   1.097012   2.158758   2.757331
    27  H    4.038225   2.667211   2.161672   1.096552   2.176966
    28  H    4.048160   2.696646   2.161392   1.095818   2.178655
    29  H    5.027561   4.092740   2.719289   2.175840   1.097731
    30  H    5.048827   4.091419   2.747849   2.175329   1.097588
    31  H    5.631396   4.516019   3.670801   2.819956   2.572006
    32  H    9.811589   8.620323   7.881758   6.750703   6.195353
    33  H   10.269267   8.952756   8.064793   6.701972   5.902247
    34  H    5.566744   4.512024   3.602094   2.819114   2.574634
    35  H    7.581031   6.623175   5.909969   5.165312   4.890436
    36  H    9.730017   8.606516   7.810796   6.741399   6.189210
    37  H   10.225653   8.945891   8.025734   6.696984   5.898322
                    6          7          8          9         10
     6  N    0.000000
     7  C    1.426557   0.000000
     8  C    2.486757   1.412737   0.000000
     9  C    3.773765   2.461993   1.399130   0.000000
    10  Cl   5.186660   4.034704   2.704446   1.722010   0.000000
    11  C    4.283130   2.856604   2.417129   1.383686   2.690365
    12  C    3.768703   2.457551   2.764895   2.386533   3.975163
    13  C    2.476141   1.411061   2.397064   2.782603   4.504513
    14  S    3.151011   2.813929   4.080223   4.552954   6.274546
    15  C    2.476827   3.001003   4.407971   5.319218   6.982418
    16  C    1.425742   2.534077   3.811625   4.988532   6.507915
    17  C    2.488403   3.813788   4.948102   6.222825   7.631459
    18  C    3.780263   4.996944   6.228159   7.436557   8.918053
    19  C    4.282602   5.239590   6.593721   7.645185   9.248308
    20  C    3.767422   4.406440   5.809124   6.701310   8.373100
    21  H    7.039752   7.724762   7.324722   8.342793   8.309618
    22  H    6.442589   7.349505   7.158735   8.341004   8.540327
    23  H    6.443265   7.043530   6.520008   7.517758   7.398087
    24  H    5.049477   5.883949   5.802953   6.974507   7.382429
    25  H    4.121785   4.715187   4.315675   5.463195   5.710002
    26  H    4.121826   5.163267   5.230554   6.550791   7.126507
    27  H    2.769763   3.136767   2.891011   4.064761   4.704813
    28  H    2.741799   3.747344   4.103580   5.410195   6.321978
    29  H    2.134683   3.342836   3.896871   5.268790   6.321584
    30  H    2.135970   2.618794   2.597188   3.884216   4.732474
    31  H    2.755238   2.184516   1.084764   2.116494   2.783986
    32  H    5.369546   3.943024   3.407490   2.154756   2.851731
    33  H    4.646359   3.441499   3.853727   3.368736   4.827673
    34  H    2.760639   4.171272   5.078621   6.436843   7.676383
    35  H    4.645892   5.940912   7.098302   8.358680   9.772441
    36  H    5.368873   6.302034   7.665005   8.686835  10.305514
    37  H    4.645506   5.058906   6.455583   7.186417   8.894571
                   11         12         13         14         15
    11  C    0.000000
    12  C    1.388915   0.000000
    13  C    2.436672   1.410226   0.000000
    14  S    4.016559   2.697601   1.775943   0.000000
    15  C    5.194394   4.072707   2.765787   1.776259   0.000000
    16  C    5.237875   4.405462   2.998896   2.812839   1.410983
    17  C    6.594312   5.809625   4.407328   4.079112   2.395420
    18  C    7.652297   6.709293   5.326565   4.561359   2.790634
    19  C    7.609592   6.489050   5.195350   4.019434   2.437829
    20  C    6.487841   5.278736   4.072730   2.699115   1.409121
    21  H    9.593965   9.915325   9.077531  10.078284   9.069697
    22  H    9.552203   9.713482   8.719846   9.550209   8.392024
    23  H    8.832739   9.236794   8.448328   9.567402   8.695034
    24  H    8.062773   8.134441   7.155152   7.958612   6.846612
    25  H    6.706124   6.978215   6.125239   7.237419   6.475816
    26  H    7.632205   7.603067   6.499547   7.221560   6.070907
    27  H    5.132788   5.274957   4.437173   5.583827   4.961156
    28  H    6.266245   6.050257   4.914295   5.541639   4.405320
    29  H    6.058130   5.731910   4.500769   5.006699   3.939566
    30  H    4.872025   4.886374   3.944878   5.010373   4.502149
    31  H    3.370105   3.847606   3.401433   4.989125   5.030103
    32  H    1.086448   2.151258   3.420548   4.846596   6.169108
    33  H    2.137447   1.088848   2.172717   2.795795   4.440144
    34  H    7.013671   6.407089   5.033077   4.990419   3.401357
    35  H    8.656981   7.760515   6.371229   5.647849   3.877179
    36  H    8.586115   7.413866   6.170841   4.850519   3.421895
    37  H    6.770744   5.461054   4.441299   2.797993   2.171308
                   16         17         18         19         20
    16  C    0.000000
    17  C    1.414178   0.000000
    18  C    2.470606   1.400824   0.000000
    19  C    2.856901   2.411136   1.383322   0.000000
    20  C    2.455976   2.759276   2.390685   1.390221   0.000000
    21  H    7.716326   7.309096   8.317692   9.568819   9.898629
    22  H    6.991008   6.421725   7.379717   8.702131   9.142541
    23  H    7.313340   7.078444   8.237661   9.464134   9.660780
    24  H    5.537282   5.095250   6.084072   7.283926   7.607912
    25  H    5.126125   5.152448   6.459229   7.554440   7.555268
    26  H    4.660389   4.211652   5.331285   6.585522   6.890453
    27  H    3.787907   4.144439   5.456844   6.313017   6.098793
    28  H    3.113433   2.891549   4.065771   5.116156   5.246323
    29  H    2.613297   2.592773   3.879202   4.861990   4.876958
    30  H    3.341509   3.895897   5.269528   6.054602   5.729857
    31  H    4.165243   5.074508   6.436546   7.008021   6.402277
    32  H    6.300051   7.665311   8.693536   8.585466   7.411856
    33  H    5.057141   6.454622   7.193309   6.771149   5.460226
    34  H    2.187527   1.084889   2.110779   3.361406   3.841838
    35  H    3.445392   2.158572   1.086685   2.145612   3.380287
    36  H    3.943168   3.400958   2.150182   1.086290   2.153586
    37  H    3.439806   3.847839   3.371074   2.137715   1.088589
                   21         22         23         24         25
    21  H    0.000000
    22  H    1.769841   0.000000
    23  H    1.765244   1.783794   0.000000
    24  H    2.373027   2.410693   2.954015   0.000000
    25  H    3.658549   3.065041   2.472552   2.953346   0.000000
    26  H    3.660367   2.473392   3.027826   2.425589   1.775095
    27  H    4.672872   4.623656   4.286958   2.933655   2.517847
    28  H    4.699832   4.271455   4.634336   2.447425   3.064301
    29  H    6.008750   4.974475   5.232840   4.293752   3.000848
    30  H    6.011543   5.306265   4.971877   4.590237   2.499447
    31  H    6.366609   6.242409   5.485654   5.044447   3.355104
    32  H   10.428422  10.477747   9.654796   8.995488   7.614180
    33  H   10.960498  10.750133  10.314632   9.121852   8.046800
    34  H    6.349779   5.378871   6.143275   4.208879   4.385960
    35  H    8.244340   7.222992   8.290489   6.094342   6.753613
    36  H   10.398397   9.503850  10.376125   8.119867   8.550679
    37  H   10.945108  10.222661  10.706281   8.642635   8.565510
                   26         27         28         29         30
    26  H    0.000000
    27  H    3.065398   0.000000
    28  H    2.498101   1.748895   0.000000
    29  H    2.501705   3.084513   2.570330   0.000000
    30  H    3.090977   2.542155   3.086002   1.707301   0.000000
    31  H    4.483095   2.247225   3.697172   3.603112   2.121872
    32  H    8.637481   6.078798   7.291949   7.121196   5.871287
    33  H    8.604315   6.301665   6.973674   6.636797   5.902103
    34  H    3.233425   3.731805   2.273814   2.122373   3.605095
    35  H    5.399203   5.983177   4.411442   4.354371   5.894562
    36  H    7.479951   7.339357   6.063614   5.860119   7.116866
    37  H    7.963704   7.024482   6.269298   5.892854   6.635894
                   31         32         33         34         35
    31  H    0.000000
    32  H    4.264435   0.000000
    33  H    4.936173   2.459034   0.000000
    34  H    4.970525   8.097275   7.163774   0.000000
    35  H    7.192446   9.709322   8.269819   2.412079   0.000000
    36  H    8.091569   9.532127   7.600482   4.253784   2.481729
    37  H    7.160629   7.599083   5.424269   4.930070   4.271798
                   36         37
    36  H    0.000000
    37  H    2.461078   0.000000
 Stoichiometry    C16H17ClN2S
 Framework group  C1[X(C16H17ClN2S)]
 Deg. of freedom   105
 Full point group                 C1      NOp   1
 Largest Abelian subgroup         C1      NOp   1
 Largest concise Abelian subgroup C1      NOp   1
                         Standard orientation:                         
 ---------------------------------------------------------------------
 Center     Atomic      Atomic             Coordinates (Angstroms)
 Number     Number       Type             X           Y           Z
 ---------------------------------------------------------------------
      1          6           0        5.591428   -2.485888   -0.190239
      2          7           0        4.326978   -1.985523   -0.711291
      3          6           0        3.376390   -1.722537    0.367558
      4          6           0        2.053250   -1.222579   -0.214781
      5          6           0        1.060656   -0.894661    0.911188
      6          7           0       -0.250382   -0.449894    0.383772
      7          6           0       -0.437219    0.950645    0.187181
      8          6           0        0.643464    1.860279    0.164445
      9          6           0        0.459669    3.232266   -0.039112
     10         17           0        1.823001    4.284136   -0.053817
     11          6           0       -0.808417    3.752242   -0.229293
     12          6           0       -1.895006    2.887209   -0.217954
     13          6           0       -1.719883    1.502557   -0.015945
     14         16           0       -3.215677    0.545355    0.002492
     15          6           0       -2.598529   -1.119910   -0.030904
     16          6           0       -1.242558   -1.452019    0.173839
     17          6           0       -0.930322   -2.830790    0.136459
     18          6           0       -1.897660   -3.820658   -0.079703
     19          6           0       -3.220669   -3.464765   -0.270923
     20          6           0       -3.568759   -2.119072   -0.245263
     21          1           0        6.284756   -2.659211   -1.019443
     22          1           0        5.459804   -3.433008    0.341818
     23          1           0        6.057884   -1.758285    0.481540
     24          1           0        3.936679   -2.667108   -1.362568
     25          1           0        3.785282   -0.964180    1.045619
     26          1           0        3.197912   -2.636408    0.947575
     27          1           0        2.233905   -0.337017   -0.835723
     28          1           0        1.636150   -1.979747   -0.888237
     29          1           0        0.940877   -1.759579    1.576457
     30          1           0        1.487681   -0.142242    1.586624
     31          1           0        1.667940    1.525465    0.287161
     32          1           0       -0.958617    4.816520   -0.387791
     33          1           0       -2.892455    3.297745   -0.366762
     34          1           0        0.087220   -3.186922    0.257963
     35          1           0       -1.605412   -4.867048   -0.103006
     36          1           0       -3.978786   -4.224353   -0.439182
     37          1           0       -4.612195   -1.846617   -0.393708
 ---------------------------------------------------------------------
 Rotational constants (GHZ):           0.2574430           0.2406460           0.1267934
 Leave Link  202 at Wed Mar  2 05:06:23 2022, MaxMem=   104857600 cpu:               0.1 elap:               0.0
 (Enter /dades/curu/g16A03_MST/g16/l301.exe)
 Standard basis: 6-31G(d) (6D, 7F)
 Ernie: Thresh=  0.10000D-02 Tol=  0.10000D-05 Strict=F.
 There are   342 symmetry adapted cartesian basis functions of A   symmetry.
 There are   342 symmetry adapted basis functions of A   symmetry.
   342 basis functions,   676 primitive gaussians,   342 cartesian basis functions
    80 alpha electrons       80 beta electrons
       nuclear repulsion energy      1727.5888232002 Hartrees.
 IExCor=  402 DFT=T Ex+Corr=B3LYP ExCW=0 ScaHFX=  0.200000
 ScaDFX=  0.800000  0.720000  1.000000  0.810000 ScalE2=  1.000000  1.000000
 IRadAn=      5 IRanWt=     -1 IRanGd=            0 ICorTp=0 IEmpDi=  4
 NAtoms=   37 NActive=   37 NUniq=   37 SFac= 1.00D+00 NAtFMM=   60 NAOKFM=F Big=F
 Integral buffers will be    131072 words long.
 Raffenetti 2 integral format.
 Two-electron integral symmetry is turned on.
 Using the following non-standard input for PCM:
 MSTModel=DFT cav
 --- end of non-standard input.
 MST model for solvation energy: B3LYP parametrization.
 MST cavity parameters:
 ISph   IAn     Re0     Alpha   Atom Type   QCorr
 ------------------------------------------------
   1      6     1.50     1.25      CH3        F
   2      7     1.40     1.25      NH         F
   3      6     1.50     1.25      CH2        F
   4      6     1.50     1.25      CH2        F
   5      6     1.50     1.25      CH2        F
   6      7     1.40     1.25      N          F
   7      6     1.50     1.25      C          F
   8      6     1.50     1.25      CH         F
   9      6     1.50     1.25      C          F
  10     17     1.80     1.25      Cl         F
  11      6     1.50     1.25      CH         F
  12      6     1.50     1.25      CH         F
  13      6     1.50     1.25      C          F
  14     16     1.75     1.25      S          F
  15      6     1.50     1.25      C          F
  16      6     1.50     1.25      C          F
  17      6     1.50     1.25      CH         F
  18      6     1.50     1.25      CH         F
  19      6     1.50     1.25      CH         F
  20      6     1.50     1.25      CH         F
  21      1     1.20     1.25      CH3        F
  22      1     1.20     1.25      CH3        F
  23      1     1.20     1.25      CH3        F
  24      1     0.90     1.25      NH         F
  25      1     1.20     1.25      CH2        F
  26      1     1.20     1.25      CH2        F
  27      1     1.20     1.25      CH2        F
  28      1     1.20     1.25      CH2        F
  29      1     1.20     1.25      CH2        F
  30      1     1.20     1.25      CH2        F
  31      1     1.20     1.25      CH         F
  32      1     1.20     1.25      CH         F
  33      1     1.20     1.25      CH         F
  34      1     1.20     1.25      CH         F
  35      1     1.20     1.25      CH         F
  36      1     1.20     1.25      CH         F
  37      1     1.20     1.25      CH         F
 ------------------------------------------------------------------------------
 Polarizable Continuum Model (PCM)
 =================================
 Model                : PCM.
 Atomic radii         : MST.
 Polarization charges : Total charges.
 Charge compensation  : None.
 Solution method      : On-the-fly selection.
 Cavity type          : Scaled VdW (van der Waals Surface) (Alpha=1.250).
 Cavity algorithm     : GePol (No added spheres)
                        Default sphere list used, NSphG=   37.
                        Lebedev-Laikov grids with approx.  5.0 points / Ang**2.
                        Smoothing algorithm: York/Karplus (Gamma=1.0000).
                        Polarization charges: spherical gaussians, with
                                              point-specific exponents (IZeta= 3).
                        Self-potential: point-specific (ISelfS= 7).
                        Self-field    : sphere-specific E.n sum rule (ISelfD= 2).
 1st derivatives      : Analytical E(r).r(x)/FMM algorithm (CHGder, D1EAlg=3).
                        Cavity 1st derivative terms included.
 Solvent              : Water, Eps=  78.355300 Eps(inf)=   1.777849
 ------------------------------------------------------------------------------
 GePol: Number of generator spheres                  =      37
 GePol: Total number of spheres                      =      37
 GePol: Number of exposed spheres                    =      37 (100.00%)
 GePol: Number of points                             =    2823
 GePol: Average weight of points                     =       0.13
 GePol: Minimum weight of points                     =   0.16D-09
 GePol: Maximum weight of points                     =    0.22001
 GePol: Number of points with low weight             =     183
 GePol: Fraction of low-weight points (<1% of avg)   =       6.48%
 GePol: Cavity surface area                          =    362.958 Ang**2
 GePol: Cavity volume                                =    362.516 Ang**3
 Surface areas from nonelectrostatic (unscaled) cavity and vdw tensions:
 Sphere =    1 Type =  CH3 Surf =        5.534 Tension =       -0.140
 Sphere =    2 Type =  NH  Surf =        8.320 Tension =       -0.159
 Sphere =    3 Type =  CH2 Surf =        3.969 Tension =       -0.139
 Sphere =    4 Type =  CH2 Surf =        3.852 Tension =       -0.139
 Sphere =    5 Type =  CH2 Surf =        3.308 Tension =       -0.139
 Sphere =    6 Type =  N   Surf =        4.587 Tension =       -0.105
 Sphere =    7 Type =  C   Surf =        6.719 Tension =       -0.101
 Sphere =    8 Type =  CH  Surf =        7.233 Tension =       -0.140
 Sphere =    9 Type =  C   Surf =        5.223 Tension =       -0.101
 Sphere =   10 Type =  Cl  Surf =       32.200 Tension =       -0.112
 Sphere =   11 Type =  CH  Surf =        7.502 Tension =       -0.140
 Sphere =   12 Type =  CH  Surf =        7.524 Tension =       -0.140
 Sphere =   13 Type =  C   Surf =        5.840 Tension =       -0.101
 Sphere =   14 Type =  S   Surf =       23.284 Tension =       -0.125
 Sphere =   15 Type =  C   Surf =        5.837 Tension =       -0.101
 Sphere =   16 Type =  C   Surf =        6.720 Tension =       -0.101
 Sphere =   17 Type =  CH  Surf =        7.458 Tension =       -0.140
 Sphere =   18 Type =  CH  Surf =        7.754 Tension =       -0.140
 Sphere =   19 Type =  CH  Surf =        7.765 Tension =       -0.140
 Sphere =   20 Type =  CH  Surf =        7.528 Tension =       -0.140
 Sphere =   21 Type =  CH3 Surf =       10.170 Tension =       -0.140
 Sphere =   22 Type =  CH3 Surf =       10.168 Tension =       -0.140
 Sphere =   23 Type =  CH3 Surf =       10.157 Tension =       -0.140
 Sphere =   24 Type =  NH  Surf =        4.737 Tension =       -0.159
 Sphere =   25 Type =  CH2 Surf =       10.047 Tension =       -0.139
 Sphere =   26 Type =  CH2 Surf =       10.060 Tension =       -0.139
 Sphere =   27 Type =  CH2 Surf =        9.519 Tension =       -0.139
 Sphere =   28 Type =  CH2 Surf =        9.615 Tension =       -0.139
 Sphere =   29 Type =  CH2 Surf =        8.929 Tension =       -0.139
 Sphere =   30 Type =  CH2 Surf =        8.950 Tension =       -0.139
 Sphere =   31 Type =  CH  Surf =        8.209 Tension =       -0.140
 Sphere =   32 Type =  CH  Surf =       10.106 Tension =       -0.140
 Sphere =   33 Type =  CH  Surf =       10.058 Tension =       -0.140
 Sphere =   34 Type =  CH  Surf =        8.577 Tension =       -0.140
 Sphere =   35 Type =  CH  Surf =       10.230 Tension =       -0.140
 Sphere =   36 Type =  CH  Surf =       10.238 Tension =       -0.140
 Sphere =   37 Type =  CH  Surf =       10.060 Tension =       -0.140
 PCM non-electrostatic energy =         0.0029767582 Hartrees.
 Nuclear repulsion after PCM non-electrostatic terms =     1727.5917999584 Hartrees.
 Leave Link  301 at Wed Mar  2 05:06:23 2022, MaxMem=   104857600 cpu:               0.1 elap:               0.1
 (Enter /dades/curu/g16A03_MST/g16/l302.exe)
 NPDir=0 NMtPBC=     1 NCelOv=     1 NCel=       1 NClECP=     1 NCelD=      1
         NCelK=      1 NCelE2=     1 NClLst=     1 CellRange=     0.0.
 One-electron integrals computed using PRISM.
 One-electron integral symmetry used in STVInt
 NBasis=   342 RedAO= T EigKep=  3.96D-04  NBF=   342
 NBsUse=   342 1.00D-06 EigRej= -1.00D+00 NBFU=   342
 Precomputing XC quadrature grid using
 IXCGrd= 4 IRadAn=           5 IRanWt=          -1 IRanGd=           0 AccXCQ= 0.00D+00.
 Generated NRdTot=       0 NPtTot=           0 NUsed=           0 NTot=          32
 NSgBfM=   338   338   338   338   338 MxSgAt=    37 MxSgA2=    37.
 Leave Link  302 at Wed Mar  2 05:06:24 2022, MaxMem=   104857600 cpu:               4.6 elap:               1.2
 (Enter /dades/curu/g16A03_MST/g16/l303.exe)
 DipDrv:  MaxL=1.
 Leave Link  303 at Wed Mar  2 05:06:24 2022, MaxMem=   104857600 cpu:               0.1 elap:               0.1
 (Enter /dades/curu/g16A03_MST/g16/l401.exe)
 ExpMin= 1.17D-01 ExpMax= 2.52D+04 ExpMxC= 3.78D+03 IAcc=3 IRadAn=         5 AccDes= 0.00D+00
 Harris functional with IExCor=  402 and IRadAn=       5 diagonalized for initial guess.
 HarFok:  IExCor=  402 AccDes= 0.00D+00 IRadAn=         5 IDoV= 1 UseB2=F ITyADJ=14
 ICtDFT=  3500011 ScaDFX=  1.000000  1.000000  1.000000  1.000000
 FoFCou: FMM=F IPFlag=           0 FMFlag=      100000 FMFlg1=           0
         NFxFlg=           0 DoJE=T BraDBF=F KetDBF=T FulRan=T
         wScrn=  0.000000 ICntrl=       500 IOpCl=  0 I1Cent=   200000004 NGrid=           0
         NMat0=    1 NMatS0=      1 NMatT0=    0 NMatD0=    1 NMtDS0=    0 NMtDT0=    0
 Petite list used in FoFCou.
 Harris En= -1587.68697901352    
 JPrj=0 DoOrth=F DoCkMO=F.
 Leave Link  401 at Wed Mar  2 05:06:33 2022, MaxMem=   104857600 cpu:              32.1 elap:               8.1
 (Enter /dades/curu/g16A03_MST/g16/l502.exe)
 Integral symmetry usage will be decided dynamically.
 Closed shell SCF:
 Using DIIS extrapolation, IDIIS=  1040.
 NGot=   104857600 LenX=   104617791 LenY=   104500386
 Requested convergence on RMS density matrix=1.00D-08 within2000 cycles.
 Requested convergence on MAX density matrix=1.00D-06.
 Requested convergence on             energy=1.00D-06.
 No special actions if energy rises.

 Cycle   1  Pass 1  IDiag  1:
 FoFJK:  IHMeth= 1 ICntrl=       0 DoSepK=F KAlg= 0 I1Cent=           0 FoldK=F
 IRaf= 770000000 NMat=       1 IRICut=       1 DoRegI=T DoRafI=F ISym2E= 0 IDoP0=0 IntGTp=1.
 FoFCou: FMM=F IPFlag=           0 FMFlag=      100000 FMFlg1=           0
         NFxFlg=           0 DoJE=F BraDBF=F KetDBF=F FulRan=T
         wScrn=  0.000000 ICntrl=         0 IOpCl=  0 I1Cent=           0 NGrid=           0
         NMat0=    1 NMatS0=      1 NMatT0=    0 NMatD0=    1 NMtDS0=    0 NMtDT0=    0
 Symmetry not used in FoFCou.
 Inv3:  Mode=1 IEnd=    23907987.
 Iteration    1 A*A^-1 deviation from unit magnitude is 6.44D-15 for   2820.
 Iteration    1 A*A^-1 deviation from orthogonality  is 3.09D-15 for   2818   2659.
 Iteration    1 A^-1*A deviation from unit magnitude is 6.00D-15 for   2820.
 Iteration    1 A^-1*A deviation from orthogonality  is 3.35D-15 for   2818   2659.
 E= -1587.31058184413    
 DIIS: error= 2.90D-02 at cycle   1 NSaved=   1.
 NSaved= 1 IEnMin= 1 EnMin= -1587.31058184413     IErMin= 1 ErrMin= 2.90D-02
 ErrMax= 2.90D-02  0.00D+00 EMaxC= 1.00D-01 BMatC= 4.76D-01 BMatP= 4.76D-01
 IDIUse=3 WtCom= 7.10D-01 WtEn= 2.90D-01
 Coeff-Com:  0.100D+01
 Coeff-En:   0.100D+01
 Coeff:      0.100D+01
 Gap=     0.260 Goal=   None    Shift=    0.000
 GapD=    0.260 DampG=1.000 DampE=0.500 DampFc=0.5000 IDamp=-1.
 Damping current iteration by 5.00D-01
 RMSDP=4.98D-03 MaxDP=1.61D-01              OVMax= 2.74D-01

 Cycle   2  Pass 1  IDiag  1:
 E= -1587.52317371289     Delta-E=       -0.212591868763 Rises=F Damp=T
 DIIS: error= 8.62D-03 at cycle   2 NSaved=   2.
 NSaved= 2 IEnMin= 2 EnMin= -1587.52317371289     IErMin= 2 ErrMin= 8.62D-03
 ErrMax= 8.62D-03  0.00D+00 EMaxC= 1.00D-01 BMatC= 3.75D-02 BMatP= 4.76D-01
 IDIUse=3 WtCom= 9.14D-01 WtEn= 8.62D-02
 Coeff-Com:  0.923D-01 0.908D+00
 Coeff-En:   0.167D+00 0.833D+00
 Coeff:      0.988D-01 0.901D+00
 Gap=     0.256 Goal=   None    Shift=    0.000
 RMSDP=1.31D-03 MaxDP=7.37D-02 DE=-2.13D-01 OVMax= 2.18D-01

 Cycle   3  Pass 1  IDiag  1:
 E= -1587.79252325223     Delta-E=       -0.269349539336 Rises=F Damp=F
 DIIS: error= 5.48D-03 at cycle   3 NSaved=   3.
 NSaved= 3 IEnMin= 3 EnMin= -1587.79252325223     IErMin= 3 ErrMin= 5.48D-03
 ErrMax= 5.48D-03  0.00D+00 EMaxC= 1.00D-01 BMatC= 2.43D-02 BMatP= 3.75D-02
 IDIUse=3 WtCom= 9.45D-01 WtEn= 5.48D-02
 Coeff-Com: -0.521D-03 0.434D+00 0.567D+00
 Coeff-En:   0.000D+00 0.000D+00 0.100D+01
 Coeff:     -0.492D-03 0.410D+00 0.590D+00
 Gap=     0.162 Goal=   None    Shift=    0.000
 RMSDP=8.24D-04 MaxDP=4.97D-02 DE=-2.69D-01 OVMax= 9.85D-02

 Cycle   4  Pass 1  IDiag  1:
 E= -1587.80967736055     Delta-E=       -0.017154108317 Rises=F Damp=F
 DIIS: error= 3.45D-03 at cycle   4 NSaved=   4.
 NSaved= 4 IEnMin= 4 EnMin= -1587.80967736055     IErMin= 4 ErrMin= 3.45D-03
 ErrMax= 3.45D-03  0.00D+00 EMaxC= 1.00D-01 BMatC= 8.51D-03 BMatP= 2.43D-02
 IDIUse=3 WtCom= 9.66D-01 WtEn= 3.45D-02
 Coeff-Com: -0.108D-01 0.746D-01 0.382D+00 0.555D+00
 Coeff-En:   0.000D+00 0.000D+00 0.291D+00 0.709D+00
 Coeff:     -0.105D-01 0.720D-01 0.378D+00 0.560D+00
 Gap=     0.156 Goal=   None    Shift=    0.000
 RMSDP=3.40D-04 MaxDP=1.93D-02 DE=-1.72D-02 OVMax= 3.40D-02

 Cycle   5  Pass 1  IDiag  1:
 E= -1587.81850142901     Delta-E=       -0.008824068466 Rises=F Damp=F
 DIIS: error= 7.30D-04 at cycle   5 NSaved=   5.
 NSaved= 5 IEnMin= 5 EnMin= -1587.81850142901     IErMin= 5 ErrMin= 7.30D-04
 ErrMax= 7.30D-04  0.00D+00 EMaxC= 1.00D-01 BMatC= 2.08D-04 BMatP= 8.51D-03
 IDIUse=3 WtCom= 9.93D-01 WtEn= 7.30D-03
 Coeff-Com: -0.350D-02 0.106D-01 0.142D+00 0.251D+00 0.600D+00
 Coeff-En:   0.000D+00 0.000D+00 0.000D+00 0.000D+00 0.100D+01
 Coeff:     -0.348D-02 0.105D-01 0.141D+00 0.249D+00 0.602D+00
 Gap=     0.154 Goal=   None    Shift=    0.000
 RMSDP=6.63D-05 MaxDP=6.77D-03 DE=-8.82D-03 OVMax= 4.06D-03

 Cycle   6  Pass 1  IDiag  1:
 E= -1587.81869880899     Delta-E=       -0.000197379976 Rises=F Damp=F
 DIIS: error= 1.60D-04 at cycle   6 NSaved=   6.
 NSaved= 6 IEnMin= 6 EnMin= -1587.81869880899     IErMin= 6 ErrMin= 1.60D-04
 ErrMax= 1.60D-04  0.00D+00 EMaxC= 1.00D-01 BMatC= 2.44D-05 BMatP= 2.08D-04
 IDIUse=3 WtCom= 9.98D-01 WtEn= 1.60D-03
 Coeff-Com: -0.803D-03-0.557D-03 0.445D-01 0.841D-01 0.308D+00 0.564D+00
 Coeff-En:   0.000D+00 0.000D+00 0.000D+00 0.000D+00 0.000D+00 0.100D+01
 Coeff:     -0.801D-03-0.556D-03 0.444D-01 0.839D-01 0.308D+00 0.565D+00
 Gap=     0.154 Goal=   None    Shift=    0.000
 RMSDP=1.83D-05 MaxDP=1.14D-03 DE=-1.97D-04 OVMax= 1.43D-03

 Cycle   7  Pass 1  IDiag  1:
 E= -1587.81872104935     Delta-E=       -0.000022240363 Rises=F Damp=F
 DIIS: error= 5.60D-05 at cycle   7 NSaved=   7.
 NSaved= 7 IEnMin= 7 EnMin= -1587.81872104935     IErMin= 7 ErrMin= 5.60D-05
 ErrMax= 5.60D-05  0.00D+00 EMaxC= 1.00D-01 BMatC= 2.45D-06 BMatP= 2.44D-05
 IDIUse=1 WtCom= 1.00D+00 WtEn= 0.00D+00
 Coeff-Com: -0.364D-04-0.139D-02 0.105D-01 0.198D-01 0.102D+00 0.297D+00
 Coeff-Com:  0.572D+00
 Coeff:     -0.364D-04-0.139D-02 0.105D-01 0.198D-01 0.102D+00 0.297D+00
 Coeff:      0.572D+00
 Gap=     0.154 Goal=   None    Shift=    0.000
 RMSDP=6.69D-06 MaxDP=4.67D-04 DE=-2.22D-05 OVMax= 7.28D-04

 Cycle   8  Pass 1  IDiag  1:
 E= -1587.81872344439     Delta-E=       -0.000002395033 Rises=F Damp=F
 DIIS: error= 1.62D-05 at cycle   8 NSaved=   8.
 NSaved= 8 IEnMin= 8 EnMin= -1587.81872344439     IErMin= 8 ErrMin= 1.62D-05
 ErrMax= 1.62D-05  0.00D+00 EMaxC= 1.00D-01 BMatC= 2.90D-07 BMatP= 2.45D-06
 IDIUse=1 WtCom= 1.00D+00 WtEn= 0.00D+00
 Coeff-Com:  0.147D-03-0.716D-03-0.505D-03-0.192D-02 0.985D-02 0.803D-01
 Coeff-Com:  0.293D+00 0.619D+00
 Coeff:      0.147D-03-0.716D-03-0.505D-03-0.192D-02 0.985D-02 0.803D-01
 Coeff:      0.293D+00 0.619D+00
 Gap=     0.154 Goal=   None    Shift=    0.000
 RMSDP=2.27D-06 MaxDP=1.22D-04 DE=-2.40D-06 OVMax= 2.37D-04

 Cycle   9  Pass 1  IDiag  1:
 E= -1587.81872374788     Delta-E=       -0.000000303497 Rises=F Damp=F
 DIIS: error= 5.49D-06 at cycle   9 NSaved=   9.
 NSaved= 9 IEnMin= 9 EnMin= -1587.81872374788     IErMin= 9 ErrMin= 5.49D-06
 ErrMax= 5.49D-06  0.00D+00 EMaxC= 1.00D-01 BMatC= 3.93D-08 BMatP= 2.90D-07
 IDIUse=1 WtCom= 1.00D+00 WtEn= 0.00D+00
 Coeff-Com:  0.997D-04-0.245D-03-0.156D-02-0.379D-02-0.808D-02 0.595D-02
 Coeff-Com:  0.804D-01 0.329D+00 0.599D+00
 Coeff:      0.997D-04-0.245D-03-0.156D-02-0.379D-02-0.808D-02 0.595D-02
 Coeff:      0.804D-01 0.329D+00 0.599D+00
 Gap=     0.154 Goal=   None    Shift=    0.000
 RMSDP=7.97D-07 MaxDP=5.54D-05 DE=-3.03D-07 OVMax= 7.11D-05

 Cycle  10  Pass 1  IDiag  1:
 E= -1587.81872379135     Delta-E=       -0.000000043472 Rises=F Damp=F
 DIIS: error= 1.06D-06 at cycle  10 NSaved=  10.
 NSaved=10 IEnMin=10 EnMin= -1587.81872379135     IErMin=10 ErrMin= 1.06D-06
 ErrMax= 1.06D-06  0.00D+00 EMaxC= 1.00D-01 BMatC= 1.66D-09 BMatP= 3.93D-08
 IDIUse=1 WtCom= 1.00D+00 WtEn= 0.00D+00
 Coeff-Com:  0.308D-04-0.448D-04-0.521D-03-0.133D-02-0.374D-02-0.311D-02
 Coeff-Com:  0.780D-02 0.801D-01 0.230D+00 0.691D+00
 Coeff:      0.308D-04-0.448D-04-0.521D-03-0.133D-02-0.374D-02-0.311D-02
 Coeff:      0.780D-02 0.801D-01 0.230D+00 0.691D+00
 Gap=     0.154 Goal=   None    Shift=    0.000
 RMSDP=2.13D-07 MaxDP=9.21D-06 DE=-4.35D-08 OVMax= 2.26D-05

 Cycle  11  Pass 1  IDiag  1:
 E= -1587.81872379315     Delta-E=       -0.000000001801 Rises=F Damp=F
 DIIS: error= 5.01D-07 at cycle  11 NSaved=  11.
 NSaved=11 IEnMin=11 EnMin= -1587.81872379315     IErMin=11 ErrMin= 5.01D-07
 ErrMax= 5.01D-07  0.00D+00 EMaxC= 1.00D-01 BMatC= 2.72D-10 BMatP= 1.66D-09
 IDIUse=1 WtCom= 1.00D+00 WtEn= 0.00D+00
 Coeff-Com:  0.225D-05 0.106D-04-0.363D-04-0.140D-03-0.683D-03-0.218D-02
 Coeff-Com: -0.753D-02-0.735D-02 0.277D-01 0.328D+00 0.662D+00
 Coeff:      0.225D-05 0.106D-04-0.363D-04-0.140D-03-0.683D-03-0.218D-02
 Coeff:     -0.753D-02-0.735D-02 0.277D-01 0.328D+00 0.662D+00
 Gap=     0.154 Goal=   None    Shift=    0.000
 RMSDP=8.07D-08 MaxDP=2.97D-06 DE=-1.80D-09 OVMax= 8.56D-06

 Cycle  12  Pass 1  IDiag  1:
 E= -1587.81872379356     Delta-E=       -0.000000000403 Rises=F Damp=F
 DIIS: error= 1.71D-07 at cycle  12 NSaved=  12.
 NSaved=12 IEnMin=12 EnMin= -1587.81872379356     IErMin=12 ErrMin= 1.71D-07
 ErrMax= 1.71D-07  0.00D+00 EMaxC= 1.00D-01 BMatC= 2.21D-11 BMatP= 2.72D-10
 IDIUse=1 WtCom= 1.00D+00 WtEn= 0.00D+00
 Coeff-Com: -0.147D-05 0.814D-05 0.306D-04 0.543D-04 0.229D-04-0.725D-03
 Coeff-Com: -0.429D-02-0.107D-01-0.628D-02 0.915D-01 0.297D+00 0.633D+00
 Coeff:     -0.147D-05 0.814D-05 0.306D-04 0.543D-04 0.229D-04-0.725D-03
 Coeff:     -0.429D-02-0.107D-01-0.628D-02 0.915D-01 0.297D+00 0.633D+00
 Gap=     0.154 Goal=   None    Shift=    0.000
 RMSDP=2.27D-08 MaxDP=1.46D-06 DE=-4.03D-10 OVMax= 1.81D-06

 Cycle  13  Pass 1  IDiag  1:
 E= -1587.81872379354     Delta-E=        0.000000000013 Rises=F Damp=F
 DIIS: error= 5.27D-08 at cycle  13 NSaved=  13.
 NSaved=13 IEnMin=12 EnMin= -1587.81872379356     IErMin=13 ErrMin= 5.27D-08
 ErrMax= 5.27D-08  0.00D+00 EMaxC= 1.00D-01 BMatC= 3.74D-12 BMatP= 2.21D-11
 IDIUse=1 WtCom= 1.00D+00 WtEn= 0.00D+00
 Coeff-Com: -0.923D-06 0.256D-05 0.174D-04 0.402D-04 0.810D-04-0.115D-03
 Coeff-Com: -0.128D-02-0.456D-02-0.619D-02 0.900D-02 0.768D-01 0.340D+00
 Coeff-Com:  0.586D+00
 Coeff:     -0.923D-06 0.256D-05 0.174D-04 0.402D-04 0.810D-04-0.115D-03
 Coeff:     -0.128D-02-0.456D-02-0.619D-02 0.900D-02 0.768D-01 0.340D+00
 Coeff:      0.586D+00
 Gap=     0.154 Goal=   None    Shift=    0.000
 RMSDP=6.85D-09 MaxDP=3.52D-07 DE= 1.30D-11 OVMax= 7.11D-07

 Error on total polarization charges =  0.02411
 SCF Done:  E(RB3LYP) =  -1587.81872379     A.U. after   13 cycles
            NFock= 13  Conv=0.69D-08     -V/T= 2.0063
 KE= 1.577892891789D+03 PE=-7.184362475897D+03 EE= 2.291059060356D+03
 Leave Link  502 at Wed Mar  2 05:10:34 2022, MaxMem=   104857600 cpu:             935.2 elap:             241.6
 (Enter /dades/curu/g16A03_MST/g16/l601.exe)
 Copying SCF densities to generalized density rwf, IOpCl= 0 IROHF=0.

 **********************************************************************

            Population analysis using the SCF density.

 **********************************************************************

 Orbital symmetries:
       Occupied  (A) (A) (A) (A) (A) (A) (A) (A) (A) (A) (A) (A)
                 (A) (A) (A) (A) (A) (A) (A) (A) (A) (A) (A) (A)
                 (A) (A) (A) (A) (A) (A) (A) (A) (A) (A) (A) (A)
                 (A) (A) (A) (A) (A) (A) (A) (A) (A) (A) (A) (A)
                 (A) (A) (A) (A) (A) (A) (A) (A) (A) (A) (A) (A)
                 (A) (A) (A) (A) (A) (A) (A) (A) (A) (A) (A) (A)
                 (A) (A) (A) (A) (A) (A) (A) (A)
       Virtual   (A) (A) (A) (A) (A) (A) (A) (A) (A) (A) (A) (A)
                 (A) (A) (A) (A) (A) (A) (A) (A) (A) (A) (A) (A)
                 (A) (A) (A) (A) (A) (A) (A) (A) (A) (A) (A) (A)
                 (A) (A) (A) (A) (A) (A) (A) (A) (A) (A) (A) (A)
                 (A) (A) (A) (A) (A) (A) (A) (A) (A) (A) (A) (A)
                 (A) (A) (A) (A) (A) (A) (A) (A) (A) (A) (A) (A)
                 (A) (A) (A) (A) (A) (A) (A) (A) (A) (A) (A) (A)
                 (A) (A) (A) (A) (A) (A) (A) (A) (A) (A) (A) (A)
                 (A) (A) (A) (A) (A) (A) (A) (A) (A) (A) (A) (A)
                 (A) (A) (A) (A) (A) (A) (A) (A) (A) (A) (A) (A)
                 (A) (A) (A) (A) (A) (A) (A) (A) (A) (A) (A) (A)
                 (A) (A) (A) (A) (A) (A) (A) (A) (A) (A) (A) (A)
                 (A) (A) (A) (A) (A) (A) (A) (A) (A) (A) (A) (A)
                 (A) (A) (A) (A) (A) (A) (A) (A) (A) (A) (A) (A)
                 (A) (A) (A) (A) (A) (A) (A) (A) (A) (A) (A) (A)
                 (A) (A) (A) (A) (A) (A) (A) (A) (A) (A) (A) (A)
                 (A) (A) (A) (A) (A) (A) (A) (A) (A) (A) (A) (A)
                 (A) (A) (A) (A) (A) (A) (A) (A) (A) (A) (A) (A)
                 (A) (A) (A) (A) (A) (A) (A) (A) (A) (A) (A) (A)
                 (A) (A) (A) (A) (A) (A) (A) (A) (A) (A) (A) (A)
                 (A) (A) (A) (A) (A) (A) (A) (A) (A) (A) (A) (A)
                 (A) (A) (A) (A) (A) (A) (A) (A) (A) (A)
 The electronic state is 1-A.
 Alpha  occ. eigenvalues -- -101.55675 -88.90035 -14.38046 -14.31047 -10.25811
 Alpha  occ. eigenvalues --  -10.25329 -10.25119 -10.23472 -10.23118 -10.22434
 Alpha  occ. eigenvalues --  -10.20651 -10.20617 -10.20150 -10.19896 -10.19892
 Alpha  occ. eigenvalues --  -10.19641 -10.19324 -10.19238 -10.18831 -10.18179
 Alpha  occ. eigenvalues --   -9.47354  -7.96135  -7.23735  -7.22786  -7.22750
 Alpha  occ. eigenvalues --   -5.92645  -5.92254  -5.91641  -0.96610  -0.89980
 Alpha  occ. eigenvalues --   -0.89487  -0.86281  -0.85270  -0.80127  -0.77724
 Alpha  occ. eigenvalues --   -0.76970  -0.74686  -0.73523  -0.69800  -0.67549
 Alpha  occ. eigenvalues --   -0.64081  -0.63533  -0.61171  -0.60384  -0.59503
 Alpha  occ. eigenvalues --   -0.56268  -0.54734  -0.51674  -0.48793  -0.48561
 Alpha  occ. eigenvalues --   -0.48073  -0.47309  -0.45781  -0.45358  -0.44999
 Alpha  occ. eigenvalues --   -0.43861  -0.43246  -0.42845  -0.42176  -0.41484
 Alpha  occ. eigenvalues --   -0.39829  -0.39655  -0.38257  -0.37965  -0.37902
 Alpha  occ. eigenvalues --   -0.36392  -0.35887  -0.35592  -0.35234  -0.34763
 Alpha  occ. eigenvalues --   -0.33739  -0.33076  -0.32072  -0.31343  -0.30373
 Alpha  occ. eigenvalues --   -0.26591  -0.25841  -0.22851  -0.21860  -0.18106
 Alpha virt. eigenvalues --   -0.02661  -0.01729  -0.00993   0.02182   0.02200
 Alpha virt. eigenvalues --    0.03792   0.07063   0.08842   0.10523   0.11478
 Alpha virt. eigenvalues --    0.12091   0.12993   0.13328   0.13737   0.14587
 Alpha virt. eigenvalues --    0.15232   0.15856   0.16243   0.16904   0.17406
 Alpha virt. eigenvalues --    0.18167   0.18541   0.18996   0.19509   0.20136
 Alpha virt. eigenvalues --    0.20198   0.20728   0.21439   0.22974   0.23952
 Alpha virt. eigenvalues --    0.24701   0.26202   0.26421   0.26518   0.27860
 Alpha virt. eigenvalues --    0.29721   0.30183   0.31100   0.31872   0.32859
 Alpha virt. eigenvalues --    0.35742   0.36326   0.37376   0.38342   0.38958
 Alpha virt. eigenvalues --    0.40779   0.43029   0.43444   0.43508   0.46194
 Alpha virt. eigenvalues --    0.49098   0.51099   0.51531   0.52405   0.52996
 Alpha virt. eigenvalues --    0.53753   0.54196   0.54541   0.54851   0.56628
 Alpha virt. eigenvalues --    0.56896   0.57329   0.57764   0.58179   0.58739
 Alpha virt. eigenvalues --    0.59044   0.59760   0.60125   0.60485   0.60575
 Alpha virt. eigenvalues --    0.60861   0.61505   0.61873   0.62738   0.62878
 Alpha virt. eigenvalues --    0.64672   0.65186   0.66244   0.67256   0.68920
 Alpha virt. eigenvalues --    0.69584   0.71980   0.73502   0.73832   0.74664
 Alpha virt. eigenvalues --    0.75079   0.76858   0.77120   0.80508   0.81484
 Alpha virt. eigenvalues --    0.81956   0.82243   0.83283   0.84053   0.84438
 Alpha virt. eigenvalues --    0.85456   0.85546   0.85699   0.86483   0.87284
 Alpha virt. eigenvalues --    0.87979   0.88981   0.89724   0.90399   0.90658
 Alpha virt. eigenvalues --    0.91183   0.91444   0.91964   0.92664   0.93347
 Alpha virt. eigenvalues --    0.94240   0.95081   0.95568   0.96941   0.97433
 Alpha virt. eigenvalues --    0.98856   0.98988   0.99733   0.99790   1.00840
 Alpha virt. eigenvalues --    1.01843   1.02209   1.03571   1.04481   1.07526
 Alpha virt. eigenvalues --    1.08696   1.09682   1.11118   1.12276   1.12571
 Alpha virt. eigenvalues --    1.15169   1.16298   1.18644   1.19529   1.21770
 Alpha virt. eigenvalues --    1.23709   1.24999   1.26003   1.28578   1.29255
 Alpha virt. eigenvalues --    1.32385   1.35425   1.36762   1.38428   1.41589
 Alpha virt. eigenvalues --    1.42311   1.42987   1.43402   1.44536   1.45528
 Alpha virt. eigenvalues --    1.47314   1.47681   1.48181   1.48829   1.49932
 Alpha virt. eigenvalues --    1.53098   1.53726   1.55302   1.55973   1.56783
 Alpha virt. eigenvalues --    1.60696   1.64467   1.67127   1.70354   1.71350
 Alpha virt. eigenvalues --    1.76839   1.77446   1.77910   1.79251   1.81269
 Alpha virt. eigenvalues --    1.82089   1.83943   1.87731   1.89164   1.90096
 Alpha virt. eigenvalues --    1.91424   1.92263   1.92610   1.93370   1.94433
 Alpha virt. eigenvalues --    1.97948   1.98024   1.99543   2.00232   2.00883
 Alpha virt. eigenvalues --    2.03872   2.05315   2.06120   2.07061   2.07898
 Alpha virt. eigenvalues --    2.10904   2.11518   2.11639   2.12265   2.14362
 Alpha virt. eigenvalues --    2.14700   2.15719   2.16502   2.19525   2.19782
 Alpha virt. eigenvalues --    2.22543   2.23974   2.24599   2.26253   2.27252
 Alpha virt. eigenvalues --    2.27959   2.29114   2.29924   2.31744   2.36356
 Alpha virt. eigenvalues --    2.37267   2.42556   2.44828   2.47518   2.49051
 Alpha virt. eigenvalues --    2.51586   2.53540   2.55580   2.57324   2.59178
 Alpha virt. eigenvalues --    2.59856   2.63144   2.63865   2.64590   2.65725
 Alpha virt. eigenvalues --    2.67310   2.68848   2.73256   2.73779   2.75505
 Alpha virt. eigenvalues --    2.75878   2.76752   2.80856   2.82365   2.87039
 Alpha virt. eigenvalues --    2.89740   2.92158   2.95196   3.10993   3.20853
 Alpha virt. eigenvalues --    3.34908   3.38982   3.91366   3.96829   4.05561
 Alpha virt. eigenvalues --    4.08876   4.10009   4.11662   4.13190   4.16358
 Alpha virt. eigenvalues --    4.17631   4.25248   4.26247   4.30278   4.33484
 Alpha virt. eigenvalues --    4.35658   4.38210   4.38681   4.43122   4.56781
 Alpha virt. eigenvalues --    4.66962   4.73951
          Condensed to atoms (all electrons):
               1          2          3          4          5          6
     1  C    4.952766   0.315156  -0.056174   0.005072  -0.000152   0.000001
     2  N    0.315156   6.922459   0.315537  -0.047069   0.003107  -0.000046
     3  C   -0.056174   0.315537   4.892825   0.361351  -0.036275   0.003339
     4  C    0.005072  -0.047069   0.361351   5.111270   0.350079  -0.051119
     5  C   -0.000152   0.003107  -0.036275   0.350079   4.981115   0.290608
     6  N    0.000001  -0.000046   0.003339  -0.051119   0.290608   7.137724
     7  C    0.000000  -0.000001   0.000052  -0.003007  -0.040860   0.300369
     8  C   -0.000000   0.000004  -0.000161  -0.001738  -0.002084  -0.065308
     9  C    0.000000  -0.000000  -0.000004   0.000193   0.000187   0.004367
    10  Cl   0.000000   0.000000   0.000000  -0.000005  -0.000007  -0.000069
    11  C    0.000000  -0.000000   0.000000  -0.000001  -0.000010   0.000225
    12  C   -0.000000   0.000000  -0.000000   0.000001  -0.000054   0.004132
    13  C    0.000000  -0.000000   0.000003  -0.000250   0.004735  -0.062606
    14  S   -0.000000   0.000000  -0.000001   0.000029  -0.000038  -0.006201
    15  C    0.000000  -0.000000   0.000003  -0.000232   0.004659  -0.063023
    16  C    0.000000  -0.000001   0.000037  -0.002904  -0.040313   0.288696
    17  C   -0.000000   0.000006  -0.000196  -0.001878  -0.002489  -0.066818
    18  C    0.000000   0.000000  -0.000003   0.000135   0.000147   0.004310
    19  C    0.000000  -0.000000   0.000000  -0.000002  -0.000007   0.000165
    20  C   -0.000000   0.000000  -0.000000   0.000001  -0.000051   0.004308
    21  H    0.379425  -0.034771   0.005610  -0.000231   0.000001  -0.000000
    22  H    0.366852  -0.052799  -0.006573  -0.000054   0.000024  -0.000000
    23  H    0.383811  -0.039210  -0.004488   0.000143  -0.000005   0.000000
    24  H   -0.036528   0.313831  -0.036280  -0.003301  -0.000089   0.000000
    25  H   -0.003368  -0.043260   0.379416  -0.032806  -0.004640   0.000018
    26  H   -0.003390  -0.056463   0.365591  -0.047012  -0.000331  -0.000027
    27  H    0.000035   0.006374  -0.034686   0.364571  -0.033917  -0.002628
    28  H    0.000020  -0.002736  -0.033557   0.376166  -0.037281  -0.002789
    29  H    0.000004  -0.000068  -0.000266  -0.048030   0.369970  -0.033017
    30  H    0.000005  -0.000057  -0.000607  -0.047259   0.369677  -0.032880
    31  H    0.000000  -0.000045   0.000302  -0.000948   0.004914  -0.010186
    32  H   -0.000000   0.000000  -0.000000   0.000000  -0.000000   0.000002
    33  H    0.000000  -0.000000   0.000000  -0.000000   0.000001  -0.000087
    34  H    0.000000  -0.000031   0.000360  -0.001909   0.004339  -0.009711
    35  H    0.000000   0.000000  -0.000000  -0.000001   0.000006  -0.000073
    36  H   -0.000000   0.000000  -0.000000   0.000000  -0.000000   0.000003
    37  H    0.000000  -0.000000   0.000000  -0.000000   0.000001  -0.000081
               7          8          9         10         11         12
     1  C    0.000000  -0.000000   0.000000   0.000000   0.000000  -0.000000
     2  N   -0.000001   0.000004  -0.000000   0.000000  -0.000000   0.000000
     3  C    0.000052  -0.000161  -0.000004   0.000000   0.000000  -0.000000
     4  C   -0.003007  -0.001738   0.000193  -0.000005  -0.000001   0.000001
     5  C   -0.040860  -0.002084   0.000187  -0.000007  -0.000010  -0.000054
     6  N    0.300369  -0.065308   0.004367  -0.000069   0.000225   0.004132
     7  C    4.574781   0.486552  -0.011055   0.003911  -0.034139  -0.001525
     8  C    0.486552   5.120000   0.505354  -0.069717  -0.040572  -0.047560
     9  C   -0.011055   0.505354   4.965721   0.229849   0.532208  -0.024195
    10  Cl   0.003911  -0.069717   0.229849  16.928413  -0.071729   0.005269
    11  C   -0.034139  -0.040572   0.532208  -0.071729   4.937866   0.516033
    12  C   -0.001525  -0.047560  -0.024195   0.005269   0.516033   4.948908
    13  C    0.477813  -0.064563  -0.036087   0.000514  -0.037801   0.512129
    14  S   -0.049258   0.005054   0.000596   0.000008   0.004702  -0.057880
    15  C   -0.014339   0.000247   0.000010   0.000000  -0.000096   0.001186
    16  C   -0.019874   0.003407  -0.000046   0.000001  -0.000010   0.000486
    17  C    0.003364  -0.000159   0.000001  -0.000000  -0.000000   0.000005
    18  C   -0.000054   0.000001  -0.000000   0.000000   0.000000  -0.000000
    19  C   -0.000010  -0.000000   0.000000  -0.000000  -0.000000   0.000001
    20  C    0.000492   0.000006  -0.000000   0.000000   0.000001  -0.000077
    21  H   -0.000000   0.000000   0.000000   0.000000   0.000000   0.000000
    22  H   -0.000000   0.000000  -0.000000   0.000000  -0.000000   0.000000
    23  H    0.000000  -0.000000   0.000000  -0.000000   0.000000  -0.000000
    24  H    0.000000  -0.000000  -0.000000  -0.000000   0.000000  -0.000000
    25  H    0.000011  -0.000057  -0.000001  -0.000000   0.000000  -0.000000
    26  H   -0.000004   0.000002   0.000000   0.000000  -0.000000   0.000000
    27  H    0.000962   0.002048  -0.000013   0.000002   0.000000  -0.000002
    28  H    0.000292   0.000037  -0.000003  -0.000000  -0.000000  -0.000000
    29  H    0.003089   0.000287  -0.000010  -0.000000   0.000000   0.000002
    30  H   -0.004696   0.005834   0.000297  -0.000003  -0.000017  -0.000022
    31  H   -0.031030   0.351073  -0.042848  -0.000051   0.004727   0.000427
    32  H    0.000561   0.004643  -0.044949  -0.000607   0.364666  -0.035659
    33  H    0.003009   0.000680   0.004454  -0.000180  -0.035426   0.364603
    34  H   -0.000131  -0.000007  -0.000000  -0.000000   0.000000   0.000000
    35  H    0.000001  -0.000000   0.000000  -0.000000  -0.000000   0.000000
    36  H    0.000000   0.000000  -0.000000   0.000000   0.000000  -0.000000
    37  H   -0.000009  -0.000000   0.000000  -0.000000   0.000000   0.000002
              13         14         15         16         17         18
     1  C    0.000000  -0.000000   0.000000   0.000000  -0.000000   0.000000
     2  N   -0.000000   0.000000  -0.000000  -0.000001   0.000006   0.000000
     3  C    0.000003  -0.000001   0.000003   0.000037  -0.000196  -0.000003
     4  C   -0.000250   0.000029  -0.000232  -0.002904  -0.001878   0.000135
     5  C    0.004735  -0.000038   0.004659  -0.040313  -0.002489   0.000147
     6  N   -0.062606  -0.006201  -0.063023   0.288696  -0.066818   0.004310
     7  C    0.477813  -0.049258  -0.014339  -0.019874   0.003364  -0.000054
     8  C   -0.064563   0.005054   0.000247   0.003407  -0.000159   0.000001
     9  C   -0.036087   0.000596   0.000010  -0.000046   0.000001  -0.000000
    10  Cl   0.000514   0.000008   0.000000   0.000001  -0.000000   0.000000
    11  C   -0.037801   0.004702  -0.000096  -0.000010  -0.000000   0.000000
    12  C    0.512129  -0.057880   0.001186   0.000486   0.000005  -0.000000
[...]
    14  S   -0.061116   0.006395   0.000231   0.000012   0.004666  -0.054184
    15  C   -0.019611   0.000370   0.000003   0.000000  -0.000106   0.000825
    16  C   -0.022854   0.003191  -0.000045   0.000001  -0.000029   0.000717
    17  C    0.003085  -0.000199   0.000002  -0.000000  -0.000001   0.000012
    18  C   -0.000051   0.000002  -0.000000   0.000000   0.000000  -0.000000
    19  C   -0.000030  -0.000001   0.000000  -0.000000  -0.000000   0.000001
    20  C    0.000723   0.000012  -0.000000   0.000000   0.000001  -0.000099
    21  H   -0.000000   0.000000   0.000000   0.000000   0.000000   0.000000
    22  H    0.000000   0.000000  -0.000000   0.000000  -0.000000   0.000000
    23  H    0.000000  -0.000000   0.000000  -0.000000   0.000000  -0.000000
    24  H    0.000000  -0.000001  -0.000000  -0.000000   0.000000  -0.000000
    25  H    0.000013  -0.000072  -0.000002  -0.000000   0.000000  -0.000000
    26  H   -0.000006   0.000006   0.000000   0.000000  -0.000000   0.000000
    27  H    0.001338   0.001570   0.000104   0.000027  -0.000003  -0.000003
    28  H    0.000122   0.000114  -0.000007  -0.000000  -0.000000  -0.000000
    29  H    0.004294   0.000258  -0.000007  -0.000000   0.000000   0.000002
    30  H   -0.006165   0.006228   0.000321  -0.000007  -0.000014  -0.000023
    31  H   -0.032807   0.350917  -0.040464  -0.000609   0.004357   0.000309
    32  H    0.000479   0.004435  -0.042262  -0.000660   0.365300  -0.034601
    33  H    0.003504   0.000760   0.004350  -0.000161  -0.036202   0.362774
    34  H   -0.000132  -0.000013  -0.000000  -0.000000   0.000000   0.000000
    35  H    0.000000  -0.000000   0.000000  -0.000000  -0.000000   0.000000
    36  H    0.000000   0.000000  -0.000000   0.000000   0.000000  -0.000000
    37  H   -0.000008  -0.000000   0.000000  -0.000000   0.000000   0.000002
              13         14         15         16         17         18
     1  C    0.000000  -0.000000   0.000000   0.000000  -0.000000   0.000000
     2  N   -0.000000   0.000000  -0.000000  -0.000000   0.000005   0.000000
     3  C    0.000002  -0.000001   0.000002   0.000071  -0.000142  -0.000005
     4  C   -0.000231   0.000103  -0.000214  -0.003483  -0.004219   0.000222
     5  C    0.005211   0.000029   0.005096  -0.043591  -0.000505   0.000153
     6  N   -0.068871   0.000128  -0.069769   0.292951  -0.068628   0.005280
     7  C    0.475017  -0.061116  -0.019611  -0.022854   0.003085  -0.000051
     8  C   -0.064380   0.006395   0.000370   0.003191  -0.000199   0.000002
     9  C   -0.038336   0.000231   0.000003  -0.000045   0.000002  -0.000000
    10  Cl   0.000564   0.000012   0.000000   0.000001  -0.000000   0.000000
    11  C   -0.041546   0.004666  -0.000106  -0.000029  -0.000001   0.000000
    12  C    0.517224  -0.054184   0.000825   0.000717   0.000012  -0.000000
    13  C    5.159890   0.225522   0.007070  -0.018864   0.000409   0.000002
    14  S    0.225522  15.616615   0.223202  -0.062499   0.006259   0.000135
    15  C    0.007070   0.223202   5.162505   0.481734  -0.059438  -0.042201
    16  C   -0.018864  -0.062499   0.481734   4.618824   0.510863  -0.011053
    17  C    0.000409   0.006259  -0.059438   0.510863   5.036165   0.522825
    18  C    0.000002   0.000135  -0.042201  -0.011053   0.522825   4.881309
    19  C   -0.000101   0.004662  -0.039470  -0.036353  -0.037876   0.546814
    20  C    0.000662  -0.054164   0.518599  -0.006455  -0.049197  -0.026747
    21  H   -0.000000   0.000000  -0.000000  -0.000000   0.000000   0.000000
    22  H    0.000000   0.000000  -0.000000   0.000000  -0.000000  -0.000000
    23  H   -0.000000   0.000000   0.000000  -0.000000   0.000000  -0.000000
    24  H   -0.000000  -0.000000   0.000000  -0.000000  -0.000006  -0.000000
    25  H    0.000000  -0.000000  -0.000000  -0.000006   0.000003   0.000000
    26  H   -0.000000  -0.000000   0.000000   0.000013  -0.000071  -0.000003
    27  H   -0.000066  -0.000002   0.000006   0.000129   0.000157  -0.000007
    28  H    0.000007  -0.000003  -0.000066   0.001508   0.001386   0.000129
    29  H   -0.000108  -0.000166  -0.000029  -0.005904   0.006292   0.000281
    30  H   -0.000024  -0.000167  -0.000110   0.004109   0.000283  -0.000006
    31  H    0.005525  -0.000195   0.000002  -0.000134  -0.000011   0.000000
    32  H    0.004495  -0.000143   0.000000   0.000000   0.000000  -0.000000
    33  H   -0.041381  -0.000172   0.000067  -0.000008  -0.000000   0.000000
    34  H    0.000003  -0.000223   0.005770  -0.041278   0.352446  -0.037502
    35  H    0.000000   0.000017   0.000821   0.003679  -0.037525   0.361709
    36  H    0.000000  -0.000169   0.004809   0.000627   0.004747  -0.040667
    37  H    0.000066  -0.000570  -0.044387   0.003898   0.000606   0.004512
              19         20         21         22         23         24
     1  C    0.000000  -0.000000   0.380517   0.363393   0.383515  -0.037486
     2  N   -0.000000   0.000000  -0.032947  -0.047359  -0.042682   0.311732
     3  C    0.000000  -0.000000   0.005329  -0.006843  -0.004132  -0.038302
     4  C   -0.000005   0.000001  -0.000212  -0.000055   0.000083  -0.003641
     5  C   -0.000007  -0.000052   0.000001   0.000026  -0.000006  -0.000096
     6  N    0.000234   0.004670  -0.000000  -0.000000  -0.000000   0.000000
     7  C   -0.000030   0.000723  -0.000000   0.000000   0.000000   0.000000
     8  C   -0.000001   0.000012   0.000000   0.000000  -0.000000  -0.000001
     9  C    0.000000  -0.000000   0.000000  -0.000000   0.000000  -0.000000
    10  Cl  -0.000000   0.000000   0.000000   0.000000  -0.000000  -0.000000
    11  C   -0.000000   0.000001   0.000000  -0.000000   0.000000   0.000000
    12  C    0.000001  -0.000099   0.000000   0.000000  -0.000000  -0.000000
    13  C   -0.000101   0.000662  -0.000000   0.000000  -0.000000  -0.000000
    14  S    0.004662  -0.054164   0.000000   0.000000   0.000000  -0.000000
    15  C   -0.039470   0.518599  -0.000000  -0.000000   0.000000   0.000000
    16  C   -0.036353  -0.006455  -0.000000   0.000000  -0.000000  -0.000000
    17  C   -0.037876  -0.049197   0.000000  -0.000000   0.000000  -0.000006
    18  C    0.546814  -0.026747   0.000000  -0.000000  -0.000000  -0.000000
    19  C    4.884859   0.525212  -0.000000   0.000000  -0.000000  -0.000000
    20  C    0.525212   4.954601   0.000000  -0.000000   0.000000   0.000000
    21  H   -0.000000   0.000000   0.560555  -0.036294  -0.027437  -0.003331
    22  H    0.000000  -0.000000  -0.036294   0.636174  -0.044755  -0.003967
    23  H   -0.000000   0.000000  -0.027437  -0.044755   0.571974   0.005729
    24  H   -0.000000   0.000000  -0.003331  -0.003967   0.005729   0.427477
    25  H   -0.000000   0.000000   0.000036  -0.002083   0.006906   0.006527
    26  H    0.000000  -0.000000  -0.000195   0.013326  -0.001685  -0.005061
    27  H    0.000000  -0.000000  -0.000002   0.000041  -0.000033  -0.000778
    28  H   -0.000001  -0.000004   0.000005  -0.000026   0.000010   0.005275
    29  H   -0.000015  -0.000024  -0.000000  -0.000000   0.000000   0.000004
    30  H    0.000000   0.000002   0.000000   0.000001  -0.000002   0.000012
    31  H    0.000000   0.000000   0.000000  -0.000000   0.000001   0.000003
    32  H    0.000000  -0.000000   0.000000   0.000000   0.000000   0.000000
    33  H    0.000000   0.000002  -0.000000   0.000000  -0.000000  -0.000000
    34  H    0.004446   0.000491  -0.000000   0.000001  -0.000000  -0.000023
    35  H   -0.040451   0.004687   0.000000  -0.000000   0.000000   0.000000
    36  H    0.364795  -0.041423   0.000000   0.000000  -0.000000   0.000000
    37  H   -0.037052   0.361560  -0.000000  -0.000000   0.000000   0.000000
              25         26         27         28         29         30
     1  C   -0.002716  -0.003990   0.000017   0.000025   0.000002   0.000004
     2  N   -0.046788  -0.051005   0.006419  -0.002762  -0.000067  -0.000046
     3  C    0.378532   0.364757  -0.034330  -0.034489  -0.001260  -0.001292
     4  C   -0.032800  -0.049940   0.363765   0.373912  -0.048900  -0.049961
     5  C   -0.004442   0.000411  -0.036169  -0.039611   0.373851   0.375012
     6  N   -0.000017   0.000015  -0.002889  -0.002855  -0.037664  -0.038200
     7  C    0.000013  -0.000006   0.001338   0.000122   0.004294  -0.006165
     8  C   -0.000072   0.000006   0.001570   0.000114   0.000258   0.006228
     9  C   -0.000002   0.000000   0.000104  -0.000007  -0.000007   0.000321
    10  Cl  -0.000000   0.000000   0.000027  -0.000000  -0.000000  -0.000007
    11  C    0.000000  -0.000000  -0.000003  -0.000000   0.000000  -0.000014
    12  C   -0.000000   0.000000  -0.000003  -0.000000   0.000002  -0.000023
    13  C    0.000000  -0.000000  -0.000066   0.000007  -0.000108  -0.000024
    14  S   -0.000000  -0.000000  -0.000002  -0.000003  -0.000166  -0.000167
    15  C   -0.000000   0.000000   0.000006  -0.000066  -0.000029  -0.000110
    16  C   -0.000006   0.000013   0.000129   0.001508  -0.005904   0.004109
    17  C    0.000003  -0.000071   0.000157   0.001386   0.006292   0.000283
    18  C    0.000000  -0.000003  -0.000007   0.000129   0.000281  -0.000006
    19  C   -0.000000   0.000000   0.000000  -0.000001  -0.000015   0.000000
    20  C    0.000000  -0.000000  -0.000000  -0.000004  -0.000024   0.000002
    21  H    0.000036  -0.000195  -0.000002   0.000005  -0.000000   0.000000
    22  H   -0.002083   0.013326   0.000041  -0.000026  -0.000000   0.000001
    23  H    0.006906  -0.001685  -0.000033   0.000010   0.000000  -0.000002
    24  H    0.006527  -0.005061  -0.000778   0.005275   0.000004   0.000012
    25  H    0.598888  -0.051462  -0.007319   0.005352  -0.000342   0.004449
    26  H   -0.051462   0.655552   0.006583  -0.006116   0.005153  -0.000374
    27  H   -0.007319   0.006583   0.575218  -0.034597   0.004929  -0.005508
    28  H    0.005352  -0.006116  -0.034597   0.569946  -0.006285   0.004985
    29  H   -0.000342   0.005153   0.004929  -0.006285   0.552300  -0.024781
    30  H    0.004449  -0.000374  -0.005508   0.004985  -0.024781   0.554095
    31  H    0.000540  -0.000047   0.003270  -0.000072   0.000118  -0.000432
    32  H   -0.000000   0.000000   0.000000  -0.000000  -0.000000   0.000000
    33  H   -0.000000   0.000000  -0.000000   0.000000  -0.000000   0.000000
    34  H   -0.000020   0.000416  -0.000078   0.004495  -0.000345   0.000151
    35  H    0.000000  -0.000000  -0.000000   0.000008  -0.000005  -0.000000
    36  H    0.000000  -0.000000  -0.000000   0.000000   0.000000  -0.000000
    37  H    0.000000   0.000000   0.000000  -0.000000   0.000000  -0.000000
              31         32         33         34         35         36
     1  C    0.000000  -0.000000   0.000000   0.000000  -0.000000  -0.000000
     2  N   -0.000074   0.000000  -0.000000  -0.000033   0.000000   0.000000
     3  C    0.000465  -0.000000   0.000000   0.000420  -0.000000  -0.000000
     4  C   -0.001420   0.000000  -0.000000  -0.003089   0.000000   0.000000
     5  C    0.005985  -0.000000   0.000002   0.006290   0.000009  -0.000000
     6  N   -0.011794   0.000002  -0.000104  -0.011709  -0.000098   0.000003
     7  C   -0.032807   0.000479   0.003504  -0.000132   0.000000   0.000000
     8  C    0.350917   0.004435   0.000760  -0.000013  -0.000000   0.000000
     9  C   -0.040464  -0.042262   0.004350  -0.000000   0.000000  -0.000000
    10  Cl  -0.000609  -0.000660  -0.000161  -0.000000  -0.000000   0.000000
    11  C    0.004357   0.365300  -0.036202   0.000000  -0.000000   0.000000
    12  C    0.000309  -0.034601   0.362774   0.000000   0.000000  -0.000000
    13  C    0.005525   0.004495  -0.041381   0.000003   0.000000   0.000000
    14  S   -0.000195  -0.000143  -0.000172  -0.000223   0.000017  -0.000169
    15  C    0.000002   0.000000   0.000067   0.005770   0.000821   0.004809
    16  C   -0.000134   0.000000  -0.000008  -0.041278   0.003679   0.000627
    17  C   -0.000011   0.000000  -0.000000   0.352446  -0.037525   0.004747
    18  C    0.000000  -0.000000   0.000000  -0.037502   0.361709  -0.040667
    19  C    0.000000   0.000000   0.000000   0.004446  -0.040451   0.364795
    20  C    0.000000  -0.000000   0.000002   0.000491   0.004687  -0.041423
    21  H    0.000000   0.000000  -0.000000  -0.000000   0.000000   0.000000
    22  H   -0.000000   0.000000   0.000000   0.000001  -0.000000   0.000000
    23  H    0.000001   0.000000  -0.000000  -0.000000   0.000000  -0.000000
    24  H    0.000003   0.000000  -0.000000  -0.000023   0.000000   0.000000
    25  H    0.000540  -0.000000  -0.000000  -0.000020   0.000000   0.000000
    26  H   -0.000047   0.000000   0.000000   0.000416  -0.000000  -0.000000
    27  H    0.003270   0.000000  -0.000000  -0.000078  -0.000000  -0.000000
    28  H   -0.000072  -0.000000   0.000000   0.004495   0.000008   0.000000
    29  H    0.000118  -0.000000  -0.000000  -0.000345  -0.000005   0.000000
    30  H   -0.000432   0.000000   0.000000   0.000151  -0.000000  -0.000000
    31  H    0.539507  -0.000158   0.000014  -0.000000  -0.000000   0.000000
    32  H   -0.000158   0.536163  -0.005157   0.000000   0.000000  -0.000000
    33  H    0.000014  -0.005157   0.539125   0.000000  -0.000000  -0.000000
    34  H   -0.000000   0.000000   0.000000   0.563723  -0.005668  -0.000170
    35  H   -0.000000   0.000000  -0.000000  -0.005668   0.562018  -0.004879
    36  H    0.000000  -0.000000  -0.000000  -0.000170  -0.004879   0.564271
    37  H    0.000000  -0.000000   0.000001   0.000014  -0.000176  -0.005088
              37
     1  C    0.000000
     2  N   -0.000000
     3  C    0.000000
     4  C   -0.000000
     5  C    0.000002
     6  N   -0.000095
     7  C   -0.000008
     8  C   -0.000000
     9  C    0.000000
    10  Cl  -0.000000
    11  C    0.000000
    12  C    0.000002
    13  C    0.000066
    14  S   -0.000570
    15  C   -0.044387
    16  C    0.003898
    17  C    0.000606
    18  C    0.004512
    19  C   -0.037052
    20  C    0.361560
    21  H   -0.000000
    22  H   -0.000000
    23  H    0.000000
    24  H    0.000000
    25  H    0.000000
    26  H    0.000000
    27  H    0.000000
    28  H   -0.000000
    29  H    0.000000
    30  H   -0.000000
    31  H    0.000000
    32  H   -0.000000
    33  H    0.000001
    34  H    0.000014
    35  H   -0.000176
    36  H   -0.005088
    37  H    0.554282
 Mulliken charges:
               1
     1  C   -0.305955
     2  N   -0.595599
     3  C   -0.116725
     4  C   -0.294728
     5  C   -0.177667
     6  N   -0.602475
     7  C    0.340283
     8  C   -0.180232
     9  C   -0.092640
    10  Cl  -0.044675
    11  C   -0.135721
    12  C   -0.191114
    13  C   -0.127762
    14  S    0.145794
    15  C   -0.135478
    16  C    0.330239
    17  C   -0.187729
    18  C   -0.165130
    19  C   -0.139664
    20  C   -0.193060
    21  H    0.153975
    22  H    0.128420
    23  H    0.152514
    24  H    0.335931
    25  H    0.146821
    26  H    0.123727
    27  H    0.158210
    28  H    0.159618
    29  H    0.178420
    30  H    0.177464
    31  H    0.177203
    32  H    0.172106
    33  H    0.172585
    34  H    0.161616
    35  H    0.155854
    36  H    0.153143
    37  H    0.162433
 Sum of Mulliken charges =  -0.00000
 Mulliken charges with hydrogens summed into heavy atoms:
               1
     1  C    0.128954
     2  N   -0.259667
     3  C    0.153823
     4  C    0.023099
     5  C    0.178217
     6  N   -0.602475
     7  C    0.340283
     8  C   -0.003029
     9  C   -0.092640
    10  Cl  -0.044675
    11  C    0.036385
    12  C   -0.018529
    13  C   -0.127762
    14  S    0.145794
    15  C   -0.135478
    16  C    0.330239
    17  C   -0.026113
    18  C   -0.009277
    19  C    0.013479
    20  C   -0.030628
 Electronic spatial extent (au):  <R**2>=           7909.1446
 Charge=              0.0000 electrons
 Dipole moment (field-independent basis, Debye):
    X=              0.9237    Y=             -4.2666    Z=              0.3748  Tot=              4.3815
 Quadrupole moment (field-independent basis, Debye-Ang):
   XX=           -128.2257   YY=           -120.5666   ZZ=           -135.8825
   XY=            -11.3185   XZ=              7.0086   YZ=              1.8335
 Traceless Quadrupole moment (field-independent basis, Debye-Ang):
   XX=             -0.0007   YY=              7.6583   ZZ=             -7.6576
   XY=            -11.3185   XZ=              7.0086   YZ=              1.8335
 Octapole moment (field-independent basis, Debye-Ang**2):
  XXX=             14.9322  YYY=            -51.9080  ZZZ=              1.0656  XYY=            -15.6763
  XXY=            -38.3790  XXZ=             -0.4563  XZZ=             17.0292  YZZ=             -0.6307
  YYZ=            -19.7437  XYZ=              2.5023
 Hexadecapole moment (field-independent basis, Debye-Ang**3):
 XXXX=          -5312.7100 YYYY=          -4604.2511 ZZZZ=           -325.6513 XXXY=            -52.4590
 XXXZ=             79.8428 YYYX=           -135.5243 YYYZ=             40.5475 ZZZX=             -7.4924
 ZZZY=             -2.9981 XXYY=          -1537.5176 XXZZ=          -1004.2352 YYZZ=           -882.7792
 XXYZ=             49.0130 YYXZ=             14.5330 ZZXY=            -15.8700
 N-N= 1.737779467478D+03 E-N=-7.204865052408D+03  KE= 1.578065949121D+03
 No NMR shielding tensors so no spin-rotation constants.
 Leave Link  601 at Wed Mar  2 06:40:32 2022, MaxMem=   104857600 cpu:               0.5 elap:               0.2
 (Enter /dades/curu/g16A03_MST/g16/l9999.exe)
 1\1\GINC-PIRINEUSGPU2\SP\RB3LYP\6-31G(d)\C16H17Cl1N2S1\UBATOR01\02-Mar
 -2022\0\\#p b3lyp/6-31G(d) scrf=(iefpcm,read,solvent=water) geom=allch
 eck guess=read\\9.n.pdb.xyz\\0,1\C,0,5.3170452908,-0.3573793718,0.3145
 698439\N,0,3.9463897482,-0.1471260991,0.7760258563\C,0,2.9741911389,-0
 .3189622235,-0.3035597088\C,0,1.5486606482,-0.078073875,0.1924673428\C
 ,0,0.5285064963,-0.2550856546,-0.9422618114\N,0,-0.8843421299,-0.06855
 71948,-0.5869580324\C,0,-1.5766170973,-1.1453884431,-0.0039727899\C,0,
 -0.8911644432,-2.2814107233,0.4608163905\C,0,-1.5945851617,-3.34757399
 19,1.0155632358\Cl,0,-0.6833457945,-4.754211525,1.5632171905\C,0,-2.97
 45037068,-3.3307457628,1.164825599\C,0,-3.657580832,-2.200902602,0.713
 1895221\C,0,-2.9840199435,-1.1386665524,0.114368263\S,0,-3.9398568899,
 0.1577411522,-0.6360047196\C,0,-2.7805038197,1.4981409874,-0.482895354
 7\C,0,-1.3941737511,1.2499982572,-0.5422705432\C,0,-0.5391919001,2.364
 8765549,-0.578127575\C,0,-1.0434526775,3.6657798548,-0.5515962454\C,0,
 -2.4137119729,3.8939846778,-0.4595531322\C,0,-3.2774028436,2.799083381
 6,-0.4156454437\H,0,6.0149410696,-0.1461299478,1.1294419979\H,0,5.5980
 828218,0.2681433197,-0.5501545801\H,0,5.4481669237,-1.4040225593,0.020
 2256225\H,0,3.8710459276,0.8104496717,1.119523953\H,0,3.0652752807,-1.
 3470941578,-0.6772917704\H,0,3.1829880013,0.3422434565,-1.1652888894\H
 ,0,1.333038769,-0.762569938,1.0172572695\H,0,1.4714623555,0.9326143501
 ,0.6023522002\H,0,0.7476222315,0.4497103564,-1.746291113\H,0,0.6219581
 034,-1.2534688828,-1.3771837682\H,0,0.1840651218,-2.3440249561,0.39751
 31882\H,0,-3.50229037,-4.1641619046,1.6101484645\H,0,-4.737550332,-2.1
 566243778,0.8022429216\H,0,0.5308053307,2.2227086795,-0.6248594087\H,0
 ,-0.3494266468,4.49844079,-0.5901561759\H,0,-2.8100841568,4.902515093,
 -0.4251055714\H,0,-4.3504407899,2.9477501611,-0.3545722277\\Version=ES
 64L-G16RevA.03\State=1-A\HF=-1587.8262657\RMSD=3.271e-09\Dipole=0.9488
 377,1.3535274,-0.4891031\Quadrupole=6.6428231,0.6251855,-7.2680086,6.7
 274729,-5.9742872,1.6175745\PG=C01 [X(C16H17Cl1N2S1)]\\@


 THERE'S A SUCKER BORN EVERY MINUTE

              -- PHINEAS TAYLOR (P.T.) BARNUM
 Job cpu time:       0 days  0 hours 13 minutes 11.6 seconds.
 Elapsed time:       0 days  0 hours  3 minutes 25.9 seconds.
 File lengths (MBytes):  RWF=    213 Int=      0 D2E=      0 Chk=     22 Scr=      1
 Normal termination of Gaussian 16 at Wed Mar  2 06:40:32 2022.
