 Entering Gaussian System, Link 0=g09
 Initial command:
 /prod/apps/gaussian/g09d1/l1.exe "/tmp/ubafar01/1496639/Gau-85929.inp" -scrdir="/tmp/ubafar01/1496639/"
 Entering Link 1 = /prod/apps/gaussian/g09d1/l1.exe PID=     85930.
  
 Copyright (c) 1988,1990,1992,1993,1995,1998,2003,2009,2013,
            Gaussian, Inc.  All Rights Reserved.
  
 This is part of the Gaussian(R) 09 program.  It is based on
 the Gaussian(R) 03 system (copyright 2003, Gaussian, Inc.),
 the Gaussian(R) 98 system (copyright 1998, Gaussian, Inc.),
 the Gaussian(R) 94 system (copyright 1995, Gaussian, Inc.),
 the Gaussian 92(TM) system (copyright 1992, Gaussian, Inc.),
 the Gaussian 90(TM) system (copyright 1990, Gaussian, Inc.),
 the Gaussian 88(TM) system (copyright 1988, Gaussian, Inc.),
 the Gaussian 86(TM) system (copyright 1986, Carnegie Mellon
 University), and the Gaussian 82(TM) system (copyright 1983,
 Carnegie Mellon University). Gaussian is a federally registered
 trademark of Gaussian, Inc.
  
 This software contains proprietary and confidential information,
 including trade secrets, belonging to Gaussian, Inc.
  
 This software is provided under written license and may be
 used, copied, transmitted, or stored only in accord with that
 written license.
  
 The following legend is applicable only to US Government
 contracts under FAR:
  
                    RESTRICTED RIGHTS LEGEND
  
 Use, reproduction and disclosure by the US Government is
 subject to restrictions as set forth in subparagraphs (a)
 and (c) of the Commercial Computer Software - Restricted
 Rights clause in FAR 52.227-19.
  
 Gaussian, Inc.
 340 Quinnipiac St., Bldg. 40, Wallingford CT 06492
  
  
 ---------------------------------------------------------------
 Warning -- This program may not be used in any manner that
 competes with the business of Gaussian, Inc. or will provide
 assistance to any competitor of Gaussian, Inc.  The licensee
 of this program is prohibited from giving any competitor of
 Gaussian, Inc. access to this program.  By using this program,
 the user acknowledges that Gaussian, Inc. is engaged in the
 business of creating and licensing software in the field of
 computational chemistry and represents and warrants to the
 licensee that it is not a competitor of Gaussian, Inc. and that
 it will not use this program in any manner prohibited above.
 ---------------------------------------------------------------
  

 Cite this work as:
 Gaussian 09, Revision D.01,
 M. J. Frisch, G. W. Trucks, H. B. Schlegel, G. E. Scuseria, 
 M. A. Robb, J. R. Cheeseman, G. Scalmani, V. Barone, B. Mennucci, 
 G. A. Petersson, H. Nakatsuji, M. Caricato, X. Li, H. P. Hratchian, 
 A. F. Izmaylov, J. Bloino, G. Zheng, J. L. Sonnenberg, M. Hada, 
 M. Ehara, K. Toyota, R. Fukuda, J. Hasegawa, M. Ishida, T. Nakajima, 
 Y. Honda, O. Kitao, H. Nakai, T. Vreven, J. A. Montgomery, Jr., 
 J. E. Peralta, F. Ogliaro, M. Bearpark, J. J. Heyd, E. Brothers, 
 K. N. Kudin, V. N. Staroverov, T. Keith, R. Kobayashi, J. Normand, 
 K. Raghavachari, A. Rendell, J. C. Burant, S. S. Iyengar, J. Tomasi, 
 M. Cossi, N. Rega, J. M. Millam, M. Klene, J. E. Knox, J. B. Cross, 
 V. Bakken, C. Adamo, J. Jaramillo, R. Gomperts, R. E. Stratmann, 
 O. Yazyev, A. J. Austin, R. Cammi, C. Pomelli, J. W. Ochterski, 
 R. L. Martin, K. Morokuma, V. G. Zakrzewski, G. A. Voth, 
 P. Salvador, J. J. Dannenberg, S. Dapprich, A. D. Daniels, 
 O. Farkas, J. B. Foresman, J. V. Ortiz, J. Cioslowski, 
 and D. J. Fox, Gaussian, Inc., Wallingford CT, 2013.
 
 ******************************************
 Gaussian 09:  AM64L-G09RevD.01 24-Apr-2013
                12-Nov-2020 
 ******************************************
 %nproc=1
 Will use up to    1 processors via shared memory.
 %Chk=SET_328_BBB65_conf1_geo_060_150.n.pdb.xyz.mst.n.w.chk
 %mem=16GB
 -----------------
 #p b3lyp/6-31G(d)
 -----------------
 1/38=1/1;
 2/12=2,17=6,18=5,40=1/2;
 3/5=1,6=6,7=1,11=2,16=1,25=1,30=1,74=-5/1,2,3;
 4//1;
 5/5=2,38=5/2;
 6/7=2,8=2,9=2,10=2,28=1/1;
 99/5=1,9=1/99;
 Leave Link    1 at Thu Nov 12 20:43:03 2020, MaxMem=  2147483648 cpu:         0.0
 (Enter /prod/apps/gaussian/g09d1/l101.exe)
 -----------------------------------------
 SET_328_BBB65_conf1_geo_060_150.n.pdb.xyz
 -----------------------------------------
 Symbolic Z-matrix:
 Charge =  0 Multiplicity = 1
 C                    -1.063     0.864    -3.373 
 C                     0.175     1.518    -2.756 
 C                     0.162     1.399    -1.228 
 H                     1.074     1.846    -0.831 
 H                    -0.685     1.989    -0.832 
 H                     1.081     1.033    -3.142 
 H                     0.234     2.578    -3.03 
 H                    -1.954     1.443    -3.094 
 H                    -1.007     0.874    -4.467 
 C                    -1.206    -0.565    -2.847 
 H                    -0.392    -1.185    -3.239 
 H                    -2.146    -1.014    -3.189 
 C                    -1.163    -0.6      -1.316 
 H                    -1.232    -1.635    -0.981 
 H                    -2.051    -0.074    -0.92 
 N                     0.082    -0.006    -0.809 
 C                     0.383    -0.281     0.636 
 C                     0.488    -1.819     0.85 
 C                     1.61     -2.475     0.035 
 C                     2.973    -1.858     0.353 
 C                     2.938    -0.336     0.199 
 C                     1.787     0.285     1.004 
 H                     1.817     1.371     0.905 
 H                     1.94      0.076     2.07 
 H                     2.83     -0.077    -0.86 
 H                     3.886     0.1       0.535 
 H                     3.75     -2.292    -0.288 
 H                     3.247    -2.108     1.388 
 H                     1.396    -2.362    -1.033 
 H                     1.623    -3.551     0.244 
 H                    -0.456    -2.317     0.628 
 H                     0.672    -1.984     1.919 
 C                    -0.701     0.333     1.56 
 C                    -0.644     1.682     1.954 
 H                     0.195     2.3       1.653 
 C                    -1.643     2.259     2.741 
 H                    -1.561     3.303     3.028 
 C                    -2.736     1.5       3.161 
 H                    -3.512     1.946     3.775 
 C                    -2.815     0.16      2.781 
 H                    -3.656    -0.449     3.1 
 C                    -1.813    -0.411     1.993 
 H                    -1.905    -1.457     1.722 
 
 NAtoms=     43 NQM=       43 NQMF=       0 NMMI=      0 NMMIF=      0
                NMic=       0 NMicF=      0.
                    Isotopes and Nuclear Properties:
 (Nuclear quadrupole moments (NQMom) in fm**2, nuclear magnetic moments (NMagM)
  in nuclear magnetons)

  Atom         1           2           3           4           5           6           7           8           9          10
 IAtWgt=          12          12          12           1           1           1           1           1           1          12
 AtmWgt=  12.0000000  12.0000000  12.0000000   1.0078250   1.0078250   1.0078250   1.0078250   1.0078250   1.0078250  12.0000000
 NucSpn=           0           0           0           1           1           1           1           1           1           0
 AtZEff=   0.0000000   0.0000000   0.0000000   0.0000000   0.0000000   0.0000000   0.0000000   0.0000000   0.0000000   0.0000000
 NQMom=    0.0000000   0.0000000   0.0000000   0.0000000   0.0000000   0.0000000   0.0000000   0.0000000   0.0000000   0.0000000
 NMagM=    0.0000000   0.0000000   0.0000000   2.7928460   2.7928460   2.7928460   2.7928460   2.7928460   2.7928460   0.0000000
 AtZNuc=   6.0000000   6.0000000   6.0000000   1.0000000   1.0000000   1.0000000   1.0000000   1.0000000   1.0000000   6.0000000

  Atom        11          12          13          14          15          16          17          18          19          20
 IAtWgt=           1           1          12           1           1          14          12          12          12          12
 AtmWgt=   1.0078250   1.0078250  12.0000000   1.0078250   1.0078250  14.0030740  12.0000000  12.0000000  12.0000000  12.0000000
 NucSpn=           1           1           0           1           1           2           0           0           0           0
 AtZEff=   0.0000000   0.0000000   0.0000000   0.0000000   0.0000000   0.0000000   0.0000000   0.0000000   0.0000000   0.0000000
 NQMom=    0.0000000   0.0000000   0.0000000   0.0000000   0.0000000   2.0440000   0.0000000   0.0000000   0.0000000   0.0000000
 NMagM=    2.7928460   2.7928460   0.0000000   2.7928460   2.7928460   0.4037610   0.0000000   0.0000000   0.0000000   0.0000000
 AtZNuc=   1.0000000   1.0000000   6.0000000   1.0000000   1.0000000   7.0000000   6.0000000   6.0000000   6.0000000   6.0000000

  Atom        21          22          23          24          25          26          27          28          29          30
 IAtWgt=          12          12           1           1           1           1           1           1           1           1
 AtmWgt=  12.0000000  12.0000000   1.0078250   1.0078250   1.0078250   1.0078250   1.0078250   1.0078250   1.0078250   1.0078250
 NucSpn=           0           0           1           1           1           1           1           1           1           1
 AtZEff=   0.0000000   0.0000000   0.0000000   0.0000000   0.0000000   0.0000000   0.0000000   0.0000000   0.0000000   0.0000000
 NQMom=    0.0000000   0.0000000   0.0000000   0.0000000   0.0000000   0.0000000   0.0000000   0.0000000   0.0000000   0.0000000
 NMagM=    0.0000000   0.0000000   2.7928460   2.7928460   2.7928460   2.7928460   2.7928460   2.7928460   2.7928460   2.7928460
 AtZNuc=   6.0000000   6.0000000   1.0000000   1.0000000   1.0000000   1.0000000   1.0000000   1.0000000   1.0000000   1.0000000

  Atom        31          32          33          34          35          36          37          38          39          40
 IAtWgt=           1           1          12          12           1          12           1          12           1          12
 AtmWgt=   1.0078250   1.0078250  12.0000000  12.0000000   1.0078250  12.0000000   1.0078250  12.0000000   1.0078250  12.0000000
 NucSpn=           1           1           0           0           1           0           1           0           1           0
 AtZEff=   0.0000000   0.0000000   0.0000000   0.0000000   0.0000000   0.0000000   0.0000000   0.0000000   0.0000000   0.0000000
 NQMom=    0.0000000   0.0000000   0.0000000   0.0000000   0.0000000   0.0000000   0.0000000   0.0000000   0.0000000   0.0000000
 NMagM=    2.7928460   2.7928460   0.0000000   0.0000000   2.7928460   0.0000000   2.7928460   0.0000000   2.7928460   0.0000000
 AtZNuc=   1.0000000   1.0000000   6.0000000   6.0000000   1.0000000   6.0000000   1.0000000   6.0000000   1.0000000   6.0000000

  Atom        41          42          43
 IAtWgt=           1          12           1
 AtmWgt=   1.0078250  12.0000000   1.0078250
 NucSpn=           1           0           1
 AtZEff=   0.0000000   0.0000000   0.0000000
 NQMom=    0.0000000   0.0000000   0.0000000
 NMagM=    2.7928460   0.0000000   2.7928460
 AtZNuc=   1.0000000   6.0000000   1.0000000
 Leave Link  101 at Thu Nov 12 20:43:03 2020, MaxMem=  2147483648 cpu:         0.1
 (Enter /prod/apps/gaussian/g09d1/l202.exe)
                          Input orientation:                          
 ---------------------------------------------------------------------
 Center     Atomic      Atomic             Coordinates (Angstroms)
 Number     Number       Type             X           Y           Z
 ---------------------------------------------------------------------
      1          6           0       -1.063000    0.864000   -3.373000
      2          6           0        0.175000    1.518000   -2.756000
      3          6           0        0.162000    1.399000   -1.228000
      4          1           0        1.074000    1.846000   -0.831000
      5          1           0       -0.685000    1.989000   -0.832000
      6          1           0        1.081000    1.033000   -3.142000
      7          1           0        0.234000    2.578000   -3.030000
      8          1           0       -1.954000    1.443000   -3.094000
      9          1           0       -1.007000    0.874000   -4.467000
     10          6           0       -1.206000   -0.565000   -2.847000
     11          1           0       -0.392000   -1.185000   -3.239000
     12          1           0       -2.146000   -1.014000   -3.189000
     13          6           0       -1.163000   -0.600000   -1.316000
     14          1           0       -1.232000   -1.635000   -0.981000
     15          1           0       -2.051000   -0.074000   -0.920000
     16          7           0        0.082000   -0.006000   -0.809000
     17          6           0        0.383000   -0.281000    0.636000
     18          6           0        0.488000   -1.819000    0.850000
     19          6           0        1.610000   -2.475000    0.035000
     20          6           0        2.973000   -1.858000    0.353000
     21          6           0        2.938000   -0.336000    0.199000
     22          6           0        1.787000    0.285000    1.004000
     23          1           0        1.817000    1.371000    0.905000
     24          1           0        1.940000    0.076000    2.070000
     25          1           0        2.830000   -0.077000   -0.860000
     26          1           0        3.886000    0.100000    0.535000
     27          1           0        3.750000   -2.292000   -0.288000
     28          1           0        3.247000   -2.108000    1.388000
     29          1           0        1.396000   -2.362000   -1.033000
     30          1           0        1.623000   -3.551000    0.244000
     31          1           0       -0.456000   -2.317000    0.628000
     32          1           0        0.672000   -1.984000    1.919000
     33          6           0       -0.701000    0.333000    1.560000
     34          6           0       -0.644000    1.682000    1.954000
     35          1           0        0.195000    2.300000    1.653000
     36          6           0       -1.643000    2.259000    2.741000
     37          1           0       -1.561000    3.303000    3.028000
     38          6           0       -2.736000    1.500000    3.161000
     39          1           0       -3.512000    1.946000    3.775000
     40          6           0       -2.815000    0.160000    2.781000
     41          1           0       -3.656000   -0.449000    3.100000
     42          6           0       -1.813000   -0.411000    1.993000
     43          1           0       -1.905000   -1.457000    1.722000
 ---------------------------------------------------------------------
                    Distance matrix (angstroms):
                    1          2          3          4          5
     1  C    0.000000
     2  C    1.530049   0.000000
     3  C    2.527425   1.532682   0.000000
     4  H    3.463070   2.149746   1.090487   0.000000
     5  H    2.804495   2.159448   1.105588   1.764803   0.000000
     6  H    2.163021   1.097751   2.154510   2.449845   3.060848
     7  H    2.176615   1.096429   2.154630   2.465162   2.454116
     8  H    1.098619   2.156968   2.821586   3.801626   2.650494
     9  H    1.095478   2.177012   3.483290   4.300679   3.815774
    10  C    1.529433   2.500866   2.889616   3.882728   3.294629
    11  H    2.160231   2.803745   3.320857   4.139394   3.994218
    12  H    2.175690   3.462016   3.872332   4.910007   4.087539
    13  C    2.526766   2.889597   2.399869   3.349972   2.676875
    14  H    3.463412   3.882227   3.348044   4.178217   3.668077
    15  H    2.805922   3.295518   2.676184   3.668780   2.475817
    16  N    2.939731   2.474274   1.468328   2.101060   2.137485
    17  C    4.412938   3.845170   2.519075   2.674640   2.906639
    18  C    5.238112   4.923086   3.844461   4.074479   4.325034
    19  C    5.468849   5.078677   4.324321   4.439402   5.093723
    20  C    6.130388   5.375134   4.583594   4.327548   5.439173
    21  C    5.496106   4.450113   3.571096   3.049020   4.426592
    22  C    5.255080   4.272755   2.977154   2.512432   3.519275
    23  H    5.181962   4.015058   2.699907   1.947144   3.107909
    24  H    6.266195   5.337121   3.973464   3.506944   4.355663
    25  H    4.728224   3.631510   3.071193   2.604286   4.077299
    26  H    6.352067   5.158772   4.320156   3.580756   5.131379
    27  H    6.530125   5.778213   5.232669   4.957708   6.188063
    28  H    7.076440   6.305378   5.353478   5.027923   6.097084
    29  H    4.682879   4.417462   3.963067   4.225133   4.827231
    30  H    6.307893   6.065597   5.366918   5.530338   6.097232
    31  H    5.147350   5.153333   4.199442   4.669063   4.552546
    32  H    6.255125   5.862307   4.648483   4.732125   5.019380
    33  C    4.974685   4.560642   3.107100   3.340161   2.909339
    34  C    5.405702   4.783488   3.294670   3.276377   2.803164
    35  H    5.376368   4.477857   3.018783   2.673764   2.654495
    36  C    6.297890   5.837055   4.444163   4.506866   3.709042
    37  H    6.868007   6.297188   4.970662   4.894686   4.170560
    38  C    6.774702   6.594326   5.260411   5.529184   4.515503
    39  H    7.632970   7.512065   6.231171   6.500510   5.405389
    40  C    6.437145   6.437595   5.144874   5.568973   4.575578
    41  H    7.095586   7.269002   6.060017   6.564502   5.498301
    42  C    5.566155   5.497835   4.189459   4.626423   3.874662
    43  H    5.661716   5.764504   4.596926   5.128553   4.459398
                    6          7          8          9         10
     6  H    0.000000
     7  H    1.765497   0.000000
     8  H    3.062944   2.465698   0.000000
     9  H    2.478033   2.551209   1.762299   0.000000
    10  C    2.805530   3.462014   2.156983   2.175942   0.000000
    11  H    2.664331   3.820435   3.060597   2.475013   1.095746
    12  H    3.821773   4.311861   2.466321   2.548558   1.096433
    13  C    3.322123   3.871574   2.821491   3.482214   1.532004
    14  H    4.139821   4.908862   3.802649   4.300919   2.151170
    15  H    3.996518   4.087350   2.652730   3.817047   2.160656
    16  N    2.742337   3.410719   3.386166   3.916795   2.474847
    17  C    4.060429   4.651412   4.727224   5.413569   3.838863
    18  C    4.941823   5.869627   5.670903   6.144735   4.255580
    19  C    4.762272   6.067982   6.151704   6.191324   4.459134
    20  C    4.914526   6.214894   6.859573   6.821776   5.419953
    21  C    4.060159   5.121470   6.159574   6.228859   5.148135
    22  C    4.271681   4.893139   5.668302   6.171321   4.950833
    23  H    4.127245   4.409871   5.497056   6.089365   5.192700
    24  H    5.368303   5.931310   6.610508   7.214845   5.872400
    25  H    3.081984   4.300830   5.494344   5.351394   4.524998
    26  H    4.717928   5.673342   7.005633   7.039924   6.148871
    27  H    5.130741   6.602857   7.372888   7.079311   5.838917
    28  H    5.922697   7.110238   7.729704   7.827507   6.336031
    29  H    4.009131   5.453609   5.472499   5.295136   3.645574
    30  H    5.724667   7.086116   6.991224   6.977897   5.145262
    31  H    5.272359   6.149641   5.498626   6.036978   3.963285
    32  H    5.906208   6.745094   6.615918   7.195012   5.315562
    33  C    5.076842   5.194454   4.945890   6.058964   4.525823
    34  C    5.419044   5.139451   5.220682   6.481811   5.330521
    35  H    5.038086   4.691406   5.280782   6.397865   5.515526
    36  C    6.597950   6.076951   5.899983   7.367359   6.276280
    37  H    7.085334   6.359797   6.410377   7.898227   7.042945
    38  C    7.383454   6.950645   6.303951   7.846509   6.534615
    39  H    8.353090   7.793585   7.061412   8.680713   7.448063
    40  C    7.143030   6.993629   6.074787   7.504143   5.898211
    41  H    7.974839   7.865858   6.696425   8.125701   6.432944
    42  C    6.068657   6.193130   5.416158   6.635696   4.880345
    43  H    6.226941   6.590755   5.621944   6.674106   4.707444
                   11         12         13         14         15
    11  H    0.000000
    12  H    1.763025   0.000000
    13  C    2.152811   2.155415   0.000000
    14  H    2.450850   2.469069   1.090051   0.000000
    15  H    3.060125   2.457842   1.105457   1.763860   0.000000
    16  N    2.742192   3.412396   1.469663   2.099957   2.136968
    17  C    4.053821   4.643679   2.510415   2.656357   2.896263
    18  C    4.230399   4.888712   2.983843   2.518892   3.553090
    19  C    4.048602   5.161030   3.609758   3.132861   4.481043
    20  C    4.967758   6.281899   4.634072   4.417161   5.481219
    21  C    4.861023   6.146974   4.379854   4.524235   5.119661
    22  C    4.991191   5.893822   3.855921   4.091575   4.308236
    23  H    5.346546   6.176927   4.206909   4.678614   4.514430
    24  H    5.934124   6.748376   4.642260   4.722045   4.989056
    25  H    4.155549   5.573400   4.052840   4.352223   4.881370
    26  H    5.847699   7.175946   5.422970   5.612700   6.115167
    27  H    5.204807   6.694169   5.296906   5.072694   6.242640
    28  H    5.958471   7.157528   5.388300   5.088942   6.126404
    29  H    3.073875   4.360184   3.119810   2.727199   4.138783
    30  H    4.667919   5.694490   4.347850   3.650028   5.190636
    31  H    4.029790   4.373031   2.688322   1.912114   3.157749
    32  H    5.326862   5.913856   3.968363   3.486691   4.372957
    33  C    5.042837   5.143485   3.058645   3.257555   2.852814
    34  C    5.937208   5.997905   4.021167   4.467937   3.650077
    35  H    6.035019   6.317265   4.366821   4.945555   4.159414
    36  C    7.013311   6.791939   4.986334   5.402355   4.360307
    37  H    7.796409   7.591430   5.853388   6.369000   5.218327
    38  C    7.325542   6.854983   5.189206   5.407995   4.427331
    39  H    8.290582   7.689269   6.157775   6.375068   5.315820
    40  C    6.627243   6.121008   4.482423   4.458762   3.786272
    41  H    7.167867   6.492368   5.073353   4.892539   4.344773
    42  C    5.476508   5.227583   3.377529   3.268090   2.942071
    43  H    5.193715   4.936826   3.242600   2.791204   2.985661
                   16         17         18         19         20
    16  N    0.000000
    17  C    1.501416   0.000000
    18  C    2.490800   1.556363   0.000000
    19  C    3.023753   2.584640   1.534094   0.000000
    20  C    3.624642   3.045508   2.534513   1.529569   0.000000
    21  C    3.046588   2.592686   2.936935   2.523054   1.530172
    22  C    2.505728   1.557882   2.477485   2.930510   2.534333
    23  H    2.800741   2.204047   3.456207   3.948603   3.473828
    24  H    3.427467   2.146638   2.680994   3.279897   2.784876
    25  H    2.749390   2.875316   3.382843   2.835459   2.159578
    26  H    4.035838   3.525106   3.915123   3.472866   2.168054
    27  H    4.353328   4.029217   3.487036   2.171962   1.096798
    28  H    4.388899   3.479358   2.825782   2.155242   1.099455
    29  H    2.706937   2.853470   2.159862   1.095075   2.159153
    30  H    4.006309   3.519114   2.157611   1.096187   2.168094
    31  H    2.774010   2.202108   1.090149   2.155219   3.470497
    32  H    3.420902   2.151701   1.097197   2.161106   2.786186
    33  C    2.517970   1.551073   2.559087   3.943502   4.444728
    34  C    3.318221   2.577833   3.841515   5.103305   5.308247
    35  H    3.375181   2.780502   4.206759   5.236485   5.166841
    36  C    4.550643   3.871344   4.974648   6.349425   6.630210
    37  H    5.326490   4.727140   5.931018   7.238686   7.372157
    38  C    5.096083   4.390415   5.172104   6.667850   7.194005
    39  H    6.143305   5.475753   6.223411   7.730959   8.260492
    40  C    4.616088   3.875914   4.307553   5.836469   6.593061
    41  H    5.426709   4.734241   4.910411   6.421032   7.312656
    42  C    3.406795   2.584718   2.929763   4.450931   5.262053
    43  H    3.529806   2.792367   2.572523   4.029580   5.082307
                   21         22         23         24         25
    21  C    0.000000
    22  C    1.535730   0.000000
    23  H    2.160770   1.090916   0.000000
    24  H    2.160183   1.097017   1.746247   0.000000
    25  H    1.095548   2.166423   2.497618   3.066009   0.000000
    26  H    1.096219   2.158700   2.456237   2.478652   1.758548
    27  H    2.173120   3.487630   4.310140   3.800485   2.465727
    28  H    2.156197   2.829400   3.792312   2.635001   3.058162
    29  H    2.828474   3.362865   4.227100   3.983515   2.703241
    30  H    3.473827   3.913999   4.969974   4.073069   3.839836
    31  H    3.953181   3.455840   4.341037   3.680575   4.246121
    32  H    3.287713   2.688645   3.687173   2.423680   4.002056
    33  C    3.942360   2.549820   2.801213   2.702042   4.300286
    34  C    4.470243   2.960383   2.693259   3.044626   4.804306
    35  H    4.072672   2.648753   2.013313   2.857462   4.348393
    36  C    5.846482   4.321891   4.016347   4.248955   6.199341
    37  H    6.441006   4.941053   4.432904   4.856778   6.769182
    38  C    6.658725   5.156200   5.082911   5.008296   7.045263
    39  H    7.719961   6.206187   6.079948   6.010676   8.111518
    40  C    6.325326   4.934750   5.142113   4.808597   6.721538
    41  H    7.204818   5.878624   6.171236   5.714170   7.608428
    42  C    5.078982   3.797702   4.187621   3.785249   5.459727
    43  H    5.199117   4.144991   4.745351   4.153940   5.566987
                   26         27         28         29         30
    26  H    0.000000
    27  H    2.533276   0.000000
    28  H    2.451774   1.759500   0.000000
    29  H    3.836687   2.470069   3.058097   0.000000
    30  H    4.305305   2.528287   2.455272   1.759539   0.000000
    31  H    4.970262   4.304662   3.785960   2.488142   2.447949
    32  H    4.072875   3.799973   2.632102   3.062901   2.483046
    33  C    4.705899   5.487908   4.644865   4.287666   4.713628
    34  C    5.003717   6.334546   5.461166   5.425652   5.953795
    35  H    4.439978   6.123069   5.367997   5.512825   6.185359
    36  C    6.332263   7.679251   6.694281   6.695688   7.117434
    37  H    6.792942   8.396821   7.421953   7.571512   8.053932
    38  C    7.259942   8.266986   7.208154   7.041172   7.281646
    39  H    8.284668   9.338376   8.235094   8.109512   8.309825
    40  C    7.067639   7.650509   6.620583   6.216076   6.316940
    41  H    7.985136   8.350092   7.303056   6.801762   6.756255
    42  C    5.904700   6.299848   5.371167   4.822941   4.972393
    43  H    6.113011   6.059402   5.203697   4.393820   4.360746
                   31         32         33         34         35
    31  H    0.000000
    32  H    1.746412   0.000000
    33  C    2.819778   2.717075   0.000000
    34  C    4.217300   3.895207   1.406516   0.000000
    35  H    4.774004   4.318674   2.163459   1.084641   0.000000
    36  C    5.178177   4.902852   2.447775   1.396531   2.136275
    37  H    6.210107   5.845386   3.422795   2.149885   2.445439
    38  C    5.117028   5.029442   2.840126   2.422073   3.391876
    39  H    6.116855   6.032868   3.925521   3.407515   4.286030
    40  C    4.041759   4.183175   2.447400   2.777347   3.861617
    41  H    4.454235   4.741579   3.422740   3.863499   4.947829
    42  C    2.708784   2.941943   1.406261   2.397651   3.390750
    43  H    2.008989   2.637701   2.163322   3.390762   4.304627
                   36         37         38         39         40
    36  C    0.000000
    37  H    1.085831   0.000000
    38  C    1.395396   2.156183   0.000000
    39  H    2.158770   2.491156   1.085398   0.000000
    40  C    2.404368   3.392930   1.395077   2.159546   0.000000
    41  H    3.393275   4.297873   2.156090   2.492466   1.086243
    42  C    2.778004   3.863745   2.422411   3.408456   1.396778
    43  H    3.862080   4.947886   3.391921   4.286918   2.136415
                   41         42         43
    41  H    0.000000
    42  C    2.150242   0.000000
    43  H    2.445598   1.084445   0.000000
 Stoichiometry    C17H25N
 Framework group  C1[X(C17H25N)]
 Deg. of freedom   123
 Full point group                 C1      NOp   1
 Largest Abelian subgroup         C1      NOp   1
 Largest concise Abelian subgroup C1      NOp   1
                         Standard orientation:                         
 ---------------------------------------------------------------------
 Center     Atomic      Atomic             Coordinates (Angstroms)
 Number     Number       Type             X           Y           Z
 ---------------------------------------------------------------------
      1          6           0        2.019913    3.172611   -0.046040
      2          6           0        2.035433    2.286976    1.201542
      3          6           0        0.868795    1.293017    1.190863
      4          1           0        0.935181    0.660721    2.076841
      5          1           0       -0.079585    1.856131    1.267041
      6          1           0        2.978459    1.726819    1.246064
      7          1           0        1.977048    2.894614    2.112324
      8          1           0        1.141728    3.831736   -0.009871
      9          1           0        2.902700    3.820515   -0.077320
     10          6           0        1.941118    2.296973   -1.297525
     11          1           0        2.876728    1.739131   -1.416296
     12          1           0        1.816830    2.912212   -2.196524
     13          6           0        0.778978    1.302827   -1.207304
     14          1           0        0.776973    0.674946   -2.098355
     15          1           0       -0.173691    1.863592   -1.206975
     16          7           0        0.901580    0.454098   -0.013764
     17          6           0        0.018625   -0.760114    0.004439
     18          6           0        0.352321   -1.650283   -1.227840
     19          6           0        1.799360   -2.159549   -1.240924
     20          6           0        2.128356   -2.956434    0.022530
     21          6           0        1.791168   -2.155698    1.282113
     22          6           0        0.345952   -1.637278    1.249603
     23          1           0        0.127306   -1.108021    2.178138
     24          1           0       -0.341906   -2.491385    1.221309
     25          1           0        2.484092   -1.312439    1.376971
     26          1           0        1.928317   -2.778184    2.173964
     27          1           0        3.184452   -3.252436    0.025779
     28          1           0        1.543545   -3.887453    0.021601
     29          1           0        2.482623   -1.308045   -1.326265
     30          1           0        1.953014   -2.780275   -2.131270
     31          1           0        0.146177   -1.128973   -2.162807
     32          1           0       -0.333373   -2.506445   -1.202310
     33          6           0       -1.480427   -0.361804    0.009003
     34          6           0       -2.144958   -0.038120    1.205629
     35          1           0       -1.622946   -0.113317    2.153414
     36          6           0       -3.479248    0.374041    1.215174
     37          1           0       -3.958547    0.611317    2.160162
     38          6           0       -4.194339    0.475364    0.021227
     39          1           0       -5.232242    0.792873    0.026949
     40          6           0       -3.555522    0.161164   -1.178537
     41          1           0       -4.095294    0.230504   -2.118622
     42          6           0       -2.220516   -0.249614   -1.181480
     43          1           0       -1.758681   -0.491296   -2.132437
 ---------------------------------------------------------------------
 Rotational constants (GHZ):      0.5095256      0.3678731      0.2812831
 Leave Link  202 at Thu Nov 12 20:43:03 2020, MaxMem=  2147483648 cpu:         0.0
 (Enter /prod/apps/gaussian/g09d1/l301.exe)
 Standard basis: 6-31G(d) (6D, 7F)
 Ernie: Thresh=  0.10000D-02 Tol=  0.10000D-05 Strict=F.
 There are   320 symmetry adapted cartesian basis functions of A   symmetry.
 There are   320 symmetry adapted basis functions of A   symmetry.
   320 basis functions,   604 primitive gaussians,   320 cartesian basis functions
    67 alpha electrons       67 beta electrons
       nuclear repulsion energy      1410.1136402092 Hartrees.
 IExCor=  402 DFT=T Ex+Corr=B3LYP ExCW=0 ScaHFX=  0.200000
 ScaDFX=  0.800000  0.720000  1.000000  0.810000 ScalE2=  1.000000  1.000000
 IRadAn=      0 IRanWt=     -1 IRanGd=            0 ICorTp=0 IEmpDi=  4
 NAtoms=   43 NActive=   43 NUniq=   43 SFac= 1.00D+00 NAtFMM=   60 NAOKFM=F Big=F
 Integral buffers will be    131072 words long.
 Raffenetti 2 integral format.
 Two-electron integral symmetry is turned on.
 Leave Link  301 at Thu Nov 12 20:43:03 2020, MaxMem=  2147483648 cpu:         0.0
 (Enter /prod/apps/gaussian/g09d1/l302.exe)
 NPDir=0 NMtPBC=     1 NCelOv=     1 NCel=       1 NClECP=     1 NCelD=      1
         NCelK=      1 NCelE2=     1 NClLst=     1 CellRange=     0.0.
 One-electron integrals computed using PRISM.
 NBasis=   320 RedAO= T EigKep=  4.45D-04  NBF=   320
 NBsUse=   320 1.00D-06 EigRej= -1.00D+00 NBFU=   320
 Precomputing XC quadrature grid using
 IXCGrd= 4 IRadAn=           0 IRanWt=          -1 IRanGd=           0 AccXCQ= 0.00D+00.
 Generated NRdTot=       0 NPtTot=           0 NUsed=           0 NTot=          32
 NSgBfM=   318   318   318   319   319 MxSgAt=    43 MxSgA2=    43.
 Leave Link  302 at Thu Nov 12 20:43:05 2020, MaxMem=  2147483648 cpu:         1.7
 (Enter /prod/apps/gaussian/g09d1/l303.exe)
 DipDrv:  MaxL=1.
 Leave Link  303 at Thu Nov 12 20:43:05 2020, MaxMem=  2147483648 cpu:         0.0
 (Enter /prod/apps/gaussian/g09d1/l401.exe)
 ExpMin= 1.61D-01 ExpMax= 4.17D+03 ExpMxC= 6.27D+02 IAcc=1 IRadAn=         1 AccDes= 0.00D+00
 Harris functional with IExCor=  402 and IRadAn=       1 diagonalized for initial guess.
 HarFok:  IExCor=  402 AccDes= 0.00D+00 IRadAn=         1 IDoV= 1 UseB2=F ITyADJ=14
 ICtDFT=  3500011 ScaDFX=  1.000000  1.000000  1.000000  1.000000
 FoFCou: FMM=F IPFlag=           0 FMFlag=      100000 FMFlg1=           0
         NFxFlg=           0 DoJE=T BraDBF=F KetDBF=T FulRan=T
         wScrn=  0.000000 ICntrl=     500 IOpCl=  0 I1Cent=   200000004 NGrid=           0
         NMat0=    1 NMatS0=      1 NMatT0=    0 NMatD0=    1 NMtDS0=    0 NMtDT0=    0
 Petite list used in FoFCou.
 Harris En= -717.667767395079    
 JPrj=0 DoOrth=F DoCkMO=F.
 Leave Link  401 at Thu Nov 12 20:43:11 2020, MaxMem=  2147483648 cpu:         6.3
 (Enter /prod/apps/gaussian/g09d1/l502.exe)
 Closed shell SCF:
 Using DIIS extrapolation, IDIIS=  1040.
 Integral symmetry usage will be decided dynamically.
 Keep R1 ints in memory in canonical form, NReq=1335818518.
 IVT=      330118 IEndB=      330118 NGot=  2147483648 MDV=   828203051
 LenX=   828203051 LenY=   828100210
 Requested convergence on RMS density matrix=1.00D-08 within 128 cycles.
 Requested convergence on MAX density matrix=1.00D-06.
 Requested convergence on             energy=1.00D-06.
 No special actions if energy rises.
 FoFCou: FMM=F IPFlag=           0 FMFlag=           0 FMFlg1=           0
         NFxFlg=           0 DoJE=F BraDBF=F KetDBF=F FulRan=T
         wScrn=  0.000000 ICntrl=     600 IOpCl=  0 I1Cent=           0 NGrid=           0
         NMat0=    1 NMatS0=  51360 NMatT0=    0 NMatD0=    1 NMtDS0=    0 NMtDT0=    0
 Symmetry not used in FoFCou.
