 Entering Gaussian System, Link 0=g16
 Initial command:
 /prod/apps/gaussian/g16b1/l1.exe "/tmp/ubator02/1834548/Gau-41234.inp" -scrdir="/tmp/ubator02/1834548/"
 Entering Link 1 = /prod/apps/gaussian/g16b1/l1.exe PID=     41236.
  
 Copyright (c) 1988-2017, Gaussian, Inc.  All Rights Reserved.
  
 This is part of the Gaussian(R) 16 program.  It is based on
 the Gaussian(R) 09 system (copyright 2009, Gaussian, Inc.),
 the Gaussian(R) 03 system (copyright 2003, Gaussian, Inc.),
 the Gaussian(R) 98 system (copyright 1998, Gaussian, Inc.),
 the Gaussian(R) 94 system (copyright 1995, Gaussian, Inc.),
 the Gaussian 92(TM) system (copyright 1992, Gaussian, Inc.),
 the Gaussian 90(TM) system (copyright 1990, Gaussian, Inc.),
 the Gaussian 88(TM) system (copyright 1988, Gaussian, Inc.),
 the Gaussian 86(TM) system (copyright 1986, Carnegie Mellon
 University), and the Gaussian 82(TM) system (copyright 1983,
 Carnegie Mellon University). Gaussian is a federally registered
 trademark of Gaussian, Inc.
  
 This software contains proprietary and confidential information,
 including trade secrets, belonging to Gaussian, Inc.
  
 This software is provided under written license and may be
 used, copied, transmitted, or stored only in accord with that
 written license.
  
 The following legend is applicable only to US Government
 contracts under FAR:
  
                    RESTRICTED RIGHTS LEGEND
  
 Use, reproduction and disclosure by the US Government is
 subject to restrictions as set forth in subparagraphs (a)
 and (c) of the Commercial Computer Software - Restricted
 Rights clause in FAR 52.227-19.
  
 Gaussian, Inc.
 340 Quinnipiac St., Bldg. 40, Wallingford CT 06492
  
  
 ---------------------------------------------------------------
 Warning -- This program may not be used in any manner that
 competes with the business of Gaussian, Inc. or will provide
 assistance to any competitor of Gaussian, Inc.  The licensee
 of this program is prohibited from giving any competitor of
 Gaussian, Inc. access to this program.  By using this program,
 the user acknowledges that Gaussian, Inc. is engaged in the
 business of creating and licensing software in the field of
 computational chemistry and represents and warrants to the
 licensee that it is not a competitor of Gaussian, Inc. and that
 it will not use this program in any manner prohibited above.
 ---------------------------------------------------------------
  

 Cite this work as:
 Gaussian 16, Revision B.01,
 M. J. Frisch, G. W. Trucks, H. B. Schlegel, G. E. Scuseria, 
 M. A. Robb, J. R. Cheeseman, G. Scalmani, V. Barone, 
 G. A. Petersson, H. Nakatsuji, X. Li, M. Caricato, A. V. Marenich, 
 J. Bloino, B. G. Janesko, R. Gomperts, B. Mennucci, H. P. Hratchian, 
 J. V. Ortiz, A. F. Izmaylov, J. L. Sonnenberg, D. Williams-Young, 
 F. Ding, F. Lipparini, F. Egidi, J. Goings, B. Peng, A. Petrone, 
 T. Henderson, D. Ranasinghe, V. G. Zakrzewski, J. Gao, N. Rega, 
 G. Zheng, W. Liang, M. Hada, M. Ehara, K. Toyota, R. Fukuda, 
 J. Hasegawa, M. Ishida, T. Nakajima, Y. Honda, O. Kitao, H. Nakai, 
 T. Vreven, K. Throssell, J. A. Montgomery, Jr., J. E. Peralta, 
 F. Ogliaro, M. J. Bearpark, J. J. Heyd, E. N. Brothers, K. N. Kudin, 
 V. N. Staroverov, T. A. Keith, R. Kobayashi, J. Normand, 
 K. Raghavachari, A. P. Rendell, J. C. Burant, S. S. Iyengar, 
 J. Tomasi, M. Cossi, J. M. Millam, M. Klene, C. Adamo, R. Cammi, 
 J. W. Ochterski, R. L. Martin, K. Morokuma, O. Farkas, 
 J. B. Foresman, and D. J. Fox, Gaussian, Inc., Wallingford CT, 2016.
 
 ******************************************
 Gaussian 16:  ES64L-G16RevB.01 20-Dec-2017
                11-Jul-2021 
 ******************************************
 %mem=800MB
 %nproc=4
 Will use up to    4 processors via shared memory.
 %chk=SET_328_BBB282_conf1.geo_000_090.chk
 -----------------------------------------------------------
 #p b3lyp/6-31G(d) opt freq scrf=(iefpcm,read,solvent=water)
 -----------------------------------------------------------
 1/18=20,19=15,26=3,38=1,40=2/1,3;
 2/9=110,12=2,17=6,18=5,40=1/2;
 3/5=1,6=6,7=1,11=2,25=1,30=1,70=2203,71=1,72=1,74=-5/1,2,3;
 4//1;
 5/5=2,38=5,53=1/2;
 6/7=2,8=2,9=2,10=2,28=1/1;
 7//1,2,3,16;
 1/18=20,19=15,26=3/3(2);
 2/9=110/2;
 99//99;
 2/9=110/2;
 3/5=1,6=6,7=1,11=2,25=1,30=1,70=2205,71=1,72=1,74=-5/1,2,3;
 4/5=5,16=3,69=1/1;
 5/5=2,38=5,53=1/2;
 7//1,2,3,16;
 1/18=20,19=15,26=3/3(-5);
 2/9=110/2;
 6/7=2,8=2,9=2,10=2,19=2,28=1/1;
 99/9=1/99;
 Leave Link    1 at Sun Jul 11 16:01:50 2021, MaxMem=   104857600 cpu:               0.1 elap:               0.0
 (Enter /prod/apps/gaussian/g16b1/l101.exe)
 -----------------------------------------
 SET_328_BBB282_conf1.geo_000_090 geometry
 -----------------------------------------
 Symbolic Z-matrix:
 Charge = -1 Multiplicity = 1
 C                     2.687    -1.705    -0.732 
 H                     3.049    -1.398     0.252 
 H                     2.979    -1.018    -1.529 
 H                     3.121    -2.679    -0.97 
 C                     1.146    -1.959    -0.705 
 H                     1.004    -2.964    -0.298 
 H                     0.675    -1.922    -1.69 
 N                     0.384    -1.034     0.181 
 C                     0.239    -1.319     1.525 
 H                     0.982    -2.074     1.754 
 C                    -0.698    -0.636     2.284 
 C                    -0.828    -1.132     3.62 
 O                    -1.556    -0.618     4.484 
 O                    -0.234    -2.171     3.965 
 C                    -1.393     0.499     1.817 
 O                    -2.072     1.216     2.486 
 C                    -1.086     0.892     0.448 
 C                    -1.696     2.013    -0.152 
 H                    -2.566     2.523     0.254 
 C                    -1.368     2.304    -1.48 
 H                    -1.998     2.994    -2.034 
 C                    -0.357     1.681    -2.125 
 C                     0.166     2.152    -3.423 
 H                     0.155     1.314    -4.123 
 H                     1.136     2.618    -3.241 
 H                    -0.506     2.842    -3.938 
 N                     0.203     0.602    -1.573 
 C                    -0.14      0.195    -0.299 
 
 ITRead=  0  0  0  0  0  0  0  0  0  0  0  0  0  0  0  0  0  0  0  0
 ITRead=  0  0  0  0  0  0  0  0
 MicOpt= -1 -1 -1 -1 -1 -1 -1 -1 -1 -1 -1 -1 -1 -1 -1 -1 -1 -1 -1 -1
 MicOpt= -1 -1 -1 -1 -1 -1 -1 -1
 NAtoms=     28 NQM=       28 NQMF=       0 NMMI=      0 NMMIF=      0
                NMic=       0 NMicF=      0.
                    Isotopes and Nuclear Properties:
 (Nuclear quadrupole moments (NQMom) in fm**2, nuclear magnetic moments (NMagM)
  in nuclear magnetons)

  Atom         1           2           3           4           5           6           7           8           9          10
 IAtWgt=          12           1           1           1          12           1           1          14          12           1
 AtmWgt=  12.0000000   1.0078250   1.0078250   1.0078250  12.0000000   1.0078250   1.0078250  14.0030740  12.0000000   1.0078250
 NucSpn=           0           1           1           1           0           1           1           2           0           1
 AtZEff=  -0.0000000  -0.0000000  -0.0000000  -0.0000000  -0.0000000  -0.0000000  -0.0000000  -0.0000000  -0.0000000  -0.0000000
 NQMom=    0.0000000   0.0000000   0.0000000   0.0000000   0.0000000   0.0000000   0.0000000   2.0440000   0.0000000   0.0000000
 NMagM=    0.0000000   2.7928460   2.7928460   2.7928460   0.0000000   2.7928460   2.7928460   0.4037610   0.0000000   2.7928460
 AtZNuc=   6.0000000   1.0000000   1.0000000   1.0000000   6.0000000   1.0000000   1.0000000   7.0000000   6.0000000   1.0000000

  Atom        11          12          13          14          15          16          17          18          19          20
 IAtWgt=          12          12          16          16          12          16          12          12           1          12
 AtmWgt=  12.0000000  12.0000000  15.9949146  15.9949146  12.0000000  15.9949146  12.0000000  12.0000000   1.0078250  12.0000000
 NucSpn=           0           0           0           0           0           0           0           0           1           0
 AtZEff=  -0.0000000  -0.0000000  -0.0000000  -0.0000000  -0.0000000  -0.0000000  -0.0000000  -0.0000000  -0.0000000  -0.0000000
 NQMom=    0.0000000   0.0000000   0.0000000   0.0000000   0.0000000   0.0000000   0.0000000   0.0000000   0.0000000   0.0000000
 NMagM=    0.0000000   0.0000000   0.0000000   0.0000000   0.0000000   0.0000000   0.0000000   0.0000000   2.7928460   0.0000000
 AtZNuc=   6.0000000   6.0000000   8.0000000   8.0000000   6.0000000   8.0000000   6.0000000   6.0000000   1.0000000   6.0000000

  Atom        21          22          23          24          25          26          27          28
 IAtWgt=           1          12          12           1           1           1          14          12
 AtmWgt=   1.0078250  12.0000000  12.0000000   1.0078250   1.0078250   1.0078250  14.0030740  12.0000000
 NucSpn=           1           0           0           1           1           1           2           0
 AtZEff=  -0.0000000  -0.0000000  -0.0000000  -0.0000000  -0.0000000  -0.0000000  -0.0000000  -0.0000000
 NQMom=    0.0000000   0.0000000   0.0000000   0.0000000   0.0000000   0.0000000   2.0440000   0.0000000
 NMagM=    2.7928460   0.0000000   0.0000000   2.7928460   2.7928460   2.7928460   0.4037610   0.0000000
 AtZNuc=   1.0000000   6.0000000   6.0000000   1.0000000   1.0000000   1.0000000   7.0000000   6.0000000
 Leave Link  101 at Sun Jul 11 16:01:50 2021, MaxMem=   104857600 cpu:               0.4 elap:               0.1
 (Enter /prod/apps/gaussian/g16b1/l103.exe)

 GradGradGradGradGradGradGradGradGradGradGradGradGradGradGradGradGradGrad
 Berny optimization.
 Initialization pass.
                           ----------------------------
                           !    Initial Parameters    !
                           ! (Angstroms and Degrees)  !
 --------------------------                            --------------------------
 ! Name  Definition              Value          Derivative Info.                !
 --------------------------------------------------------------------------------
 ! R1    R(1,2)                  1.0925         estimate D2E/DX2                !
 ! R2    R(1,3)                  1.092          estimate D2E/DX2                !
 ! R3    R(1,4)                  1.0926         estimate D2E/DX2                !
 ! R4    R(1,5)                  1.562          estimate D2E/DX2                !
 ! R5    R(5,6)                  1.0935         estimate D2E/DX2                !
 ! R6    R(5,7)                  1.0924         estimate D2E/DX2                !
 ! R7    R(5,8)                  1.4904         estimate D2E/DX2                !
 ! R8    R(8,9)                  1.3815         estimate D2E/DX2                !
 ! R9    R(8,28)                 1.4197         estimate D2E/DX2                !
 ! R10   R(9,10)                 1.0838         estimate D2E/DX2                !
 ! R11   R(9,11)                 1.3858         estimate D2E/DX2                !
 ! R12   R(11,12)                1.431          estimate D2E/DX2                !
 ! R13   R(11,15)                1.4104         estimate D2E/DX2                !
 ! R14   R(12,13)                1.2412         estimate D2E/DX2                !
 ! R15   R(12,14)                1.2455         estimate D2E/DX2                !
 ! R16   R(15,16)                1.1928         estimate D2E/DX2                !
 ! R17   R(15,17)                1.457          estimate D2E/DX2                !
 ! R18   R(17,18)                1.4102         estimate D2E/DX2                !
 ! R19   R(17,28)                1.3924         estimate D2E/DX2                !
 ! R20   R(18,19)                1.0871         estimate D2E/DX2                !
 ! R21   R(18,20)                1.3985         estimate D2E/DX2                !
 ! R22   R(20,21)                1.0862         estimate D2E/DX2                !
 ! R23   R(20,22)                1.3514         estimate D2E/DX2                !
 ! R24   R(22,23)                1.4765         estimate D2E/DX2                !
 ! R25   R(22,27)                1.3351         estimate D2E/DX2                !
 ! R26   R(23,24)                1.092          estimate D2E/DX2                !
 ! R27   R(23,25)                1.0914         estimate D2E/DX2                !
 ! R28   R(23,26)                1.0922         estimate D2E/DX2                !
 ! R29   R(27,28)                1.3807         estimate D2E/DX2                !
 ! A1    A(2,1,3)              113.078          estimate D2E/DX2                !
 ! A2    A(2,1,4)              108.3666         estimate D2E/DX2                !
 ! A3    A(2,1,5)              110.9171         estimate D2E/DX2                !
 ! A4    A(3,1,4)              107.1963         estimate D2E/DX2                !
 ! A5    A(3,1,5)              112.2544         estimate D2E/DX2                !
 ! A6    A(4,1,5)              104.5182         estimate D2E/DX2                !
 ! A7    A(1,5,6)              106.498          estimate D2E/DX2                !
 ! A8    A(1,5,7)              113.8439         estimate D2E/DX2                !
 ! A9    A(1,5,8)              114.4404         estimate D2E/DX2                !
 ! A10   A(6,5,7)              108.1027         estimate D2E/DX2                !
 ! A11   A(6,5,8)              106.4241         estimate D2E/DX2                !
 ! A12   A(7,5,8)              107.1308         estimate D2E/DX2                !
 ! A13   A(5,8,9)              120.2622         estimate D2E/DX2                !
 ! A14   A(5,8,28)             121.6688         estimate D2E/DX2                !
 ! A15   A(9,8,28)             117.9551         estimate D2E/DX2                !
 ! A16   A(8,9,10)             106.1006         estimate D2E/DX2                !
 ! A17   A(8,9,11)             120.1393         estimate D2E/DX2                !
 ! A18   A(10,9,11)            133.7216         estimate D2E/DX2                !
 ! A19   A(9,11,12)            113.6981         estimate D2E/DX2                !
 ! A20   A(9,11,15)            123.2589         estimate D2E/DX2                !
 ! A21   A(12,11,15)           122.9067         estimate D2E/DX2                !
 ! A22   A(11,12,13)           124.0289         estimate D2E/DX2                !
 ! A23   A(11,12,14)           120.2916         estimate D2E/DX2                !
 ! A24   A(13,12,14)           115.6158         estimate D2E/DX2                !
 ! A25   A(11,15,16)           125.3473         estimate D2E/DX2                !
 ! A26   A(11,15,17)           115.1085         estimate D2E/DX2                !
 ! A27   A(16,15,17)           119.0            estimate D2E/DX2                !
 ! A28   A(15,17,18)           121.536          estimate D2E/DX2                !
 ! A29   A(15,17,28)           120.8118         estimate D2E/DX2                !
 ! A30   A(18,17,28)           117.6158         estimate D2E/DX2                !
 ! A31   A(17,18,19)           124.0684         estimate D2E/DX2                !
 ! A32   A(17,18,20)           117.9022         estimate D2E/DX2                !
 ! A33   A(19,18,20)           116.4047         estimate D2E/DX2                !
 ! A34   A(18,20,21)           118.7147         estimate D2E/DX2                !
 ! A35   A(18,20,22)           122.1916         estimate D2E/DX2                !
 ! A36   A(21,20,22)           118.9018         estimate D2E/DX2                !
 ! A37   A(20,22,23)           122.5138         estimate D2E/DX2                !
 ! A38   A(20,22,27)           119.2765         estimate D2E/DX2                !
 ! A39   A(23,22,27)           118.2085         estimate D2E/DX2                !
 ! A40   A(22,23,24)           108.3709         estimate D2E/DX2                !
 ! A41   A(22,23,25)           107.7226         estimate D2E/DX2                !
 ! A42   A(22,23,26)           113.4592         estimate D2E/DX2                !
 ! A43   A(24,23,25)           116.3289         estimate D2E/DX2                !
 ! A44   A(24,23,26)           100.1575         estimate D2E/DX2                !
 ! A45   A(25,23,26)           110.8374         estimate D2E/DX2                !
 ! A46   A(22,27,28)           121.0323         estimate D2E/DX2                !
 ! A47   A(8,28,17)            120.1811         estimate D2E/DX2                !
 ! A48   A(8,28,27)            118.3901         estimate D2E/DX2                !
 ! A49   A(17,28,27)           121.0808         estimate D2E/DX2                !
 ! D1    D(2,1,5,6)            -81.3096         estimate D2E/DX2                !
 ! D2    D(2,1,5,7)            159.6647         estimate D2E/DX2                !
 ! D3    D(2,1,5,8)             35.9816         estimate D2E/DX2                !
 ! D4    D(3,1,5,6)            151.1145         estimate D2E/DX2                !
 ! D5    D(3,1,5,7)             32.0888         estimate D2E/DX2                !
 ! D6    D(3,1,5,8)            -91.5943         estimate D2E/DX2                !
 ! D7    D(4,1,5,6)             35.2691         estimate D2E/DX2                !
 ! D8    D(4,1,5,7)            -83.7566         estimate D2E/DX2                !
 ! D9    D(4,1,5,8)            152.5603         estimate D2E/DX2                !
 ! D10   D(1,5,8,9)            -86.018          estimate D2E/DX2                !
 ! D11   D(1,5,8,28)            90.0221         estimate D2E/DX2                !
 ! D12   D(6,5,8,9)             31.3154         estimate D2E/DX2                !
 ! D13   D(6,5,8,28)          -152.6444         estimate D2E/DX2                !
 ! D14   D(7,5,8,9)            146.7725         estimate D2E/DX2                !
 ! D15   D(7,5,8,28)           -37.1873         estimate D2E/DX2                !
 ! D16   D(5,8,9,10)            16.165          estimate D2E/DX2                !
 ! D17   D(5,8,9,11)          -165.7926         estimate D2E/DX2                !
 ! D18   D(28,8,9,10)         -160.0198         estimate D2E/DX2                !
 ! D19   D(28,8,9,11)           18.0226         estimate D2E/DX2                !
 ! D20   D(5,8,28,17)          165.7346         estimate D2E/DX2                !
 ! D21   D(5,8,28,27)           -7.5662         estimate D2E/DX2                !
 ! D22   D(9,8,28,17)          -18.1373         estimate D2E/DX2                !
 ! D23   D(9,8,28,27)          168.5619         estimate D2E/DX2                !
 ! D24   D(8,9,11,12)          173.9567         estimate D2E/DX2                !
 ! D25   D(8,9,11,15)          -10.1804         estimate D2E/DX2                !
 ! D26   D(10,9,11,12)          -8.6461         estimate D2E/DX2                !
 ! D27   D(10,9,11,15)         167.2167         estimate D2E/DX2                !
 ! D28   D(9,11,12,13)         175.9286         estimate D2E/DX2                !
 ! D29   D(9,11,12,14)          -7.1039         estimate D2E/DX2                !
 ! D30   D(15,11,12,13)          0.0492         estimate D2E/DX2                !
 ! D31   D(15,11,12,14)        177.0167         estimate D2E/DX2                !
 ! D32   D(9,11,15,16)        -169.6983         estimate D2E/DX2                !
 ! D33   D(9,11,15,17)           1.7117         estimate D2E/DX2                !
 ! D34   D(12,11,15,16)          5.7887         estimate D2E/DX2                !
 ! D35   D(12,11,15,17)        177.1987         estimate D2E/DX2                !
 ! D36   D(11,15,17,18)       -179.5267         estimate D2E/DX2                !
 ! D37   D(11,15,17,28)         -1.7737         estimate D2E/DX2                !
 ! D38   D(16,15,17,18)         -7.5336         estimate D2E/DX2                !
 ! D39   D(16,15,17,28)        170.2194         estimate D2E/DX2                !
 ! D40   D(15,17,18,19)        -13.6849         estimate D2E/DX2                !
 ! D41   D(15,17,18,20)       -178.6034         estimate D2E/DX2                !
 ! D42   D(28,17,18,19)        168.493          estimate D2E/DX2                !
 ! D43   D(28,17,18,20)          3.5745         estimate D2E/DX2                !
 ! D44   D(15,17,28,8)          10.0954         estimate D2E/DX2                !
 ! D45   D(15,17,28,27)       -176.7868         estimate D2E/DX2                !
 ! D46   D(18,17,28,8)        -172.0659         estimate D2E/DX2                !
 ! D47   D(18,17,28,27)          1.0519         estimate D2E/DX2                !
 ! D48   D(17,18,20,21)        164.8064         estimate D2E/DX2                !
 ! D49   D(17,18,20,22)        -10.1012         estimate D2E/DX2                !
 ! D50   D(19,18,20,21)         -1.2692         estimate D2E/DX2                !
 ! D51   D(19,18,20,22)       -176.1769         estimate D2E/DX2                !
 ! D52   D(18,20,22,23)       -167.9284         estimate D2E/DX2                !
 ! D53   D(18,20,22,27)         11.6705         estimate D2E/DX2                !
 ! D54   D(21,20,22,23)         17.1731         estimate D2E/DX2                !
 ! D55   D(21,20,22,27)       -163.228          estimate D2E/DX2                !
 ! D56   D(20,22,23,24)       -127.1067         estimate D2E/DX2                !
 ! D57   D(20,22,23,25)        106.2556         estimate D2E/DX2                !
 ! D58   D(20,22,23,26)        -16.8219         estimate D2E/DX2                !
 ! D59   D(27,22,23,24)         53.2903         estimate D2E/DX2                !
 ! D60   D(27,22,23,25)        -73.3474         estimate D2E/DX2                !
 ! D61   D(27,22,23,26)        163.5751         estimate D2E/DX2                !
 ! D62   D(20,22,27,28)         -6.6146         estimate D2E/DX2                !
 ! D63   D(23,22,27,28)        173.0016         estimate D2E/DX2                !
 ! D64   D(22,27,28,8)         173.6008         estimate D2E/DX2                !
 ! D65   D(22,27,28,17)          0.3629         estimate D2E/DX2                !
 --------------------------------------------------------------------------------
 Trust Radius=3.00D-01 FncErr=1.00D-07 GrdErr=1.00D-06 EigMax=2.50D+02 EigMin=1.00D-04
 Number of steps in this run=    153 maximum allowed number of steps=    168.
 GradGradGradGradGradGradGradGradGradGradGradGradGradGradGradGradGradGrad

 Leave Link  103 at Sun Jul 11 16:01:50 2021, MaxMem=   104857600 cpu:               0.0 elap:               0.0
 (Enter /prod/apps/gaussian/g16b1/l202.exe)
                          Input orientation:                          
 ---------------------------------------------------------------------
 Center     Atomic      Atomic             Coordinates (Angstroms)
 Number     Number       Type             X           Y           Z
 ---------------------------------------------------------------------
      1          6           0        2.687000   -1.705000   -0.732000
      2          1           0        3.049000   -1.398000    0.252000
      3          1           0        2.979000   -1.018000   -1.529000
      4          1           0        3.121000   -2.679000   -0.970000
      5          6           0        1.146000   -1.959000   -0.705000
      6          1           0        1.004000   -2.964000   -0.298000
      7          1           0        0.675000   -1.922000   -1.690000
      8          7           0        0.384000   -1.034000    0.181000
      9          6           0        0.239000   -1.319000    1.525000
     10          1           0        0.982000   -2.074000    1.754000
     11          6           0       -0.698000   -0.636000    2.284000
     12          6           0       -0.828000   -1.132000    3.620000
     13          8           0       -1.556000   -0.618000    4.484000
     14          8           0       -0.234000   -2.171000    3.965000
     15          6           0       -1.393000    0.499000    1.817000
     16          8           0       -2.072000    1.216000    2.486000
     17          6           0       -1.086000    0.892000    0.448000
     18          6           0       -1.696000    2.013000   -0.152000
     19          1           0       -2.566000    2.523000    0.254000
     20          6           0       -1.368000    2.304000   -1.480000
     21          1           0       -1.998000    2.994000   -2.034000
     22          6           0       -0.357000    1.681000   -2.125000
     23          6           0        0.166000    2.152000   -3.423000
     24          1           0        0.155000    1.314000   -4.123000
     25          1           0        1.136000    2.618000   -3.241000
     26          1           0       -0.506000    2.842000   -3.938000
     27          7           0        0.203000    0.602000   -1.573000
     28          6           0       -0.140000    0.195000   -0.299000
 ---------------------------------------------------------------------
                    Distance matrix (angstroms):
                    1          2          3          4          5
     1  C    0.000000
     2  H    1.092497   0.000000
     3  H    1.091990   1.822433   0.000000
     4  H    1.092555   1.771843   1.758285   0.000000
     5  C    1.562026   2.202721   2.219087   2.118785   0.000000
     6  H    2.146142   2.633796   3.033629   2.239307   1.093544
     7  H    2.238972   3.111562   2.480232   2.659768   1.092445
     8  N    2.566636   2.690681   3.107794   3.394406   1.490391
     9  C    3.351977   3.085915   4.114015   4.047289   2.491014
    10  H    3.037002   2.643004   3.985127   3.515896   2.467145
    11  C    4.658030   4.330090   5.310859   5.417299   3.752970
    12  C    5.623474   5.142500   6.404564   6.249473   4.825581
    13  O    6.811114   6.302718   7.542042   7.474501   6.002067
    14  O    5.550784   5.016173   6.468138   5.989016   4.874243
    15  C    5.291637   5.077322   5.710638   6.184113   4.341517
    16  O    6.444831   6.168338   6.828146   7.354061   5.533410
    17  C    4.729941   4.730829   4.907225   5.697509   3.799926
    18  C    5.776730   5.857744   5.739226   6.774030   4.915237
    19  H    6.814851   6.848538   6.816509   7.803906   5.898046
    20  C    5.751053   6.017850   5.471242   6.726181   5.009390
    21  H    6.762029   7.070196   6.412620   7.714868   6.015246
    22  C    4.761447   5.170223   4.332287   5.695622   4.186288
    23  C    5.336045   5.866840   4.642101   6.171531   5.024763
    24  H    5.198487   5.905151   4.487988   5.889195   4.835011
    25  H    5.233451   5.655871   4.421322   6.095562   5.232621
    26  H    6.414740   6.940585   5.731327   7.241933   6.019219
    27  N    3.492819   3.928147   3.214422   4.432076   2.863808
    28  C    3.433572   3.607072   3.565449   4.398208   2.541328
                    6          7          8          9         10
     6  H    0.000000
     7  H    1.769652   0.000000
     8  N    2.082964   2.091379   0.000000
     9  C    2.571882   3.299989   1.381516   0.000000
    10  H    2.236803   3.460995   1.978265   1.083750   0.000000
    11  C    3.870803   4.396772   2.398278   1.385835   2.274015
    12  C    4.697145   5.574873   3.647639   2.358492   2.765035
    13  O    5.909724   6.692985   4.738403   3.531162   4.001785
    14  O    4.509397   5.733002   3.999169   2.627400   2.525190
    15  C    4.712876   4.736762   2.860824   2.460450   3.502131
    16  O    5.889383   5.901867   4.050612   3.562368   4.548279
    17  C    4.448972   3.948514   2.437553   2.793577   3.844401
    18  C    5.664084   4.844720   3.704254   4.202235   5.244815
    19  H    6.569381   5.834487   4.621696   4.923863   5.997559
    20  C    5.897061   4.698619   4.119547   4.973792   5.928587
    21  H    6.893726   5.606275   5.177348   6.022675   6.993852
    22  C    5.173613   3.773044   3.638398   4.762113   5.562336
    23  C    6.053208   4.456439   4.815282   6.044491   6.732478
    24  H    5.801096   4.081860   4.908153   6.232146   6.833857
    25  H    6.311687   4.819722   5.060898   6.246546   6.854823
    26  H    7.017075   5.398515   5.725525   6.907483   7.666816
    27  N    3.870863   2.570418   2.405363   3.645427   4.340132
    28  C    3.359765   2.660976   1.419654   2.400586   3.259149
                   11         12         13         14         15
    11  C    0.000000
    12  C    1.431018   0.000000
    13  O    2.361459   1.241240   0.000000
    14  O    2.323205   1.245545   2.104484   0.000000
    15  C    1.410439   2.496036   2.896057   3.617469   0.000000
    16  O    2.314862   2.889048   2.760764   4.127645   1.192766
    17  C    2.419964   3.771568   4.334778   4.741009   1.457003
    18  C    3.734609   4.987227   5.332378   6.049214   2.502192
    19  H    4.193996   5.263993   5.364595   6.422101   2.813445
    20  C    4.822883   6.173143   6.643999   7.138600   3.758837
    21  H    5.788957   7.096513   7.465000   8.110297   4.628310
    22  C    4.992399   6.414034   7.099428   7.207020   4.243794
    23  C    6.410093   7.834318   8.553294   8.569182   5.711435
    24  H    6.751278   8.179441   8.985577   8.815457   6.192264
    25  H    6.669160   8.061831   8.797396   8.760015   6.038987
    26  H    7.130682   8.545158   9.165380   9.362775   6.276659
    27  N    4.149807   5.571083   6.424152   6.208860   3.748323
    28  C    2.770165   4.194381   5.054020   4.877344   2.477878
                   16         17         18         19         20
    16  O    0.000000
    17  C    2.287054   0.000000
    18  C    2.781300   1.410227   0.000000
    19  H    2.633270   2.210927   1.087123   0.000000
    20  C    4.172351   2.406336   1.398517   2.118943   0.000000
    21  H    4.857691   3.377939   2.143709   2.404040   1.086239
    22  C    4.941535   2.788242   2.407462   3.353846   1.351397
    23  C    6.387568   4.259078   3.766405   4.595845   2.480224
    24  H    6.974813   4.755229   4.436625   5.293737   3.207036
    25  H    6.712332   4.639513   4.234167   5.092038   3.077293
    26  H    6.809112   4.834863   4.054274   4.681690   2.659747
    27  N    4.693410   2.414552   2.759776   3.833475   2.318080
    28  C    3.539956   1.392384   2.397471   3.407473   2.711204
                   21         22         23         24         25
    21  H    0.000000
    22  C    2.103600   0.000000
    23  C    2.705768   1.476541   0.000000
    24  H    3.438274   2.094955   1.091955   0.000000
    25  H    3.379376   2.086258   1.091412   1.854913   0.000000
    26  H    2.423713   2.158029   1.092204   1.675091   1.797818
    27  N    3.283076   1.335120   2.413787   2.647971   2.777943
    28  C    3.781110   2.364225   3.699035   3.995267   4.019262
                   26         27         28
    26  H    0.000000
    27  N    3.333693   0.000000
    28  C    4.514741   1.380715   0.000000
 Stoichiometry    C12H11N2O3(1-)
 Framework group  C1[X(C12H11N2O3)]
 Deg. of freedom    78
 Full point group                 C1      NOp   1
 Largest Abelian subgroup         C1      NOp   1
 Largest concise Abelian subgroup C1      NOp   1
                         Standard orientation:                         
 ---------------------------------------------------------------------
 Center     Atomic      Atomic             Coordinates (Angstroms)
 Number     Number       Type             X           Y           Z
 ---------------------------------------------------------------------
      1          6           0       -0.903497    3.531453    0.619246
      2          1           0       -0.173399    3.378590    1.417455
      3          1           0       -1.935761    3.411301    0.954561
      4          1           0       -0.800808    4.554608    0.250079
      5          6           0       -0.574716    2.634426   -0.616542
      6          1           0        0.205139    3.154887   -1.179379
      7          1           0       -1.424568    2.473101   -1.283745
      8          7           0       -0.023623    1.292393   -0.275208
      9          6           0        1.332032    1.129364   -0.064952
     10          1           0        1.734488    2.124180    0.086331
     11          6           0        1.884489   -0.141351   -0.040209
     12          6           0        3.312663   -0.145941    0.049846
     13          8           0        3.998523   -1.174800    0.158111
     14          8           0        3.950926    0.920294   -0.034683
     15          6           0        1.111211   -1.320607   -0.013110
     16          8           0        1.533967   -2.418659    0.182468
     17          6           0       -0.330744   -1.115427   -0.052169
     18          6           0       -1.231240   -2.200278   -0.021421
     19          1           0       -0.942595   -3.236053   -0.181701
     20          6           0       -2.599052   -1.917669   -0.092632
     21          1           0       -3.287800   -2.726066   -0.320750
     22          6           0       -3.080677   -0.659404    0.012626
     23          6           0       -4.516950   -0.372412    0.199521
     24          1           0       -4.828972    0.337381   -0.569376
     25          1           0       -4.661113   -0.058849    1.234932
     26          1           0       -5.164523   -1.217476   -0.044252
     27          7           0       -2.233573    0.370931   -0.045423
     28          6           0       -0.868029    0.168922   -0.074688
 ---------------------------------------------------------------------
 Rotational constants (GHZ):           0.7745481           0.3565981           0.2490028
 Leave Link  202 at Sun Jul 11 16:01:50 2021, MaxMem=   104857600 cpu:               0.1 elap:               0.0
 (Enter /prod/apps/gaussian/g16b1/l301.exe)
 Standard basis: 6-31G(d) (6D, 7F)
 Ernie: Thresh=  0.10000D-02 Tol=  0.10000D-05 Strict=F.
 There are   277 symmetry adapted cartesian basis functions of A   symmetry.
 There are   277 symmetry adapted basis functions of A   symmetry.
   277 basis functions,   520 primitive gaussians,   277 cartesian basis functions
    61 alpha electrons       61 beta electrons
       nuclear repulsion energy      1169.0064073332 Hartrees.
 IExCor=  402 DFT=T Ex+Corr=B3LYP ExCW=0 ScaHFX=  0.200000
 ScaDFX=  0.800000  0.720000  1.000000  0.810000 ScalE2=  1.000000  1.000000
 IRadAn=      5 IRanWt=     -1 IRanGd=            0 ICorTp=0 IEmpDi=  4
 NAtoms=   28 NActive=   28 NUniq=   28 SFac= 1.00D+00 NAtFMM=   60 NAOKFM=F Big=F
 Integral buffers will be    131072 words long.
 Raffenetti 2 integral format.
 Two-electron integral symmetry is turned on.
 Using the following non-standard input for PCM:
 MSTModel=DFT cav MSTCharged
 --- end of non-standard input.
 MST model for solvation energy: B3LYP parametrization.
 MST cavity parameters:
 ISph   IAn     Re0     Alpha   Atom Type   QCorr
 ------------------------------------------------
   1      6     1.50     1.25      CH3        F
   2      1     1.20     1.25      CH3        F
   3      1     1.20     1.25      CH3        F
   4      1     1.20     1.25      CH3        F
   5      6     1.50     1.25      CH2        F
   6      1     1.20     1.25      CH2        F
   7      1     1.20     1.25      CH2        F
   8      7     1.40     1.25      N          F
   9      6     1.50     1.25      CH         F
  10      1     1.20     1.25      CH         F
  11      6     1.50     1.25      C          F
  12      6     1.50     1.15      C          T
  13      8     1.40     1.15      O          T
  14      8     1.40     1.15      O          T
  15      6     1.50     1.25      C          F
  16      8     1.40     1.25      O          F
  17      6     1.50     1.25      C          F
  18      6     1.50     1.25      CH         F
  19      1     1.20     1.25      CH         F
  20      6     1.50     1.25      CH         F
  21      1     1.20     1.25      CH         F
  22      6     1.50     1.25      C          F
  23      6     1.50     1.25      CH3        F
  24      1     1.20     1.25      CH3        F
  25      1     1.20     1.25      CH3        F
  26      1     1.20     1.25      CH3        F
  27      7     1.40     1.25      N          F
  28      6     1.50     1.25      C          F
 ------------------------------------------------------------------------------
 Polarizable Continuum Model (PCM)
 =================================
 Model                : PCM.
 Atomic radii         : MST.
 Polarization charges : Total charges.
 Charge compensation  : None.
 Solution method      : On-the-fly selection.
 Cavity type          : Scaled VdW (van der Waals Surface) (Alpha=1.250).
 Cavity algorithm     : GePol (No added spheres)
                        Default sphere list used, NSphG=   28.
                        Lebedev-Laikov grids with approx.  5.0 points / Ang**2.
                        Smoothing algorithm: York/Karplus (Gamma=1.0000).
                        Polarization charges: spherical gaussians, with
                                              point-specific exponents (IZeta= 3).
                        Self-potential: point-specific (ISelfS= 7).
                        Self-field    : sphere-specific E.n sum rule (ISelfD= 2).
 1st derivatives      : Analytical E(r).r(x)/FMM algorithm (CHGder, D1EAlg=3).
                        Cavity 1st derivative terms included.
 Solvent              : Water, Eps=  78.355300 Eps(inf)=   1.777849
 ------------------------------------------------------------------------------
 GePol: Number of generator spheres                  =      28
 GePol: Total number of spheres                      =      28
 GePol: Number of exposed spheres                    =      28 (100.00%)
 GePol: Number of points                             =    2098
 GePol: Average weight of points                     =       0.13
 GePol: Minimum weight of points                     =   0.15D-10
 GePol: Maximum weight of points                     =    0.22001
 GePol: Number of points with low weight             =     127
 GePol: Fraction of low-weight points (<1% of avg)   =       6.05%
 GePol: Cavity surface area                          =    277.906 Ang**2
 GePol: Cavity volume                                =    257.269 Ang**3
 PCM non-electrostatic energy =         0.0048767914 Hartrees.
 Nuclear repulsion after PCM non-electrostatic terms =     1169.0112841246 Hartrees.
 Leave Link  301 at Sun Jul 11 16:01:50 2021, MaxMem=   104857600 cpu:               0.3 elap:               0.1
 (Enter /prod/apps/gaussian/g16b1/l302.exe)
 NPDir=0 NMtPBC=     1 NCelOv=     1 NCel=       1 NClECP=     1 NCelD=      1
         NCelK=      1 NCelE2=     1 NClLst=     1 CellRange=     0.0.
 One-electron integrals computed using PRISM.
 One-electron integral symmetry used in STVInt
 NBasis=   277 RedAO= T EigKep=  5.46D-04  NBF=   277
 NBsUse=   277 1.00D-06 EigRej= -1.00D+00 NBFU=   277
 Precomputing XC quadrature grid using
 IXCGrd= 4 IRadAn=           5 IRanWt=          -1 IRanGd=           0 AccXCQ= 0.00D+00.
 Generated NRdTot=       0 NPtTot=           0 NUsed=           0 NTot=          32
 NSgBfM=   275   275   275   275   275 MxSgAt=    28 MxSgA2=    28.
 Leave Link  302 at Sun Jul 11 16:01:50 2021, MaxMem=   104857600 cpu:               1.1 elap:               0.3
 (Enter /prod/apps/gaussian/g16b1/l303.exe)
 DipDrv:  MaxL=1.
 Leave Link  303 at Sun Jul 11 16:01:50 2021, MaxMem=   104857600 cpu:               0.1 elap:               0.0
 (Enter /prod/apps/gaussian/g16b1/l401.exe)
 ExpMin= 1.61D-01 ExpMax= 5.48D+03 ExpMxC= 8.25D+02 IAcc=3 IRadAn=         5 AccDes= 0.00D+00
 Harris functional with IExCor=  402 and IRadAn=       5 diagonalized for initial guess.
 HarFok:  IExCor=  402 AccDes= 0.00D+00 IRadAn=         5 IDoV= 1 UseB2=F ITyADJ=14
 ICtDFT=  3500011 ScaDFX=  1.000000  1.000000  1.000000  1.000000
 FoFCou: FMM=F IPFlag=           0 FMFlag=      100000 FMFlg1=           0
         NFxFlg=           0 DoJE=T BraDBF=F KetDBF=T FulRan=T
         wScrn=  0.000000 ICntrl=       500 IOpCl=  0 I1Cent=   200000004 NGrid=           0
         NMat0=    1 NMatS0=      1 NMatT0=    0 NMatD0=    1 NMtDS0=    0 NMtDT0=    0
 Petite list used in FoFCou.
 Harris En= -799.312025217485    
 JPrj=0 DoOrth=F DoCkMO=F.
 Leave Link  401 at Sun Jul 11 16:01:52 2021, MaxMem=   104857600 cpu:               6.2 elap:               1.6
 (Enter /prod/apps/gaussian/g16b1/l502.exe)
 Integral symmetry usage will be decided dynamically.
 Closed shell SCF:
 Using DIIS extrapolation, IDIIS=  1040.
 NGot=   104857600 LenX=   104699417 LenY=   104622247
 Requested convergence on RMS density matrix=1.00D-08 within 128 cycles.
 Requested convergence on MAX density matrix=1.00D-06.
 Requested convergence on             energy=1.00D-06.
 No special actions if energy rises.
 Fock matrices will be formed incrementally for  20 cycles.

 Cycle   1  Pass 1  IDiag  1:
 FoFJK:  IHMeth= 1 ICntrl=       0 DoSepK=F KAlg= 0 I1Cent=           0 FoldK=F
 IRaf= 830000000 NMat=       1 IRICut=       1 DoRegI=T DoRafI=F ISym2E= 0 IDoP0=0 IntGTp=1.
 FoFCou: FMM=F IPFlag=           0 FMFlag=      100000 FMFlg1=           0
         NFxFlg=           0 DoJE=F BraDBF=F KetDBF=F FulRan=T
         wScrn=  0.000000 ICntrl=         0 IOpCl=  0 I1Cent=           0 NGrid=           0
         NMat0=    1 NMatS0=      1 NMatT0=    0 NMatD0=    1 NMtDS0=    0 NMtDT0=    0
 Symmetry not used in FoFCou.
 Inv3:  Mode=1 IEnd=    13204812.
 Iteration    1 A*A^-1 deviation from unit magnitude is 3.33D-15 for   1885.
 Iteration    1 A*A^-1 deviation from orthogonality  is 2.06D-15 for   1685    476.
 Iteration    1 A^-1*A deviation from unit magnitude is 3.55D-15 for   1088.
 Iteration    1 A^-1*A deviation from orthogonality  is 1.64D-15 for   1470    620.
 E= -798.719081618284    
 DIIS: error= 3.44D-02 at cycle   1 NSaved=   1.
 NSaved= 1 IEnMin= 1 EnMin= -798.719081618284     IErMin= 1 ErrMin= 3.44D-02
 ErrMax= 3.44D-02  0.00D+00 EMaxC= 1.00D-01 BMatC= 5.56D-01 BMatP= 5.56D-01
 IDIUse=3 WtCom= 6.56D-01 WtEn= 3.44D-01
 Coeff-Com:  0.100D+01
 Coeff-En:   0.100D+01
 Coeff:      0.100D+01
 Gap=     0.177 Goal=   None    Shift=    0.000
 GapD=    0.177 DampG=1.000 DampE=0.500 DampFc=0.5000 IDamp=-1.
 Damping current iteration by 5.00D-01
 RMSDP=8.69D-03 MaxDP=3.73D-01              OVMax= 4.37D-01

 Cycle   2  Pass 1  IDiag  1:
 RMSU=  4.33D-03    CP:  9.82D-01
 E= -798.864419247848     Delta-E=       -0.145337629564 Rises=F Damp=T
 DIIS: error= 1.03D-02 at cycle   2 NSaved=   2.
 NSaved= 2 IEnMin= 2 EnMin= -798.864419247848     IErMin= 2 ErrMin= 1.03D-02
 ErrMax= 1.03D-02  0.00D+00 EMaxC= 1.00D-01 BMatC= 7.24D-02 BMatP= 5.56D-01
 IDIUse=3 WtCom= 8.97D-01 WtEn= 1.03D-01
 Coeff-Com:  0.186D+00 0.814D+00
 Coeff-En:   0.313D+00 0.687D+00
 Coeff:      0.199D+00 0.801D+00
 Gap=     0.112 Goal=   None    Shift=    0.000
 RMSDP=2.64D-03 MaxDP=1.22D-01 DE=-1.45D-01 OVMax= 3.43D-01

 Cycle   3  Pass 1  IDiag  1:
 RMSU=  2.11D-03    CP:  9.67D-01  6.41D-01
 E= -799.149483642190     Delta-E=       -0.285064394342 Rises=F Damp=F
 DIIS: error= 1.06D-02 at cycle   3 NSaved=   3.
 NSaved= 3 IEnMin= 3 EnMin= -799.149483642190     IErMin= 2 ErrMin= 1.03D-02
 ErrMax= 1.06D-02  0.00D+00 EMaxC= 1.00D-01 BMatC= 5.98D-02 BMatP= 7.24D-02
 IDIUse=3 WtCom= 8.94D-01 WtEn= 1.06D-01
 Coeff-Com:  0.419D-01 0.472D+00 0.486D+00
 Coeff-En:   0.000D+00 0.000D+00 0.100D+01
 Coeff:      0.375D-01 0.422D+00 0.540D+00
 Gap=     0.162 Goal=   None    Shift=    0.000
 RMSDP=1.37D-03 MaxDP=5.61D-02 DE=-2.85D-01 OVMax= 1.17D-01

 Cycle   4  Pass 1  IDiag  1:
 RMSU=  9.58D-04    CP:  9.74D-01  7.62D-01  6.16D-01
 E= -799.200362690867     Delta-E=       -0.050879048677 Rises=F Damp=F
 DIIS: error= 3.32D-03 at cycle   4 NSaved=   4.
 NSaved= 4 IEnMin= 4 EnMin= -799.200362690867     IErMin= 4 ErrMin= 3.32D-03
 ErrMax= 3.32D-03  0.00D+00 EMaxC= 1.00D-01 BMatC= 8.76D-03 BMatP= 5.98D-02
 IDIUse=3 WtCom= 9.67D-01 WtEn= 3.32D-02
 Coeff-Com:  0.481D-02 0.119D+00 0.298D+00 0.579D+00
 Coeff-En:   0.000D+00 0.000D+00 0.101D+00 0.899D+00
 Coeff:      0.465D-02 0.115D+00 0.291D+00 0.589D+00
 Gap=     0.122 Goal=   None    Shift=    0.000
 RMSDP=4.93D-04 MaxDP=2.30D-02 DE=-5.09D-02 OVMax= 3.02D-02

 Cycle   5  Pass 1  IDiag  1:
 RMSU=  3.20D-04    CP:  9.73D-01  7.34D-01  7.05D-01  6.88D-01
 E= -799.207006615390     Delta-E=       -0.006643924522 Rises=F Damp=F
 DIIS: error= 1.35D-03 at cycle   5 NSaved=   5.
 NSaved= 5 IEnMin= 5 EnMin= -799.207006615390     IErMin= 5 ErrMin= 1.35D-03
 ErrMax= 1.35D-03  0.00D+00 EMaxC= 1.00D-01 BMatC= 1.20D-03 BMatP= 8.76D-03
 IDIUse=3 WtCom= 9.87D-01 WtEn= 1.35D-02
 Coeff-Com: -0.209D-02 0.117D-01 0.108D+00 0.354D+00 0.528D+00
 Coeff-En:   0.000D+00 0.000D+00 0.000D+00 0.684D-01 0.932D+00
 Coeff:     -0.206D-02 0.116D-01 0.107D+00 0.351D+00 0.533D+00
 Gap=     0.126 Goal=   None    Shift=    0.000
 RMSDP=1.63D-04 MaxDP=6.39D-03 DE=-6.64D-03 OVMax= 1.15D-02

 Cycle   6  Pass 1  IDiag  1:
 RMSU=  7.32D-05    CP:  9.73D-01  7.33D-01  7.08D-01  7.59D-01  5.98D-01
 E= -799.207910341200     Delta-E=       -0.000903725811 Rises=F Damp=F
 DIIS: error= 3.59D-04 at cycle   6 NSaved=   6.
 NSaved= 6 IEnMin= 6 EnMin= -799.207910341200     IErMin= 6 ErrMin= 3.59D-04
 ErrMax= 3.59D-04  0.00D+00 EMaxC= 1.00D-01 BMatC= 5.67D-05 BMatP= 1.20D-03
 IDIUse=3 WtCom= 9.96D-01 WtEn= 3.59D-03
 Coeff-Com: -0.112D-02-0.194D-02 0.331D-01 0.130D+00 0.264D+00 0.576D+00
 Coeff-En:   0.000D+00 0.000D+00 0.000D+00 0.000D+00 0.000D+00 0.100D+01
 Coeff:     -0.112D-02-0.193D-02 0.330D-01 0.129D+00 0.263D+00 0.577D+00
 Gap=     0.126 Goal=   None    Shift=    0.000
 RMSDP=3.47D-05 MaxDP=1.61D-03 DE=-9.04D-04 OVMax= 1.95D-03

 Cycle   7  Pass 1  IDiag  1:
 RMSU=  2.88D-05    CP:  9.73D-01  7.34D-01  7.10D-01  7.58D-01  6.38D-01
                    CP:  8.15D-01
 E= -799.207955357414     Delta-E=       -0.000045016214 Rises=F Damp=F
 DIIS: error= 1.49D-04 at cycle   7 NSaved=   7.
 NSaved= 7 IEnMin= 7 EnMin= -799.207955357414     IErMin= 7 ErrMin= 1.49D-04
 ErrMax= 1.49D-04  0.00D+00 EMaxC= 1.00D-01 BMatC= 5.56D-06 BMatP= 5.67D-05
 IDIUse=3 WtCom= 9.99D-01 WtEn= 1.49D-03
 Coeff-Com: -0.173D-03-0.216D-02 0.602D-02 0.273D-01 0.773D-01 0.291D+00
 Coeff-Com:  0.601D+00
 Coeff-En:   0.000D+00 0.000D+00 0.000D+00 0.000D+00 0.000D+00 0.000D+00
 Coeff-En:   0.100D+01
 Coeff:     -0.172D-03-0.216D-02 0.601D-02 0.273D-01 0.772D-01 0.290D+00
 Coeff:      0.602D+00
 Gap=     0.126 Goal=   None    Shift=    0.000
 RMSDP=1.33D-05 MaxDP=5.16D-04 DE=-4.50D-05 OVMax= 1.08D-03

 Cycle   8  Pass 1  IDiag  1:
 RMSU=  9.35D-06    CP:  9.73D-01  7.34D-01  7.11D-01  7.60D-01  6.45D-01
                    CP:  8.87D-01  7.86D-01
 E= -799.207959648358     Delta-E=       -0.000004290944 Rises=F Damp=F
 DIIS: error= 8.08D-05 at cycle   8 NSaved=   8.
 NSaved= 8 IEnMin= 8 EnMin= -799.207959648358     IErMin= 8 ErrMin= 8.08D-05
 ErrMax= 8.08D-05  0.00D+00 EMaxC= 1.00D-01 BMatC= 1.16D-06 BMatP= 5.56D-06
 IDIUse=1 WtCom= 1.00D+00 WtEn= 0.00D+00
 Coeff-Com:  0.565D-04-0.106D-02 0.488D-03 0.264D-02 0.199D-01 0.121D+00
 Coeff-Com:  0.376D+00 0.482D+00
 Coeff:      0.565D-04-0.106D-02 0.488D-03 0.264D-02 0.199D-01 0.121D+00
 Coeff:      0.376D+00 0.482D+00
 Gap=     0.126 Goal=   None    Shift=    0.000
 RMSDP=5.17D-06 MaxDP=2.30D-04 DE=-4.29D-06 OVMax= 4.18D-04

 Cycle   9  Pass 1  IDiag  1:
 RMSU=  3.76D-06    CP:  9.73D-01  7.33D-01  7.11D-01  7.60D-01  6.47D-01
                    CP:  8.92D-01  8.61D-01  7.28D-01
 E= -799.207960603899     Delta-E=       -0.000000955540 Rises=F Damp=F
 DIIS: error= 1.20D-05 at cycle   9 NSaved=   9.
 NSaved= 9 IEnMin= 9 EnMin= -799.207960603899     IErMin= 9 ErrMin= 1.20D-05
 ErrMax= 1.20D-05  0.00D+00 EMaxC= 1.00D-01 BMatC= 5.97D-08 BMatP= 1.16D-06
 IDIUse=1 WtCom= 1.00D+00 WtEn= 0.00D+00
 Coeff-Com:  0.783D-04-0.132D-03-0.756D-03-0.395D-02-0.520D-02-0.253D-02
 Coeff-Com:  0.440D-01 0.196D+00 0.773D+00
 Coeff:      0.783D-04-0.132D-03-0.756D-03-0.395D-02-0.520D-02-0.253D-02
 Coeff:      0.440D-01 0.196D+00 0.773D+00
 Gap=     0.126 Goal=   None    Shift=    0.000
 RMSDP=2.00D-06 MaxDP=5.04D-05 DE=-9.56D-07 OVMax= 3.01D-04

 Cycle  10  Pass 1  IDiag  1:
 RMSU=  8.96D-07    CP:  9.73D-01  7.33D-01  7.11D-01  7.60D-01  6.47D-01
                    CP:  9.05D-01  8.88D-01  8.22D-01  9.50D-01
 E= -799.207960685364     Delta-E=       -0.000000081465 Rises=F Damp=F
 DIIS: error= 2.82D-06 at cycle  10 NSaved=  10.
 NSaved=10 IEnMin=10 EnMin= -799.207960685364     IErMin=10 ErrMin= 2.82D-06
 ErrMax= 2.82D-06  0.00D+00 EMaxC= 1.00D-01 BMatC= 5.29D-09 BMatP= 5.97D-08
 IDIUse=1 WtCom= 1.00D+00 WtEn= 0.00D+00
 Coeff-Com:  0.328D-04-0.118D-04-0.337D-03-0.184D-02-0.314D-02-0.731D-02
 Coeff-Com: -0.573D-03 0.617D-01 0.339D+00 0.613D+00
 Coeff:      0.328D-04-0.118D-04-0.337D-03-0.184D-02-0.314D-02-0.731D-02
 Coeff:     -0.573D-03 0.617D-01 0.339D+00 0.613D+00
 Gap=     0.126 Goal=   None    Shift=    0.000
 RMSDP=5.09D-07 MaxDP=1.34D-05 DE=-8.15D-08 OVMax= 6.21D-05

 Cycle  11  Pass 1  IDiag  1:
 RMSU=  3.58D-07    CP:  9.73D-01  7.33D-01  7.11D-01  7.60D-01  6.48D-01
                    CP:  9.07D-01  8.93D-01  8.37D-01  1.00D+00  8.37D-01
 E= -799.207960691106     Delta-E=       -0.000000005742 Rises=F Damp=F
 DIIS: error= 1.36D-06 at cycle  11 NSaved=  11.
 NSaved=11 IEnMin=11 EnMin= -799.207960691106     IErMin=11 ErrMin= 1.36D-06
 ErrMax= 1.36D-06  0.00D+00 EMaxC= 1.00D-01 BMatC= 1.46D-09 BMatP= 5.29D-09
 IDIUse=1 WtCom= 1.00D+00 WtEn= 0.00D+00
 Coeff-Com:  0.259D-05 0.162D-04-0.643D-04-0.346D-03-0.844D-03-0.418D-02
 Coeff-Com: -0.100D-01-0.346D-02 0.379D-01 0.355D+00 0.626D+00
 Coeff:      0.259D-05 0.162D-04-0.643D-04-0.346D-03-0.844D-03-0.418D-02
 Coeff:     -0.100D-01-0.346D-02 0.379D-01 0.355D+00 0.626D+00
 Gap=     0.126 Goal=   None    Shift=    0.000
 RMSDP=2.38D-07 MaxDP=7.83D-06 DE=-5.74D-09 OVMax= 3.16D-05

 Cycle  12  Pass 1  IDiag  1:
 RMSU=  1.29D-07    CP:  9.73D-01  7.33D-01  7.11D-01  7.60D-01  6.48D-01
                    CP:  9.08D-01  8.95D-01  8.46D-01  1.02D+00  9.22D-01
                    CP:  7.48D-01
 E= -799.207960692615     Delta-E=       -0.000000001508 Rises=F Damp=F
 DIIS: error= 4.14D-07 at cycle  12 NSaved=  12.
 NSaved=12 IEnMin=12 EnMin= -799.207960692615     IErMin=12 ErrMin= 4.14D-07
 ErrMax= 4.14D-07  0.00D+00 EMaxC= 1.00D-01 BMatC= 2.02D-10 BMatP= 1.46D-09
 IDIUse=1 WtCom= 1.00D+00 WtEn= 0.00D+00
 Coeff-Com: -0.243D-05 0.139D-04 0.501D-05 0.161D-04-0.926D-04-0.148D-02
 Coeff-Com: -0.531D-02-0.806D-02-0.160D-01 0.129D+00 0.353D+00 0.549D+00
 Coeff:     -0.243D-05 0.139D-04 0.501D-05 0.161D-04-0.926D-04-0.148D-02
 Coeff:     -0.531D-02-0.806D-02-0.160D-01 0.129D+00 0.353D+00 0.549D+00
 Gap=     0.126 Goal=   None    Shift=    0.000
 RMSDP=7.20D-08 MaxDP=2.80D-06 DE=-1.51D-09 OVMax= 6.65D-06

 Cycle  13  Pass 1  IDiag  1:
 RMSU=  3.97D-08    CP:  9.73D-01  7.33D-01  7.11D-01  7.60D-01  6.48D-01
                    CP:  9.08D-01  8.95D-01  8.48D-01  1.02D+00  9.48D-01
                    CP:  8.33D-01  7.30D-01
 E= -799.207960692814     Delta-E=       -0.000000000199 Rises=F Damp=F
 DIIS: error= 9.33D-08 at cycle  13 NSaved=  13.
 NSaved=13 IEnMin=13 EnMin= -799.207960692814     IErMin=13 ErrMin= 9.33D-08
 ErrMax= 9.33D-08  0.00D+00 EMaxC= 1.00D-01 BMatC= 1.23D-11 BMatP= 2.02D-10
 IDIUse=1 WtCom= 1.00D+00 WtEn= 0.00D+00
 Coeff-Com: -0.157D-05 0.422D-05 0.724D-05 0.408D-04 0.472D-04-0.219D-03
 Coeff-Com: -0.130D-02-0.313D-02-0.113D-01 0.178D-01 0.912D-01 0.246D+00
 Coeff-Com:  0.661D+00
 Coeff:     -0.157D-05 0.422D-05 0.724D-05 0.408D-04 0.472D-04-0.219D-03
 Coeff:     -0.130D-02-0.313D-02-0.113D-01 0.178D-01 0.912D-01 0.246D+00
 Coeff:      0.661D+00
 Gap=     0.126 Goal=   None    Shift=    0.000
 RMSDP=1.87D-08 MaxDP=7.11D-07 DE=-1.99D-10 OVMax= 1.76D-06

 Cycle  14  Pass 1  IDiag  1:
 RMSU=  1.19D-08    CP:  9.73D-01  7.33D-01  7.11D-01  7.60D-01  6.48D-01
                    CP:  9.08D-01  8.95D-01  8.48D-01  1.02D+00  9.52D-01
                    CP:  8.39D-01  7.97D-01  8.10D-01
 E= -799.207960692821     Delta-E=       -0.000000000008 Rises=F Damp=F
 DIIS: error= 4.38D-08 at cycle  14 NSaved=  14.
 NSaved=14 IEnMin=14 EnMin= -799.207960692821     IErMin=14 ErrMin= 4.38D-08
 ErrMax= 4.38D-08  0.00D+00 EMaxC= 1.00D-01 BMatC= 1.70D-12 BMatP= 1.23D-11
 IDIUse=1 WtCom= 1.00D+00 WtEn= 0.00D+00
 Coeff-Com: -0.540D-06 0.457D-06 0.352D-05 0.212D-04 0.390D-04 0.646D-04
 Coeff-Com: -0.459D-04-0.682D-03-0.403D-02-0.528D-02 0.865D-02 0.619D-01
 Coeff-Com:  0.332D+00 0.607D+00
 Coeff:     -0.540D-06 0.457D-06 0.352D-05 0.212D-04 0.390D-04 0.646D-04
 Coeff:     -0.459D-04-0.682D-03-0.403D-02-0.528D-02 0.865D-02 0.619D-01
 Coeff:      0.332D+00 0.607D+00
 Gap=     0.126 Goal=   None    Shift=    0.000
 RMSDP=6.42D-09 MaxDP=2.31D-07 DE=-7.50D-12 OVMax= 3.95D-07

 Error on total polarization charges =  0.02167
 SCF Done:  E(RB3LYP) =  -799.207960693     A.U. after   14 cycles
            NFock= 14  Conv=0.64D-08     -V/T= 2.0083
 KE= 7.926195851867D+02 PE=-4.219373311050D+03 EE= 1.458534481045D+03
 Leave Link  502 at Sun Jul 11 16:02:43 2021, MaxMem=   104857600 cpu:             203.6 elap:              51.0
 (Enter /prod/apps/gaussian/g16b1/l601.exe)
 Copying SCF densities to generalized density rwf, IOpCl= 0 IROHF=0.

 **********************************************************************

            Population analysis using the SCF Density.

 **********************************************************************

 Orbital symmetries:
       Occupied  (A) (A) (A) (A) (A) (A) (A) (A) (A) (A) (A) (A)
                 (A) (A) (A) (A) (A) (A) (A) (A) (A) (A) (A) (A)
                 (A) (A) (A) (A) (A) (A) (A) (A) (A) (A) (A) (A)
                 (A) (A) (A) (A) (A) (A) (A) (A) (A) (A) (A) (A)
                 (A) (A) (A) (A) (A) (A) (A) (A) (A) (A) (A) (A)
                 (A)
       Virtual   (A) (A) (A) (A) (A) (A) (A) (A) (A) (A) (A) (A)
                 (A) (A) (A) (A) (A) (A) (A) (A) (A) (A) (A) (A)
                 (A) (A) (A) (A) (A) (A) (A) (A) (A) (A) (A) (A)
                 (A) (A) (A) (A) (A) (A) (A) (A) (A) (A) (A) (A)
                 (A) (A) (A) (A) (A) (A) (A) (A) (A) (A) (A) (A)
                 (A) (A) (A) (A) (A) (A) (A) (A) (A) (A) (A) (A)
                 (A) (A) (A) (A) (A) (A) (A) (A) (A) (A) (A) (A)
                 (A) (A) (A) (A) (A) (A) (A) (A) (A) (A) (A) (A)
                 (A) (A) (A) (A) (A) (A) (A) (A) (A) (A) (A) (A)
                 (A) (A) (A) (A) (A) (A) (A) (A) (A) (A) (A) (A)
                 (A) (A) (A) (A) (A) (A) (A) (A) (A) (A) (A) (A)
                 (A) (A) (A) (A) (A) (A) (A) (A) (A) (A) (A) (A)
                 (A) (A) (A) (A) (A) (A) (A) (A) (A) (A) (A) (A)
                 (A) (A) (A) (A) (A) (A) (A) (A) (A) (A) (A) (A)
                 (A) (A) (A) (A) (A) (A) (A) (A) (A) (A) (A) (A)
                 (A) (A) (A) (A) (A) (A) (A) (A) (A) (A) (A) (A)
                 (A) (A) (A) (A) (A) (A) (A) (A) (A) (A) (A) (A)
                 (A) (A) (A) (A) (A) (A) (A) (A) (A) (A) (A) (A)
 The electronic state is 1-A.
 Alpha  occ. eigenvalues --  -19.10277 -19.04768 -19.04553 -14.39458 -14.33329
 Alpha  occ. eigenvalues --  -10.27153 -10.24792 -10.24716 -10.23674 -10.23199
 Alpha  occ. eigenvalues --  -10.23063 -10.20944 -10.19570 -10.18657 -10.18101
 Alpha  occ. eigenvalues --  -10.18023 -10.17260  -1.03489  -1.00826  -0.98823
 Alpha  occ. eigenvalues --   -0.93188  -0.89381  -0.81744  -0.79359  -0.78694
 Alpha  occ. eigenvalues --   -0.74364  -0.71801  -0.66466  -0.64716  -0.63115
 Alpha  occ. eigenvalues --   -0.59089  -0.55335  -0.53133  -0.52343  -0.48337
 Alpha  occ. eigenvalues --   -0.46492  -0.45827  -0.44841  -0.44774  -0.44026
 Alpha  occ. eigenvalues --   -0.43704  -0.41372  -0.40820  -0.40521  -0.39954
 Alpha  occ. eigenvalues --   -0.38722  -0.37900  -0.37530  -0.36619  -0.36399
 Alpha  occ. eigenvalues --   -0.35872  -0.35604  -0.32920  -0.28020  -0.27093
 Alpha  occ. eigenvalues --   -0.25870  -0.24948  -0.21839  -0.21706  -0.21211
 Alpha  occ. eigenvalues --   -0.18205
 Alpha virt. eigenvalues --   -0.05615  -0.02165  -0.00162   0.06390   0.09630
 Alpha virt. eigenvalues --    0.11097   0.12345   0.12772   0.13795   0.14162
 Alpha virt. eigenvalues --    0.14819   0.15767   0.16732   0.18540   0.19013
 Alpha virt. eigenvalues --    0.19641   0.20964   0.21444   0.23350   0.23924
 Alpha virt. eigenvalues --    0.25696   0.26102   0.28022   0.29290   0.30628
 Alpha virt. eigenvalues --    0.31963   0.34612   0.36249   0.37173   0.41920
 Alpha virt. eigenvalues --    0.43196   0.45675   0.47535   0.47769   0.48973
 Alpha virt. eigenvalues --    0.49625   0.51356   0.51991   0.52222   0.52895
 Alpha virt. eigenvalues --    0.54331   0.55570   0.56795   0.57659   0.58783
 Alpha virt. eigenvalues --    0.60569   0.60879   0.61689   0.62266   0.63001
 Alpha virt. eigenvalues --    0.63918   0.64959   0.65683   0.66395   0.67606
 Alpha virt. eigenvalues --    0.69053   0.70926   0.71283   0.72620   0.74816
 Alpha virt. eigenvalues --    0.75783   0.76327   0.77309   0.77726   0.79509
 Alpha virt. eigenvalues --    0.81666   0.82486   0.83138   0.84761   0.85660
 Alpha virt. eigenvalues --    0.86827   0.88316   0.88492   0.89097   0.90314
 Alpha virt. eigenvalues --    0.91803   0.92566   0.93147   0.94575   0.95095
 Alpha virt. eigenvalues --    0.95695   0.97763   0.98441   0.99050   1.00144
 Alpha virt. eigenvalues --    1.00834   1.01904   1.02966   1.03657   1.05272
 Alpha virt. eigenvalues --    1.06801   1.09597   1.09982   1.10886   1.14346
 Alpha virt. eigenvalues --    1.14994   1.17172   1.19499   1.22622   1.22877
 Alpha virt. eigenvalues --    1.26037   1.28219   1.30308   1.31259   1.33334
 Alpha virt. eigenvalues --    1.34833   1.36089   1.39056   1.40363   1.42632
 Alpha virt. eigenvalues --    1.43672   1.45649   1.48233   1.50895   1.52754
 Alpha virt. eigenvalues --    1.55827   1.56339   1.58934   1.60041   1.64318
 Alpha virt. eigenvalues --    1.66722   1.68952   1.72330   1.73794   1.75157
 Alpha virt. eigenvalues --    1.76002   1.77660   1.78000   1.80279   1.81928
 Alpha virt. eigenvalues --    1.83988   1.85711   1.86864   1.87937   1.88877
 Alpha virt. eigenvalues --    1.89060   1.90282   1.90967   1.91279   1.93064
 Alpha virt. eigenvalues --    1.93254   1.94089   1.95833   1.99194   1.99805
 Alpha virt. eigenvalues --    2.02470   2.03913   2.07548   2.09745   2.10942
 Alpha virt. eigenvalues --    2.12226   2.13580   2.15967   2.17822   2.18708
 Alpha virt. eigenvalues --    2.19579   2.20266   2.23218   2.25076   2.26102
 Alpha virt. eigenvalues --    2.27557   2.29406   2.29644   2.32470   2.32911
 Alpha virt. eigenvalues --    2.34840   2.35963   2.36196   2.41624   2.41894
 Alpha virt. eigenvalues --    2.45544   2.47020   2.48369   2.55244   2.56518
 Alpha virt. eigenvalues --    2.59941   2.60531   2.64774   2.67902   2.69388
 Alpha virt. eigenvalues --    2.71948   2.72472   2.73929   2.77288   2.78002
 Alpha virt. eigenvalues --    2.79292   2.82878   2.85597   2.88467   2.94354
 Alpha virt. eigenvalues --    2.96759   2.98701   3.02118   3.06778   3.09074
 Alpha virt. eigenvalues --    3.21705   3.33169   3.47225   3.50659   3.89243
 Alpha virt. eigenvalues --    4.00597   4.05170   4.08079   4.14278   4.17107
 Alpha virt. eigenvalues --    4.22203   4.26239   4.26739   4.35548   4.38521
 Alpha virt. eigenvalues --    4.45951   4.48144   4.49557   4.60188   4.69947
 Alpha virt. eigenvalues --    4.86403
          Condensed to atoms (all electrons):
               1          2          3          4          5          6
     1  C    5.116990   0.379423   0.374451   0.365296   0.353398  -0.047184
     2  H    0.379423   0.531463  -0.023797  -0.026027  -0.033000  -0.000575
     3  H    0.374451  -0.023797   0.536445  -0.028571  -0.028162   0.004479
     4  H    0.365296  -0.026027  -0.028571   0.558528  -0.031753  -0.005741
     5  C    0.353398  -0.033000  -0.028162  -0.031753   4.910355   0.386048
     6  H   -0.047184  -0.000575   0.004479  -0.005741   0.386048   0.545478
     7  H   -0.033436   0.003383  -0.005104   0.002119   0.376124  -0.028444
     8  N   -0.050107  -0.004051  -0.000727   0.003756   0.278636  -0.040183
     9  C   -0.002479   0.002399  -0.000077  -0.000073  -0.034201  -0.002867
    10  H    0.001648   0.001500  -0.000058  -0.000221  -0.004087   0.002639
    11  C   -0.000033  -0.000068   0.000008  -0.000002   0.004424   0.000410
    12  C    0.000008  -0.000008   0.000000  -0.000000  -0.000015  -0.000006
    13  O   -0.000000  -0.000000   0.000000   0.000000   0.000000  -0.000000
    14  O    0.000001  -0.000001  -0.000000   0.000000  -0.000013  -0.000009
    15  C   -0.000019   0.000015  -0.000002   0.000000  -0.000476  -0.000003
    16  O   -0.000000   0.000000   0.000000   0.000000   0.000001   0.000000
    17  C   -0.000202  -0.000052   0.000038   0.000005   0.004986  -0.000039
    18  C    0.000007  -0.000000   0.000001  -0.000000   0.000042   0.000002
    19  H   -0.000000  -0.000000   0.000000   0.000000   0.000002  -0.000000
    20  C   -0.000006   0.000000   0.000004   0.000000  -0.000009   0.000001
    21  H    0.000000   0.000000  -0.000000  -0.000000  -0.000001  -0.000000
    22  C    0.000012   0.000000  -0.000078  -0.000000   0.000159  -0.000004
    23  C    0.000010  -0.000000  -0.000001  -0.000000  -0.000019  -0.000001
    24  H   -0.000006   0.000000   0.000019   0.000000  -0.000003   0.000000
    25  H   -0.000001  -0.000000   0.000013  -0.000000   0.000001   0.000000
    26  H   -0.000000  -0.000000   0.000000   0.000000   0.000000   0.000000
    27  N   -0.001451  -0.000102   0.003397   0.000072  -0.002358   0.000488
    28  C   -0.001075   0.000168   0.001251  -0.000013  -0.030988   0.003925
               7          8          9         10         11         12
     1  C   -0.033436  -0.050107  -0.002479   0.001648  -0.000033   0.000008
     2  H    0.003383  -0.004051   0.002399   0.001500  -0.000068  -0.000008
     3  H   -0.005104  -0.000727  -0.000077  -0.000058   0.000008   0.000000
     4  H    0.002119   0.003756  -0.000073  -0.000221  -0.000002  -0.000000
     5  C    0.376124   0.278636  -0.034201  -0.004087   0.004424  -0.000015
     6  H   -0.028444  -0.040183  -0.002867   0.002639   0.000410  -0.000006
     7  H    0.522674  -0.034646   0.003244   0.000093  -0.000192  -0.000001
     8  N   -0.034646   7.010176   0.274657  -0.052785  -0.029346   0.004245
     9  C    0.003244   0.274657   5.094822   0.366171   0.375309  -0.029131
    10  H    0.000093  -0.052785   0.366171   0.508748  -0.039843  -0.000146
    11  C   -0.000192  -0.029346   0.375309  -0.039843   5.948558   0.112348
    12  C   -0.000001   0.004245  -0.029131  -0.000146   0.112348   4.346557
    13  O   -0.000000  -0.000024   0.008288   0.000384  -0.146641   0.573899
    14  O   -0.000000   0.001069   0.021239   0.016583  -0.186108   0.581119
    15  C    0.000029  -0.024954  -0.054191   0.001529   0.214978  -0.013170
    16  O    0.000000  -0.000031   0.005945  -0.000028  -0.108102  -0.003625
    17  C    0.000192  -0.057878  -0.041480  -0.000265  -0.056402   0.008041
    18  C   -0.000017   0.005522  -0.000504   0.000017   0.020668  -0.000111
    19  H    0.000000  -0.000046  -0.000050   0.000000   0.000873   0.000011
    20  C    0.000008   0.000326   0.000010   0.000001  -0.000192   0.000001
    21  H   -0.000001   0.000014   0.000000   0.000000   0.000002  -0.000000
    22  C    0.000099   0.002228   0.000000   0.000001  -0.000048   0.000000
    23  C   -0.000049  -0.000165   0.000002  -0.000000  -0.000000   0.000000
    24  H    0.000070  -0.000004  -0.000000  -0.000000   0.000000   0.000000
    25  H    0.000002  -0.000002  -0.000000   0.000000  -0.000000  -0.000000
    26  H   -0.000000   0.000001  -0.000000   0.000000   0.000000   0.000000
    27  N    0.010692  -0.077263   0.002558  -0.000188  -0.001085  -0.000005
    28  C   -0.003899   0.270436  -0.032108   0.003932  -0.049650   0.000004
              13         14         15         16         17         18
     1  C   -0.000000   0.000001  -0.000019  -0.000000  -0.000202   0.000007
     2  H   -0.000000  -0.000001   0.000015   0.000000  -0.000052  -0.000000
     3  H    0.000000  -0.000000  -0.000002   0.000000   0.000038   0.000001
     4  H    0.000000   0.000000   0.000000   0.000000   0.000005  -0.000000
     5  C    0.000000  -0.000013  -0.000476   0.000001   0.004986   0.000042
     6  H   -0.000000  -0.000009  -0.000003   0.000000  -0.000039   0.000002
     7  H   -0.000000  -0.000000   0.000029   0.000000   0.000192  -0.000017
     8  N   -0.000024   0.001069  -0.024954  -0.000031  -0.057878   0.005522
     9  C    0.008288   0.021239  -0.054191   0.005945  -0.041480  -0.000504
    10  H    0.000384   0.016583   0.001529  -0.000028  -0.000265   0.000017
    11  C   -0.146641  -0.186108   0.214978  -0.108102  -0.056402   0.020668
    12  C    0.573899   0.581119  -0.013170  -0.003625   0.008041  -0.000111
    13  O    8.428326  -0.170273   0.003827  -0.010290   0.000549   0.000010
    14  O   -0.170273   8.434982   0.002898  -0.000009  -0.000140   0.000000
    15  C    0.003827   0.002898   4.712706   0.633915   0.213277  -0.056734
    16  O   -0.010290  -0.000009   0.633915   8.152784  -0.137551   0.009840
    17  C    0.000549  -0.000140   0.213277  -0.137551   5.316376   0.421257
    18  C    0.000010   0.000000  -0.056734   0.009840   0.421257   5.125740
    19  H    0.000001   0.000000  -0.006588   0.010648  -0.048708   0.364791
    20  C    0.000000   0.000000   0.008053   0.001319  -0.023090   0.464118
    21  H    0.000000   0.000000  -0.000071   0.000002   0.004352  -0.042251
    22  C    0.000000  -0.000000  -0.000056  -0.000024  -0.031976  -0.022517
    23  C    0.000000   0.000000   0.000014  -0.000000   0.001311   0.005368
    24  H   -0.000000   0.000000  -0.000001   0.000000  -0.000027  -0.000172
    25  H    0.000000  -0.000000  -0.000000  -0.000000   0.000032  -0.000250
    26  H    0.000000  -0.000000  -0.000000   0.000000  -0.000010   0.000328
    27  N   -0.000000   0.000000   0.008020  -0.000055  -0.040957  -0.065863
    28  C   -0.000035   0.000015   0.005901   0.004239   0.435068  -0.078555
              19         20         21         22         23         24
     1  C   -0.000000  -0.000006   0.000000   0.000012   0.000010  -0.000006
     2  H   -0.000000   0.000000   0.000000   0.000000  -0.000000   0.000000
     3  H    0.000000   0.000004  -0.000000  -0.000078  -0.000001   0.000019
     4  H    0.000000   0.000000  -0.000000  -0.000000  -0.000000   0.000000
     5  C    0.000002  -0.000009  -0.000001   0.000159  -0.000019  -0.000003
     6  H   -0.000000   0.000001  -0.000000  -0.000004  -0.000001   0.000000
     7  H    0.000000   0.000008  -0.000001   0.000099  -0.000049   0.000070
     8  N   -0.000046   0.000326   0.000014   0.002228  -0.000165  -0.000004
     9  C   -0.000050   0.000010   0.000000   0.000000   0.000002  -0.000000
    10  H    0.000000   0.000001   0.000000   0.000001  -0.000000  -0.000000
    11  C    0.000873  -0.000192   0.000002  -0.000048  -0.000000   0.000000
    12  C    0.000011   0.000001  -0.000000   0.000000   0.000000   0.000000
    13  O    0.000001   0.000000   0.000000   0.000000   0.000000  -0.000000
    14  O    0.000000   0.000000   0.000000  -0.000000   0.000000   0.000000
    15  C   -0.006588   0.008053  -0.000071  -0.000056   0.000014  -0.000001
    16  O    0.010648   0.001319   0.000002  -0.000024  -0.000000   0.000000
    17  C   -0.048708  -0.023090   0.004352  -0.031976   0.001311  -0.000027
    18  C    0.364791   0.464118  -0.042251  -0.022517   0.005368  -0.000172
    19  H    0.546393  -0.039264  -0.005364   0.004818  -0.000232   0.000005
    20  C   -0.039264   5.019831   0.354856   0.537894  -0.070089   0.002736
    21  H   -0.005364   0.354856   0.571656  -0.038945  -0.005954   0.000021
    22  C    0.004818   0.537894  -0.038945   4.538953   0.370075  -0.028671
    23  C   -0.000232  -0.070089  -0.005954   0.370075   5.209833   0.357227
    24  H    0.000005   0.002736   0.000021  -0.028671   0.357227   0.543505
    25  H    0.000005   0.000146   0.000063  -0.025227   0.366487  -0.016236
    26  H   -0.000002   0.001359   0.003232  -0.029162   0.364579  -0.035646
    27  N   -0.000259  -0.031756   0.006440   0.426176  -0.084097   0.001398
    28  C    0.004395  -0.028278   0.000878  -0.047687   0.002365   0.000492
              25         26         27         28
     1  C   -0.000001  -0.000000  -0.001451  -0.001075
     2  H   -0.000000  -0.000000  -0.000102   0.000168
     3  H    0.000013   0.000000   0.003397   0.001251
     4  H   -0.000000   0.000000   0.000072  -0.000013
     5  C    0.000001   0.000000  -0.002358  -0.030988
     6  H    0.000000   0.000000   0.000488   0.003925
     7  H    0.000002  -0.000000   0.010692  -0.003899
     8  N   -0.000002   0.000001  -0.077263   0.270436
     9  C   -0.000000  -0.000000   0.002558  -0.032108
    10  H    0.000000   0.000000  -0.000188   0.003932
    11  C   -0.000000   0.000000  -0.001085  -0.049650
    12  C   -0.000000   0.000000  -0.000005   0.000004
    13  O    0.000000   0.000000  -0.000000  -0.000035
    14  O   -0.000000  -0.000000   0.000000   0.000015
    15  C   -0.000000  -0.000000   0.008020   0.005901
    16  O   -0.000000   0.000000  -0.000055   0.004239
    17  C    0.000032  -0.000010  -0.040957   0.435068
    18  C   -0.000250   0.000328  -0.065863  -0.078555
    19  H    0.000005  -0.000002  -0.000259   0.004395
    20  C    0.000146   0.001359  -0.031756  -0.028278
    21  H    0.000063   0.003232   0.006440   0.000878
    22  C   -0.025227  -0.029162   0.426176  -0.047687
    23  C    0.366487   0.364579  -0.084097   0.002365
    24  H   -0.016236  -0.035646   0.001398   0.000492
    25  H    0.512006  -0.023285  -0.001962   0.000072
    26  H   -0.023285   0.541521   0.003938  -0.000120
    27  N   -0.001962   0.003938   7.050603   0.407069
    28  C    0.000072  -0.000120   0.407069   4.670631
 Mulliken charges:
               1
     1  C   -0.455243
     2  H    0.169329
     3  H    0.166472
     4  H    0.162625
     5  C   -0.149094
     6  H    0.181586
     7  H    0.187061
     8  N   -0.478854
     9  C    0.042518
    10  H    0.194375
    11  C   -0.059865
    12  C    0.419986
    13  O   -0.688022
    14  O   -0.701352
    15  C    0.351104
    16  O   -0.558978
    17  C    0.033292
    18  C   -0.150735
    19  H    0.168571
    20  C   -0.197979
    21  H    0.151070
    22  C    0.343981
    23  C   -0.516665
    24  H    0.175294
    25  H    0.188136
    26  H    0.173268
    27  N   -0.613450
    28  C    0.461569
 Sum of Mulliken charges =  -1.00000
 Mulliken charges with hydrogens summed into heavy atoms:
               1
     1  C    0.043183
     5  C    0.219554
     8  N   -0.478854
     9  C    0.236893
    11  C   -0.059865
    12  C    0.419986
    13  O   -0.688022
    14  O   -0.701352
    15  C    0.351104
    16  O   -0.558978
    17  C    0.033292
    18  C    0.017836
    20  C   -0.046909
    22  C    0.343981
    23  C    0.020033
    27  N   -0.613450
    28  C    0.461569
 Electronic spatial extent (au):  <R**2>=           4273.1833
 Charge=             -1.0000 electrons
 Dipole moment (field-independent basis, Debye):
    X=            -23.9176    Y=              5.9473    Z=             -1.3504  Tot=             24.6829
 Quadrupole moment (field-independent basis, Debye-Ang):
   XX=           -178.7240   YY=           -102.6455   ZZ=            -96.7834
   XY=             17.2435   XZ=             -1.1710   YZ=              1.3574
 Traceless Quadrupole moment (field-independent basis, Debye-Ang):
   XX=            -52.6731   YY=             23.4055   ZZ=             29.2676
   XY=             17.2435   XZ=             -1.1710   YZ=              1.3574
 Octapole moment (field-independent basis, Debye-Ang**2):
  XXX=           -404.2046  YYY=             49.6975  ZZZ=              0.7103  XYY=            -55.1728
  XXY=              7.0824  XXZ=             -9.0638  XZZ=              4.4026  YZZ=              3.1058
  YYZ=            -12.2308  XYZ=              4.6830
 Hexadecapole moment (field-independent basis, Debye-Ang**3):
 XXXX=          -4922.1912 YYYY=          -1719.1283 ZZZZ=           -154.1546 XXXY=            131.8269
 XXXZ=            -14.8310 YYYX=             88.3856 YYYZ=             -3.2910 ZZZX=              0.0636
 ZZZY=             -5.2157 XXYY=          -1033.2827 XXZZ=           -616.2731 YYZZ=           -322.9956
 XXYZ=             22.0690 YYXZ=              4.8150 ZZXY=            -10.6153
 N-N= 1.169011284125D+03 E-N=-4.219373308520D+03  KE= 7.926195851867D+02
 No NMR shielding tensors so no spin-rotation constants.
 Leave Link  601 at Sun Jul 11 16:02:43 2021, MaxMem=   104857600 cpu:               0.4 elap:               0.1
 (Enter /prod/apps/gaussian/g16b1/l701.exe)
 ... and contract with generalized density number  0.
 Compute integral first derivatives.
 D1PCM: PCM CHGder 1st derivatives, ID1Alg=3 FixD1E=F DoIter=F DoCFld=F I1PDM=0.
 GePol: Maximum number of non-zero 1st derivatives   =     170
 Leave Link  701 at Sun Jul 11 16:02:45 2021, MaxMem=   104857600 cpu:               6.7 elap:               1.7
 (Enter /prod/apps/gaussian/g16b1/l702.exe)
 L702 exits ... SP integral derivatives will be done elsewhere.
 Leave Link  702 at Sun Jul 11 16:02:45 2021, MaxMem=   104857600 cpu:               0.1 elap:               0.0
 (Enter /prod/apps/gaussian/g16b1/l703.exe)
 Integral derivatives from FoFJK, PRISM(SPDF).
 Compute integral first derivatives, UseDBF=F ICtDFT=           0.
 Calling FoFJK, ICntrl=      2127 FMM=F ISym2X=0 I1Cent= 0 IOpClX= 0 NMat=1 NMatS=1 NMatT=0.
 FoFJK:  IHMeth= 1 ICntrl=    2127 DoSepK=F KAlg= 0 I1Cent=           0 FoldK=F
 IRaf=         0 NMat=       1 IRICut=       1 DoRegI=T DoRafI=F ISym2E= 0 IDoP0=0 IntGTp=1.
 FoFCou: FMM=F IPFlag=           0 FMFlag=      100000 FMFlg1=         800
         NFxFlg=           0 DoJE=F BraDBF=F KetDBF=F FulRan=T
         wScrn=  0.000000 ICntrl=      2127 IOpCl=  0 I1Cent=           0 NGrid=           0
         NMat0=    1 NMatS0=      1 NMatT0=    0 NMatD0=    1 NMtDS0=    0 NMtDT0=    0
 Symmetry not used in FoFCou.
 Leave Link  703 at Sun Jul 11 16:02:56 2021, MaxMem=   104857600 cpu:              44.9 elap:              11.2
 (Enter /prod/apps/gaussian/g16b1/l716.exe)
 Dipole        =-9.40990801D+00 2.33983825D+00-5.31286573D-01
 ***** Axes restored to original set *****
 -------------------------------------------------------------------
 Center     Atomic                   Forces (Hartrees/Bohr)
 Number     Number              X              Y              Z
 -------------------------------------------------------------------
      1        6          -0.017701440   -0.011244087   -0.009365075
      2        1           0.000772449    0.002568874   -0.002470380
      3        1           0.000197776    0.004953728    0.005399289
      4        1           0.005583564    0.001141967    0.000221648
      5        6           0.011239797    0.008637220    0.012231114
      6        1          -0.004992709    0.003354034    0.000700300
      7        1           0.004124140    0.001281105    0.000985134
      8        7           0.000790522    0.025391111   -0.005203625
      9        6          -0.007934893    0.017062200   -0.047588186
     10        1          -0.015349611   -0.004550907    0.020749710
     11        6           0.039031442   -0.032871578   -0.011545320
     12        6          -0.009700347   -0.020956439    0.055914725
     13        8          -0.039011825    0.047992595    0.013557122
     14        8           0.043885199   -0.047545282   -0.016040308
     15        6           0.037161190   -0.012370187   -0.044265882
     16        8          -0.057809322    0.047846571    0.048630334
     17        6           0.000404349    0.013529678   -0.002261531
     18        6          -0.004530576   -0.014902078   -0.027038400
     19        1           0.006784591   -0.002698457    0.010227248
     20        6          -0.046304898    0.031609895    0.028341517
     21        1           0.004663918    0.007755376    0.002885284
     22        6           0.018173006   -0.029671328    0.007673353
     23        6          -0.011657714   -0.005114572   -0.018242714
     24        1           0.018017179   -0.003594191    0.000006635
     25        1           0.003672516   -0.003071898   -0.010165860
     26        1           0.000323386    0.009529512    0.009493126
     27        7           0.017498167   -0.024725207    0.024467321
     28        6           0.002670143   -0.009337656   -0.047296581
 -------------------------------------------------------------------
 Cartesian Forces:  Max     0.057809322 RMS     0.022615994
 Leave Link  716 at Sun Jul 11 16:02:56 2021, MaxMem=   104857600 cpu:               0.1 elap:               0.0
 (Enter /prod/apps/gaussian/g16b1/l103.exe)

 GradGradGradGradGradGradGradGradGradGradGradGradGradGradGradGradGradGrad
 Berny optimization.
 FormGI is forming the generalized inverse of G from B-inverse, IUseBI=4.
 Internal  Forces:  Max     0.088949222 RMS     0.015907224
 Search for a local minimum.
 Step number   1 out of a maximum of  153
 All quantities printed in internal units (Hartrees-Bohrs-Radians)
 RMS Force = .15907D-01 SwitMx=.10000D-02 MixMth= 1
 Mixed Optimization -- RFO/linear search
 Second derivative matrix not updated -- first step.
 ITU=  0
     Eigenvalues ---    0.00230   0.00496   0.01076   0.01225   0.01601
     Eigenvalues ---    0.01678   0.01692   0.01729   0.01824   0.01892
     Eigenvalues ---    0.01911   0.01946   0.01986   0.02094   0.02147
     Eigenvalues ---    0.02172   0.02186   0.02441   0.02606   0.03769
     Eigenvalues ---    0.05164   0.05270   0.06242   0.07395   0.07812
     Eigenvalues ---    0.09672   0.13006   0.15464   0.15951   0.15986
     Eigenvalues ---    0.16000   0.16000   0.16000   0.16000   0.16000
     Eigenvalues ---    0.16000   0.22024   0.22411   0.23005   0.24354
     Eigenvalues ---    0.24488   0.24680   0.24877   0.24944   0.24952
     Eigenvalues ---    0.24969   0.25000   0.25000   0.25000   0.26654
     Eigenvalues ---    0.33407   0.34406   0.34519   0.34526   0.34532
     Eigenvalues ---    0.34559   0.34584   0.34588   0.34650   0.34969
     Eigenvalues ---    0.35147   0.35251   0.35545   0.36222   0.39705
     Eigenvalues ---    0.40843   0.41968   0.42477   0.43443   0.44957
     Eigenvalues ---    0.47084   0.47960   0.48142   0.53108   0.56890
     Eigenvalues ---    0.84905   0.86559   1.08544
 RFO step:  Lambda=-7.62331727D-02 EMin= 2.30000000D-03
 Linear search not attempted -- first point.
 Maximum step size (   0.300) exceeded in Quadratic search.
    -- Step size scaled by   0.723
 Iteration  1 RMS(Cart)=  0.05844849 RMS(Int)=  0.00120209
 Iteration  2 RMS(Cart)=  0.00155397 RMS(Int)=  0.00028715
 Iteration  3 RMS(Cart)=  0.00000164 RMS(Int)=  0.00028715
 Iteration  4 RMS(Cart)=  0.00000000 RMS(Int)=  0.00028715
 ITry= 1 IFail=0 DXMaxC= 1.90D-01 DCOld= 1.00D+10 DXMaxT= 3.00D-01 DXLimC= 3.00D+00 Rises=F
 Variable       Old X    -DE/DX   Delta X   Delta X   Delta X     New X
                                 (Linear)    (Quad)   (Total)
    R1        2.06452  -0.00124   0.00000  -0.00213  -0.00213   2.06239
    R2        2.06356  -0.00078   0.00000  -0.00133  -0.00133   2.06223
    R3        2.06463   0.00115   0.00000   0.00198   0.00198   2.06661
    R4        2.95180  -0.01132   0.00000  -0.02386  -0.02386   2.92794
    R5        2.06650  -0.00217   0.00000  -0.00373  -0.00373   2.06277
    R6        2.06442  -0.00263   0.00000  -0.00450  -0.00450   2.05992
    R7        2.81643  -0.01163   0.00000  -0.02048  -0.02048   2.79595
    R8        2.61069  -0.00389   0.00000  -0.00665  -0.00666   2.60403
    R9        2.68276  -0.02860   0.00000  -0.04332  -0.04349   2.63926
   R10        2.04799  -0.00297   0.00000  -0.00498  -0.00498   2.04302
   R11        2.61885  -0.01048   0.00000  -0.01355  -0.01344   2.60540
[...]
 Alpha virt. eigenvalues --    0.79111   0.79414   0.79965   0.80233   0.80713
 Alpha virt. eigenvalues --    0.81019   0.82207   0.82441   0.83076   0.83886
 Alpha virt. eigenvalues --    0.84302   0.84475   0.85038   0.85457   0.86204
 Alpha virt. eigenvalues --    0.86588   0.87186   0.87412   0.88465   0.89279
 Alpha virt. eigenvalues --    0.90065   0.90390   0.90911   0.91196   0.91537
 Alpha virt. eigenvalues --    0.92318   0.93586   0.94439   0.94965   0.95749
 Alpha virt. eigenvalues --    0.96386   0.97542   0.97789   0.98635   0.98958
 Alpha virt. eigenvalues --    0.99637   1.00072   1.01067   1.01672   1.01798
 Alpha virt. eigenvalues --    1.02202   1.02581   1.03052   1.04775   1.05121
 Alpha virt. eigenvalues --    1.05539   1.06090   1.06562   1.06905   1.07137
 Alpha virt. eigenvalues --    1.08319   1.08899   1.09687   1.10682   1.11363
 Alpha virt. eigenvalues --    1.12276   1.12799   1.13083   1.13486   1.13974
 Alpha virt. eigenvalues --    1.14742   1.16120   1.17075   1.17835   1.18001
 Alpha virt. eigenvalues --    1.19212   1.20012   1.20549   1.22118   1.22668
 Alpha virt. eigenvalues --    1.22739   1.25200   1.25258   1.25572   1.26552
 Alpha virt. eigenvalues --    1.27124   1.27432   1.28071   1.29959   1.31017
 Alpha virt. eigenvalues --    1.31323   1.31877   1.33460   1.34347   1.35726
 Alpha virt. eigenvalues --    1.37060   1.37672   1.38694   1.39331   1.40384
 Alpha virt. eigenvalues --    1.41252   1.43123   1.43721   1.46126   1.46369
 Alpha virt. eigenvalues --    1.48483   1.49535   1.50473   1.52221   1.52754
 Alpha virt. eigenvalues --    1.52883   1.53706   1.54353   1.55609   1.56559
 Alpha virt. eigenvalues --    1.58046   1.59040   1.59996   1.60496   1.61521
 Alpha virt. eigenvalues --    1.61809   1.64140   1.65452   1.66208   1.66787
 Alpha virt. eigenvalues --    1.67876   1.68523   1.69915   1.71088   1.72279
 Alpha virt. eigenvalues --    1.73347   1.74737   1.75944   1.76451   1.77457
 Alpha virt. eigenvalues --    1.78623   1.79908   1.80381   1.81286   1.82120
 Alpha virt. eigenvalues --    1.82645   1.83019   1.84497   1.85054   1.86050
 Alpha virt. eigenvalues --    1.86375   1.87767   1.88162   1.89072   1.90574
 Alpha virt. eigenvalues --    1.91471   1.92682   1.93234   1.94415   1.95825
 Alpha virt. eigenvalues --    1.96229   1.96828   1.97167   1.97541   1.98554
 Alpha virt. eigenvalues --    1.99271   1.99984   2.00474   2.02046   2.02742
 Alpha virt. eigenvalues --    2.03555   2.04098   2.04539   2.05069   2.06510
 Alpha virt. eigenvalues --    2.07843   2.08419   2.09983   2.10593   2.12471
 Alpha virt. eigenvalues --    2.14079   2.14261   2.15648   2.16515   2.17655
 Alpha virt. eigenvalues --    2.19605   2.20884   2.20949   2.21876   2.23235
 Alpha virt. eigenvalues --    2.24176   2.25115   2.25330   2.26464   2.27372
 Alpha virt. eigenvalues --    2.27724   2.28787   2.30758   2.30970   2.33331
 Alpha virt. eigenvalues --    2.34191   2.34790   2.35354   2.35689   2.36663
 Alpha virt. eigenvalues --    2.37137   2.38252   2.39972   2.40178   2.41017
 Alpha virt. eigenvalues --    2.42603   2.43666   2.45122   2.46254   2.47273
 Alpha virt. eigenvalues --    2.47525   2.49408   2.50923   2.51907   2.52755
 Alpha virt. eigenvalues --    2.53705   2.54592   2.55452   2.56271   2.59175
 Alpha virt. eigenvalues --    2.59372   2.60505   2.62386   2.62604   2.64384
 Alpha virt. eigenvalues --    2.64739   2.66186   2.68665   2.69036   2.70456
 Alpha virt. eigenvalues --    2.71387   2.73609   2.74220   2.75868   2.77416
 Alpha virt. eigenvalues --    2.78955   2.81484   2.81877   2.82607   2.85568
 Alpha virt. eigenvalues --    2.86616   2.88800   2.91046   2.92651   2.94191
 Alpha virt. eigenvalues --    2.95187   2.96740   2.97799   2.98698   2.99664
 Alpha virt. eigenvalues --    3.01322   3.02379   3.03821   3.05584   3.09903
 Alpha virt. eigenvalues --    3.12306   3.14010   3.14884   3.16267   3.20519
 Alpha virt. eigenvalues --    3.21242   3.22420   3.23840   3.26608   3.31143
 Alpha virt. eigenvalues --    3.33510   3.34772   3.36882   3.40080   3.44638
 Alpha virt. eigenvalues --    3.49167   3.52774   3.53943   3.56309   3.63176
 Alpha virt. eigenvalues --    3.70508   3.78703   3.80943   3.89037   3.93935
 Alpha virt. eigenvalues --    3.94299   3.97754   3.98908   4.00762   4.02460
 Alpha virt. eigenvalues --    4.03181   4.05312   4.06936   4.10615   4.13578
 Alpha virt. eigenvalues --    4.17562   4.23357   4.23691   4.28877   4.35202
 Alpha virt. eigenvalues --    4.40002   4.42010   4.50570   4.82950
          Condensed to atoms (all electrons):
               1          2          3          4          5          6
     1  C    4.321502   0.348746   0.390423   0.325331   0.321041  -0.152576
     2  H    0.348746   1.171991  -0.136539  -0.189732  -0.126767  -0.067596
     3  H    0.390423  -0.136539   0.995780  -0.163063  -0.019284   0.088577
     4  H    0.325331  -0.189732  -0.163063   1.202092  -0.010547  -0.083342
     5  C    0.321041  -0.126767  -0.019284  -0.010547   5.331299   0.279467
     6  H   -0.152576  -0.067596   0.088577  -0.083342   0.279467   1.790673
     7  H   -0.053906   0.090457  -0.061392  -0.062019   0.161643  -0.375081
     8  N    0.050162  -0.025843  -0.066941   0.112740   0.190333  -0.425819
     9  C   -0.262187  -0.106770   0.034309   0.058669  -0.467564   0.682409
    10  H   -0.011418  -0.026855   0.002011   0.011427  -0.002297  -0.032319
    11  C    0.041462   0.012787  -0.011627   0.007696  -0.119313  -0.212477
    12  C   -0.008798   0.001383   0.000310  -0.000620  -0.025037   0.004694
    13  O   -0.000599  -0.000009  -0.000032  -0.000015   0.003630   0.000582
    14  O   -0.005610   0.002749  -0.000594  -0.000444  -0.003601   0.004092
    15  C    0.014347   0.000640   0.012714  -0.002194   0.144612   0.028722
    16  O    0.000693   0.000518  -0.000197   0.000006  -0.004659  -0.000467
    17  C   -0.014564  -0.014078  -0.019468   0.006385  -0.298493   0.124416
    18  C   -0.007845  -0.004713   0.023497  -0.001641   0.276762   0.040737
    19  H    0.000238  -0.000243   0.000306  -0.000039  -0.001852   0.000431
    20  C    0.031144   0.001988  -0.018288   0.006195  -0.160681  -0.024844
    21  H   -0.000810   0.000142  -0.000219   0.000044   0.006975   0.000263
    22  C    0.032012  -0.010099   0.079734  -0.026772   0.020786   0.011436
    23  C   -0.010394  -0.002374   0.006956  -0.003245  -0.010366   0.003970
    24  H    0.000869  -0.000257   0.002035  -0.000193  -0.002733   0.000392
    25  H    0.001144  -0.000202  -0.000703  -0.000275  -0.002774  -0.000491
    26  H   -0.000779   0.000023   0.000177  -0.000219   0.000540   0.000258
    27  N    0.078076   0.001214   0.060170  -0.028387  -0.144352   0.060289
    28  C    0.027454   0.166268  -0.127577  -0.062851   0.051930  -0.476690
               7          8          9         10         11         12
     1  C   -0.053906   0.050162  -0.262187  -0.011418   0.041462  -0.008798
     2  H    0.090457  -0.025843  -0.106770  -0.026855   0.012787   0.001383
     3  H   -0.061392  -0.066941   0.034309   0.002011  -0.011627   0.000310
     4  H   -0.062019   0.112740   0.058669   0.011427   0.007696  -0.000620
     5  C    0.161643   0.190333  -0.467564  -0.002297  -0.119313  -0.025037
     6  H   -0.375081  -0.425819   0.682409  -0.032319  -0.212477   0.004694
     7  H    1.551846  -0.348165  -0.365436  -0.003583   0.116598  -0.002444
     8  N   -0.348165  10.400818  -0.096635  -0.255216   0.058004  -0.124546
     9  C   -0.365436  -0.096635  23.429174  -0.767432  -4.139536  -0.498326
    10  H   -0.003583  -0.255216  -0.767432   2.354964   0.366854   0.136656
    11  C    0.116598   0.058004  -4.139536   0.366854  12.258360  -0.820196
    12  C   -0.002444  -0.124546  -0.498326   0.136656  -0.820196   7.113704
    13  O    0.000093  -0.002641  -0.104534   0.005095  -0.035453   0.263515
    14  O    0.000421  -0.129262   0.284156  -0.009092  -0.016200   0.147498
    15  C    0.003306  -0.478449  -2.228676   0.151692  -2.847861  -0.779840
    16  O    0.000005   0.012666   0.062465  -0.005877   0.049185  -0.097406
    17  C   -0.234652   0.193719   4.833503   0.032231  -1.394960   0.215532
    18  C   -0.017833  -0.042866  -0.637990  -0.054475  -1.072843  -0.057029
    19  H   -0.000283  -0.019666   0.011445   0.001492  -0.050963   0.001039
    20  C   -0.000446   0.524511   1.263794   0.035329  -0.791481   0.016177
    21  H    0.001430  -0.024466  -0.023660  -0.000779   0.012251  -0.000257
    22  C    0.099285  -1.393161  -2.336402  -0.031151   0.669533  -0.018496
    23  C   -0.014125  -0.011807  -0.026324   0.002152   0.037632   0.000927
    24  H   -0.003033  -0.017599  -0.011405   0.000085   0.002174   0.000041
    25  H    0.001595  -0.011951  -0.008101   0.000157   0.000834  -0.000019
    26  H    0.000195   0.014672   0.007312   0.000197  -0.000084   0.000061
    27  N    0.042896  -0.372526  -0.791246  -0.058600   0.056064  -0.035639
    28  C    0.665019  -0.380340 -12.464681  -0.091600   3.444712  -0.292172
              13         14         15         16         17         18
     1  C   -0.000599  -0.005610   0.014347   0.000693  -0.014564  -0.007845
     2  H   -0.000009   0.002749   0.000640   0.000518  -0.014078  -0.004713
     3  H   -0.000032  -0.000594   0.012714  -0.000197  -0.019468   0.023497
     4  H   -0.000015  -0.000444  -0.002194   0.000006   0.006385  -0.001641
     5  C    0.003630  -0.003601   0.144612  -0.004659  -0.298493   0.276762
     6  H    0.000582   0.004092   0.028722  -0.000467   0.124416   0.040737
     7  H    0.000093   0.000421   0.003306   0.000005  -0.234652  -0.017833
     8  N   -0.002641  -0.129262  -0.478449   0.012666   0.193719  -0.042866
     9  C   -0.104534   0.284156  -2.228676   0.062465   4.833503  -0.637990
    10  H    0.005095  -0.009092   0.151692  -0.005877   0.032231  -0.054475
    11  C   -0.035453  -0.016200  -2.847861   0.049185  -1.394960  -1.072843
    12  C    0.263515   0.147498  -0.779840  -0.097406   0.215532  -0.057029
    13  O    8.912046  -0.124720   0.148976  -0.063941  -0.079742   0.001627
    14  O   -0.124720   9.062753  -0.045901  -0.004922   0.029657  -0.002747
    15  C    0.148976  -0.045901  17.744688   0.036931  -3.134461  -3.098063
    16  O   -0.063941  -0.004922   0.036931   9.230308   0.055988   0.005885
    17  C   -0.079742   0.029657  -3.134461   0.055988  22.983436  -8.390239
    18  C    0.001627  -0.002747  -3.098063   0.005885  -8.390239  26.342176
    19  H    0.004462   0.000417   0.048635  -0.083239   1.152595  -1.801060
    20  C   -0.010337   0.000655  -0.096497  -0.198294  -0.526145  -5.007162
    21  H   -0.000269  -0.000026  -0.038212  -0.002867  -0.057802   1.241443
    22  C    0.005007  -0.004523   0.021045   0.065693  -2.054673   1.386576
    23  C    0.000029   0.000093  -0.102226   0.008526   0.456227  -0.187946
    24  H    0.000010  -0.000015  -0.000237   0.000149   0.030550  -0.026489
    25  H    0.000009  -0.000008   0.001624   0.000247   0.056699  -0.039048
    26  H    0.000001   0.000008  -0.001454   0.000798  -0.037283  -0.034684
    27  N    0.001713  -0.005539   0.311883  -0.005854   0.229699  -0.506335
    28  C    0.057229  -0.142533   0.019644  -0.076937  -9.748851  -1.983607
              19         20         21         22         23         24
     1  C    0.000238   0.031144  -0.000810   0.032012  -0.010394   0.000869
     2  H   -0.000243   0.001988   0.000142  -0.010099  -0.002374  -0.000257
     3  H    0.000306  -0.018288  -0.000219   0.079734   0.006956   0.002035
     4  H   -0.000039   0.006195   0.000044  -0.026772  -0.003245  -0.000193
     5  C   -0.001852  -0.160681   0.006975   0.020786  -0.010366  -0.002733
     6  H    0.000431  -0.024844   0.000263   0.011436   0.003970   0.000392
     7  H   -0.000283  -0.000446   0.001430   0.099285  -0.014125  -0.003033
     8  N   -0.019666   0.524511  -0.024466  -1.393161  -0.011807  -0.017599
     9  C    0.011445   1.263794  -0.023660  -2.336402  -0.026324  -0.011405
    10  H    0.001492   0.035329  -0.000779  -0.031151   0.002152   0.000085
    11  C   -0.050963  -0.791481   0.012251   0.669533   0.037632   0.002174
    12  C    0.001039   0.016177  -0.000257  -0.018496   0.000927   0.000041
    13  O    0.004462  -0.010337  -0.000269   0.005007   0.000029   0.000010
    14  O    0.000417   0.000655  -0.000026  -0.004523   0.000093  -0.000015
    15  C    0.048635  -0.096497  -0.038212   0.021045  -0.102226  -0.000237
    16  O   -0.083239  -0.198294  -0.002867   0.065693   0.008526   0.000149
    17  C    1.152595  -0.526145  -0.057802  -2.054673   0.456227   0.030550
    18  C   -1.801060  -5.007162   1.241443   1.386576  -0.187946  -0.026489
    19  H    2.108111   0.818456  -0.125411  -0.225184   0.043228   0.001498
    20  C    0.818456  17.311986  -1.531014  -3.646141  -0.467212   0.052321
    21  H   -0.125411  -1.531014   2.111333   0.218372  -0.029521  -0.005178
    22  C   -0.225184  -3.646141   0.218372  12.464619   0.061961   0.116542
    23  C    0.043228  -0.467212  -0.029521   0.061961   5.590017   0.345755
    24  H    0.001498   0.052321  -0.005178   0.116542   0.345755   0.779149
    25  H    0.001398   0.062577  -0.004393   0.056092   0.359570  -0.090737
    26  H    0.001677  -0.186969  -0.045993   0.132815   0.011298  -0.109245
    27  N    0.021165  -0.054860  -0.082679   0.442382  -0.152267  -0.081693
    28  C   -0.227670  -2.081450  -0.029478   0.093240  -0.585553  -0.075050
              25         26         27         28
     1  C    0.001144  -0.000779   0.078076   0.027454
     2  H   -0.000202   0.000023   0.001214   0.166268
     3  H   -0.000703   0.000177   0.060170  -0.127577
     4  H   -0.000275  -0.000219  -0.028387  -0.062851
     5  C   -0.002774   0.000540  -0.144352   0.051930
     6  H   -0.000491   0.000258   0.060289  -0.476690
     7  H    0.001595   0.000195   0.042896   0.665019
     8  N   -0.011951   0.014672  -0.372526  -0.380340
     9  C   -0.008101   0.007312  -0.791246 -12.464681
    10  H    0.000157   0.000197  -0.058600  -0.091600
    11  C    0.000834  -0.000084   0.056064   3.444712
    12  C   -0.000019   0.000061  -0.035639  -0.292172
    13  O    0.000009   0.000001   0.001713   0.057229
    14  O   -0.000008   0.000008  -0.005539  -0.142533
    15  C    0.001624  -0.001454   0.311883   0.019644
    16  O    0.000247   0.000798  -0.005854  -0.076937
    17  C    0.056699  -0.037283   0.229699  -9.748851
    18  C   -0.039048  -0.034684  -0.506335  -1.983607
    19  H    0.001398   0.001677   0.021165  -0.227670
    20  C    0.062577  -0.186969  -0.054860  -2.081450
    21  H   -0.004393  -0.045993  -0.082679  -0.029478
    22  C    0.056092   0.132815   0.442382   0.093240
    23  C    0.359570   0.011298  -0.152267  -0.585553
    24  H   -0.090737  -0.109245  -0.081693  -0.075050
    25  H    0.770402  -0.108236  -0.034504  -0.093880
    26  H   -0.108236   1.107116   0.203571   0.173463
    27  N   -0.034504   0.203571   8.784012  -0.225602
    28  C   -0.093880   0.173463  -0.225602  30.342520
 Mulliken charges:
               1
     1  C    0.544843
     2  H   -0.086828
     3  H   -0.071074
     4  H   -0.094984
     5  C    0.611303
     6  H   -0.269709
     7  H   -0.192390
     8  N   -0.329726
     9  C    0.669669
    10  H   -0.749647
    11  C    0.378847
    12  C    0.859287
    13  O   -0.981730
    14  O   -1.036763
    15  C    0.164612
    16  O   -0.985402
    17  C    1.604774
    18  C   -0.344086
    19  H   -0.680983
    20  C    0.676688
    21  H   -0.589219
    22  C   -0.230528
    23  C    0.675019
    24  H    0.092293
    25  H    0.082977
    26  H   -0.129235
    27  N   -0.713050
    28  C    0.125041
 Sum of Mulliken charges =  -1.00000
 Mulliken charges with hydrogens summed into heavy atoms:
               1
     1  C    0.291957
     5  C    0.149204
     8  N   -0.329726
     9  C   -0.079978
    11  C    0.378847
    12  C    0.859287
    13  O   -0.981730
    14  O   -1.036763
    15  C    0.164612
    16  O   -0.985402
    17  C    1.604774
    18  C   -1.025070
    20  C    0.087469
    22  C   -0.230528
    23  C    0.721054
    27  N   -0.713050
    28  C    0.125041
 Electronic spatial extent (au):  <R**2>=           4314.0036
 Charge=             -1.0000 electrons
 Dipole moment (field-independent basis, Debye):
    X=            -19.6643    Y=              4.5016    Z=             -0.3400  Tot=             20.1758
 Quadrupole moment (field-independent basis, Debye-Ang):
   XX=           -183.4753   YY=           -113.5319   ZZ=           -103.3027
   XY=             12.0323   XZ=             -0.2844   YZ=              0.5052
 Traceless Quadrupole moment (field-independent basis, Debye-Ang):
   XX=            -50.0387   YY=             19.9048   ZZ=             30.1340
   XY=             12.0323   XZ=             -0.2844   YZ=              0.5052
 Octapole moment (field-independent basis, Debye-Ang**2):
  XXX=           -355.0530  YYY=             35.6007  ZZZ=             -0.8157  XYY=            -53.3922
  XXY=              6.2698  XXZ=              3.4063  XZZ=              6.6938  YZZ=              3.8404
  YYZ=             -5.6769  XYZ=              5.6334
 Hexadecapole moment (field-independent basis, Debye-Ang**3):
 XXXX=          -5318.6637 YYYY=          -1814.2168 ZZZZ=           -198.8837 XXXY=             52.5306
 XXXZ=             18.4268 YYYX=             78.0702 YYYZ=            -17.2221 ZZZX=              6.1394
 ZZZY=             -3.7962 XXYY=          -1113.1724 XXZZ=           -688.2964 YYZZ=           -343.5297
 XXYZ=             11.1181 YYXZ=             -8.1819 ZZXY=            -14.5486
 N-N= 1.162723750152D+03 E-N=-4.202964667391D+03  KE= 7.934440673947D+02
 Leave Link  601 at Sun Jul 11 16:56:12 2021, MaxMem=   262144000 cpu:               0.7 elap:               0.4
 (Enter /prod/apps/gaussian/g16b1/l9999.exe)
 1\1\GINC-PIRINEUS26\SP\RMP2-FC\Aug-CC-pVDZ\C12H11N2O3(1-)\UBATOR02\11-
 Jul-2021\0\\#p mp2/aug-cc-pVDZ scf=tight maxdisk=180GB geom=allcheck\\
 SET_328_BBB282_conf1.geo_000_090 geometry\\-1,1\C,0,2.7006775642,-1.41
 51990822,-0.6331959219\H,0,3.0854840884,-1.4043958248,0.3903387095\H,0
 ,2.794595994,-0.411399411,-1.0534537914\H,0,3.3198810907,-2.0946090921
 ,-1.2247416905\C,0,1.2507698282,-1.8898104773,-0.6680221064\H,0,1.1663
 180451,-2.8986618765,-0.2632469986\H,0,0.8695668875,-1.8965399195,-1.6
 8888146\N,0,0.3493429697,-1.0438987967,0.1381030909\C,0,0.0580834417,-
 1.395548969,1.4166650496\H,0,0.500981091,-2.3230492206,1.7565623562\C,
 0,-0.7344342894,-0.698649931,2.2941818757\C,0,-0.9184767874,-1.3287970
 229,3.6757218689\O,0,-1.6931375816,-0.766492538,4.4945657001\O,0,-0.26
 80664744,-2.3948401247,3.8904066374\C,0,-1.3321296377,0.5524579701,1.8
 48587963\O,0,-2.0600005994,1.3056634859,2.5218975331\C,0,-1.0073247203
 ,0.9181104321,0.4495095518\C,0,-1.5225818087,2.0897555899,-0.118873473
 4\H,0,-2.1614997461,2.7129150458,0.4974093462\C,0,-1.2128898397,2.4216
 264347,-1.425737192\H,0,-1.6008925147,3.3246129744,-1.8838258204\C,0,-
 0.3764677967,1.5655983083,-2.1652900839\C,0,-0.007568335,1.8758124584,
 -3.5911258303\H,0,-0.3516002628,1.0787918451,-4.2581875113\H,0,1.07942
 98922,1.9414612639,-3.7003602944\H,0,-0.4496200373,2.8185221669,-3.918
 5495611\N,0,0.1297713986,0.4422664444,-1.6449889672\C,0,-0.1802118601,
 0.1302978664,-0.3774689795\\Version=ES64L-G16RevB.01\State=1-A\HF=-794
 .4673763\MP2=-797.0451761\RMSD=4.155e-09\PG=C01 [X(C12H11N2O3)]\\@


 HERE WE GO......
 SLIDING DOWN THE RAZOR BLADE OF LIFE......
                                 TOM LEHRER
 Job cpu time:       0 days  1 hours 36 minutes 39.9 seconds.
 Elapsed time:       0 days  0 hours 27 minutes 12.4 seconds.
 File lengths (MBytes):  RWF=  55793 Int=      0 D2E=      0 Chk=     20 Scr=      1
 Normal termination of Gaussian 16 at Sun Jul 11 16:56:14 2021.
