 Entering Gaussian System, Link 0=g16
 Initial command:
 /prod/apps/gaussian/g16b1/l1.exe "/tmp/ubator02/1834555/Gau-213574.inp" -scrdir="/tmp/ubator02/1834555/"
 Entering Link 1 = /prod/apps/gaussian/g16b1/l1.exe PID=    213577.
  
 Copyright (c) 1988-2017, Gaussian, Inc.  All Rights Reserved.
  
 This is part of the Gaussian(R) 16 program.  It is based on
 the Gaussian(R) 09 system (copyright 2009, Gaussian, Inc.),
 the Gaussian(R) 03 system (copyright 2003, Gaussian, Inc.),
 the Gaussian(R) 98 system (copyright 1998, Gaussian, Inc.),
 the Gaussian(R) 94 system (copyright 1995, Gaussian, Inc.),
 the Gaussian 92(TM) system (copyright 1992, Gaussian, Inc.),
 the Gaussian 90(TM) system (copyright 1990, Gaussian, Inc.),
 the Gaussian 88(TM) system (copyright 1988, Gaussian, Inc.),
 the Gaussian 86(TM) system (copyright 1986, Carnegie Mellon
 University), and the Gaussian 82(TM) system (copyright 1983,
 Carnegie Mellon University). Gaussian is a federally registered
 trademark of Gaussian, Inc.
  
 This software contains proprietary and confidential information,
 including trade secrets, belonging to Gaussian, Inc.
  
 This software is provided under written license and may be
 used, copied, transmitted, or stored only in accord with that
 written license.
  
 The following legend is applicable only to US Government
 contracts under FAR:
  
                    RESTRICTED RIGHTS LEGEND
  
 Use, reproduction and disclosure by the US Government is
 subject to restrictions as set forth in subparagraphs (a)
 and (c) of the Commercial Computer Software - Restricted
 Rights clause in FAR 52.227-19.
  
 Gaussian, Inc.
 340 Quinnipiac St., Bldg. 40, Wallingford CT 06492
  
  
 ---------------------------------------------------------------
 Warning -- This program may not be used in any manner that
 competes with the business of Gaussian, Inc. or will provide
 assistance to any competitor of Gaussian, Inc.  The licensee
 of this program is prohibited from giving any competitor of
 Gaussian, Inc. access to this program.  By using this program,
 the user acknowledges that Gaussian, Inc. is engaged in the
 business of creating and licensing software in the field of
 computational chemistry and represents and warrants to the
 licensee that it is not a competitor of Gaussian, Inc. and that
 it will not use this program in any manner prohibited above.
 ---------------------------------------------------------------
  

 Cite this work as:
 Gaussian 16, Revision B.01,
 M. J. Frisch, G. W. Trucks, H. B. Schlegel, G. E. Scuseria, 
 M. A. Robb, J. R. Cheeseman, G. Scalmani, V. Barone, 
 G. A. Petersson, H. Nakatsuji, X. Li, M. Caricato, A. V. Marenich, 
 J. Bloino, B. G. Janesko, R. Gomperts, B. Mennucci, H. P. Hratchian, 
 J. V. Ortiz, A. F. Izmaylov, J. L. Sonnenberg, D. Williams-Young, 
 F. Ding, F. Lipparini, F. Egidi, J. Goings, B. Peng, A. Petrone, 
 T. Henderson, D. Ranasinghe, V. G. Zakrzewski, J. Gao, N. Rega, 
 G. Zheng, W. Liang, M. Hada, M. Ehara, K. Toyota, R. Fukuda, 
 J. Hasegawa, M. Ishida, T. Nakajima, Y. Honda, O. Kitao, H. Nakai, 
 T. Vreven, K. Throssell, J. A. Montgomery, Jr., J. E. Peralta, 
 F. Ogliaro, M. J. Bearpark, J. J. Heyd, E. N. Brothers, K. N. Kudin, 
 V. N. Staroverov, T. A. Keith, R. Kobayashi, J. Normand, 
 K. Raghavachari, A. P. Rendell, J. C. Burant, S. S. Iyengar, 
 J. Tomasi, M. Cossi, J. M. Millam, M. Klene, C. Adamo, R. Cammi, 
 J. W. Ochterski, R. L. Martin, K. Morokuma, O. Farkas, 
 J. B. Foresman, and D. J. Fox, Gaussian, Inc., Wallingford CT, 2016.
 
 ******************************************
 Gaussian 16:  ES64L-G16RevB.01 20-Dec-2017
                11-Jul-2021 
 ******************************************
 %mem=800MB
 %nproc=4
 Will use up to    4 processors via shared memory.
 %chk=SET_328_BBB285_conf1.geo_120_300.chk
 -----------------------------------------------------------
 #p b3lyp/6-31G(d) opt freq scrf=(iefpcm,read,solvent=water)
 -----------------------------------------------------------
 1/18=20,19=15,26=3,38=1,40=2/1,3;
 2/9=110,12=2,17=6,18=5,40=1/2;
 3/5=1,6=6,7=1,11=2,25=1,30=1,70=2203,71=1,72=1,74=-5/1,2,3;
 4//1;
 5/5=2,38=5,53=1/2;
 6/7=2,8=2,9=2,10=2,28=1/1;
 7//1,2,3,16;
 1/18=20,19=15,26=3/3(2);
 2/9=110/2;
 99//99;
 2/9=110/2;
 3/5=1,6=6,7=1,11=2,25=1,30=1,70=2205,71=1,72=1,74=-5/1,2,3;
 4/5=5,16=3,69=1/1;
 5/5=2,38=5,53=1/2;
 7//1,2,3,16;
 1/18=20,19=15,26=3/3(-5);
 2/9=110/2;
 6/7=2,8=2,9=2,10=2,19=2,28=1/1;
 99/9=1/99;
 Leave Link    1 at Sun Jul 11 16:05:14 2021, MaxMem=   104857600 cpu:               0.1 elap:               0.0
 (Enter /prod/apps/gaussian/g16b1/l101.exe)
 -----------------------------------------
 SET_328_BBB285_conf1.geo_120_300 geometry
 -----------------------------------------
 Symbolic Z-matrix:
 Charge = -1 Multiplicity = 1
 N                    -0.591     3.339    -3.97 
 H                     0.236     2.764    -3.903 
 C                    -1.636     3.047    -3.193 
 O                    -2.691     3.532    -3.522 
 C                    -1.222     2.111    -2.086 
 C                    -2.116     1.716    -1.016 
 N                    -1.507     0.805    -0.259 
 H                    -3.149     1.92     -0.762 
 N                    -0.03      1.506    -1.893 
 N                    -0.289     0.691    -0.826 
 C                     0.793    -0.131    -0.262 
 H                     1.719     0.115    -0.803 
 O                     1.044     0.224     1.174 
 C                     0.354    -0.693     2.078 
 C                     0.877    -0.709     3.542 
 O                     2.301    -1.105     3.558 
 H                     2.323    -1.876     2.963 
 H                     0.275    -1.335     4.207 
 H                     0.704     0.294     3.941 
 H                    -0.644    -0.248     2.097 
 C                     0.26     -2.047     1.339 
 O                     1.424    -2.821     1.827 
 H                     1.133    -3.741     1.693 
 H                    -0.69     -2.409     1.74 
 C                     0.365    -1.598    -0.173 
 H                    -0.598    -1.66     -0.686 
 O                     1.275    -2.345    -0.926 
 H                     0.82     -3.197    -1.052 
 
 ITRead=  0  0  0  0  0  0  0  0  0  0  0  0  0  0  0  0  0  0  0  0
 ITRead=  0  0  0  0  0  0  0  0
 MicOpt= -1 -1 -1 -1 -1 -1 -1 -1 -1 -1 -1 -1 -1 -1 -1 -1 -1 -1 -1 -1
 MicOpt= -1 -1 -1 -1 -1 -1 -1 -1
 NAtoms=     28 NQM=       28 NQMF=       0 NMMI=      0 NMMIF=      0
                NMic=       0 NMicF=      0.
                    Isotopes and Nuclear Properties:
 (Nuclear quadrupole moments (NQMom) in fm**2, nuclear magnetic moments (NMagM)
  in nuclear magnetons)

  Atom         1           2           3           4           5           6           7           8           9          10
 IAtWgt=          14           1          12          16          12          12          14           1          14          14
 AtmWgt=  14.0030740   1.0078250  12.0000000  15.9949146  12.0000000  12.0000000  14.0030740   1.0078250  14.0030740  14.0030740
 NucSpn=           2           1           0           0           0           0           2           1           2           2
 AtZEff=  -0.0000000  -0.0000000  -0.0000000  -0.0000000  -0.0000000  -0.0000000  -0.0000000  -0.0000000  -0.0000000  -0.0000000
 NQMom=    2.0440000   0.0000000   0.0000000   0.0000000   0.0000000   0.0000000   2.0440000   0.0000000   2.0440000   2.0440000
 NMagM=    0.4037610   2.7928460   0.0000000   0.0000000   0.0000000   0.0000000   0.4037610   2.7928460   0.4037610   0.4037610
 AtZNuc=   7.0000000   1.0000000   6.0000000   8.0000000   6.0000000   6.0000000   7.0000000   1.0000000   7.0000000   7.0000000

  Atom        11          12          13          14          15          16          17          18          19          20
 IAtWgt=          12           1          16          12          12          16           1           1           1           1
 AtmWgt=  12.0000000   1.0078250  15.9949146  12.0000000  12.0000000  15.9949146   1.0078250   1.0078250   1.0078250   1.0078250
 NucSpn=           0           1           0           0           0           0           1           1           1           1
 AtZEff=  -0.0000000  -0.0000000  -0.0000000  -0.0000000  -0.0000000  -0.0000000  -0.0000000  -0.0000000  -0.0000000  -0.0000000
 NQMom=    0.0000000   0.0000000   0.0000000   0.0000000   0.0000000   0.0000000   0.0000000   0.0000000   0.0000000   0.0000000
 NMagM=    0.0000000   2.7928460   0.0000000   0.0000000   0.0000000   0.0000000   2.7928460   2.7928460   2.7928460   2.7928460
 AtZNuc=   6.0000000   1.0000000   8.0000000   6.0000000   6.0000000   8.0000000   1.0000000   1.0000000   1.0000000   1.0000000

  Atom        21          22          23          24          25          26          27          28
 IAtWgt=          12          16           1           1          12           1          16           1
 AtmWgt=  12.0000000  15.9949146   1.0078250   1.0078250  12.0000000   1.0078250  15.9949146   1.0078250
 NucSpn=           0           0           1           1           0           1           0           1
 AtZEff=  -0.0000000  -0.0000000  -0.0000000  -0.0000000  -0.0000000  -0.0000000  -0.0000000  -0.0000000
 NQMom=    0.0000000   0.0000000   0.0000000   0.0000000   0.0000000   0.0000000   0.0000000   0.0000000
 NMagM=    0.0000000   0.0000000   2.7928460   2.7928460   0.0000000   2.7928460   0.0000000   2.7928460
 AtZNuc=   6.0000000   8.0000000   1.0000000   1.0000000   6.0000000   1.0000000   8.0000000   1.0000000
 Leave Link  101 at Sun Jul 11 16:05:14 2021, MaxMem=   104857600 cpu:               0.5 elap:               0.1
 (Enter /prod/apps/gaussian/g16b1/l103.exe)

 GradGradGradGradGradGradGradGradGradGradGradGradGradGradGradGradGradGrad
 Berny optimization.
 Initialization pass.
                           ----------------------------
                           !    Initial Parameters    !
                           ! (Angstroms and Degrees)  !
 --------------------------                            --------------------------
 ! Name  Definition              Value          Derivative Info.                !
 --------------------------------------------------------------------------------
 ! R1    R(1,2)                  1.0095         estimate D2E/DX2                !
 ! R2    R(1,3)                  1.3345         estimate D2E/DX2                !
 ! R3    R(3,4)                  1.2069         estimate D2E/DX2                !
 ! R4    R(3,5)                  1.5076         estimate D2E/DX2                !
 ! R5    R(5,6)                  1.4492         estimate D2E/DX2                !
 ! R6    R(5,9)                  1.3506         estimate D2E/DX2                !
 ! R7    R(6,7)                  1.3319         estimate D2E/DX2                !
 ! R8    R(6,8)                  1.0832         estimate D2E/DX2                !
 ! R9    R(7,10)                 1.3483         estimate D2E/DX2                !
 ! R10   R(9,10)                 1.3674         estimate D2E/DX2                !
 ! R11   R(10,11)                1.4712         estimate D2E/DX2                !
 ! R12   R(11,12)                1.1003         estimate D2E/DX2                !
 ! R13   R(11,13)                1.5004         estimate D2E/DX2                !
 ! R14   R(11,25)                1.5307         estimate D2E/DX2                !
 ! R15   R(13,14)                1.4609         estimate D2E/DX2                !
 ! R16   R(14,15)                1.5547         estimate D2E/DX2                !
 ! R17   R(14,20)                1.0929         estimate D2E/DX2                !
 ! R18   R(14,21)                1.5454         estimate D2E/DX2                !
 ! R19   R(15,16)                1.4781         estimate D2E/DX2                !
 ! R20   R(15,18)                1.0938         estimate D2E/DX2                !
 ! R21   R(15,19)                1.0932         estimate D2E/DX2                !
 ! R22   R(16,17)                0.9741         estimate D2E/DX2                !
 ! R23   R(21,22)                1.4806         estimate D2E/DX2                !
 ! R24   R(21,24)                1.0929         estimate D2E/DX2                !
 ! R25   R(21,25)                1.5807         estimate D2E/DX2                !
 ! R26   R(22,23)                0.9742         estimate D2E/DX2                !
 ! R27   R(25,26)                1.0929         estimate D2E/DX2                !
 ! R28   R(25,27)                1.3975         estimate D2E/DX2                !
 ! R29   R(27,28)                0.9741         estimate D2E/DX2                !
 ! A1    A(2,1,3)              118.5692         estimate D2E/DX2                !
 ! A2    A(1,3,4)              115.9676         estimate D2E/DX2                !
 ! A3    A(1,3,5)              110.3846         estimate D2E/DX2                !
 ! A4    A(4,3,5)              133.6079         estimate D2E/DX2                !
 ! A5    A(3,5,6)              122.817          estimate D2E/DX2                !
 ! A6    A(3,5,9)              128.7106         estimate D2E/DX2                !
 ! A7    A(6,5,9)              108.4724         estimate D2E/DX2                !
 ! A8    A(5,6,7)              108.9059         estimate D2E/DX2                !
 ! A9    A(5,6,8)              135.2461         estimate D2E/DX2                !
 ! A10   A(7,6,8)              115.5706         estimate D2E/DX2                !
 ! A11   A(6,7,10)             103.4074         estimate D2E/DX2                !
 ! A12   A(5,9,10)             102.1999         estimate D2E/DX2                !
 ! A13   A(7,10,9)             116.6695         estimate D2E/DX2                !
 ! A14   A(7,10,11)            123.3932         estimate D2E/DX2                !
 ! A15   A(9,10,11)            119.5276         estimate D2E/DX2                !
 ! A16   A(10,11,12)           107.7902         estimate D2E/DX2                !
 ! A17   A(10,11,13)           110.9616         estimate D2E/DX2                !
 ! A18   A(10,11,25)           110.6163         estimate D2E/DX2                !
 ! A19   A(12,11,13)           106.0751         estimate D2E/DX2                !
 ! A20   A(12,11,25)           118.5652         estimate D2E/DX2                !
 ! A21   A(13,11,25)           102.5847         estimate D2E/DX2                !
 ! A22   A(11,13,14)           111.3902         estimate D2E/DX2                !
 ! A23   A(13,14,15)           115.485          estimate D2E/DX2                !
 ! A24   A(13,14,20)           100.7474         estimate D2E/DX2                !
 ! A25   A(13,14,21)           106.4262         estimate D2E/DX2                !
 ! A26   A(15,14,20)           107.1584         estimate D2E/DX2                !
 ! A27   A(15,14,21)           117.4995         estimate D2E/DX2                !
 ! A28   A(20,14,21)           108.0302         estimate D2E/DX2                !
 ! A29   A(14,15,16)           109.6962         estimate D2E/DX2                !
 ! A30   A(14,15,18)           113.1557         estimate D2E/DX2                !
 ! A31   A(14,15,19)           106.3203         estimate D2E/DX2                !
 ! A32   A(16,15,18)           111.7339         estimate D2E/DX2                !
 ! A33   A(16,15,19)           113.2223         estimate D2E/DX2                !
 ! A34   A(18,15,19)           102.4791         estimate D2E/DX2                !
 ! A35   A(15,16,17)           103.1314         estimate D2E/DX2                !
 ! A36   A(14,21,22)           104.6308         estimate D2E/DX2                !
 ! A37   A(14,21,24)            99.6499         estimate D2E/DX2                !
 ! A38   A(14,21,25)           101.7997         estimate D2E/DX2                !
 ! A39   A(22,21,24)           112.9113         estimate D2E/DX2                !
 ! A40   A(22,21,25)           114.3012         estimate D2E/DX2                !
 ! A41   A(24,21,25)           120.1852         estimate D2E/DX2                !
 ! A42   A(21,22,23)           102.3284         estimate D2E/DX2                !
 ! A43   A(11,25,21)           110.2672         estimate D2E/DX2                !
 ! A44   A(11,25,26)           105.8697         estimate D2E/DX2                !
 ! A45   A(11,25,27)           107.3893         estimate D2E/DX2                !
 ! A46   A(21,25,26)           111.9837         estimate D2E/DX2                !
 ! A47   A(21,25,27)           114.0039         estimate D2E/DX2                !
 ! A48   A(26,25,27)           106.8892         estimate D2E/DX2                !
 ! A49   A(25,27,28)           103.4777         estimate D2E/DX2                !
 ! D1    D(2,1,3,4)           -162.6774         estimate D2E/DX2                !
 ! D2    D(2,1,3,5)             15.3411         estimate D2E/DX2                !
 ! D3    D(1,3,5,6)            174.2349         estimate D2E/DX2                !
 ! D4    D(1,3,5,9)             -5.7975         estimate D2E/DX2                !
 ! D5    D(4,3,5,6)             -8.2256         estimate D2E/DX2                !
 ! D6    D(4,3,5,9)            171.742          estimate D2E/DX2                !
 ! D7    D(3,5,6,7)            174.9348         estimate D2E/DX2                !
 ! D8    D(3,5,6,8)              1.4952         estimate D2E/DX2                !
 ! D9    D(9,5,6,7)             -5.0386         estimate D2E/DX2                !
 ! D10   D(9,5,6,8)           -178.4782         estimate D2E/DX2                !
 ! D11   D(3,5,9,10)          -174.2226         estimate D2E/DX2                !
 ! D12   D(6,5,9,10)             5.7487         estimate D2E/DX2                !
 ! D13   D(5,6,7,10)             1.7576         estimate D2E/DX2                !
 ! D14   D(8,6,7,10)           176.6415         estimate D2E/DX2                !
 ! D15   D(6,7,10,9)             2.1249         estimate D2E/DX2                !
 ! D16   D(6,7,10,11)          174.7274         estimate D2E/DX2                !
 ! D17   D(5,9,10,7)            -5.1621         estimate D2E/DX2                !
 ! D18   D(5,9,10,11)         -178.0655         estimate D2E/DX2                !
 ! D19   D(7,10,11,12)        -168.831          estimate D2E/DX2                !
 ! D20   D(7,10,11,13)         -53.0878         estimate D2E/DX2                !
 ! D21   D(7,10,11,25)          60.0789         estimate D2E/DX2                !
 ! D22   D(9,10,11,12)           3.5707         estimate D2E/DX2                !
 ! D23   D(9,10,11,13)         119.3138         estimate D2E/DX2                !
 ! D24   D(9,10,11,25)        -127.5194         estimate D2E/DX2                !
 ! D25   D(10,11,13,14)         97.274          estimate D2E/DX2                !
 ! D26   D(12,11,13,14)       -145.9249         estimate D2E/DX2                !
 ! D27   D(25,11,13,14)        -20.8816         estimate D2E/DX2                !
 ! D28   D(10,11,25,21)       -113.8173         estimate D2E/DX2                !
 ! D29   D(10,11,25,26)          7.504          estimate D2E/DX2                !
 ! D30   D(10,11,25,27)        121.4284         estimate D2E/DX2                !
 ! D31   D(12,11,25,21)        120.9782         estimate D2E/DX2                !
 ! D32   D(12,11,25,26)       -117.7005         estimate D2E/DX2                !
 ! D33   D(12,11,25,27)         -3.7761         estimate D2E/DX2                !
 ! D34   D(13,11,25,21)          4.582          estimate D2E/DX2                !
 ! D35   D(13,11,25,26)        125.9033         estimate D2E/DX2                !
 ! D36   D(13,11,25,27)       -120.1723         estimate D2E/DX2                !
 ! D37   D(11,13,14,15)        161.7356         estimate D2E/DX2                !
 ! D38   D(11,13,14,20)        -83.2325         estimate D2E/DX2                !
 ! D39   D(11,13,14,21)         29.3745         estimate D2E/DX2                !
 ! D40   D(13,14,15,16)        -59.982          estimate D2E/DX2                !
 ! D41   D(13,14,15,18)        174.5062         estimate D2E/DX2                !
 ! D42   D(13,14,15,19)         62.7836         estimate D2E/DX2                !
 ! D43   D(20,14,15,16)       -171.2895         estimate D2E/DX2                !
 ! D44   D(20,14,15,18)         63.1987         estimate D2E/DX2                !
 ! D45   D(20,14,15,19)        -48.5239         estimate D2E/DX2                !
 ! D46   D(21,14,15,16)         66.9801         estimate D2E/DX2                !
 ! D47   D(21,14,15,18)        -58.5317         estimate D2E/DX2                !
 ! D48   D(21,14,15,19)       -170.2542         estimate D2E/DX2                !
 ! D49   D(13,14,21,22)         95.5245         estimate D2E/DX2                !
 ! D50   D(13,14,21,24)       -147.5703         estimate D2E/DX2                !
 ! D51   D(13,14,21,25)        -23.7532         estimate D2E/DX2                !
 ! D52   D(15,14,21,22)        -35.7135         estimate D2E/DX2                !
 ! D53   D(15,14,21,24)         81.1917         estimate D2E/DX2                !
 ! D54   D(15,14,21,25)       -154.9912         estimate D2E/DX2                !
 ! D55   D(20,14,21,22)       -156.9928         estimate D2E/DX2                !
 ! D56   D(20,14,21,24)        -40.0876         estimate D2E/DX2                !
 ! D57   D(20,14,21,25)         83.7295         estimate D2E/DX2                !
 ! D58   D(14,15,16,17)        -46.0803         estimate D2E/DX2                !
 ! D59   D(18,15,16,17)         80.2423         estimate D2E/DX2                !
 ! D60   D(19,15,16,17)       -164.6598         estimate D2E/DX2                !
 ! D61   D(14,21,22,23)        155.1049         estimate D2E/DX2                !
 ! D62   D(24,21,22,23)         47.7423         estimate D2E/DX2                !
 ! D63   D(25,21,22,23)        -94.4219         estimate D2E/DX2                !
 ! D64   D(14,21,25,11)         11.5411         estimate D2E/DX2                !
 ! D65   D(14,21,25,26)       -106.0671         estimate D2E/DX2                !
 ! D66   D(14,21,25,27)        132.4172         estimate D2E/DX2                !
 ! D67   D(22,21,25,11)       -100.6352         estimate D2E/DX2                !
 ! D68   D(22,21,25,26)        141.7565         estimate D2E/DX2                !
 ! D69   D(22,21,25,27)         20.2408         estimate D2E/DX2                !
 ! D70   D(24,21,25,11)        120.1813         estimate D2E/DX2                !
 ! D71   D(24,21,25,26)          2.573          estimate D2E/DX2                !
 ! D72   D(24,21,25,27)       -118.9427         estimate D2E/DX2                !
 ! D73   D(11,25,27,28)       -163.9154         estimate D2E/DX2                !
 ! D74   D(21,25,27,28)         73.6177         estimate D2E/DX2                !
 ! D75   D(26,25,27,28)        -50.6775         estimate D2E/DX2                !
 --------------------------------------------------------------------------------
 Trust Radius=3.00D-01 FncErr=1.00D-07 GrdErr=1.00D-06 EigMax=2.50D+02 EigMin=1.00D-04
 Number of steps in this run=    163 maximum allowed number of steps=    168.
 GradGradGradGradGradGradGradGradGradGradGradGradGradGradGradGradGradGrad

 Leave Link  103 at Sun Jul 11 16:05:14 2021, MaxMem=   104857600 cpu:               0.1 elap:               0.0
 (Enter /prod/apps/gaussian/g16b1/l202.exe)
                          Input orientation:                          
 ---------------------------------------------------------------------
 Center     Atomic      Atomic             Coordinates (Angstroms)
 Number     Number       Type             X           Y           Z
 ---------------------------------------------------------------------
      1          7           0       -0.591000    3.339000   -3.970000
      2          1           0        0.236000    2.764000   -3.903000
      3          6           0       -1.636000    3.047000   -3.193000
      4          8           0       -2.691000    3.532000   -3.522000
      5          6           0       -1.222000    2.111000   -2.086000
      6          6           0       -2.116000    1.716000   -1.016000
      7          7           0       -1.507000    0.805000   -0.259000
      8          1           0       -3.149000    1.920000   -0.762000
      9          7           0       -0.030000    1.506000   -1.893000
     10          7           0       -0.289000    0.691000   -0.826000
     11          6           0        0.793000   -0.131000   -0.262000
     12          1           0        1.719000    0.115000   -0.803000
     13          8           0        1.044000    0.224000    1.174000
     14          6           0        0.354000   -0.693000    2.078000
     15          6           0        0.877000   -0.709000    3.542000
     16          8           0        2.301000   -1.105000    3.558000
     17          1           0        2.323000   -1.876000    2.963000
     18          1           0        0.275000   -1.335000    4.207000
     19          1           0        0.704000    0.294000    3.941000
     20          1           0       -0.644000   -0.248000    2.097000
     21          6           0        0.260000   -2.047000    1.339000
     22          8           0        1.424000   -2.821000    1.827000
     23          1           0        1.133000   -3.741000    1.693000
     24          1           0       -0.690000   -2.409000    1.740000
     25          6           0        0.365000   -1.598000   -0.173000
     26          1           0       -0.598000   -1.660000   -0.686000
     27          8           0        1.275000   -2.345000   -0.926000
     28          1           0        0.820000   -3.197000   -1.052000
 ---------------------------------------------------------------------
                    Distance matrix (angstroms):
                    1          2          3          4          5
     1  N    0.000000
     2  H    1.009477   0.000000
     3  C    1.334548   2.022022   0.000000
     4  O    2.155911   3.049970   1.206852   0.000000
     5  C    2.335723   2.419434   1.507628   2.497859   0.000000
     6  C    3.699442   3.868459   2.596399   3.147780   1.449193
     7  N    4.586037   4.489373   3.694802   4.414244   2.263800
     8  H    4.341450   4.694299   3.077184   3.228917   2.345802
     9  N    2.826400   2.386089   2.577580   3.720113   1.350607
    10  N    4.121631   3.747117   3.601088   4.594486   2.115299
    11  C    5.263613   4.684886   4.958880   6.015266   3.523317
    12  H    5.075447   4.338950   5.056160   6.206203   3.778834
    13  O    6.231949   5.734143   5.849993   6.851679   4.395808
    14  C    7.329963   6.909206   6.762480   7.647395   5.261662
    15  C    8.658607   8.240184   8.110668   8.978686   6.635705
    16  O    9.207800   8.654473   8.849580   9.825896   7.389785
    17  H    9.151727   8.545591   8.820768   9.820483   7.345447
    18  H    9.458306   9.087102   8.809872   9.603244   7.329241
    19  H    8.575137   8.237006   7.996785   8.815160   6.582985
    20  H    7.048253   6.771008   6.310720   7.074728   4.836988
    21  C    7.610432   7.115115   7.076911   7.966364   5.587120
    22  O    8.695461   8.089281   8.306469   9.268529   6.829166
    23  H    9.228659   8.627563   8.810068   9.732201   7.353419
    24  H    8.102679   7.711086   7.416019   8.184627   5.945730
    25  C    6.301199   5.740783   5.890707   6.846301   4.464843
    26  H    5.981196   5.533211   5.433079   6.275381   4.070604
    27  O    6.712358   6.003660   6.533519   7.550331   5.237991
    28  H    7.295543   6.633459   7.042965   7.981695   5.780466
                    6          7          8          9         10
     6  C    0.000000
     7  N    1.331860   0.000000
     8  H    1.083153   2.047535   0.000000
     9  N    2.272581   2.311468   3.343459   0.000000
    10  N    2.103486   1.348336   3.113541   1.367404   0.000000
    11  C    3.527351   2.483164   4.471685   2.453010   1.471225
    12  H    4.161225   3.343518   5.192026   2.486359   2.089107
    13  O    4.124047   2.983061   4.919935   3.493349   2.448464
    14  C    4.634330   3.341990   5.211946   4.555425   3.280567
    15  C    5.967750   4.735320   6.453273   5.938695   4.732756
    16  O    6.956249   5.720005   7.583899   6.477984   5.399368
    17  H    6.959858   5.677847   7.630729   6.368302   5.269588
    18  H    6.504246   5.263106   6.856367   6.736045   5.454710
    19  H    5.877613   4.773850   6.293464   6.003604   4.885483
    20  H    3.964196   2.721087   4.375972   4.401547   3.090578
    21  C    5.035034   3.716154   5.636716   4.811833   3.533450
    22  O    6.418615   5.107840   7.077594   5.888586   4.723020
    23  H    6.904602   5.607675   7.510624   6.460880   5.292454
    24  H    5.161844   3.872116   5.571977   5.381590   4.044151
    25  C    4.224761   3.047325   5.007139   3.570608   2.468531
    26  H    3.716262   2.661735   4.396564   3.435554   2.375349
    27  O    5.291380   4.255222   6.147267   4.179511   3.416635
    28  H    5.723544   4.696784   6.482341   4.852627   4.049383
                   11         12         13         14         15
    11  C    0.000000
    12  H    1.100306   0.000000
    13  O    1.500374   2.091897   0.000000
    14  C    2.446255   3.288807   1.460892   0.000000
    15  C    3.848578   4.501885   2.550647   1.554696   0.000000
    16  O    4.220799   4.565681   3.004954   2.480111   1.478123
    17  H    3.973229   4.302517   3.040783   2.461641   1.946290
    18  H    4.657242   5.411814   3.495845   2.225095   1.093849
    19  H    4.225370   4.854668   2.788689   2.137157   1.093224
    20  H    2.764695   3.758396   1.980923   1.092882   2.148019
    21  C    2.553105   3.375069   2.408178   1.545404   2.650310
    22  O    3.463839   3.952723   3.137329   2.395054   2.775064
    23  H    4.119433   4.630567   3.999813   3.169443   3.560528
    24  H    3.375882   4.317488   3.203092   2.036869   2.931330
    25  C    1.530749   2.272572   2.365404   2.426138   3.854049
    26  H    2.110094   2.921096   3.115320   3.079138   4.577773
    27  O    2.361147   2.502771   3.326127   3.549840   4.774717
    28  H    3.166257   3.440864   4.087602   4.035353   5.224771
                   16         17         18         19         20
    16  O    0.000000
    17  H    0.974141   0.000000
    18  H    2.139808   2.456526   0.000000
    19  H    2.157382   2.878636   1.705414   0.000000
    20  H    3.397351   3.493341   2.545237   2.347595   0.000000
    21  C    3.158640   2.631081   2.955096   3.528147   2.151321
    22  O    2.590395   1.729660   3.031963   3.832835   3.312077
    23  H    3.433795   2.550926   3.584020   4.638833   3.939796
    24  H    3.735187   3.295146   2.858459   3.754177   2.190773
    25  C    4.232199   3.707498   4.388812   4.540879   2.827274
    26  H    5.169503   4.679113   4.980884   5.188685   3.121049
    27  O    4.764088   4.054946   5.326142   5.565793   4.149518
    28  H    5.274649   4.486009   5.605457   6.093487   4.555886
                   21         22         23         24         25
    21  C    0.000000
    22  O    1.480580   0.000000
    23  H    1.938319   0.974185   0.000000
    24  H    1.092861   2.155530   2.258265   0.000000
    25  C    1.580750   2.572394   2.943506   2.330304   0.000000
    26  H    2.233060   3.428057   3.603687   2.540658   1.092878
    27  O    2.499851   2.797818   2.971219   3.312533   1.397540
    28  H    2.711638   2.965608   2.815836   3.270521   1.880550
                   26         27         28
    26  H    0.000000
    27  O    2.008719   0.000000
    28  H    2.122981   0.974066   0.000000
 Stoichiometry    C8H11N4O5(1-)
 Framework group  C1[X(C8H11N4O5)]
 Deg. of freedom    78
 Full point group                 C1      NOp   1
 Largest Abelian subgroup         C1      NOp   1
 Largest concise Abelian subgroup C1      NOp   1
                         Standard orientation:                         
 ---------------------------------------------------------------------
 Center     Atomic      Atomic             Coordinates (Angstroms)
 Number     Number       Type             X           Y           Z
 ---------------------------------------------------------------------
      1          7           0       -4.782890    0.519721    1.238609
      2          1           0       -4.075020    1.082604    1.687079
      3          6           0       -4.458388   -0.150609    0.131191
      4          8           0       -5.382185   -0.536588   -0.542686
      5          6           0       -2.960104   -0.215556   -0.023303
      6          6           0       -2.310674   -0.983682   -1.066559
      7          7           0       -0.998903   -0.759128   -1.014771
      8          1           0       -2.647715   -1.597029   -1.893258
      9          7           0       -2.007255    0.383941    0.722902
     10          7           0       -0.865455    0.072885    0.037824
     11          6           0        0.436770    0.515862    0.559825
     12          1           0        0.260358    1.013310    1.525276
     13          8           0        1.324719   -0.657439    0.853140
     14          6           0        2.250216   -0.913592   -0.247789
     15          6           0        3.484940   -1.789467    0.106305
     16          8           0        4.275576   -1.130326    1.167094
     17          1           0        4.332033   -0.207574    0.860024
     18          1           0        4.100610   -2.036648   -0.763383
     19          1           0        3.093716   -2.765923    0.403991
     20          1           0        1.616217   -1.504285   -0.913761
     21          6           0        2.513542    0.450936   -0.923803
     22          8           0        3.764624    0.941109   -0.301999
     23          1           0        4.115487    1.540473   -0.985149
     24          1           0        2.652686    0.120158   -1.956067
     25          6           0        1.222153    1.267281   -0.518014
     26          1           0        0.534385    1.389288   -1.358533
     27          8           0        1.490331    2.546721   -0.023815
     28          1           0        1.743524    3.048840   -0.819161
 ---------------------------------------------------------------------
 Rotational constants (GHZ):           1.2162353           0.2115188           0.1990876
 Leave Link  202 at Sun Jul 11 16:05:14 2021, MaxMem=   104857600 cpu:               0.0 elap:               0.0
 (Enter /prod/apps/gaussian/g16b1/l301.exe)
 Standard basis: 6-31G(d) (6D, 7F)
 Ernie: Thresh=  0.10000D-02 Tol=  0.10000D-05 Strict=F.
 There are   277 symmetry adapted cartesian basis functions of A   symmetry.
 There are   277 symmetry adapted basis functions of A   symmetry.
   277 basis functions,   520 primitive gaussians,   277 cartesian basis functions
    64 alpha electrons       64 beta electrons
       nuclear repulsion energy      1247.8148287446 Hartrees.
 IExCor=  402 DFT=T Ex+Corr=B3LYP ExCW=0 ScaHFX=  0.200000
 ScaDFX=  0.800000  0.720000  1.000000  0.810000 ScalE2=  1.000000  1.000000
 IRadAn=      5 IRanWt=     -1 IRanGd=            0 ICorTp=0 IEmpDi=  4
 NAtoms=   28 NActive=   28 NUniq=   28 SFac= 1.00D+00 NAtFMM=   60 NAOKFM=F Big=F
 Integral buffers will be    131072 words long.
 Raffenetti 2 integral format.
 Two-electron integral symmetry is turned on.
 Using the following non-standard input for PCM:
 MSTModel=DFT cav MSTCharged
 --- end of non-standard input.
 MST model for solvation energy: B3LYP parametrization.
 MST cavity parameters:
 ISph   IAn     Re0     Alpha   Atom Type   QCorr
 ------------------------------------------------
   1      7     1.50     1.15      NH         T
   2      1     0.90     1.15      NH         T
   3      6     1.50     1.25      C          F
   4      8     1.40     1.25      O          F
   5      6     1.50     1.25      C          F
   6      6     1.50     1.25      CH         F
   7      7     1.40     1.25      N          F
   8      1     1.20     1.25      CH         F
   9      7     1.40     1.25      N          F
  10      7     1.40     1.25      N          F
  11      6     1.50     1.25      CH         F
  12      1     1.20     1.25      CH         F
  13      8     1.40     1.25      O          F
  14      6     1.50     1.25      CH         F
  15      6     1.50     1.25      CH2        F
  16      8     1.45     1.25      OH         F
  17      1     0.90     1.25      OH         F
  18      1     1.20     1.25      CH2        F
  19      1     1.20     1.25      CH2        F
  20      1     1.20     1.25      CH         F
  21      6     1.50     1.25      CH         F
  22      8     1.45     1.25      OH         F
  23      1     0.90     1.25      OH         F
  24      1     1.20     1.25      CH         F
  25      6     1.50     1.25      CH         F
  26      1     1.20     1.25      CH         F
  27      8     1.45     1.25      OH         F
  28      1     0.90     1.25      OH         F
 ------------------------------------------------------------------------------
 Polarizable Continuum Model (PCM)
 =================================
 Model                : PCM.
 Atomic radii         : MST.
 Polarization charges : Total charges.
 Charge compensation  : None.
 Solution method      : On-the-fly selection.
 Cavity type          : Scaled VdW (van der Waals Surface) (Alpha=1.250).
 Cavity algorithm     : GePol (No added spheres)
                        Default sphere list used, NSphG=   28.
                        Lebedev-Laikov grids with approx.  5.0 points / Ang**2.
                        Smoothing algorithm: York/Karplus (Gamma=1.0000).
                        Polarization charges: spherical gaussians, with
                                              point-specific exponents (IZeta= 3).
                        Self-potential: point-specific (ISelfS= 7).
                        Self-field    : sphere-specific E.n sum rule (ISelfD= 2).
 1st derivatives      : Analytical E(r).r(x)/FMM algorithm (CHGder, D1EAlg=3).
                        Cavity 1st derivative terms included.
 Solvent              : Water, Eps=  78.355300 Eps(inf)=   1.777849
 ------------------------------------------------------------------------------
 GePol: Number of generator spheres                  =      28
 GePol: Total number of spheres                      =      28
 GePol: Number of exposed spheres                    =      28 (100.00%)
 GePol: Number of points                             =    2050
 GePol: Average weight of points                     =       0.13
 GePol: Minimum weight of points                     =   0.17D-10
 GePol: Maximum weight of points                     =    0.22001
 GePol: Number of points with low weight             =     138
 GePol: Fraction of low-weight points (<1% of avg)   =       6.73%
 GePol: Cavity surface area                          =    272.791 Ang**2
 GePol: Cavity volume                                =    252.480 Ang**3
 PCM non-electrostatic energy =         0.0014778720 Hartrees.
 Nuclear repulsion after PCM non-electrostatic terms =     1247.8163066166 Hartrees.
 Leave Link  301 at Sun Jul 11 16:05:14 2021, MaxMem=   104857600 cpu:               0.3 elap:               0.1
 (Enter /prod/apps/gaussian/g16b1/l302.exe)
 NPDir=0 NMtPBC=     1 NCelOv=     1 NCel=       1 NClECP=     1 NCelD=      1
         NCelK=      1 NCelE2=     1 NClLst=     1 CellRange=     0.0.
 One-electron integrals computed using PRISM.
 One-electron integral symmetry used in STVInt
 NBasis=   277 RedAO= T EigKep=  1.09D-03  NBF=   277
 NBsUse=   277 1.00D-06 EigRej= -1.00D+00 NBFU=   277
 Precomputing XC quadrature grid using
 IXCGrd= 4 IRadAn=           5 IRanWt=          -1 IRanGd=           0 AccXCQ= 0.00D+00.
 Generated NRdTot=       0 NPtTot=           0 NUsed=           0 NTot=          32
 NSgBfM=   275   275   275   275   275 MxSgAt=    28 MxSgA2=    28.
 Leave Link  302 at Sun Jul 11 16:05:15 2021, MaxMem=   104857600 cpu:               1.2 elap:               0.3
 (Enter /prod/apps/gaussian/g16b1/l303.exe)
 DipDrv:  MaxL=1.
 Leave Link  303 at Sun Jul 11 16:05:15 2021, MaxMem=   104857600 cpu:               0.1 elap:               0.1
 (Enter /prod/apps/gaussian/g16b1/l401.exe)
 ExpMin= 1.61D-01 ExpMax= 5.48D+03 ExpMxC= 8.25D+02 IAcc=3 IRadAn=         5 AccDes= 0.00D+00
 Harris functional with IExCor=  402 and IRadAn=       5 diagonalized for initial guess.
 HarFok:  IExCor=  402 AccDes= 0.00D+00 IRadAn=         5 IDoV= 1 UseB2=F ITyADJ=14
 ICtDFT=  3500011 ScaDFX=  1.000000  1.000000  1.000000  1.000000
 FoFCou: FMM=F IPFlag=           0 FMFlag=      100000 FMFlg1=           0
         NFxFlg=           0 DoJE=T BraDBF=F KetDBF=T FulRan=T
         wScrn=  0.000000 ICntrl=       500 IOpCl=  0 I1Cent=   200000004 NGrid=           0
         NMat0=    1 NMatS0=      1 NMatT0=    0 NMatD0=    1 NMtDS0=    0 NMtDT0=    0
 Petite list used in FoFCou.
 Harris En= -906.608328217079    
 JPrj=0 DoOrth=F DoCkMO=F.
 Leave Link  401 at Sun Jul 11 16:05:16 2021, MaxMem=   104857600 cpu:               6.2 elap:               1.6
 (Enter /prod/apps/gaussian/g16b1/l502.exe)
 Integral symmetry usage will be decided dynamically.
 Closed shell SCF:
 Using DIIS extrapolation, IDIIS=  1040.
 NGot=   104857600 LenX=   104699417 LenY=   104622247
 Requested convergence on RMS density matrix=1.00D-08 within 128 cycles.
 Requested convergence on MAX density matrix=1.00D-06.
 Requested convergence on             energy=1.00D-06.
 No special actions if energy rises.
 Fock matrices will be formed incrementally for  20 cycles.

 Cycle   1  Pass 1  IDiag  1:
 FoFJK:  IHMeth= 1 ICntrl=       0 DoSepK=F KAlg= 0 I1Cent=           0 FoldK=F
 IRaf= 800000000 NMat=       1 IRICut=       1 DoRegI=T DoRafI=F ISym2E= 0 IDoP0=0 IntGTp=1.
 FoFCou: FMM=F IPFlag=           0 FMFlag=      100000 FMFlg1=           0
         NFxFlg=           0 DoJE=F BraDBF=F KetDBF=F FulRan=T
         wScrn=  0.000000 ICntrl=         0 IOpCl=  0 I1Cent=           0 NGrid=           0
         NMat0=    1 NMatS0=      1 NMatT0=    0 NMatD0=    1 NMtDS0=    0 NMtDT0=    0
 Symmetry not used in FoFCou.
 Inv3:  Mode=1 IEnd=    12607500.
 Iteration    1 A*A^-1 deviation from unit magnitude is 3.77D-15 for    555.
 Iteration    1 A*A^-1 deviation from orthogonality  is 2.66D-15 for   1828    947.
 Iteration    1 A^-1*A deviation from unit magnitude is 3.55D-15 for    547.
 Iteration    1 A^-1*A deviation from orthogonality  is 7.17D-15 for   2004   2003.
 E= -906.172883014611    
 DIIS: error= 3.17D-02 at cycle   1 NSaved=   1.
 NSaved= 1 IEnMin= 1 EnMin= -906.172883014611     IErMin= 1 ErrMin= 3.17D-02
 ErrMax= 3.17D-02  0.00D+00 EMaxC= 1.00D-01 BMatC= 5.17D-01 BMatP= 5.17D-01
 IDIUse=3 WtCom= 6.83D-01 WtEn= 3.17D-01
 Coeff-Com:  0.100D+01
 Coeff-En:   0.100D+01
 Coeff:      0.100D+01
 Gap=     0.218 Goal=   None    Shift=    0.000
 GapD=    0.218 DampG=1.000 DampE=0.500 DampFc=0.5000 IDamp=-1.
 Damping current iteration by 5.00D-01
 RMSDP=7.39D-03 MaxDP=2.42D-01              OVMax= 8.19D-01

 Cycle   2  Pass 1  IDiag  1:
 RMSU=  3.68D-03    CP:  9.87D-01
 E= -906.127925398947     Delta-E=        0.044957615664 Rises=F Damp=T
 DIIS: error= 1.59D-02 at cycle   2 NSaved=   2.
 NSaved= 2 IEnMin= 1 EnMin= -906.172883014611     IErMin= 2 ErrMin= 1.59D-02
 ErrMax= 1.59D-02  0.00D+00 EMaxC= 1.00D-01 BMatC= 1.29D-01 BMatP= 5.17D-01
 IDIUse=3 WtCom= 8.41D-01 WtEn= 1.59D-01
 Coeff-Com:  0.279D+00 0.721D+00
 Coeff-En:   0.542D+00 0.458D+00
 Coeff:      0.321D+00 0.679D+00
 Gap=    -0.086 Goal=   None    Shift=    0.000
 RMSDP=3.08D-03 MaxDP=1.29D-01 DE= 4.50D-02 OVMax= 6.66D-01

 Cycle   3  Pass 1  IDiag  1:
 RMSU=  2.37D-03    CP:  9.79D-01  4.67D-01
 E= -906.498210289841     Delta-E=       -0.370284890894 Rises=F Damp=F
 DIIS: error= 1.04D-02 at cycle   3 NSaved=   3.
 NSaved= 3 IEnMin= 3 EnMin= -906.498210289841     IErMin= 3 ErrMin= 1.04D-02
 ErrMax= 1.04D-02  0.00D+00 EMaxC= 1.00D-01 BMatC= 9.51D-02 BMatP= 1.29D-01
 IDIUse=3 WtCom= 8.96D-01 WtEn= 1.04D-01
 Coeff-Com:  0.107D+00 0.445D+00 0.448D+00
 Coeff-En:   0.000D+00 0.000D+00 0.100D+01
 Coeff:      0.961D-01 0.399D+00 0.505D+00
 Gap=     0.184 Goal=   None    Shift=    0.000
 RMSDP=1.46D-03 MaxDP=7.02D-02 DE=-3.70D-01 OVMax= 1.01D-01

 Cycle   4  Pass 1  IDiag  1:
 RMSU=  1.03D-03    CP:  9.86D-01  5.22D-01  5.78D-01
 E= -906.586951234398     Delta-E=       -0.088740944556 Rises=F Damp=F
 DIIS: error= 3.30D-03 at cycle   4 NSaved=   4.
 NSaved= 4 IEnMin= 4 EnMin= -906.586951234398     IErMin= 4 ErrMin= 3.30D-03
 ErrMax= 3.30D-03  0.00D+00 EMaxC= 1.00D-01 BMatC= 7.50D-03 BMatP= 9.51D-02
 IDIUse=3 WtCom= 9.67D-01 WtEn= 3.30D-02
 Coeff-Com: -0.349D-02 0.163D+00 0.196D+00 0.644D+00
 Coeff-En:   0.000D+00 0.000D+00 0.000D+00 0.100D+01
 Coeff:     -0.337D-02 0.157D+00 0.190D+00 0.656D+00
 Gap=     0.150 Goal=   None    Shift=    0.000
 RMSDP=4.77D-04 MaxDP=1.87D-02 DE=-8.87D-02 OVMax= 4.22D-02

 Cycle   5  Pass 1  IDiag  1:
 RMSU=  4.42D-04    CP:  9.86D-01  5.40D-01  6.16D-01  8.67D-01
 E= -906.589019494170     Delta-E=       -0.002068259772 Rises=F Damp=F
 DIIS: error= 3.04D-03 at cycle   5 NSaved=   5.
 NSaved= 5 IEnMin= 5 EnMin= -906.589019494170     IErMin= 5 ErrMin= 3.04D-03
 ErrMax= 3.04D-03  0.00D+00 EMaxC= 1.00D-01 BMatC= 4.42D-03 BMatP= 7.50D-03
 IDIUse=3 WtCom= 9.70D-01 WtEn= 3.04D-02
 Coeff-Com: -0.227D-01 0.500D-01 0.190D-01 0.444D+00 0.509D+00
 Coeff-En:   0.000D+00 0.000D+00 0.000D+00 0.399D+00 0.601D+00
 Coeff:     -0.220D-01 0.485D-01 0.184D-01 0.443D+00 0.512D+00
 Gap=     0.147 Goal=   None    Shift=    0.000
 RMSDP=2.40D-04 MaxDP=9.52D-03 DE=-2.07D-03 OVMax= 2.57D-02

 Cycle   6  Pass 1  IDiag  1:
 RMSU=  1.12D-04    CP:  9.86D-01  5.52D-01  6.01D-01  9.81D-01  6.21D-01
 E= -906.592820374437     Delta-E=       -0.003800880267 Rises=F Damp=F
 DIIS: error= 6.88D-04 at cycle   6 NSaved=   6.
 NSaved= 6 IEnMin= 6 EnMin= -906.592820374437     IErMin= 6 ErrMin= 6.88D-04
 ErrMax= 6.88D-04  0.00D+00 EMaxC= 1.00D-01 BMatC= 2.23D-04 BMatP= 4.42D-03
 IDIUse=3 WtCom= 9.93D-01 WtEn= 6.88D-03
 Coeff-Com: -0.118D-01 0.104D-01-0.200D-01 0.169D+00 0.269D+00 0.583D+00
 Coeff-En:   0.000D+00 0.000D+00 0.000D+00 0.000D+00 0.000D+00 0.100D+01
 Coeff:     -0.117D-01 0.103D-01-0.199D-01 0.168D+00 0.267D+00 0.586D+00
 Gap=     0.147 Goal=   None    Shift=    0.000
 RMSDP=7.08D-05 MaxDP=2.75D-03 DE=-3.80D-03 OVMax= 3.72D-03

 Cycle   7  Pass 1  IDiag  1:
 RMSU=  4.54D-05    CP:  9.86D-01  5.56D-01  5.98D-01  1.01D+00  6.97D-01
                    CP:  7.23D-01
 E= -906.592985452322     Delta-E=       -0.000165077885 Rises=F Damp=F
 DIIS: error= 1.81D-04 at cycle   7 NSaved=   7.
 NSaved= 7 IEnMin= 7 EnMin= -906.592985452322     IErMin= 7 ErrMin= 1.81D-04
 ErrMax= 1.81D-04  0.00D+00 EMaxC= 1.00D-01 BMatC= 2.73D-05 BMatP= 2.23D-04
 IDIUse=3 WtCom= 9.98D-01 WtEn= 1.81D-03
 Coeff-Com: -0.339D-02 0.464D-03-0.131D-01 0.324D-01 0.750D-01 0.316D+00
 Coeff-Com:  0.592D+00
 Coeff-En:   0.000D+00 0.000D+00 0.000D+00 0.000D+00 0.000D+00 0.000D+00
 Coeff-En:   0.100D+01
 Coeff:     -0.338D-02 0.463D-03-0.130D-01 0.323D-01 0.748D-01 0.316D+00
 Coeff:      0.593D+00
 Gap=     0.147 Goal=   None    Shift=    0.000
 RMSDP=2.12D-05 MaxDP=6.82D-04 DE=-1.65D-04 OVMax= 1.52D-03

 Cycle   8  Pass 1  IDiag  1:
 RMSU=  1.34D-05    CP:  9.86D-01  5.56D-01  5.96D-01  1.01D+00  7.00D-01
                    CP:  8.08D-01  7.79D-01
 E= -906.593007451825     Delta-E=       -0.000021999503 Rises=F Damp=F
 DIIS: error= 4.91D-05 at cycle   8 NSaved=   8.
 NSaved= 8 IEnMin= 8 EnMin= -906.593007451825     IErMin= 8 ErrMin= 4.91D-05
 ErrMax= 4.91D-05  0.00D+00 EMaxC= 1.00D-01 BMatC= 1.73D-06 BMatP= 2.73D-05
 IDIUse=1 WtCom= 1.00D+00 WtEn= 0.00D+00
 Coeff-Com: -0.285D-03-0.235D-03-0.308D-02 0.370D-03 0.103D-01 0.849D-01
 Coeff-Com:  0.258D+00 0.650D+00
 Coeff:     -0.285D-03-0.235D-03-0.308D-02 0.370D-03 0.103D-01 0.849D-01
 Coeff:      0.258D+00 0.650D+00
 Gap=     0.147 Goal=   None    Shift=    0.000
 RMSDP=6.11D-06 MaxDP=1.88D-04 DE=-2.20D-05 OVMax= 5.22D-04

 Cycle   9  Pass 1  IDiag  1:
 RMSU=  4.93D-06    CP:  9.86D-01  5.56D-01  5.96D-01  1.01D+00  7.01D-01
                    CP:  8.12D-01  8.05D-01  7.54D-01
 E= -906.593008681560     Delta-E=       -0.000001229735 Rises=F Damp=F
 DIIS: error= 2.40D-05 at cycle   9 NSaved=   9.
 NSaved= 9 IEnMin= 9 EnMin= -906.593008681560     IErMin= 9 ErrMin= 2.40D-05
 ErrMax= 2.40D-05  0.00D+00 EMaxC= 1.00D-01 BMatC= 4.37D-07 BMatP= 1.73D-06
 IDIUse=1 WtCom= 1.00D+00 WtEn= 0.00D+00
 Coeff-Com:  0.195D-03-0.463D-03-0.621D-03-0.323D-02-0.111D-02 0.208D-01
 Coeff-Com:  0.969D-01 0.388D+00 0.500D+00
 Coeff:      0.195D-03-0.463D-03-0.621D-03-0.323D-02-0.111D-02 0.208D-01
 Coeff:      0.969D-01 0.388D+00 0.500D+00
 Gap=     0.147 Goal=   None    Shift=    0.000
 RMSDP=2.71D-06 MaxDP=9.63D-05 DE=-1.23D-06 OVMax= 2.07D-04

 Cycle  10  Pass 1  IDiag  1:
 RMSU=  1.55D-06    CP:  9.86D-01  5.56D-01  5.96D-01  1.01D+00  7.01D-01
                    CP:  8.17D-01  8.18D-01  8.32D-01  6.55D-01
 E= -906.593009054139     Delta-E=       -0.000000372580 Rises=F Damp=F
 DIIS: error= 1.12D-05 at cycle  10 NSaved=  10.
 NSaved=10 IEnMin=10 EnMin= -906.593009054139     IErMin=10 ErrMin= 1.12D-05
 ErrMax= 1.12D-05  0.00D+00 EMaxC= 1.00D-01 BMatC= 4.44D-08 BMatP= 4.37D-07
 IDIUse=1 WtCom= 1.00D+00 WtEn= 0.00D+00
 Coeff-Com:  0.148D-03-0.227D-03 0.424D-04-0.147D-02-0.949D-03 0.485D-02
 Coeff-Com:  0.303D-01 0.154D+00 0.273D+00 0.540D+00
 Coeff:      0.148D-03-0.227D-03 0.424D-04-0.147D-02-0.949D-03 0.485D-02
 Coeff:      0.303D-01 0.154D+00 0.273D+00 0.540D+00
 Gap=     0.147 Goal=   None    Shift=    0.000
 RMSDP=7.99D-07 MaxDP=3.31D-05 DE=-3.73D-07 OVMax= 7.64D-05

 Cycle  11  Pass 1  IDiag  1:
 RMSU=  5.35D-07    CP:  9.86D-01  5.56D-01  5.96D-01  1.01D+00  7.01D-01
                    CP:  8.16D-01  8.19D-01  8.36D-01  7.19D-01  7.74D-01
 E= -906.593009090889     Delta-E=       -0.000000036749 Rises=F Damp=F
 DIIS: error= 3.22D-06 at cycle  11 NSaved=  11.
 NSaved=11 IEnMin=11 EnMin= -906.593009090889     IErMin=11 ErrMin= 3.22D-06
 ErrMax= 3.22D-06  0.00D+00 EMaxC= 1.00D-01 BMatC= 6.38D-09 BMatP= 4.44D-08
 IDIUse=1 WtCom= 1.00D+00 WtEn= 0.00D+00
 Coeff-Com:  0.484D-04-0.738D-04 0.163D-03-0.638D-04-0.715D-04-0.101D-02
 Coeff-Com: -0.320D-02 0.618D-03 0.331D-01 0.265D+00 0.706D+00
 Coeff:      0.484D-04-0.738D-04 0.163D-03-0.638D-04-0.715D-04-0.101D-02
 Coeff:     -0.320D-02 0.618D-03 0.331D-01 0.265D+00 0.706D+00
 Gap=     0.147 Goal=   None    Shift=    0.000
 RMSDP=3.08D-07 MaxDP=1.34D-05 DE=-3.67D-08 OVMax= 2.58D-05

 Cycle  12  Pass 1  IDiag  1:
 RMSU=  1.46D-07    CP:  9.86D-01  5.56D-01  5.96D-01  1.01D+00  7.01D-01
                    CP:  8.17D-01  8.20D-01  8.42D-01  7.34D-01  8.50D-01
                    CP:  8.41D-01
 E= -906.593009096280     Delta-E=       -0.000000005391 Rises=F Damp=F
 DIIS: error= 1.03D-06 at cycle  12 NSaved=  12.
 NSaved=12 IEnMin=12 EnMin= -906.593009096280     IErMin=12 ErrMin= 1.03D-06
 ErrMax= 1.03D-06  0.00D+00 EMaxC= 1.00D-01 BMatC= 5.60D-10 BMatP= 6.38D-09
 IDIUse=1 WtCom= 1.00D+00 WtEn= 0.00D+00
 Coeff-Com:  0.141D-04-0.180D-04 0.912D-04 0.135D-03 0.134D-03-0.673D-03
 Coeff-Com: -0.364D-02-0.115D-01-0.600D-02 0.955D-01 0.351D+00 0.575D+00
 Coeff:      0.141D-04-0.180D-04 0.912D-04 0.135D-03 0.134D-03-0.673D-03
 Coeff:     -0.364D-02-0.115D-01-0.600D-02 0.955D-01 0.351D+00 0.575D+00
 Gap=     0.147 Goal=   None    Shift=    0.000
 RMSDP=9.89D-08 MaxDP=2.89D-06 DE=-5.39D-09 OVMax= 7.15D-06

 Cycle  13  Pass 1  IDiag  1:
 RMSU=  5.35D-08    CP:  9.86D-01  5.56D-01  5.96D-01  1.01D+00  7.01D-01
                    CP:  8.17D-01  8.19D-01  8.42D-01  7.37D-01  8.72D-01
                    CP:  8.80D-01  7.29D-01
 E= -906.593009096772     Delta-E=       -0.000000000492 Rises=F Damp=F
 DIIS: error= 2.25D-07 at cycle  13 NSaved=  13.
 NSaved=13 IEnMin=13 EnMin= -906.593009096772     IErMin=13 ErrMin= 2.25D-07
 ErrMax= 2.25D-07  0.00D+00 EMaxC= 1.00D-01 BMatC= 5.28D-11 BMatP= 5.60D-10
 IDIUse=1 WtCom= 1.00D+00 WtEn= 0.00D+00
 Coeff-Com:  0.165D-05-0.326D-05 0.223D-04 0.660D-04 0.778D-04-0.153D-03
 Coeff-Com: -0.123D-02-0.549D-02-0.738D-02 0.119D-01 0.673D-01 0.274D+00
 Coeff-Com:  0.661D+00
 Coeff:      0.165D-05-0.326D-05 0.223D-04 0.660D-04 0.778D-04-0.153D-03
 Coeff:     -0.123D-02-0.549D-02-0.738D-02 0.119D-01 0.673D-01 0.274D+00
 Coeff:      0.661D+00
 Gap=     0.147 Goal=   None    Shift=    0.000
 RMSDP=2.79D-08 MaxDP=8.89D-07 DE=-4.92D-10 OVMax= 1.83D-06

 Cycle  14  Pass 1  IDiag  1:
 RMSU=  1.69D-08    CP:  9.86D-01  5.56D-01  5.96D-01  1.01D+00  7.01D-01
                    CP:  8.17D-01  8.20D-01  8.42D-01  7.38D-01  8.76D-01
                    CP:  8.88D-01  7.87D-01  8.01D-01
 E= -906.593009096817     Delta-E=       -0.000000000044 Rises=F Damp=F
 DIIS: error= 5.71D-08 at cycle  14 NSaved=  14.
 NSaved=14 IEnMin=14 EnMin= -906.593009096817     IErMin=14 ErrMin= 5.71D-08
 ErrMax= 5.71D-08  0.00D+00 EMaxC= 1.00D-01 BMatC= 4.33D-12 BMatP= 5.28D-11
 IDIUse=1 WtCom= 1.00D+00 WtEn= 0.00D+00
 Coeff-Com:  0.371D-07-0.892D-06 0.484D-05 0.228D-04 0.311D-04-0.162D-04
 Coeff-Com: -0.323D-03-0.185D-02-0.330D-02-0.325D-03 0.773D-02 0.992D-01
 Coeff-Com:  0.340D+00 0.558D+00
 Coeff:      0.371D-07-0.892D-06 0.484D-05 0.228D-04 0.311D-04-0.162D-04
 Coeff:     -0.323D-03-0.185D-02-0.330D-02-0.325D-03 0.773D-02 0.992D-01
 Coeff:      0.340D+00 0.558D+00
 Gap=     0.147 Goal=   None    Shift=    0.000
 RMSDP=7.86D-09 MaxDP=3.23D-07 DE=-4.41D-11 OVMax= 4.26D-07

 Error on total polarization charges =  0.02044
 SCF Done:  E(RB3LYP) =  -906.593009097     A.U. after   14 cycles
            NFock= 14  Conv=0.79D-08     -V/T= 2.0090
 KE= 8.984746683238D+02 PE=-4.633173592365D+03 EE= 1.580289608328D+03
 Leave Link  502 at Sun Jul 11 16:06:08 2021, MaxMem=   104857600 cpu:             206.5 elap:              51.7
 (Enter /prod/apps/gaussian/g16b1/l601.exe)
 Copying SCF densities to generalized density rwf, IOpCl= 0 IROHF=0.

 **********************************************************************

            Population analysis using the SCF Density.

 **********************************************************************

 Orbital symmetries:
       Occupied  (A) (A) (A) (A) (A) (A) (A) (A) (A) (A) (A) (A)
                 (A) (A) (A) (A) (A) (A) (A) (A) (A) (A) (A) (A)
                 (A) (A) (A) (A) (A) (A) (A) (A) (A) (A) (A) (A)
                 (A) (A) (A) (A) (A) (A) (A) (A) (A) (A) (A) (A)
                 (A) (A) (A) (A) (A) (A) (A) (A) (A) (A) (A) (A)
                 (A) (A) (A) (A)
       Virtual   (A) (A) (A) (A) (A) (A) (A) (A) (A) (A) (A) (A)
                 (A) (A) (A) (A) (A) (A) (A) (A) (A) (A) (A) (A)
                 (A) (A) (A) (A) (A) (A) (A) (A) (A) (A) (A) (A)
                 (A) (A) (A) (A) (A) (A) (A) (A) (A) (A) (A) (A)
                 (A) (A) (A) (A) (A) (A) (A) (A) (A) (A) (A) (A)
                 (A) (A) (A) (A) (A) (A) (A) (A) (A) (A) (A) (A)
                 (A) (A) (A) (A) (A) (A) (A) (A) (A) (A) (A) (A)
                 (A) (A) (A) (A) (A) (A) (A) (A) (A) (A) (A) (A)
                 (A) (A) (A) (A) (A) (A) (A) (A) (A) (A) (A) (A)
                 (A) (A) (A) (A) (A) (A) (A) (A) (A) (A) (A) (A)
                 (A) (A) (A) (A) (A) (A) (A) (A) (A) (A) (A) (A)
                 (A) (A) (A) (A) (A) (A) (A) (A) (A) (A) (A) (A)
                 (A) (A) (A) (A) (A) (A) (A) (A) (A) (A) (A) (A)
                 (A) (A) (A) (A) (A) (A) (A) (A) (A) (A) (A) (A)
                 (A) (A) (A) (A) (A) (A) (A) (A) (A) (A) (A) (A)
                 (A) (A) (A) (A) (A) (A) (A) (A) (A) (A) (A) (A)
                 (A) (A) (A) (A) (A) (A) (A) (A) (A) (A) (A) (A)
                 (A) (A) (A) (A) (A) (A) (A) (A) (A)
 The electronic state is 1-A.
 Alpha  occ. eigenvalues --  -19.16613 -19.15528 -19.15220 -19.12565 -19.06310
 Alpha  occ. eigenvalues --  -14.44475 -14.37796 -14.37731 -14.22524 -10.29330
 Alpha  occ. eigenvalues --  -10.25129 -10.24935 -10.23793 -10.23575 -10.23162
 Alpha  occ. eigenvalues --  -10.22154 -10.21806  -1.09545  -1.04576  -1.02243
 Alpha  occ. eigenvalues --   -1.01214  -0.99355  -0.98268  -0.89361  -0.84772
 Alpha  occ. eigenvalues --   -0.78893  -0.76818  -0.74015  -0.68122  -0.63290
 Alpha  occ. eigenvalues --   -0.63003  -0.58965  -0.56862  -0.54889  -0.52118
 Alpha  occ. eigenvalues --   -0.51273  -0.49346  -0.49112  -0.48633  -0.46941
 Alpha  occ. eigenvalues --   -0.45851  -0.44726  -0.43823  -0.42707  -0.41917
 Alpha  occ. eigenvalues --   -0.40857  -0.39672  -0.38427  -0.37530  -0.36674
 Alpha  occ. eigenvalues --   -0.35576  -0.33942  -0.33113  -0.31179  -0.30598
 Alpha  occ. eigenvalues --   -0.30050  -0.29391  -0.27961  -0.26439  -0.25965
 Alpha  occ. eigenvalues --   -0.25148  -0.21969  -0.20499  -0.17483
 Alpha virt. eigenvalues --   -0.02794   0.02178   0.04870   0.07572   0.10069
 Alpha virt. eigenvalues --    0.11797   0.11929   0.13278   0.14288   0.14713
 Alpha virt. eigenvalues --    0.15178   0.15456   0.16631   0.16899   0.17229
 Alpha virt. eigenvalues --    0.18683   0.19912   0.20225   0.21266   0.22891
 Alpha virt. eigenvalues --    0.24108   0.24643   0.25956   0.26442   0.29405
 Alpha virt. eigenvalues --    0.29728   0.32072   0.33219   0.37214   0.40822
 Alpha virt. eigenvalues --    0.42513   0.46189   0.51621   0.52047   0.53367
 Alpha virt. eigenvalues --    0.54067   0.55945   0.57098   0.57506   0.57622
 Alpha virt. eigenvalues --    0.59152   0.60080   0.61056   0.61967   0.63985
 Alpha virt. eigenvalues --    0.64421   0.64911   0.66762   0.67899   0.68248
 Alpha virt. eigenvalues --    0.68891   0.69299   0.71526   0.72898   0.73484
 Alpha virt. eigenvalues --    0.76081   0.76432   0.77466   0.78263   0.78443
 Alpha virt. eigenvalues --    0.79648   0.81009   0.82027   0.82414   0.83525
 Alpha virt. eigenvalues --    0.84657   0.85216   0.85689   0.86673   0.88779
 Alpha virt. eigenvalues --    0.90113   0.90584   0.92017   0.93425   0.94971
 Alpha virt. eigenvalues --    0.96254   0.96722   0.98872   0.99452   1.00315
 Alpha virt. eigenvalues --    1.01856   1.02987   1.03358   1.04005   1.05589
 Alpha virt. eigenvalues --    1.06724   1.08407   1.08720   1.11109   1.11607
 Alpha virt. eigenvalues --    1.14963   1.16570   1.20106   1.20783   1.24867
 Alpha virt. eigenvalues --    1.26110   1.28744   1.29177   1.31092   1.32061
 Alpha virt. eigenvalues --    1.35459   1.37350   1.38408   1.39826   1.41058
 Alpha virt. eigenvalues --    1.43194   1.46115   1.47577   1.48938   1.49831
 Alpha virt. eigenvalues --    1.51250   1.51873   1.54797   1.57370   1.59553
 Alpha virt. eigenvalues --    1.61876   1.64988   1.65759   1.68020   1.70260
 Alpha virt. eigenvalues --    1.71000   1.72566   1.72978   1.74318   1.76932
 Alpha virt. eigenvalues --    1.78605   1.79099   1.81023   1.82842   1.84464
 Alpha virt. eigenvalues --    1.84786   1.85953   1.87696   1.88748   1.89705
 Alpha virt. eigenvalues --    1.91508   1.93001   1.93670   1.95207   1.96292
 Alpha virt. eigenvalues --    1.98090   2.01335   2.02208   2.03858   2.04311
 Alpha virt. eigenvalues --    2.06776   2.09421   2.11393   2.13850   2.16507
 Alpha virt. eigenvalues --    2.17139   2.17753   2.19879   2.21006   2.23409
 Alpha virt. eigenvalues --    2.25130   2.27085   2.29321   2.31255   2.35104
 Alpha virt. eigenvalues --    2.35994   2.36459   2.38674   2.40928   2.42052
 Alpha virt. eigenvalues --    2.42270   2.44941   2.48230   2.49592   2.51846
 Alpha virt. eigenvalues --    2.52241   2.53887   2.56324   2.56850   2.60093
 Alpha virt. eigenvalues --    2.60577   2.62612   2.67590   2.68972   2.72846
 Alpha virt. eigenvalues --    2.74821   2.77118   2.80559   2.82035   2.82732
 Alpha virt. eigenvalues --    2.84258   2.85590   2.87255   2.92651   2.94634
 Alpha virt. eigenvalues --    2.96748   3.02807   3.04823   3.14331   3.19375
 Alpha virt. eigenvalues --    3.24115   3.65240   3.72786   3.78751   3.83731
 Alpha virt. eigenvalues --    3.89450   3.95611   4.00221   4.03500   4.15998
 Alpha virt. eigenvalues --    4.23178   4.29187   4.33993   4.45212   4.47863
 Alpha virt. eigenvalues --    4.58351   4.68931   4.80866
          Condensed to atoms (all electrons):
               1          2          3          4          5          6
     1  N    7.455436   0.251436   0.492253  -0.159151  -0.161928   0.011435
     2  H    0.251436   0.515806  -0.039702   0.008984  -0.005719   0.000168
     3  C    0.492253  -0.039702   4.354581   0.612041   0.244387  -0.026388
     4  O   -0.159151   0.008984   0.612041   8.271031  -0.096441   0.007236
     5  C   -0.161928  -0.005719   0.244387  -0.096441   5.172834   0.400160
     6  C    0.011435   0.000168  -0.026388   0.007236   0.400160   5.057132
     7  N   -0.000279   0.000000   0.004230   0.000119  -0.028261   0.399790
     8  H    0.000059  -0.000026  -0.000722   0.001493  -0.033352   0.374172
     9  N   -0.020661   0.009508  -0.033682   0.001423   0.380536  -0.079328
    10  N    0.000636   0.000393   0.004052  -0.000024  -0.097736  -0.121677
    11  C   -0.000000  -0.000032  -0.000110   0.000000   0.005863   0.005310
    12  H    0.000001   0.000019  -0.000007  -0.000000   0.000495  -0.000296
    13  O   -0.000000   0.000000   0.000000  -0.000000  -0.000136   0.000163
    14  C   -0.000000  -0.000000  -0.000000   0.000000  -0.000008  -0.000019
    15  C    0.000000  -0.000000  -0.000000   0.000000  -0.000000  -0.000000
    16  O   -0.000000   0.000000   0.000000  -0.000000   0.000000   0.000000
    17  H    0.000000  -0.000000   0.000000   0.000000   0.000000  -0.000000
    18  H    0.000000  -0.000000  -0.000000   0.000000   0.000000  -0.000000
    19  H    0.000000  -0.000000  -0.000000  -0.000000  -0.000000  -0.000000
    20  H    0.000000   0.000000  -0.000000   0.000000   0.000007   0.000010
    21  C   -0.000000  -0.000000  -0.000000   0.000000   0.000010  -0.000027
    22  O    0.000000   0.000000   0.000000  -0.000000  -0.000000   0.000000
    23  H    0.000000  -0.000000  -0.000000  -0.000000   0.000000  -0.000000
    24  H    0.000000   0.000000   0.000000  -0.000000  -0.000000   0.000004
    25  C   -0.000000   0.000001   0.000004  -0.000000  -0.000512   0.000573
    26  H    0.000000   0.000000  -0.000000  -0.000000  -0.000167   0.000362
    27  O    0.000000  -0.000000  -0.000000   0.000000   0.000002  -0.000006
    28  H   -0.000000   0.000000   0.000000  -0.000000  -0.000000   0.000000
               7          8          9         10         11         12
     1  N   -0.000279   0.000059  -0.020661   0.000636  -0.000000   0.000001
     2  H    0.000000  -0.000026   0.009508   0.000393  -0.000032   0.000019
     3  C    0.004230  -0.000722  -0.033682   0.004052  -0.000110  -0.000007
     4  O    0.000119   0.001493   0.001423  -0.000024   0.000000  -0.000000
     5  C   -0.028261  -0.033352   0.380536  -0.097736   0.005863   0.000495
     6  C    0.399790   0.374172  -0.079328  -0.121677   0.005310  -0.000296
     7  N    6.798930  -0.046588  -0.079544   0.259284  -0.043573   0.003429
     8  H   -0.046588   0.515843   0.004144   0.006349  -0.000220   0.000002
     9  N   -0.079544   0.004144   7.035452   0.205876  -0.045222   0.007134
    10  N    0.259284   0.006349   0.205876   6.774349   0.192828  -0.049377
    11  C   -0.043573  -0.000220  -0.045222   0.192828   4.867820   0.379281
    12  H    0.003429   0.000002   0.007134  -0.049377   0.379281   0.501558
    13  O    0.002848  -0.000001   0.000927  -0.053529   0.236093  -0.028018
    14  C   -0.002875   0.000004  -0.000016  -0.003447  -0.029648   0.004538
    15  C    0.000122  -0.000000   0.000001  -0.000134   0.002256  -0.000066
    16  O   -0.000000   0.000000   0.000000   0.000000  -0.000017   0.000007
    17  H   -0.000000  -0.000000  -0.000000   0.000004   0.000112  -0.000006
    18  H   -0.000001   0.000000  -0.000000   0.000002  -0.000091   0.000001
    19  H    0.000004   0.000000  -0.000000  -0.000008  -0.000117   0.000004
    20  H    0.010588  -0.000004   0.000078   0.003068  -0.004076  -0.000325
    21  C   -0.000210  -0.000001  -0.000157   0.000177  -0.046176   0.001509
    22  O    0.000000   0.000000   0.000000   0.000018   0.000465   0.000002
    23  H    0.000000  -0.000000  -0.000000  -0.000002  -0.000161   0.000005
    24  H   -0.000092   0.000000   0.000002   0.000202   0.004269  -0.000107
    25  C   -0.004241   0.000015   0.003390  -0.035921   0.303327  -0.031795
    26  H    0.006039   0.000015   0.000972  -0.001712  -0.066044   0.003547
    27  O    0.000104  -0.000000  -0.000125   0.001401  -0.034859   0.002684
    28  H    0.000002   0.000000   0.000005  -0.000330   0.006656  -0.000096
              13         14         15         16         17         18
     1  N   -0.000000  -0.000000   0.000000  -0.000000   0.000000   0.000000
     2  H    0.000000  -0.000000  -0.000000   0.000000  -0.000000  -0.000000
     3  C    0.000000  -0.000000  -0.000000   0.000000   0.000000  -0.000000
     4  O   -0.000000   0.000000   0.000000  -0.000000   0.000000   0.000000
     5  C   -0.000136  -0.000008  -0.000000   0.000000   0.000000   0.000000
     6  C    0.000163  -0.000019  -0.000000   0.000000  -0.000000  -0.000000
     7  N    0.002848  -0.002875   0.000122  -0.000000  -0.000000  -0.000001
     8  H   -0.000001   0.000004  -0.000000   0.000000  -0.000000   0.000000
     9  N    0.000927  -0.000016   0.000001   0.000000  -0.000000  -0.000000
    10  N   -0.053529  -0.003447  -0.000134   0.000000   0.000004   0.000002
    11  C    0.236093  -0.029648   0.002256  -0.000017   0.000112  -0.000091
    12  H   -0.028018   0.004538  -0.000066   0.000007  -0.000006   0.000001
    13  O    8.360205   0.206030  -0.029972   0.001030   0.001506   0.001941
    14  C    0.206030   4.995848   0.326128  -0.032162  -0.006836  -0.036261
    15  C   -0.029972   0.326128   4.868791   0.261002  -0.038278   0.360052
    16  O    0.001030  -0.032162   0.261002   8.331218   0.236644  -0.032721
    17  H    0.001506  -0.006836  -0.038278   0.236644   0.314350  -0.000500
    18  H    0.001941  -0.036261   0.360052  -0.032721  -0.000500   0.605148
    19  H   -0.000834  -0.028291   0.365789  -0.028917   0.003823  -0.055344
    20  H   -0.055371   0.348722  -0.037825   0.003434   0.000148   0.004581
    21  C   -0.051439   0.308993  -0.026643  -0.006406  -0.004603  -0.005286
    22  O    0.001078  -0.046492   0.004893  -0.028553   0.052055   0.000930
    23  H   -0.000090   0.005711   0.000183   0.001033  -0.001707  -0.000104
    24  H    0.003446  -0.039463  -0.001049  -0.000165   0.000964   0.001359
    25  C   -0.045425  -0.068528   0.004227  -0.000186   0.000203   0.000175
    26  H    0.003274   0.006159  -0.000124   0.000001  -0.000008  -0.000004
    27  O    0.001308   0.002073  -0.000045   0.000000   0.000016  -0.000000
    28  H   -0.000150  -0.000050   0.000001   0.000000  -0.000004   0.000000
              19         20         21         22         23         24
     1  N    0.000000   0.000000  -0.000000   0.000000   0.000000   0.000000
     2  H   -0.000000   0.000000  -0.000000   0.000000  -0.000000   0.000000
     3  C   -0.000000  -0.000000  -0.000000   0.000000  -0.000000   0.000000
     4  O   -0.000000   0.000000   0.000000  -0.000000  -0.000000  -0.000000
     5  C   -0.000000   0.000007   0.000010  -0.000000   0.000000  -0.000000
     6  C   -0.000000   0.000010  -0.000027   0.000000  -0.000000   0.000004
     7  N    0.000004   0.010588  -0.000210   0.000000   0.000000  -0.000092
     8  H    0.000000  -0.000004  -0.000001   0.000000  -0.000000   0.000000
     9  N   -0.000000   0.000078  -0.000157   0.000000  -0.000000   0.000002
    10  N   -0.000008   0.003068   0.000177   0.000018  -0.000002   0.000202
    11  C   -0.000117  -0.004076  -0.046176   0.000465  -0.000161   0.004269
    12  H    0.000004  -0.000325   0.001509   0.000002   0.000005  -0.000107
    13  O   -0.000834  -0.055371  -0.051439   0.001078  -0.000090   0.003446
    14  C   -0.028291   0.348722   0.308993  -0.046492   0.005711  -0.039463
    15  C    0.365789  -0.037825  -0.026643   0.004893   0.000183  -0.001049
    16  O   -0.028917   0.003434  -0.006406  -0.028553   0.001033  -0.000165
    17  H    0.003823   0.000148  -0.004603   0.052055  -0.001707   0.000964
    18  H   -0.055344   0.004581  -0.005286   0.000930  -0.000104   0.001359
    19  H    0.581838  -0.004808   0.004820   0.000099   0.000016  -0.000373
    20  H   -0.004808   0.636791  -0.057098   0.003514  -0.000245  -0.001406
    21  C    0.004820  -0.057098   5.065702   0.202699  -0.017436   0.352874
    22  O    0.000099   0.003514   0.202699   8.304782   0.238125  -0.027480
    23  H    0.000016  -0.000245  -0.017436   0.238125   0.321211  -0.005457
    24  H   -0.000373  -0.001406   0.352874  -0.027480  -0.005457   0.562503
    25  C   -0.000078   0.001146   0.291019  -0.038247  -0.001013  -0.031005
    26  H    0.000003   0.000327  -0.043565   0.002051   0.000000  -0.001865
    27  O    0.000001  -0.000013  -0.043977   0.000409   0.002152   0.001387
    28  H   -0.000000  -0.000007  -0.001143   0.001689   0.000345   0.000250
              25         26         27         28
     1  N   -0.000000   0.000000   0.000000  -0.000000
     2  H    0.000001   0.000000  -0.000000   0.000000
     3  C    0.000004  -0.000000  -0.000000   0.000000
     4  O   -0.000000  -0.000000   0.000000  -0.000000
     5  C   -0.000512  -0.000167   0.000002  -0.000000
     6  C    0.000573   0.000362  -0.000006   0.000000
     7  N   -0.004241   0.006039   0.000104   0.000002
     8  H    0.000015   0.000015  -0.000000   0.000000
     9  N    0.003390   0.000972  -0.000125   0.000005
    10  N   -0.035921  -0.001712   0.001401  -0.000330
    11  C    0.303327  -0.066044  -0.034859   0.006656
    12  H   -0.031795   0.003547   0.002684  -0.000096
    13  O   -0.045425   0.003274   0.001308  -0.000150
    14  C   -0.068528   0.006159   0.002073  -0.000050
    15  C    0.004227  -0.000124  -0.000045   0.000001
    16  O   -0.000186   0.000001   0.000000   0.000000
    17  H    0.000203  -0.000008   0.000016  -0.000004
    18  H    0.000175  -0.000004  -0.000000   0.000000
    19  H   -0.000078   0.000003   0.000001  -0.000000
    20  H    0.001146   0.000327  -0.000013  -0.000007
    21  C    0.291019  -0.043565  -0.043977  -0.001143
    22  O   -0.038247   0.002051   0.000409   0.001689
    23  H   -0.001013   0.000000   0.002152   0.000345
    24  H   -0.031005  -0.001865   0.001387   0.000250
    25  C    4.974694   0.374272   0.223963  -0.023646
    26  H    0.374272   0.591267  -0.034291  -0.008059
    27  O    0.223963  -0.034291   8.293762   0.244031
    28  H   -0.023646  -0.008059   0.244031   0.333405
 Mulliken charges:
               1
     1  N   -0.869236
     2  H    0.259164
     3  C    0.389063
     4  O   -0.646711
     5  C    0.219965
     6  C   -0.028776
     7  N   -0.279824
     8  H    0.178818
     9  N   -0.390714
    10  N   -0.084741
    11  C    0.266065
    12  H    0.205875
    13  O   -0.554884
    14  C    0.089890
    15  C   -0.059310
    16  O   -0.705241
    17  H    0.442117
    18  H    0.156121
    19  H    0.162374
    20  H    0.148765
    21  C    0.076362
    22  O   -0.672035
    23  H    0.457432
    24  H    0.181200
    25  C    0.103587
    26  H    0.167550
    27  O   -0.659978
    28  H    0.447101
 Sum of Mulliken charges =  -1.00000
 Mulliken charges with hydrogens summed into heavy atoms:
               1
     1  N   -0.610073
     3  C    0.389063
     4  O   -0.646711
     5  C    0.219965
     6  C    0.150043
     7  N   -0.279824
     9  N   -0.390714
    10  N   -0.084741
    11  C    0.471940
    13  O   -0.554884
    14  C    0.238655
    15  C    0.259185
    16  O   -0.263124
    21  C    0.257562
    22  O   -0.214603
    25  C    0.271137
    27  O   -0.212877
 Electronic spatial extent (au):  <R**2>=           5360.7026
 Charge=             -1.0000 electrons
 Dipole moment (field-independent basis, Debye):
    X=             24.7659    Y=              3.3721    Z=             -9.5546  Tot=             26.7584
 Quadrupole moment (field-independent basis, Debye-Ang):
   XX=           -237.6234   YY=            -93.5354   ZZ=           -103.1637
   XY=             12.5233   XZ=            -10.0089   YZ=             -4.8563
 Traceless Quadrupole moment (field-independent basis, Debye-Ang):
   XX=            -92.8492   YY=             51.2388   ZZ=             41.6104
   XY=             12.5233   XZ=            -10.0089   YZ=             -4.8563
 Octapole moment (field-independent basis, Debye-Ang**2):
  XXX=            758.0889  YYY=             18.2651  ZZZ=            -19.0762  XYY=             39.2825
  XXY=             53.6469  XXZ=           -135.9902  XZZ=             42.5190  YZZ=             16.5841
  YYZ=            -28.1360  XYZ=              6.7228
 Hexadecapole moment (field-independent basis, Debye-Ang**3):
 XXXX=          -9789.7404 YYYY=           -681.8366 ZZZZ=           -439.3979 XXXY=            244.4262
 XXXZ=             -8.2346 YYYX=             62.7263 YYYZ=            -62.0426 ZZZX=             23.0317
 ZZZY=             -0.4056 XXYY=          -1035.0995 XXZZ=          -1168.6651 YYZZ=           -179.9711
 XXYZ=            -51.7435 YYXZ=            -55.3973 ZZXY=             62.6567
 N-N= 1.247816306617D+03 E-N=-4.633173591415D+03  KE= 8.984746683238D+02
 No NMR shielding tensors so no spin-rotation constants.
 Leave Link  601 at Sun Jul 11 16:06:08 2021, MaxMem=   104857600 cpu:               0.4 elap:               0.1
 (Enter /prod/apps/gaussian/g16b1/l701.exe)
 ... and contract with generalized density number  0.
 Compute integral first derivatives.
 D1PCM: PCM CHGder 1st derivatives, ID1Alg=3 FixD1E=F DoIter=F DoCFld=F I1PDM=0.
 GePol: Maximum number of non-zero 1st derivatives   =     227
 Leave Link  701 at Sun Jul 11 16:06:10 2021, MaxMem=   104857600 cpu:               6.7 elap:               1.7
 (Enter /prod/apps/gaussian/g16b1/l702.exe)
 L702 exits ... SP integral derivatives will be done elsewhere.
 Leave Link  702 at Sun Jul 11 16:06:10 2021, MaxMem=   104857600 cpu:               0.1 elap:               0.0
 (Enter /prod/apps/gaussian/g16b1/l703.exe)
 Integral derivatives from FoFJK, PRISM(SPDF).
 Compute integral first derivatives, UseDBF=F ICtDFT=           0.
 Calling FoFJK, ICntrl=      2127 FMM=F ISym2X=0 I1Cent= 0 IOpClX= 0 NMat=1 NMatS=1 NMatT=0.
 FoFJK:  IHMeth= 1 ICntrl=    2127 DoSepK=F KAlg= 0 I1Cent=           0 FoldK=F
 IRaf=         0 NMat=       1 IRICut=       1 DoRegI=T DoRafI=F ISym2E= 0 IDoP0=0 IntGTp=1.
 FoFCou: FMM=F IPFlag=           0 FMFlag=      100000 FMFlg1=         800
         NFxFlg=           0 DoJE=F BraDBF=F KetDBF=F FulRan=T
         wScrn=  0.000000 ICntrl=      2127 IOpCl=  0 I1Cent=           0 NGrid=           0
         NMat0=    1 NMatS0=      1 NMatT0=    0 NMatD0=    1 NMtDS0=    0 NMtDT0=    0
 Symmetry not used in FoFCou.
 Leave Link  703 at Sun Jul 11 16:06:21 2021, MaxMem=   104857600 cpu:              42.9 elap:              10.7
 (Enter /prod/apps/gaussian/g16b1/l716.exe)
 Dipole        = 9.74365140D+00 1.32668895D+00-3.75906568D+00
 ***** Axes restored to original set *****
 -------------------------------------------------------------------
 Center     Atomic                   Forces (Hartrees/Bohr)
 Number     Number              X              Y              Z
 -------------------------------------------------------------------
      1        7           0.007678056    0.013895574   -0.025543329
      2        1           0.005411991   -0.007029799    0.017881920
      3        6           0.126707374   -0.020784137   -0.036147826
      4        8          -0.097926553    0.016240322    0.027041860
      5        6          -0.047933075    0.001836151    0.032745251
      6        6           0.014733091   -0.014513300   -0.008475172
      7        7           0.016915001    0.000659022   -0.009212099
      8        1           0.002114288    0.007966872   -0.008656853
      9        7          -0.032659313   -0.008114161    0.011273189
     10        7           0.019266956    0.010297191    0.000008147
     11        6          -0.004915036    0.010460997    0.063298316
     12        1          -0.010314944   -0.007464128    0.000083198
     13        8           0.014596986    0.001865902   -0.017341349
     14        6          -0.019660318    0.013652018   -0.013051938
     15        6           0.028710208   -0.000955943   -0.026163288
     16        8          -0.026705595    0.022240196    0.012617426
     17        1          -0.001311013   -0.002504238    0.001647456
     18        1          -0.002657897   -0.009188991   -0.008251254
     19        1           0.015749686    0.003024703    0.000386659
     20        1          -0.008190938   -0.007884205    0.007477889
     21        6           0.030589246    0.037455742    0.028582471
     22        8          -0.037412759   -0.003520291   -0.028191939
     23        1           0.009287648   -0.004249114    0.002353148
     24        1           0.001586823   -0.019184894   -0.015374005
     25        6          -0.010885124   -0.014845621   -0.011979874
     26        1          -0.006411516   -0.001666726    0.009148646
     27        8           0.005926001   -0.014186851   -0.002282228
     28        1           0.007710727   -0.003502291   -0.003874420
 -------------------------------------------------------------------
 Cartesian Forces:  Max     0.126707374 RMS     0.024850711
 Leave Link  716 at Sun Jul 11 16:06:21 2021, MaxMem=   104857600 cpu:               0.1 elap:               0.0
 (Enter /prod/apps/gaussian/g16b1/l103.exe)

 GradGradGradGradGradGradGradGradGradGradGradGradGradGradGradGradGradGrad
 Berny optimization.
 FormGI is forming the generalized inverse of G from B-inverse, IUseBI=4.
 Internal  Forces:  Max     0.084753848 RMS     0.014431105
 Search for a local minimum.
 Step number   1 out of a maximum of  163
 All quantities printed in internal units (Hartrees-Bohrs-Radians)
 RMS Force = .14431D-01 SwitMx=.10000D-02 MixMth= 1
 Mixed Optimization -- RFO/linear search
 Second derivative matrix not updated -- first step.
 ITU=  0
     Eigenvalues ---    0.00230   0.00297   0.00593   0.00626   0.00658
     Eigenvalues ---    0.00665   0.00750   0.01135   0.01232   0.01348
     Eigenvalues ---    0.01697   0.01724   0.01907   0.02044   0.02495
     Eigenvalues ---    0.02558   0.03472   0.03753   0.04260   0.04431
     Eigenvalues ---    0.04625   0.04767   0.05304   0.05888   0.06315
     Eigenvalues ---    0.06959   0.07290   0.07986   0.08408   0.10544
     Eigenvalues ---    0.11023   0.13269   0.13757   0.15859   0.15915
     Eigenvalues ---    0.16000   0.16000   0.16000   0.16000   0.16794
     Eigenvalues ---    0.19300   0.20304   0.21787   0.23639   0.24684
     Eigenvalues ---    0.24860   0.24933   0.24989   0.25000   0.25000
     Eigenvalues ---    0.26368   0.27256   0.28697   0.31236   0.31590
     Eigenvalues ---    0.33648   0.34372   0.34443   0.34482   0.34482
     Eigenvalues ---    0.34484   0.34503   0.34785   0.35289   0.35594
     Eigenvalues ---    0.35616   0.36412   0.46031   0.46060   0.48462
     Eigenvalues ---    0.50640   0.52531   0.52540   0.52555   0.54707
     Eigenvalues ---    0.57531   0.58444   1.01454
 RFO step:  Lambda=-8.91229250D-02 EMin= 2.30000000D-03
 Linear search not attempted -- first point.
 Maximum step size (   0.300) exceeded in Quadratic search.
    -- Step size scaled by   0.634
 Iteration  1 RMS(Cart)=  0.06962424 RMS(Int)=  0.00191445
 Iteration  2 RMS(Cart)=  0.00282786 RMS(Int)=  0.00051914
 Iteration  3 RMS(Cart)=  0.00000553 RMS(Int)=  0.00051913
 Iteration  4 RMS(Cart)=  0.00000001 RMS(Int)=  0.00051913
 ITry= 1 IFail=0 DXMaxC= 3.28D-01 DCOld= 1.00D+10 DXMaxT= 3.00D-01 DXLimC= 3.00D+00 Rises=F
 Variable       Old X    -DE/DX   Delta X   Delta X   Delta X     New X
                                 (Linear)    (Quad)   (Total)
[...]
 Alpha virt. eigenvalues --    0.80569   0.81245   0.81518   0.82300   0.82750
 Alpha virt. eigenvalues --    0.83208   0.83599   0.84222   0.85020   0.85761
 Alpha virt. eigenvalues --    0.86505   0.87366   0.87780   0.88083   0.88247
 Alpha virt. eigenvalues --    0.88589   0.89191   0.89844   0.90249   0.91158
 Alpha virt. eigenvalues --    0.92067   0.92411   0.92594   0.92752   0.93578
 Alpha virt. eigenvalues --    0.93926   0.95257   0.95844   0.95973   0.96378
 Alpha virt. eigenvalues --    0.97569   0.98339   0.99516   0.99850   1.00346
 Alpha virt. eigenvalues --    1.01247   1.01503   1.02183   1.02769   1.03407
 Alpha virt. eigenvalues --    1.03645   1.05363   1.05541   1.05948   1.06979
 Alpha virt. eigenvalues --    1.08275   1.08889   1.09463   1.09982   1.10751
 Alpha virt. eigenvalues --    1.11829   1.12132   1.13847   1.14837   1.15384
 Alpha virt. eigenvalues --    1.15973   1.16747   1.18170   1.19204   1.20177
 Alpha virt. eigenvalues --    1.20900   1.21535   1.22576   1.22964   1.23780
 Alpha virt. eigenvalues --    1.24614   1.25027   1.25619   1.26091   1.27395
 Alpha virt. eigenvalues --    1.28076   1.28721   1.30218   1.30678   1.31676
 Alpha virt. eigenvalues --    1.33087   1.34560   1.36190   1.37683   1.38554
 Alpha virt. eigenvalues --    1.38832   1.39205   1.40215   1.40494   1.42019
 Alpha virt. eigenvalues --    1.42907   1.43761   1.44896   1.45503   1.46105
 Alpha virt. eigenvalues --    1.47245   1.47894   1.48854   1.49692   1.51379
 Alpha virt. eigenvalues --    1.51706   1.52018   1.53224   1.53479   1.55203
 Alpha virt. eigenvalues --    1.56956   1.57889   1.58352   1.60698   1.63361
 Alpha virt. eigenvalues --    1.63573   1.63756   1.64990   1.66613   1.67558
 Alpha virt. eigenvalues --    1.68099   1.70291   1.70737   1.71039   1.72420
 Alpha virt. eigenvalues --    1.74649   1.75203   1.76154   1.77616   1.78663
 Alpha virt. eigenvalues --    1.79491   1.79638   1.80968   1.81785   1.82514
 Alpha virt. eigenvalues --    1.82938   1.83700   1.84709   1.85768   1.86946
 Alpha virt. eigenvalues --    1.89052   1.89121   1.89532   1.91424   1.91930
 Alpha virt. eigenvalues --    1.93036   1.95069   1.95459   1.96068   1.97499
 Alpha virt. eigenvalues --    1.99016   1.99760   2.00532   2.00989   2.01731
 Alpha virt. eigenvalues --    2.02919   2.04310   2.04908   2.06196   2.09200
 Alpha virt. eigenvalues --    2.10594   2.11857   2.13075   2.15092   2.15723
 Alpha virt. eigenvalues --    2.16415   2.16622   2.17567   2.18234   2.19012
 Alpha virt. eigenvalues --    2.20990   2.21539   2.22646   2.23405   2.24414
 Alpha virt. eigenvalues --    2.25238   2.26571   2.27085   2.27832   2.29641
 Alpha virt. eigenvalues --    2.30466   2.30632   2.31588   2.32232   2.34816
 Alpha virt. eigenvalues --    2.35760   2.36409   2.38276   2.39034   2.40240
 Alpha virt. eigenvalues --    2.41243   2.43210   2.43369   2.44205   2.46072
 Alpha virt. eigenvalues --    2.46791   2.49120   2.49159   2.50348   2.52022
 Alpha virt. eigenvalues --    2.53605   2.54288   2.54904   2.56278   2.58471
 Alpha virt. eigenvalues --    2.59003   2.59859   2.60887   2.61780   2.62596
 Alpha virt. eigenvalues --    2.63575   2.67333   2.68581   2.69410   2.70961
 Alpha virt. eigenvalues --    2.72229   2.74226   2.75178   2.75911   2.76747
 Alpha virt. eigenvalues --    2.78318   2.78505   2.80718   2.82365   2.85438
 Alpha virt. eigenvalues --    2.85805   2.88301   2.88626   2.89486   2.90681
 Alpha virt. eigenvalues --    2.91001   2.93378   2.96491   2.98786   3.00073
 Alpha virt. eigenvalues --    3.00579   3.02021   3.02930   3.04203   3.06365
 Alpha virt. eigenvalues --    3.07860   3.09569   3.10397   3.11032   3.14480
 Alpha virt. eigenvalues --    3.15123   3.17040   3.18506   3.20371   3.21004
 Alpha virt. eigenvalues --    3.22725   3.23043   3.26210   3.28184   3.34326
 Alpha virt. eigenvalues --    3.37182   3.37544   3.39133   3.39392   3.44476
 Alpha virt. eigenvalues --    3.50202   3.54125   3.58345   3.63425   3.68651
 Alpha virt. eigenvalues --    3.73561   3.74111   3.75690   3.77626   3.79616
 Alpha virt. eigenvalues --    3.81744   3.88692   3.89652   3.91535   3.91859
 Alpha virt. eigenvalues --    3.95671   3.98118   3.98287   3.98651   4.02173
 Alpha virt. eigenvalues --    4.02681   4.02895   4.03765   4.06504   4.09373
 Alpha virt. eigenvalues --    4.10227   4.11419   4.13788   4.15533   4.20003
 Alpha virt. eigenvalues --    4.22387   4.24179   4.28445   4.34928   4.40706
 Alpha virt. eigenvalues --    4.44581   4.46753   4.50192   4.60043   4.75773
 Alpha virt. eigenvalues --    5.07974
          Condensed to atoms (all electrons):
               1          2          3          4          5          6
     1  N    7.617321   0.222369  -0.238204  -0.142838   0.439716  -0.011094
     2  H    0.222369   0.796193   0.122732   0.011432  -0.232491  -0.045187
     3  C   -0.238204   0.122732   6.213232   0.077248  -1.366413  -0.009004
     4  O   -0.142838   0.011432   0.077248   9.038469   0.067466   0.033316
     5  C    0.439716  -0.232491  -1.366413   0.067466   7.150782  -0.436636
     6  C   -0.011094  -0.045187  -0.009004   0.033316  -0.436636   6.078586
     7  N   -0.004013   0.018750  -0.005476  -0.014802   0.222634  -0.286131
     8  H   -0.002835  -0.000254   0.066992  -0.015790  -0.133693   0.324436
     9  N   -0.106253  -0.014345   0.021350   0.001480   0.534878   0.736591
    10  N   -0.062105   0.134167   0.201379  -0.022177  -0.867912  -0.735778
    11  C   -0.013966  -0.002138  -0.049201  -0.008615  -0.261459  -0.150157
    12  H   -0.002140  -0.000001   0.006042   0.000342  -0.004124   0.010896
    13  O    0.000164   0.000129   0.002747  -0.000179  -0.019233   0.045442
    14  C    0.000978   0.000734   0.004101   0.000250   0.070047  -0.014779
    15  C   -0.000141   0.000029   0.000801   0.000007   0.003357   0.002816
    16  O   -0.000001  -0.000006   0.000024  -0.000001  -0.000132  -0.000473
    17  H   -0.000007   0.000006   0.000074  -0.000001   0.000018  -0.000245
    18  H   -0.000005  -0.000012   0.000065   0.000001  -0.000072   0.000976
    19  H   -0.000007   0.000052   0.000086   0.000006   0.001670  -0.001007
    20  H    0.000131  -0.000034   0.000989   0.000002  -0.001279  -0.005809
    21  C   -0.000388   0.000145  -0.005046  -0.000260  -0.072105   0.084039
    22  O   -0.000001  -0.000070   0.000100  -0.000002   0.000480  -0.004881
    23  H   -0.000012   0.000024  -0.000069  -0.000003  -0.000599   0.002100
    24  H    0.000006   0.000006  -0.000409  -0.000016   0.000014  -0.001816
    25  C    0.001894   0.001455   0.004746   0.000074   0.063008  -0.123800
    26  H   -0.000398  -0.000280   0.003424  -0.000111  -0.035434   0.036005
    27  O    0.000017  -0.000155  -0.000181   0.000026  -0.001948   0.019129
    28  H    0.000069  -0.000016  -0.000304   0.000009  -0.000239  -0.001850
               7          8          9         10         11         12
     1  N   -0.004013  -0.002835  -0.106253  -0.062105  -0.013966  -0.002140
     2  H    0.018750  -0.000254  -0.014345   0.134167  -0.002138  -0.000001
     3  C   -0.005476   0.066992   0.021350   0.201379  -0.049201   0.006042
     4  O   -0.014802  -0.015790   0.001480  -0.022177  -0.008615   0.000342
     5  C    0.222634  -0.133693   0.534878  -0.867912  -0.261459  -0.004124
     6  C   -0.286131   0.324436   0.736591  -0.735778  -0.150157   0.010896
     7  N    9.766510  -0.331317  -1.741110  -0.560120   0.011600  -0.112234
     8  H   -0.331317   1.380490  -0.095148   0.191493   0.010009  -0.000316
     9  N   -1.741110  -0.095148  12.179203  -2.799620  -0.926103   0.207808
    10  N   -0.560120   0.191493  -2.799620  12.483850  -0.177277  -0.233876
    11  C    0.011600   0.010009  -0.926103  -0.177277   8.666627  -0.273365
    12  H   -0.112234  -0.000316   0.207808  -0.233876  -0.273365   1.670828
    13  O    0.136600   0.001243  -0.123530   0.073682  -0.270141  -0.090113
    14  C   -0.110703  -0.004377   0.283168  -0.104159  -1.490454   0.070277
    15  C   -0.004562   0.000019  -0.021595   0.035576   0.062959   0.011074
    16  O   -0.001000  -0.000007   0.003031   0.001643  -0.050724  -0.000026
    17  H   -0.001239  -0.000000   0.001755  -0.001703   0.013395   0.006308
    18  H    0.001938   0.000030  -0.002080  -0.002896  -0.000315   0.001015
    19  H   -0.004247  -0.000009   0.001561   0.004852   0.000240   0.001394
    20  H    0.021376  -0.001807  -0.006814  -0.027284   0.024059   0.010626
    21  C    0.173951   0.008393  -0.307381   0.391580   0.409310  -0.151761
    22  O   -0.022190  -0.000049   0.015020  -0.008951   0.009628   0.031900
    23  H    0.005312   0.000039  -0.004377  -0.000875   0.011597   0.001482
    24  H   -0.011878   0.000728  -0.008515   0.015828   0.035712   0.002018
    25  C    0.092179  -0.021190   0.253336  -0.313450  -1.605407   0.116408
    26  H    0.157142  -0.007380  -0.051705  -0.154258  -0.144278   0.061640
    27  O   -0.006348   0.000845   0.025413  -0.008236   0.198008  -0.033505
    28  H   -0.005509  -0.000211   0.006591  -0.014491  -0.012797  -0.005281
              13         14         15         16         17         18
     1  N    0.000164   0.000978  -0.000141  -0.000001  -0.000007  -0.000005
     2  H    0.000129   0.000734   0.000029  -0.000006   0.000006  -0.000012
     3  C    0.002747   0.004101   0.000801   0.000024   0.000074   0.000065
     4  O   -0.000179   0.000250   0.000007  -0.000001  -0.000001   0.000001
     5  C   -0.019233   0.070047   0.003357  -0.000132   0.000018  -0.000072
     6  C    0.045442  -0.014779   0.002816  -0.000473  -0.000245   0.000976
     7  N    0.136600  -0.110703  -0.004562  -0.001000  -0.001239   0.001938
     8  H    0.001243  -0.004377   0.000019  -0.000007  -0.000000   0.000030
     9  N   -0.123530   0.283168  -0.021595   0.003031   0.001755  -0.002080
    10  N    0.073682  -0.104159   0.035576   0.001643  -0.001703  -0.002896
    11  C   -0.270141  -1.490454   0.062959  -0.050724   0.013395  -0.000315
    12  H   -0.090113   0.070277   0.011074  -0.000026   0.006308   0.001015
    13  O    9.651594  -0.455279   0.031457  -0.006346  -0.003503   0.098522
    14  C   -0.455279   8.896247  -0.213002   0.059576   0.015734  -0.058026
    15  C    0.031457  -0.213002   4.560619  -0.042473  -0.006033   0.205814
    16  O   -0.006346   0.059576  -0.042473   8.624276   0.285526  -0.054121
    17  H   -0.003503   0.015734  -0.006033   0.285526   0.475372  -0.029669
    18  H    0.098522  -0.058026   0.205814  -0.054121  -0.029669   1.190110
    19  H   -0.075426   0.140240   0.246424  -0.126853   0.005456  -0.231702
    20  H   -0.043417  -0.500445  -0.007615   0.022696   0.014234  -0.063752
    21  C    0.267804  -2.364315  -0.023616   0.031423  -0.027784  -0.016757
    22  O   -0.000839  -0.037078   0.027033  -0.027581   0.009604   0.016993
    23  H   -0.000250  -0.024810   0.011799   0.002233  -0.004701  -0.002908
    24  H    0.013434   0.294508  -0.007242  -0.013008   0.003898   0.001590
    25  C   -0.106866   1.535317  -0.190086   0.014808  -0.008899   0.039487
    26  H    0.029290  -0.090712   0.022740   0.002727  -0.002093   0.007286
    27  O    0.027281  -0.062655   0.010167  -0.000278  -0.001108   0.000686
    28  H   -0.002735   0.030362  -0.002373  -0.000372   0.000272  -0.000656
              19         20         21         22         23         24
     1  N   -0.000007   0.000131  -0.000388  -0.000001  -0.000012   0.000006
     2  H    0.000052  -0.000034   0.000145  -0.000070   0.000024   0.000006
     3  C    0.000086   0.000989  -0.005046   0.000100  -0.000069  -0.000409
     4  O    0.000006   0.000002  -0.000260  -0.000002  -0.000003  -0.000016
     5  C    0.001670  -0.001279  -0.072105   0.000480  -0.000599   0.000014
     6  C   -0.001007  -0.005809   0.084039  -0.004881   0.002100  -0.001816
     7  N   -0.004247   0.021376   0.173951  -0.022190   0.005312  -0.011878
     8  H   -0.000009  -0.001807   0.008393  -0.000049   0.000039   0.000728
     9  N    0.001561  -0.006814  -0.307381   0.015020  -0.004377  -0.008515
    10  N    0.004852  -0.027284   0.391580  -0.008951  -0.000875   0.015828
    11  C    0.000240   0.024059   0.409310   0.009628   0.011597   0.035712
    12  H    0.001394   0.010626  -0.151761   0.031900   0.001482   0.002018
    13  O   -0.075426  -0.043417   0.267804  -0.000839  -0.000250   0.013434
    14  C    0.140240  -0.500445  -2.364315  -0.037078  -0.024810   0.294508
    15  C    0.246424  -0.007615  -0.023616   0.027033   0.011799  -0.007242
    16  O   -0.126853   0.022696   0.031423  -0.027581   0.002233  -0.013008
    17  H    0.005456   0.014234  -0.027784   0.009604  -0.004701   0.003898
    18  H   -0.231702  -0.063752  -0.016757   0.016993  -0.002908   0.001590
    19  H    1.185007  -0.026609   0.006362  -0.005957   0.002694   0.004596
    20  H   -0.026609   1.733859   0.199915   0.059327   0.000403  -0.085952
    21  C    0.006362   0.199915   9.947863  -0.473423   0.056736  -0.594788
    22  O   -0.005957   0.059327  -0.473423   9.039692   0.308616  -0.120231
    23  H    0.002694   0.000403   0.056736   0.308616   0.497811  -0.008381
    24  H    0.004596  -0.085952  -0.594788  -0.120231  -0.008381   1.459316
    25  C   -0.037743  -0.108314  -2.970809   0.269844  -0.177210   0.288990
    26  H   -0.002608   0.004551   0.306221  -0.014670   0.032426  -0.078414
    27  O   -0.000346   0.009721   0.299565  -0.051995   0.042296  -0.038275
    28  H   -0.000063   0.001101  -0.153728   0.014954  -0.013399   0.014917
              25         26         27         28
     1  N    0.001894  -0.000398   0.000017   0.000069
     2  H    0.001455  -0.000280  -0.000155  -0.000016
     3  C    0.004746   0.003424  -0.000181  -0.000304
     4  O    0.000074  -0.000111   0.000026   0.000009
     5  C    0.063008  -0.035434  -0.001948  -0.000239
     6  C   -0.123800   0.036005   0.019129  -0.001850
     7  N    0.092179   0.157142  -0.006348  -0.005509
     8  H   -0.021190  -0.007380   0.000845  -0.000211
     9  N    0.253336  -0.051705   0.025413   0.006591
    10  N   -0.313450  -0.154258  -0.008236  -0.014491
    11  C   -1.605407  -0.144278   0.198008  -0.012797
    12  H    0.116408   0.061640  -0.033505  -0.005281
    13  O   -0.106866   0.029290   0.027281  -0.002735
    14  C    1.535317  -0.090712  -0.062655   0.030362
    15  C   -0.190086   0.022740   0.010167  -0.002373
    16  O    0.014808   0.002727  -0.000278  -0.000372
    17  H   -0.008899  -0.002093  -0.001108   0.000272
    18  H    0.039487   0.007286   0.000686  -0.000656
    19  H   -0.037743  -0.002608  -0.000346  -0.000063
    20  H   -0.108314   0.004551   0.009721   0.001101
    21  C   -2.970809   0.306221   0.299565  -0.153728
    22  O    0.269844  -0.014670  -0.051995   0.014954
    23  H   -0.177210   0.032426   0.042296  -0.013399
    24  H    0.288990  -0.078414  -0.038275   0.014917
    25  C    9.197167  -0.317106  -0.656250   0.174496
    26  H   -0.317106   1.627397  -0.041589  -0.091893
    27  O   -0.656250  -0.041589   8.778450   0.332431
    28  H    0.174496  -0.091893   0.332431   0.573969
 Mulliken charges:
               1
     1  N   -0.698254
     2  H   -0.013232
     3  C    0.948174
     4  O   -1.025332
     5  C    0.879698
     6  C    0.454313
     7  N   -0.385112
     8  H   -0.370335
     9  N   -1.062608
    10  N   -0.438880
    11  C    1.983254
    12  H   -0.303316
    13  O   -1.181533
    14  C    0.129256
    15  C    1.286046
    16  O   -0.724562
    17  H    0.255335
    18  H   -0.101542
    19  H   -0.088065
    20  H   -0.223860
    21  C    0.978854
    22  O   -1.035275
    23  H    0.262026
    24  H   -0.166636
    25  C    0.583921
    26  H   -0.257920
    27  O   -0.841164
    28  H    0.156746
 Sum of Mulliken charges =  -1.00000
 Mulliken charges with hydrogens summed into heavy atoms:
               1
     1  N   -0.711485
     3  C    0.948174
     4  O   -1.025332
     5  C    0.879698
     6  C    0.083979
     7  N   -0.385112
     9  N   -1.062608
    10  N   -0.438880
    11  C    1.679938
    13  O   -1.181533
    14  C   -0.094603
    15  C    1.096439
    16  O   -0.469227
    21  C    0.812218
    22  O   -0.773249
    25  C    0.326001
    27  O   -0.684418
 Electronic spatial extent (au):  <R**2>=           5180.3004
 Charge=             -1.0000 electrons
 Dipole moment (field-independent basis, Debye):
    X=             21.5871    Y=              6.6773    Z=             -4.9776  Tot=             23.1380
 Quadrupole moment (field-independent basis, Debye-Ang):
   XX=           -230.2935   YY=           -101.9364   ZZ=           -110.0604
   XY=              0.3968   XZ=              4.2912   YZ=              4.8661
 Traceless Quadrupole moment (field-independent basis, Debye-Ang):
   XX=            -82.8634   YY=             45.4937   ZZ=             37.3697
   XY=              0.3968   XZ=              4.2912   YZ=              4.8661
 Octapole moment (field-independent basis, Debye-Ang**2):
  XXX=            633.1670  YYY=             49.6743  ZZZ=             -6.1215  XYY=             31.1788
  XXY=            103.3254  XXZ=            -87.1311  XZZ=             63.9992  YZZ=              9.2218
  YYZ=            -17.8463  XYZ=              4.8598
 Hexadecapole moment (field-independent basis, Debye-Ang**3):
 XXXX=          -9226.0697 YYYY=           -698.9754 ZZZZ=           -582.9101 XXXY=           -213.1401
 XXXZ=            232.4689 YYYX=             91.6355 YYYZ=             23.2909 ZZZX=            134.2878
 ZZZY=             17.6828 XXYY=          -1145.3322 XXZZ=          -1211.3641 YYZZ=           -252.1519
 XXYZ=            107.8134 YYXZ=            -11.7401 ZZXY=            -13.4492
 N-N= 1.261717943324D+03 E-N=-4.658319085227D+03  KE= 9.001078049768D+02
 Leave Link  601 at Sun Jul 11 17:19:04 2021, MaxMem=   262144000 cpu:               0.8 elap:               0.3
 (Enter /prod/apps/gaussian/g16b1/l9999.exe)
 1\1\GINC-PIRINEUS28\SP\RMP2-FC\Aug-CC-pVDZ\C8H11N4O5(1-)\UBATOR02\11-J
 ul-2021\0\\#p mp2/aug-cc-pVDZ scf=tight maxdisk=180GB geom=allcheck\\S
 ET_328_BBB285_conf1.geo_120_300 geometry\\-1,1\N,0,-0.0460019176,3.635
 1740831,-3.6693293008\H,0,0.7318506661,3.0849693086,-3.2949745705\C,0,
 -1.1676926218,3.1986202409,-3.1313038032\O,0,-2.331120662,3.6495868098
 ,-3.3666554732\C,0,-1.1336717683,2.0616230195,-2.1333157677\C,0,-2.232
 7991321,1.4598291389,-1.4860711578\N,0,-1.7991175757,0.4911219853,-0.6
 812129417\H,0,-3.2832148792,1.6848923192,-1.5796875971\N,0,-0.02689149
 9,1.4424866643,-1.7033338642\N,0,-0.4724283622,0.5109617037,-0.8560903
 256\C,0,0.4429765999,-0.2999346034,-0.0613740668\H,0,1.3990649292,-0.2
 424509932,-0.5860659919\O,0,0.5715580519,0.225213175,1.2426180541\C,0,
 0.1857306664,-0.7579782635,2.2305339605\C,0,1.0321846978,-0.5559393632
 ,3.4849715381\O,0,2.4272116288,-0.5911401665,3.2442217171\H,0,2.573769
 6166,-1.3718524836,2.6739107605\H,0,0.7185332847,-1.3113622547,4.22235
 33652\H,0,0.8062493803,0.4264941575,3.9105085343\H,0,-0.8689793594,-0.
 6082251879,2.4980966198\C,0,0.3231931112,-2.1124073831,1.530545941\O,0
 ,1.6643584456,-2.5941990964,1.5885293658\H,0,1.8710763304,-2.916389237
 4,0.6859703746\H,0,-0.3597241073,-2.8564752391,1.9569051362\C,0,-0.029
 2733507,-1.7602340355,0.0698971999\H,0,-1.1082060814,-1.8124674816,-0.
 0885693725\O,0,0.678469967,-2.5552470751,-0.8651668299\H,0,0.172893941
 1,-3.3756697417,-1.0089115043\\Version=ES64L-G16RevB.01\State=1-A\HF=-
 901.5349525\MP2=-904.3533726\RMSD=6.118e-09\PG=C01 [X(C8H11N4O5)]\\@


 ASKING DUMB QUESTIONS IS EASIER THAN CORECTING DUMB MISTAKES.
 Job cpu time:       0 days  1 hours 50 minutes 11.9 seconds.
 Elapsed time:       0 days  0 hours 33 minutes 18.0 seconds.
 File lengths (MBytes):  RWF=  57317 Int=      0 D2E=      0 Chk=     20 Scr=      1
 Normal termination of Gaussian 16 at Sun Jul 11 17:19:06 2021.
