 Entering Gaussian System, Link 0=g16
 Initial command:
 /prod/apps/gaussian/g16b1/l1.exe "/tmp/ubator02/1834623/Gau-94710.inp" -scrdir="/tmp/ubator02/1834623/"
 Entering Link 1 = /prod/apps/gaussian/g16b1/l1.exe PID=     94712.
  
 Copyright (c) 1988-2017, Gaussian, Inc.  All Rights Reserved.
  
 This is part of the Gaussian(R) 16 program.  It is based on
 the Gaussian(R) 09 system (copyright 2009, Gaussian, Inc.),
 the Gaussian(R) 03 system (copyright 2003, Gaussian, Inc.),
 the Gaussian(R) 98 system (copyright 1998, Gaussian, Inc.),
 the Gaussian(R) 94 system (copyright 1995, Gaussian, Inc.),
 the Gaussian 92(TM) system (copyright 1992, Gaussian, Inc.),
 the Gaussian 90(TM) system (copyright 1990, Gaussian, Inc.),
 the Gaussian 88(TM) system (copyright 1988, Gaussian, Inc.),
 the Gaussian 86(TM) system (copyright 1986, Carnegie Mellon
 University), and the Gaussian 82(TM) system (copyright 1983,
 Carnegie Mellon University). Gaussian is a federally registered
 trademark of Gaussian, Inc.
  
 This software contains proprietary and confidential information,
 including trade secrets, belonging to Gaussian, Inc.
  
 This software is provided under written license and may be
 used, copied, transmitted, or stored only in accord with that
 written license.
  
 The following legend is applicable only to US Government
 contracts under FAR:
  
                    RESTRICTED RIGHTS LEGEND
  
 Use, reproduction and disclosure by the US Government is
 subject to restrictions as set forth in subparagraphs (a)
 and (c) of the Commercial Computer Software - Restricted
 Rights clause in FAR 52.227-19.
  
 Gaussian, Inc.
 340 Quinnipiac St., Bldg. 40, Wallingford CT 06492
  
  
 ---------------------------------------------------------------
 Warning -- This program may not be used in any manner that
 competes with the business of Gaussian, Inc. or will provide
 assistance to any competitor of Gaussian, Inc.  The licensee
 of this program is prohibited from giving any competitor of
 Gaussian, Inc. access to this program.  By using this program,
 the user acknowledges that Gaussian, Inc. is engaged in the
 business of creating and licensing software in the field of
 computational chemistry and represents and warrants to the
 licensee that it is not a competitor of Gaussian, Inc. and that
 it will not use this program in any manner prohibited above.
 ---------------------------------------------------------------
  

 Cite this work as:
 Gaussian 16, Revision B.01,
 M. J. Frisch, G. W. Trucks, H. B. Schlegel, G. E. Scuseria, 
 M. A. Robb, J. R. Cheeseman, G. Scalmani, V. Barone, 
 G. A. Petersson, H. Nakatsuji, X. Li, M. Caricato, A. V. Marenich, 
 J. Bloino, B. G. Janesko, R. Gomperts, B. Mennucci, H. P. Hratchian, 
 J. V. Ortiz, A. F. Izmaylov, J. L. Sonnenberg, D. Williams-Young, 
 F. Ding, F. Lipparini, F. Egidi, J. Goings, B. Peng, A. Petrone, 
 T. Henderson, D. Ranasinghe, V. G. Zakrzewski, J. Gao, N. Rega, 
 G. Zheng, W. Liang, M. Hada, M. Ehara, K. Toyota, R. Fukuda, 
 J. Hasegawa, M. Ishida, T. Nakajima, Y. Honda, O. Kitao, H. Nakai, 
 T. Vreven, K. Throssell, J. A. Montgomery, Jr., J. E. Peralta, 
 F. Ogliaro, M. J. Bearpark, J. J. Heyd, E. N. Brothers, K. N. Kudin, 
 V. N. Staroverov, T. A. Keith, R. Kobayashi, J. Normand, 
 K. Raghavachari, A. P. Rendell, J. C. Burant, S. S. Iyengar, 
 J. Tomasi, M. Cossi, J. M. Millam, M. Klene, C. Adamo, R. Cammi, 
 J. W. Ochterski, R. L. Martin, K. Morokuma, O. Farkas, 
 J. B. Foresman, and D. J. Fox, Gaussian, Inc., Wallingford CT, 2016.
 
 ******************************************
 Gaussian 16:  ES64L-G16RevB.01 20-Dec-2017
                11-Jul-2021 
 ******************************************
 %mem=800MB
 %nproc=4
 Will use up to    4 processors via shared memory.
 %chk=SET_328_BBB315_conf1.geo_285_285.chk
 -----------------------------------------------------------
 #p b3lyp/6-31G(d) opt freq scrf=(iefpcm,read,solvent=water)
 -----------------------------------------------------------
 1/18=20,19=15,26=3,38=1,40=2/1,3;
 2/9=110,12=2,17=6,18=5,40=1/2;
 3/5=1,6=6,7=1,11=2,25=1,30=1,70=2203,71=1,72=1,74=-5/1,2,3;
 4//1;
 5/5=2,38=5,53=1/2;
 6/7=2,8=2,9=2,10=2,28=1/1;
 7//1,2,3,16;
 1/18=20,19=15,26=3/3(2);
 2/9=110/2;
 99//99;
 2/9=110/2;
 3/5=1,6=6,7=1,11=2,25=1,30=1,70=2205,71=1,72=1,74=-5/1,2,3;
 4/5=5,16=3,69=1/1;
 5/5=2,38=5,53=1/2;
 7//1,2,3,16;
 1/18=20,19=15,26=3/3(-5);
 2/9=110/2;
 6/7=2,8=2,9=2,10=2,19=2,28=1/1;
 99/9=1/99;
 Leave Link    1 at Sun Jul 11 16:24:54 2021, MaxMem=   104857600 cpu:               0.1 elap:               0.0
 (Enter /prod/apps/gaussian/g16b1/l101.exe)
 -----------------------------------------
 SET_328_BBB315_conf1.geo_285_285 geometry
 -----------------------------------------
 Symbolic Z-matrix:
 Charge =  1 Multiplicity = 1
 N                    -2.751     0.366     1.975 
 H                    -2.917     0.679     2.91 
 H                    -1.949    -0.231     1.961 
 C                    -2.51      1.539     1.095 
 H                    -1.679     2.2       1.354 
 H                    -3.408     2.162     1.072 
 C                    -2.237     1.014    -0.31 
 H                    -2.328     1.758    -1.105 
 H                    -3.004     0.266    -0.52 
 C                    -0.846     0.432    -0.438 
 C                    -0.534    -0.876    -0.26 
 H                    -1.188    -1.738    -0.228 
 N                     0.785    -0.998    -0.501 
 C                     1.567    -2.15     -0.658 
 H                     1.133    -3.131    -0.509 
 C                     2.942    -1.802    -0.773 
 H                     3.698    -2.557    -0.961 
 C                     3.454    -0.464    -0.705 
 H                     4.537    -0.418    -0.753 
 C                     2.61      0.622    -0.742 
 H                     2.984     1.64     -0.718 
 C                     1.261     0.325    -0.621 
 N                     0.269     1.177    -0.537 
 H                    -3.549    -0.139     1.646 
 
 ITRead=  0  0  0  0  0  0  0  0  0  0  0  0  0  0  0  0  0  0  0  0
 ITRead=  0  0  0  0
 MicOpt= -1 -1 -1 -1 -1 -1 -1 -1 -1 -1 -1 -1 -1 -1 -1 -1 -1 -1 -1 -1
 MicOpt= -1 -1 -1 -1
 NAtoms=     24 NQM=       24 NQMF=       0 NMMI=      0 NMMIF=      0
                NMic=       0 NMicF=      0.
                    Isotopes and Nuclear Properties:
 (Nuclear quadrupole moments (NQMom) in fm**2, nuclear magnetic moments (NMagM)
  in nuclear magnetons)

  Atom         1           2           3           4           5           6           7           8           9          10
 IAtWgt=          14           1           1          12           1           1          12           1           1          12
 AtmWgt=  14.0030740   1.0078250   1.0078250  12.0000000   1.0078250   1.0078250  12.0000000   1.0078250   1.0078250  12.0000000
 NucSpn=           2           1           1           0           1           1           0           1           1           0
 AtZEff=  -0.0000000  -0.0000000  -0.0000000  -0.0000000  -0.0000000  -0.0000000  -0.0000000  -0.0000000  -0.0000000  -0.0000000
 NQMom=    2.0440000   0.0000000   0.0000000   0.0000000   0.0000000   0.0000000   0.0000000   0.0000000   0.0000000   0.0000000
 NMagM=    0.4037610   2.7928460   2.7928460   0.0000000   2.7928460   2.7928460   0.0000000   2.7928460   2.7928460   0.0000000
 AtZNuc=   7.0000000   1.0000000   1.0000000   6.0000000   1.0000000   1.0000000   6.0000000   1.0000000   1.0000000   6.0000000

  Atom        11          12          13          14          15          16          17          18          19          20
 IAtWgt=          12           1          14          12           1          12           1          12           1          12
 AtmWgt=  12.0000000   1.0078250  14.0030740  12.0000000   1.0078250  12.0000000   1.0078250  12.0000000   1.0078250  12.0000000
 NucSpn=           0           1           2           0           1           0           1           0           1           0
 AtZEff=  -0.0000000  -0.0000000  -0.0000000  -0.0000000  -0.0000000  -0.0000000  -0.0000000  -0.0000000  -0.0000000  -0.0000000
 NQMom=    0.0000000   0.0000000   2.0440000   0.0000000   0.0000000   0.0000000   0.0000000   0.0000000   0.0000000   0.0000000
 NMagM=    0.0000000   2.7928460   0.4037610   0.0000000   2.7928460   0.0000000   2.7928460   0.0000000   2.7928460   0.0000000
 AtZNuc=   6.0000000   1.0000000   7.0000000   6.0000000   1.0000000   6.0000000   1.0000000   6.0000000   1.0000000   6.0000000

  Atom        21          22          23          24
 IAtWgt=           1          12          14           1
 AtmWgt=   1.0078250  12.0000000  14.0030740   1.0078250
 NucSpn=           1           0           2           1
 AtZEff=  -0.0000000  -0.0000000  -0.0000000  -0.0000000
 NQMom=    0.0000000   0.0000000   2.0440000   0.0000000
 NMagM=    2.7928460   0.0000000   0.4037610   2.7928460
 AtZNuc=   1.0000000   6.0000000   7.0000000   1.0000000
 Leave Link  101 at Sun Jul 11 16:24:55 2021, MaxMem=   104857600 cpu:               0.5 elap:               0.1
 (Enter /prod/apps/gaussian/g16b1/l103.exe)

 GradGradGradGradGradGradGradGradGradGradGradGradGradGradGradGradGradGrad
 Berny optimization.
 Initialization pass.
                           ----------------------------
                           !    Initial Parameters    !
                           ! (Angstroms and Degrees)  !
 --------------------------                            --------------------------
 ! Name  Definition              Value          Derivative Info.                !
 --------------------------------------------------------------------------------
 ! R1    R(1,2)                  0.9999         estimate D2E/DX2                !
 ! R2    R(1,3)                  0.9999         estimate D2E/DX2                !
 ! R3    R(1,4)                  1.4861         estimate D2E/DX2                !
 ! R4    R(1,24)                 1.0            estimate D2E/DX2                !
 ! R5    R(4,5)                  1.093          estimate D2E/DX2                !
 ! R6    R(4,6)                  1.0932         estimate D2E/DX2                !
 ! R7    R(4,7)                  1.5245         estimate D2E/DX2                !
 ! R8    R(7,8)                  1.0926         estimate D2E/DX2                !
 ! R9    R(7,9)                  1.0917         estimate D2E/DX2                !
 ! R10   R(7,10)                 1.5133         estimate D2E/DX2                !
 ! R11   R(10,11)                1.3564         estimate D2E/DX2                !
 ! R12   R(10,23)                1.3446         estimate D2E/DX2                !
 ! R13   R(11,12)                1.0825         estimate D2E/DX2                !
 ! R14   R(11,13)                1.3464         estimate D2E/DX2                !
 ! R15   R(13,14)                1.4012         estimate D2E/DX2                !
 ! R16   R(13,22)                1.4111         estimate D2E/DX2                !
 ! R17   R(14,15)                1.083          estimate D2E/DX2                !
 ! R18   R(14,16)                1.423          estimate D2E/DX2                !
 ! R19   R(16,17)                1.0849         estimate D2E/DX2                !
 ! R20   R(16,18)                1.4342         estimate D2E/DX2                !
 ! R21   R(18,19)                1.085          estimate D2E/DX2                !
 ! R22   R(18,20)                1.3759         estimate D2E/DX2                !
 ! R23   R(20,21)                1.0848         estimate D2E/DX2                !
 ! R24   R(20,22)                1.3866         estimate D2E/DX2                !
 ! R25   R(22,23)                1.3104         estimate D2E/DX2                !
 ! A1    A(2,1,3)              109.4605         estimate D2E/DX2                !
 ! A2    A(2,1,4)              109.486          estimate D2E/DX2                !
 ! A3    A(2,1,24)             109.4657         estimate D2E/DX2                !
 ! A4    A(3,1,4)              109.4454         estimate D2E/DX2                !
 ! A5    A(3,1,24)             109.5072         estimate D2E/DX2                !
 ! A6    A(4,1,24)             109.4626         estimate D2E/DX2                !
 ! A7    A(1,4,5)              117.4095         estimate D2E/DX2                !
 ! A8    A(1,4,6)              109.2126         estimate D2E/DX2                !
 ! A9    A(1,4,7)              107.6354         estimate D2E/DX2                !
 ! A10   A(5,4,6)              106.5524         estimate D2E/DX2                !
 ! A11   A(5,4,7)              106.8883         estimate D2E/DX2                !
 ! A12   A(6,4,7)              108.9027         estimate D2E/DX2                !
 ! A13   A(4,7,8)              114.9074         estimate D2E/DX2                !
 ! A14   A(4,7,9)              106.7029         estimate D2E/DX2                !
 ! A15   A(4,7,10)             112.0243         estimate D2E/DX2                !
 ! A16   A(8,7,9)              105.5491         estimate D2E/DX2                !
 ! A17   A(8,7,10)             106.0749         estimate D2E/DX2                !
 ! A18   A(9,7,10)             111.4697         estimate D2E/DX2                !
 ! A19   A(7,10,11)            124.8338         estimate D2E/DX2                !
 ! A20   A(7,10,23)            123.7355         estimate D2E/DX2                !
 ! A21   A(11,10,23)           110.6832         estimate D2E/DX2                !
 ! A22   A(10,11,12)           129.2566         estimate D2E/DX2                !
 ! A23   A(10,11,13)           106.8118         estimate D2E/DX2                !
 ! A24   A(12,11,13)           121.6691         estimate D2E/DX2                !
 ! A25   A(11,13,14)           129.8899         estimate D2E/DX2                !
 ! A26   A(11,13,22)           105.1131         estimate D2E/DX2                !
 ! A27   A(14,13,22)           124.962          estimate D2E/DX2                !
 ! A28   A(13,14,15)           120.3751         estimate D2E/DX2                !
 ! A29   A(13,14,16)           110.3203         estimate D2E/DX2                !
 ! A30   A(15,14,16)           128.3051         estimate D2E/DX2                !
 ! A31   A(14,16,17)           121.1425         estimate D2E/DX2                !
 ! A32   A(14,16,18)           124.6983         estimate D2E/DX2                !
 ! A33   A(17,16,18)           114.123          estimate D2E/DX2                !
 ! A34   A(16,18,19)           113.1892         estimate D2E/DX2                !
 ! A35   A(16,18,20)           121.0702         estimate D2E/DX2                !
 ! A36   A(19,18,20)           125.2828         estimate D2E/DX2                !
 ! A37   A(18,20,21)           121.9124         estimate D2E/DX2                !
 ! A38   A(18,20,22)           115.1744         estimate D2E/DX2                !
 ! A39   A(21,20,22)           122.3095         estimate D2E/DX2                !
 ! A40   A(13,22,20)           122.4394         estimate D2E/DX2                !
 ! A41   A(13,22,23)           110.4127         estimate D2E/DX2                !
 ! A42   A(20,22,23)           127.0739         estimate D2E/DX2                !
 ! A43   A(10,23,22)           105.797          estimate D2E/DX2                !
 ! D1    D(2,1,4,5)             58.4219         estimate D2E/DX2                !
 ! D2    D(2,1,4,6)            -62.9477         estimate D2E/DX2                !
 ! D3    D(2,1,4,7)            178.968          estimate D2E/DX2                !
 ! D4    D(3,1,4,5)            -61.5582         estimate D2E/DX2                !
 ! D5    D(3,1,4,6)            177.0722         estimate D2E/DX2                !
 ! D6    D(3,1,4,7)             58.9879         estimate D2E/DX2                !
 ! D7    D(24,1,4,5)           178.4188         estimate D2E/DX2                !
 ! D8    D(24,1,4,6)            57.0492         estimate D2E/DX2                !
 ! D9    D(24,1,4,7)           -61.0351         estimate D2E/DX2                !
 ! D10   D(1,4,7,8)            163.1458         estimate D2E/DX2                !
 ! D11   D(1,4,7,9)             46.5362         estimate D2E/DX2                !
 ! D12   D(1,4,7,10)           -75.7125         estimate D2E/DX2                !
 ! D13   D(5,4,7,8)            -69.8887         estimate D2E/DX2                !
 ! D14   D(5,4,7,9)            173.5017         estimate D2E/DX2                !
 ! D15   D(5,4,7,10)            51.2529         estimate D2E/DX2                !
 ! D16   D(6,4,7,8)             44.8617         estimate D2E/DX2                !
 ! D17   D(6,4,7,9)            -71.7479         estimate D2E/DX2                !
 ! D18   D(6,4,7,10)           166.0033         estimate D2E/DX2                !
 ! D19   D(4,7,10,11)           92.8721         estimate D2E/DX2                !
 ! D20   D(4,7,10,23)          -76.29           estimate D2E/DX2                !
 ! D21   D(8,7,10,11)         -141.0165         estimate D2E/DX2                !
 ! D22   D(8,7,10,23)           49.8215         estimate D2E/DX2                !
 ! D23   D(9,7,10,11)          -26.6164         estimate D2E/DX2                !
 ! D24   D(9,7,10,23)          164.2216         estimate D2E/DX2                !
 ! D25   D(7,10,11,12)          15.3019         estimate D2E/DX2                !
 ! D26   D(7,10,11,13)         178.0913         estimate D2E/DX2                !
 ! D27   D(23,10,11,12)       -174.3198         estimate D2E/DX2                !
 ! D28   D(23,10,11,13)        -11.5304         estimate D2E/DX2                !
 ! D29   D(7,10,23,22)         179.6116         estimate D2E/DX2                !
 ! D30   D(11,10,23,22)          9.1072         estimate D2E/DX2                !
 ! D31   D(10,11,13,14)       -169.0041         estimate D2E/DX2                !
 ! D32   D(10,11,13,22)          8.8892         estimate D2E/DX2                !
 ! D33   D(12,11,13,14)         -4.6204         estimate D2E/DX2                !
 ! D34   D(12,11,13,22)        173.2729         estimate D2E/DX2                !
 ! D35   D(11,13,14,15)         -5.0171         estimate D2E/DX2                !
 ! D36   D(11,13,14,16)       -174.4993         estimate D2E/DX2                !
 ! D37   D(22,13,14,15)        177.4648         estimate D2E/DX2                !
 ! D38   D(22,13,14,16)          7.9827         estimate D2E/DX2                !
 ! D39   D(11,13,22,20)        173.4558         estimate D2E/DX2                !
 ! D40   D(11,13,22,23)         -3.6204         estimate D2E/DX2                !
 ! D41   D(14,13,22,20)         -8.5166         estimate D2E/DX2                !
 ! D42   D(14,13,22,23)        174.4073         estimate D2E/DX2                !
 ! D43   D(13,14,16,17)       -176.2878         estimate D2E/DX2                !
 ! D44   D(13,14,16,18)          1.3906         estimate D2E/DX2                !
 ! D45   D(15,14,16,17)         15.2895         estimate D2E/DX2                !
 ! D46   D(15,14,16,18)       -167.0322         estimate D2E/DX2                !
 ! D47   D(14,16,18,19)        176.3856         estimate D2E/DX2                !
 ! D48   D(14,16,18,20)        -10.9846         estimate D2E/DX2                !
 ! D49   D(17,16,18,19)         -5.7915         estimate D2E/DX2                !
 ! D50   D(17,16,18,20)        166.8383         estimate D2E/DX2                !
 ! D51   D(16,18,20,21)       -178.3496         estimate D2E/DX2                !
 ! D52   D(16,18,20,22)         10.3684         estimate D2E/DX2                !
 ! D53   D(19,18,20,21)         -6.655          estimate D2E/DX2                !
 ! D54   D(19,18,20,22)       -177.937          estimate D2E/DX2                !
 ! D55   D(18,20,22,13)         -1.4653         estimate D2E/DX2                !
 ! D56   D(18,20,22,23)        175.0997         estimate D2E/DX2                !
 ! D57   D(21,20,22,13)       -172.709          estimate D2E/DX2                !
 ! D58   D(21,20,22,23)          3.8559         estimate D2E/DX2                !
 ! D59   D(13,22,23,10)         -3.24           estimate D2E/DX2                !
 ! D60   D(20,22,23,10)        179.8529         estimate D2E/DX2                !
 --------------------------------------------------------------------------------
 Trust Radius=3.00D-01 FncErr=1.00D-07 GrdErr=1.00D-06 EigMax=2.50D+02 EigMin=1.00D-04
 Number of steps in this run=    138 maximum allowed number of steps=    144.
 GradGradGradGradGradGradGradGradGradGradGradGradGradGradGradGradGradGrad

 Leave Link  103 at Sun Jul 11 16:24:55 2021, MaxMem=   104857600 cpu:               0.1 elap:               0.0
 (Enter /prod/apps/gaussian/g16b1/l202.exe)
                          Input orientation:                          
 ---------------------------------------------------------------------
 Center     Atomic      Atomic             Coordinates (Angstroms)
 Number     Number       Type             X           Y           Z
 ---------------------------------------------------------------------
      1          7           0       -2.751000    0.366000    1.975000
      2          1           0       -2.917000    0.679000    2.910000
      3          1           0       -1.949000   -0.231000    1.961000
      4          6           0       -2.510000    1.539000    1.095000
      5          1           0       -1.679000    2.200000    1.354000
      6          1           0       -3.408000    2.162000    1.072000
      7          6           0       -2.237000    1.014000   -0.310000
      8          1           0       -2.328000    1.758000   -1.105000
      9          1           0       -3.004000    0.266000   -0.520000
     10          6           0       -0.846000    0.432000   -0.438000
     11          6           0       -0.534000   -0.876000   -0.260000
     12          1           0       -1.188000   -1.738000   -0.228000
     13          7           0        0.785000   -0.998000   -0.501000
     14          6           0        1.567000   -2.150000   -0.658000
     15          1           0        1.133000   -3.131000   -0.509000
     16          6           0        2.942000   -1.802000   -0.773000
     17          1           0        3.698000   -2.557000   -0.961000
     18          6           0        3.454000   -0.464000   -0.705000
     19          1           0        4.537000   -0.418000   -0.753000
     20          6           0        2.610000    0.622000   -0.742000
     21          1           0        2.984000    1.640000   -0.718000
     22          6           0        1.261000    0.325000   -0.621000
     23          7           0        0.269000    1.177000   -0.537000
     24          1           0       -3.549000   -0.139000    1.646000
 ---------------------------------------------------------------------
                    Distance matrix (angstroms):
                    1          2          3          4          5
     1  N    0.000000
     2  H    0.999875   0.000000
     3  H    0.999904   1.632705   0.000000
     4  C    1.486072   2.049262   2.048799   0.000000
     5  H    2.213229   2.503442   2.520141   1.092961   0.000000
     6  H    2.114870   2.412180   2.940315   1.093189   1.752258
     7  C    2.430087   3.308024   2.605842   1.524526   2.118220
     8  H    3.406317   4.198975   3.674251   2.218352   2.581326
     9  H    2.509788   3.455870   2.741422   2.114897   3.001309
    10  C    3.075053   3.944509   2.722385   2.518816   2.651599
    11  C    3.384210   4.259767   2.711290   3.401886   3.657567
    12  H    3.423886   4.321848   2.764397   3.773161   4.272195
    13  N    4.527071   5.305851   3.758256   4.454280   4.442919
    14  C    5.648723   6.390628   4.785810   5.770932   5.788537
    15  H    5.786598   6.527493   4.899962   6.136217   6.308540
    16  C    6.682962   7.351716   5.819337   6.661532   6.472540
    17  H    7.665091   8.319529   6.770301   7.716451   7.543236
    18  C    6.809796   7.413792   6.029449   6.543799   6.138735
    19  H    7.821227   8.377535   7.033417   7.543551   7.066260
    20  C    6.015642   6.624808   5.368268   5.516326   5.027805
    21  H    6.462627   6.993404   5.917108   5.786295   5.133259
    22  C    4.778812   5.481693   4.156917   4.317278   4.007474
    23  N    4.011018   4.720213   3.625189   3.243040   2.901226
    24  H    1.000035   1.632864   1.633306   2.049099   3.008834
                    6          7          8          9         10
     6  H    0.000000
     7  C    2.144544   0.000000
     8  H    2.463523   1.092631   0.000000
     9  H    2.508485   1.091739   1.739329   0.000000
    10  C    3.440471   1.513271   2.097496   2.165928   0.000000
    11  C    4.389025   2.544565   3.297032   2.733617   1.356426
    12  H    4.672087   2.946291   3.780310   2.720135   2.206799
    13  N    5.480983   3.635534   4.201324   3.994318   2.170030
    14  C    6.807119   4.960082   5.535639   5.172054   3.540860
    15  H    7.150950   5.345795   6.019639   5.352990   4.076328
    16  C    7.709722   5.913228   6.368416   6.300440   4.410434
    17  H    8.769110   6.957016   7.413005   7.285644   5.464027
    18  C    7.559143   5.893046   6.207158   6.501760   4.400466
    19  H    8.550442   6.937863   7.210208   7.575541   5.458792
    20  C    6.471362   4.881977   5.079971   5.629655   3.474543
    21  H    6.658397   5.274200   5.327386   6.146806   4.025738
    22  C    5.295317   3.578749   3.894697   4.266604   2.117637
    23  N    4.132727   2.521534   2.721138   3.397461   1.344638
    24  H    2.375702   2.622344   3.557731   2.269935   3.460536
                   11         12         13         14         15
    11  C    0.000000
    12  H    1.082490   0.000000
    13  N    1.346375   2.124820   0.000000
    14  C    2.489112   2.818629   1.401170   0.000000
    15  H    2.815300   2.721480   2.161217   1.083013   0.000000
    16  C    3.633624   4.166296   2.317984   1.423009   2.260181
    17  H    4.607275   5.008098   3.335813   2.190575   2.667022
    18  C    4.033846   4.837227   2.729530   2.530924   3.540953
    19  H    5.115452   5.898614   3.804919   3.439440   4.359716
    20  C    3.515830   4.500955   2.452164   2.962919   4.039904
    21  H    4.349292   5.390414   3.441182   4.046676   5.121750
    22  C    2.189691   3.226146   1.411136   2.494119   3.460183
    23  N    2.221789   3.273462   2.235660   3.573286   4.393876
    24  H    3.642284   3.412184   4.912336   5.960369   5.959632
                   16         17         18         19         20
    16  C    0.000000
    17  H    1.084853   0.000000
    18  C    1.434229   2.122668   0.000000
    19  H    2.111843   2.307056   1.085039   0.000000
    20  C    2.446827   3.367157   1.375900   2.189760   0.000000
    21  H    3.442696   4.264230   2.155895   2.578449   1.084793
    22  C    2.715326   3.789524   2.332129   3.361793   1.386597
    23  N    4.009372   5.087295   3.586827   4.561415   2.414608
    24  H    7.123918   8.072310   7.394243   8.438983   6.649432
                   21         22         23         24
    21  H    0.000000
    22  C    2.169646   0.000000
    23  N    2.760137   1.310353   0.000000
    24  H    7.171710   5.337667   4.590694   0.000000
 Stoichiometry    C9H12N3(1+)
 Framework group  C1[X(C9H12N3)]
 Deg. of freedom    66
 Full point group                 C1      NOp   1
 Largest Abelian subgroup         C1      NOp   1
 Largest concise Abelian subgroup C1      NOp   1
                         Standard orientation:                         
 ---------------------------------------------------------------------
 Center     Atomic      Atomic             Coordinates (Angstroms)
 Number     Number       Type             X           Y           Z
 ---------------------------------------------------------------------
      1          7           0        3.381346    0.791327    0.995443
      2          1           0        3.909875    0.711002    1.840401
      3          1           0        2.465625    1.132962    1.206511
      4          6           0        3.274899   -0.542360    0.348635
      5          1           0        2.815230   -1.347206    0.927849
      6          1           0        4.274195   -0.888977    0.072365
      7          6           0        2.442098   -0.376482   -0.917503
      8          1           0        2.523142   -1.198627   -1.632591
      9          1           0        2.831145    0.501903   -1.436130
     10          6           0        0.967215   -0.231043   -0.611631
     11          6           0        0.323328    0.951179   -0.445340
     12          1           0        0.646781    1.950237   -0.708107
     13          7           0       -0.974116    0.661366   -0.232331
     14          6           0       -2.091299    1.506678   -0.207265
     15          1           0       -1.968660    2.579120   -0.295279
     16          6           0       -3.251811    0.780519    0.181139
     17          1           0       -4.228477    1.252373    0.200675
     18          6           0       -3.266079   -0.611043    0.528074
     19          1           0       -4.240031   -0.959832    0.855292
     20          6           0       -2.172137   -1.412276    0.294794
     21          1           0       -2.177298   -2.471807    0.527481
     22          6           0       -1.016983   -0.740315   -0.074987
     23          7           0        0.171773   -1.258032   -0.264334
     24          1           0        3.840067    1.427086    0.374593
 ---------------------------------------------------------------------
 Rotational constants (GHZ):           2.4974846           0.5396497           0.4880632
 Leave Link  202 at Sun Jul 11 16:24:55 2021, MaxMem=   104857600 cpu:               0.0 elap:               0.0
 (Enter /prod/apps/gaussian/g16b1/l301.exe)
 Standard basis: 6-31G(d) (6D, 7F)
 Ernie: Thresh=  0.10000D-02 Tol=  0.10000D-05 Strict=F.
 There are   204 symmetry adapted cartesian basis functions of A   symmetry.
 There are   204 symmetry adapted basis functions of A   symmetry.
   204 basis functions,   384 primitive gaussians,   204 cartesian basis functions
    43 alpha electrons       43 beta electrons
       nuclear repulsion energy       682.2708903148 Hartrees.
 IExCor=  402 DFT=T Ex+Corr=B3LYP ExCW=0 ScaHFX=  0.200000
 ScaDFX=  0.800000  0.720000  1.000000  0.810000 ScalE2=  1.000000  1.000000
 IRadAn=      5 IRanWt=     -1 IRanGd=            0 ICorTp=0 IEmpDi=  4
 NAtoms=   24 NActive=   24 NUniq=   24 SFac= 1.00D+00 NAtFMM=   60 NAOKFM=F Big=F
 Integral buffers will be    131072 words long.
 Raffenetti 2 integral format.
 Two-electron integral symmetry is turned on.
 Using the following non-standard input for PCM:
 MSTModel=DFT cav MSTCharged
 --- end of non-standard input.
 MST model for solvation energy: B3LYP parametrization.
 MST cavity parameters:
 ISph   IAn     Re0     Alpha   Atom Type   QCorr
 ------------------------------------------------
   1      7     1.70     1.15      NH         T
   2      1     0.90     1.15      NH         T
   3      1     0.90     1.15      NH         T
   4      6     1.50     1.25      CH2        F
   5      1     1.20     1.25      CH2        F
   6      1     1.20     1.25      CH2        F
   7      6     1.50     1.25      CH2        F
   8      1     1.20     1.25      CH2        F
   9      1     1.20     1.25      CH2        F
  10      6     1.50     1.25      C          F
  11      6     1.50     1.25      CH         F
  12      1     1.20     1.25      CH         F
  13      7     1.40     1.25      N          F
  14      6     1.50     1.25      CH         F
  15      1     1.20     1.25      CH         F
  16      6     1.50     1.25      CH         F
  17      1     1.20     1.25      CH         F
  18      6     1.50     1.25      CH         F
  19      1     1.20     1.25      CH         F
  20      6     1.50     1.25      CH         F
  21      1     1.20     1.25      CH         F
  22      6     1.50     1.25      C          F
  23      7     1.40     1.25      N          F
  24      1     0.90     1.15      NH         T
 ------------------------------------------------------------------------------
 Polarizable Continuum Model (PCM)
 =================================
 Model                : PCM.
 Atomic radii         : MST.
 Polarization charges : Total charges.
 Charge compensation  : None.
 Solution method      : On-the-fly selection.
 Cavity type          : Scaled VdW (van der Waals Surface) (Alpha=1.250).
 Cavity algorithm     : GePol (No added spheres)
                        Default sphere list used, NSphG=   24.
                        Lebedev-Laikov grids with approx.  5.0 points / Ang**2.
                        Smoothing algorithm: York/Karplus (Gamma=1.0000).
                        Polarization charges: spherical gaussians, with
                                              point-specific exponents (IZeta= 3).
                        Self-potential: point-specific (ISelfS= 7).
                        Self-field    : sphere-specific E.n sum rule (ISelfD= 2).
 1st derivatives      : Analytical E(r).r(x)/FMM algorithm (CHGder, D1EAlg=3).
                        Cavity 1st derivative terms included.
 Solvent              : Water, Eps=  78.355300 Eps(inf)=   1.777849
 ------------------------------------------------------------------------------
 GePol: Number of generator spheres                  =      24
 GePol: Total number of spheres                      =      24
 GePol: Number of exposed spheres                    =      24 (100.00%)
 GePol: Number of points                             =    1763
 GePol: Average weight of points                     =       0.13
 GePol: Minimum weight of points                     =   0.16D-09
 GePol: Maximum weight of points                     =    0.22001
 GePol: Number of points with low weight             =     107
 GePol: Fraction of low-weight points (<1% of avg)   =       6.07%
 GePol: Cavity surface area                          =    223.630 Ang**2
 GePol: Cavity volume                                =    202.564 Ang**3
 PCM non-electrostatic energy =         0.0009103112 Hartrees.
 Nuclear repulsion after PCM non-electrostatic terms =      682.2718006261 Hartrees.
 Leave Link  301 at Sun Jul 11 16:24:55 2021, MaxMem=   104857600 cpu:               0.4 elap:               0.1
 (Enter /prod/apps/gaussian/g16b1/l302.exe)
 NPDir=0 NMtPBC=     1 NCelOv=     1 NCel=       1 NClECP=     1 NCelD=      1
         NCelK=      1 NCelE2=     1 NClLst=     1 CellRange=     0.0.
 One-electron integrals computed using PRISM.
 One-electron integral symmetry used in STVInt
 NBasis=   204 RedAO= T EigKep=  8.11D-04  NBF=   204
 NBsUse=   204 1.00D-06 EigRej= -1.00D+00 NBFU=   204
 Precomputing XC quadrature grid using
 IXCGrd= 4 IRadAn=           5 IRanWt=          -1 IRanGd=           0 AccXCQ= 0.00D+00.
 Generated NRdTot=       0 NPtTot=           0 NUsed=           0 NTot=          32
 NSgBfM=   204   204   204   204   204 MxSgAt=    24 MxSgA2=    24.
 Leave Link  302 at Sun Jul 11 16:24:55 2021, MaxMem=   104857600 cpu:               1.1 elap:               0.3
 (Enter /prod/apps/gaussian/g16b1/l303.exe)
 DipDrv:  MaxL=1.
 Leave Link  303 at Sun Jul 11 16:24:55 2021, MaxMem=   104857600 cpu:               0.1 elap:               0.0
 (Enter /prod/apps/gaussian/g16b1/l401.exe)
 ExpMin= 1.61D-01 ExpMax= 4.17D+03 ExpMxC= 6.27D+02 IAcc=3 IRadAn=         5 AccDes= 0.00D+00
 Harris functional with IExCor=  402 and IRadAn=       5 diagonalized for initial guess.
 HarFok:  IExCor=  402 AccDes= 0.00D+00 IRadAn=         5 IDoV= 1 UseB2=F ITyADJ=14
 ICtDFT=  3500011 ScaDFX=  1.000000  1.000000  1.000000  1.000000
 FoFCou: FMM=F IPFlag=           0 FMFlag=      100000 FMFlg1=           0
         NFxFlg=           0 DoJE=T BraDBF=F KetDBF=T FulRan=T
         wScrn=  0.000000 ICntrl=       500 IOpCl=  0 I1Cent=   200000004 NGrid=           0
         NMat0=    1 NMatS0=      1 NMatT0=    0 NMatD0=    1 NMtDS0=    0 NMtDT0=    0
 Petite list used in FoFCou.
 Harris En= -514.184929445576    
 JPrj=0 DoOrth=F DoCkMO=F.
 Leave Link  401 at Sun Jul 11 16:24:56 2021, MaxMem=   104857600 cpu:               5.1 elap:               1.3
 (Enter /prod/apps/gaussian/g16b1/l502.exe)
 Integral symmetry usage will be decided dynamically.
 Closed shell SCF:
 Using DIIS extrapolation, IDIIS=  1040.
 NGot=   104857600 LenX=   104770734 LenY=   104728677
 Requested convergence on RMS density matrix=1.00D-08 within 128 cycles.
 Requested convergence on MAX density matrix=1.00D-06.
 Requested convergence on             energy=1.00D-06.
 No special actions if energy rises.
 Fock matrices will be formed incrementally for  20 cycles.

 Cycle   1  Pass 1  IDiag  1:
 FoFJK:  IHMeth= 1 ICntrl=       0 DoSepK=F KAlg= 0 I1Cent=           0 FoldK=F
 IRaf= 890000000 NMat=       1 IRICut=       1 DoRegI=T DoRafI=F ISym2E= 0 IDoP0=0 IntGTp=1.
 FoFCou: FMM=F IPFlag=           0 FMFlag=      100000 FMFlg1=           0
         NFxFlg=           0 DoJE=F BraDBF=F KetDBF=F FulRan=T
         wScrn=  0.000000 ICntrl=         0 IOpCl=  0 I1Cent=           0 NGrid=           0
         NMat0=    1 NMatS0=      1 NMatT0=    0 NMatD0=    1 NMtDS0=    0 NMtDT0=    0
 Symmetry not used in FoFCou.
 Inv3:  Mode=1 IEnd=     9324507.
 Iteration    1 A*A^-1 deviation from unit magnitude is 3.33D-15 for    234.
 Iteration    1 A*A^-1 deviation from orthogonality  is 2.22D-15 for   1465    635.
 Iteration    1 A^-1*A deviation from unit magnitude is 3.33D-15 for   1141.
 Iteration    1 A^-1*A deviation from orthogonality  is 1.26D-14 for    870    855.
 E= -514.064122238138    
 DIIS: error= 2.23D-02 at cycle   1 NSaved=   1.
 NSaved= 1 IEnMin= 1 EnMin= -514.064122238138     IErMin= 1 ErrMin= 2.23D-02
 ErrMax= 2.23D-02  0.00D+00 EMaxC= 1.00D-01 BMatC= 2.18D-01 BMatP= 2.18D-01
 IDIUse=3 WtCom= 7.77D-01 WtEn= 2.23D-01
 Coeff-Com:  0.100D+01
 Coeff-En:   0.100D+01
 Coeff:      0.100D+01
 Gap=     0.162 Goal=   None    Shift=    0.000
 GapD=    0.162 DampG=1.000 DampE=0.500 DampFc=0.5000 IDamp=-1.
 Damping current iteration by 5.00D-01
 RMSDP=5.25D-03 MaxDP=1.76D-01              OVMax= 2.05D-01

 Cycle   2  Pass 1  IDiag  1:
 RMSU=  2.56D-03    CP:  9.75D-01
 E= -514.160186189629     Delta-E=       -0.096063951491 Rises=F Damp=T
 DIIS: error= 7.17D-03 at cycle   2 NSaved=   2.
 NSaved= 2 IEnMin= 2 EnMin= -514.160186189629     IErMin= 2 ErrMin= 7.17D-03
 ErrMax= 7.17D-03  0.00D+00 EMaxC= 1.00D-01 BMatC= 2.12D-02 BMatP= 2.18D-01
 IDIUse=3 WtCom= 9.28D-01 WtEn= 7.17D-02
 Coeff-Com:  0.583D-01 0.942D+00
 Coeff-En:   0.966D-01 0.903D+00
 Coeff:      0.611D-01 0.939D+00
 Gap=     0.180 Goal=   None    Shift=    0.000
 RMSDP=1.51D-03 MaxDP=5.51D-02 DE=-9.61D-02 OVMax= 1.81D-01

 Cycle   3  Pass 1  IDiag  1:
 RMSU=  1.48D-03    CP:  9.65D-01  9.41D-01
 E= -514.262244025901     Delta-E=       -0.102057836272 Rises=F Damp=F
 DIIS: error= 8.91D-03 at cycle   3 NSaved=   3.
 NSaved= 3 IEnMin= 3 EnMin= -514.262244025901     IErMin= 2 ErrMin= 7.17D-03
 ErrMax= 8.91D-03  0.00D+00 EMaxC= 1.00D-01 BMatC= 2.24D-02 BMatP= 2.12D-02
 IDIUse=3 WtCom= 9.11D-01 WtEn= 8.91D-02
 Coeff-Com: -0.436D-01 0.526D+00 0.517D+00
 Coeff-En:   0.000D+00 0.000D+00 0.100D+01
 Coeff:     -0.397D-01 0.479D+00 0.560D+00
 Gap=     0.172 Goal=   None    Shift=    0.000
 RMSDP=9.64D-04 MaxDP=4.33D-02 DE=-1.02D-01 OVMax= 6.83D-02

 Cycle   4  Pass 1  IDiag  1:
 RMSU=  6.19D-04    CP:  9.68D-01  1.06D+00  5.44D-01
 E= -514.280540740965     Delta-E=       -0.018296715064 Rises=F Damp=F
 DIIS: error= 4.51D-03 at cycle   4 NSaved=   4.
 NSaved= 4 IEnMin= 4 EnMin= -514.280540740965     IErMin= 4 ErrMin= 4.51D-03
 ErrMax= 4.51D-03  0.00D+00 EMaxC= 1.00D-01 BMatC= 3.88D-03 BMatP= 2.12D-02
 IDIUse=3 WtCom= 9.55D-01 WtEn= 4.51D-02
 Coeff-Com: -0.164D-01 0.925D-01 0.317D+00 0.607D+00
 Coeff-En:   0.000D+00 0.000D+00 0.167D+00 0.833D+00
 Coeff:     -0.157D-01 0.883D-01 0.310D+00 0.617D+00
 Gap=     0.172 Goal=   None    Shift=    0.000
 RMSDP=3.23D-04 MaxDP=1.43D-02 DE=-1.83D-02 OVMax= 2.24D-02

 Cycle   5  Pass 1  IDiag  1:
 RMSU=  1.25D-04    CP:  9.67D-01  1.02D+00  6.68D-01  6.53D-01
 E= -514.284150074028     Delta-E=       -0.003609333063 Rises=F Damp=F
 DIIS: error= 7.59D-04 at cycle   5 NSaved=   5.
 NSaved= 5 IEnMin= 5 EnMin= -514.284150074028     IErMin= 5 ErrMin= 7.59D-04
 ErrMax= 7.59D-04  0.00D+00 EMaxC= 1.00D-01 BMatC= 1.54D-04 BMatP= 3.88D-03
 IDIUse=3 WtCom= 9.92D-01 WtEn= 7.59D-03
 Coeff-Com: -0.530D-02 0.171D-01 0.127D+00 0.312D+00 0.549D+00
 Coeff-En:   0.000D+00 0.000D+00 0.000D+00 0.000D+00 0.100D+01
 Coeff:     -0.526D-02 0.170D-01 0.126D+00 0.310D+00 0.553D+00
 Gap=     0.172 Goal=   None    Shift=    0.000
 RMSDP=7.06D-05 MaxDP=2.65D-03 DE=-3.61D-03 OVMax= 4.36D-03

 Cycle   6  Pass 1  IDiag  1:
 RMSU=  4.51D-05    CP:  9.67D-01  1.03D+00  6.68D-01  6.72D-01  5.92D-01
 E= -514.284283989286     Delta-E=       -0.000133915258 Rises=F Damp=F
 DIIS: error= 1.52D-04 at cycle   6 NSaved=   6.
 NSaved= 6 IEnMin= 6 EnMin= -514.284283989286     IErMin= 6 ErrMin= 1.52D-04
 ErrMax= 1.52D-04  0.00D+00 EMaxC= 1.00D-01 BMatC= 1.14D-05 BMatP= 1.54D-04
 IDIUse=3 WtCom= 9.98D-01 WtEn= 1.52D-03
 Coeff-Com: -0.127D-02 0.129D-02 0.369D-01 0.104D+00 0.281D+00 0.579D+00
 Coeff-En:   0.000D+00 0.000D+00 0.000D+00 0.000D+00 0.000D+00 0.100D+01
 Coeff:     -0.127D-02 0.129D-02 0.368D-01 0.104D+00 0.280D+00 0.579D+00
 Gap=     0.173 Goal=   None    Shift=    0.000
 RMSDP=1.88D-05 MaxDP=5.54D-04 DE=-1.34D-04 OVMax= 1.25D-03

 Cycle   7  Pass 1  IDiag  1:
 RMSU=  9.46D-06    CP:  9.67D-01  1.02D+00  6.69D-01  6.77D-01  6.49D-01
                    CP:  6.86D-01
 E= -514.284294379312     Delta-E=       -0.000010390025 Rises=F Damp=F
 DIIS: error= 3.51D-05 at cycle   7 NSaved=   7.
 NSaved= 7 IEnMin= 7 EnMin= -514.284294379312     IErMin= 7 ErrMin= 3.51D-05
 ErrMax= 3.51D-05  0.00D+00 EMaxC= 1.00D-01 BMatC= 8.67D-07 BMatP= 1.14D-05
 IDIUse=1 WtCom= 1.00D+00 WtEn= 0.00D+00
 Coeff-Com: -0.381D-03-0.315D-03 0.127D-01 0.379D-01 0.120D+00 0.308D+00
 Coeff-Com:  0.522D+00
 Coeff:     -0.381D-03-0.315D-03 0.127D-01 0.379D-01 0.120D+00 0.308D+00
 Coeff:      0.522D+00
 Gap=     0.173 Goal=   None    Shift=    0.000
 RMSDP=5.11D-06 MaxDP=1.65D-04 DE=-1.04D-05 OVMax= 3.45D-04

 Cycle   8  Pass 1  IDiag  1:
 RMSU=  3.02D-06    CP:  9.67D-01  1.02D+00  6.69D-01  6.79D-01  6.47D-01
                    CP:  7.09D-01  5.92D-01
 E= -514.284295195526     Delta-E=       -0.000000816214 Rises=F Damp=F
 DIIS: error= 9.11D-06 at cycle   8 NSaved=   8.
 NSaved= 8 IEnMin= 8 EnMin= -514.284295195526     IErMin= 8 ErrMin= 9.11D-06
 ErrMax= 9.11D-06  0.00D+00 EMaxC= 1.00D-01 BMatC= 4.70D-08 BMatP= 8.67D-07
 IDIUse=1 WtCom= 1.00D+00 WtEn= 0.00D+00
 Coeff-Com:  0.152D-04-0.281D-03 0.941D-03 0.318D-02 0.168D-01 0.569D-01
 Coeff-Com:  0.219D+00 0.704D+00
 Coeff:      0.152D-04-0.281D-03 0.941D-03 0.318D-02 0.168D-01 0.569D-01
 Coeff:      0.219D+00 0.704D+00
 Gap=     0.173 Goal=   None    Shift=    0.000
 RMSDP=1.33D-06 MaxDP=4.53D-05 DE=-8.16D-07 OVMax= 7.74D-05

 Cycle   9  Pass 1  IDiag  1:
 RMSU=  9.02D-07    CP:  9.67D-01  1.02D+00  6.69D-01  6.79D-01  6.50D-01
                    CP:  7.09D-01  6.54D-01  7.83D-01
 E= -514.284295233240     Delta-E=       -0.000000037715 Rises=F Damp=F
 DIIS: error= 4.12D-06 at cycle   9 NSaved=   9.
 NSaved= 9 IEnMin= 9 EnMin= -514.284295233240     IErMin= 9 ErrMin= 4.12D-06
 ErrMax= 4.12D-06  0.00D+00 EMaxC= 1.00D-01 BMatC= 7.44D-09 BMatP= 4.70D-08
 IDIUse=1 WtCom= 1.00D+00 WtEn= 0.00D+00
 Coeff-Com:  0.353D-04-0.148D-03-0.282D-03-0.709D-03 0.155D-02 0.111D-01
 Coeff-Com:  0.871D-01 0.385D+00 0.516D+00
 Coeff:      0.353D-04-0.148D-03-0.282D-03-0.709D-03 0.155D-02 0.111D-01
 Coeff:      0.871D-01 0.385D+00 0.516D+00
 Gap=     0.173 Goal=   None    Shift=    0.000
 RMSDP=4.98D-07 MaxDP=1.55D-05 DE=-3.77D-08 OVMax= 3.93D-05

 Cycle  10  Pass 1  IDiag  1:
 RMSU=  2.86D-07    CP:  9.67D-01  1.02D+00  6.70D-01  6.79D-01  6.50D-01
                    CP:  7.12D-01  6.59D-01  8.42D-01  6.33D-01
 E= -514.284295240171     Delta-E=       -0.000000006931 Rises=F Damp=F
 DIIS: error= 8.43D-07 at cycle  10 NSaved=  10.
 NSaved=10 IEnMin=10 EnMin= -514.284295240171     IErMin=10 ErrMin= 8.43D-07
 ErrMax= 8.43D-07  0.00D+00 EMaxC= 1.00D-01 BMatC= 2.84D-10 BMatP= 7.44D-09
 IDIUse=1 WtCom= 1.00D+00 WtEn= 0.00D+00
 Coeff-Com:  0.138D-04-0.288D-04-0.188D-03-0.599D-03-0.109D-02-0.143D-02
 Coeff-Com:  0.117D-01 0.734D-01 0.200D+00 0.718D+00
 Coeff:      0.138D-04-0.288D-04-0.188D-03-0.599D-03-0.109D-02-0.143D-02
 Coeff:      0.117D-01 0.734D-01 0.200D+00 0.718D+00
 Gap=     0.173 Goal=   None    Shift=    0.000
 RMSDP=1.18D-07 MaxDP=3.48D-06 DE=-6.93D-09 OVMax= 1.12D-05

 Cycle  11  Pass 1  IDiag  1:
 RMSU=  7.97D-08    CP:  9.67D-01  1.02D+00  6.70D-01  6.79D-01  6.50D-01
                    CP:  7.12D-01  6.62D-01  8.46D-01  7.05D-01  8.38D-01
 E= -514.284295240454     Delta-E=       -0.000000000283 Rises=F Damp=F
 DIIS: error= 3.05D-07 at cycle  11 NSaved=  11.
 NSaved=11 IEnMin=11 EnMin= -514.284295240454     IErMin=11 ErrMin= 3.05D-07
 ErrMax= 3.05D-07  0.00D+00 EMaxC= 1.00D-01 BMatC= 3.41D-11 BMatP= 2.84D-10
 IDIUse=1 WtCom= 1.00D+00 WtEn= 0.00D+00
 Coeff-Com:  0.504D-05-0.626D-05-0.689D-04-0.245D-03-0.621D-03-0.140D-02
 Coeff-Com:  0.153D-03 0.963D-02 0.630D-01 0.343D+00 0.586D+00
 Coeff:      0.504D-05-0.626D-05-0.689D-04-0.245D-03-0.621D-03-0.140D-02
 Coeff:      0.153D-03 0.963D-02 0.630D-01 0.343D+00 0.586D+00
 Gap=     0.173 Goal=   None    Shift=    0.000
 RMSDP=3.91D-08 MaxDP=1.58D-06 DE=-2.83D-10 OVMax= 3.26D-06

 Cycle  12  Pass 1  IDiag  1:
 RMSU=  2.60D-08    CP:  9.67D-01  1.02D+00  6.70D-01  6.79D-01  6.50D-01
                    CP:  7.12D-01  6.62D-01  8.51D-01  7.07D-01  8.95D-01
                    CP:  7.79D-01
 E= -514.284295240483     Delta-E=       -0.000000000028 Rises=F Damp=F
 DIIS: error= 8.73D-08 at cycle  12 NSaved=  12.
 NSaved=12 IEnMin=12 EnMin= -514.284295240483     IErMin=12 ErrMin= 8.73D-08
 ErrMax= 8.73D-08  0.00D+00 EMaxC= 1.00D-01 BMatC= 3.53D-12 BMatP= 3.41D-11
 IDIUse=1 WtCom= 1.00D+00 WtEn= 0.00D+00
 Coeff-Com:  0.126D-06 0.160D-05 0.470D-05-0.373D-05-0.846D-04-0.379D-03
 Coeff-Com: -0.191D-02-0.905D-02-0.610D-02 0.275D-01 0.251D+00 0.739D+00
 Coeff:      0.126D-06 0.160D-05 0.470D-05-0.373D-05-0.846D-04-0.379D-03
 Coeff:     -0.191D-02-0.905D-02-0.610D-02 0.275D-01 0.251D+00 0.739D+00
 Gap=     0.173 Goal=   None    Shift=    0.000
 RMSDP=1.38D-08 MaxDP=4.42D-07 DE=-2.84D-11 OVMax= 1.53D-06

 Cycle  13  Pass 1  IDiag  1:
 RMSU=  7.79D-09    CP:  9.67D-01  1.02D+00  6.70D-01  6.79D-01  6.50D-01
                    CP:  7.12D-01  6.62D-01  8.51D-01  7.12D-01  9.11D-01
                    CP:  8.76D-01  8.57D-01
 E= -514.284295240496     Delta-E=       -0.000000000013 Rises=F Damp=F
 DIIS: error= 2.77D-08 at cycle  13 NSaved=  13.
 NSaved=13 IEnMin=13 EnMin= -514.284295240496     IErMin=13 ErrMin= 2.77D-08
 ErrMax= 2.77D-08  0.00D+00 EMaxC= 1.00D-01 BMatC= 3.70D-13 BMatP= 3.53D-12
 IDIUse=1 WtCom= 1.00D+00 WtEn= 0.00D+00
 Coeff-Com: -0.129D-06 0.943D-06 0.608D-05 0.109D-04-0.765D-05-0.105D-03
 Coeff-Com: -0.890D-03-0.484D-02-0.604D-02-0.659D-02 0.853D-01 0.356D+00
 Coeff-Com:  0.577D+00
 Coeff:     -0.129D-06 0.943D-06 0.608D-05 0.109D-04-0.765D-05-0.105D-03
 Coeff:     -0.890D-03-0.484D-02-0.604D-02-0.659D-02 0.853D-01 0.356D+00
 Coeff:      0.577D+00
 Gap=     0.173 Goal=   None    Shift=    0.000
 RMSDP=3.99D-09 MaxDP=1.69D-07 DE=-1.32D-11 OVMax= 4.08D-07

 Error on total polarization charges =  0.01579
 SCF Done:  E(RB3LYP) =  -514.284295240     A.U. after   13 cycles
            NFock= 13  Conv=0.40D-08     -V/T= 2.0093
 KE= 5.095620123615D+02 PE=-2.544202931643D+03 EE= 8.380848234147D+02
 Leave Link  502 at Sun Jul 11 16:25:23 2021, MaxMem=   104857600 cpu:             106.5 elap:              26.8
 (Enter /prod/apps/gaussian/g16b1/l601.exe)
 Copying SCF densities to generalized density rwf, IOpCl= 0 IROHF=0.

 **********************************************************************

            Population analysis using the SCF Density.

 **********************************************************************

 Orbital symmetries:
       Occupied  (A) (A) (A) (A) (A) (A) (A) (A) (A) (A) (A) (A)
                 (A) (A) (A) (A) (A) (A) (A) (A) (A) (A) (A) (A)
                 (A) (A) (A) (A) (A) (A) (A) (A) (A) (A) (A) (A)
                 (A) (A) (A) (A) (A) (A) (A)
       Virtual   (A) (A) (A) (A) (A) (A) (A) (A) (A) (A) (A) (A)
                 (A) (A) (A) (A) (A) (A) (A) (A) (A) (A) (A) (A)
                 (A) (A) (A) (A) (A) (A) (A) (A) (A) (A) (A) (A)
                 (A) (A) (A) (A) (A) (A) (A) (A) (A) (A) (A) (A)
                 (A) (A) (A) (A) (A) (A) (A) (A) (A) (A) (A) (A)
                 (A) (A) (A) (A) (A) (A) (A) (A) (A) (A) (A) (A)
                 (A) (A) (A) (A) (A) (A) (A) (A) (A) (A) (A) (A)
                 (A) (A) (A) (A) (A) (A) (A) (A) (A) (A) (A) (A)
                 (A) (A) (A) (A) (A) (A) (A) (A) (A) (A) (A) (A)
                 (A) (A) (A) (A) (A) (A) (A) (A) (A) (A) (A) (A)
                 (A) (A) (A) (A) (A) (A) (A) (A) (A) (A) (A) (A)
                 (A) (A) (A) (A) (A) (A) (A) (A) (A) (A) (A) (A)
                 (A) (A) (A) (A) (A) (A) (A) (A) (A) (A) (A) (A)
                 (A) (A) (A) (A) (A)
 The electronic state is 1-A.
 Alpha  occ. eigenvalues --  -14.45039 -14.41843 -14.31444 -10.25191 -10.25178
 Alpha  occ. eigenvalues --  -10.25097 -10.21476 -10.20840 -10.20704 -10.20452
 Alpha  occ. eigenvalues --  -10.20434 -10.20380  -1.04352  -1.01442  -0.91563
 Alpha  occ. eigenvalues --   -0.83814  -0.79970  -0.75287  -0.73744  -0.67371
 Alpha  occ. eigenvalues --   -0.64216  -0.61273  -0.60124  -0.59206  -0.57710
 Alpha  occ. eigenvalues --   -0.53023  -0.51574  -0.50161  -0.47831  -0.47667
 Alpha  occ. eigenvalues --   -0.46890  -0.44210  -0.43526  -0.41409  -0.38811
 Alpha  occ. eigenvalues --   -0.37896  -0.37409  -0.36870  -0.33872  -0.32876
 Alpha  occ. eigenvalues --   -0.28555  -0.24181  -0.21508
 Alpha virt. eigenvalues --   -0.04255   0.00123   0.05180   0.06350   0.10037
 Alpha virt. eigenvalues --    0.10759   0.11096   0.12289   0.13040   0.13310
 Alpha virt. eigenvalues --    0.14429   0.14585   0.15857   0.16216   0.17277
 Alpha virt. eigenvalues --    0.18070   0.19340   0.20243   0.22213   0.24869
 Alpha virt. eigenvalues --    0.25328   0.27043   0.29043   0.30976   0.32456
 Alpha virt. eigenvalues --    0.41431   0.42954   0.44824   0.46743   0.47522
 Alpha virt. eigenvalues --    0.49455   0.50099   0.51970   0.52907   0.53192
 Alpha virt. eigenvalues --    0.54540   0.56191   0.56825   0.57726   0.58225
 Alpha virt. eigenvalues --    0.58698   0.60821   0.61651   0.63044   0.63869
 Alpha virt. eigenvalues --    0.65296   0.67106   0.68898   0.70710   0.71585
 Alpha virt. eigenvalues --    0.74594   0.75445   0.79131   0.80321   0.81405
 Alpha virt. eigenvalues --    0.81977   0.82995   0.84453   0.84782   0.85211
 Alpha virt. eigenvalues --    0.86218   0.87420   0.87936   0.89345   0.89789
 Alpha virt. eigenvalues --    0.91227   0.91607   0.92653   0.95458   0.96012
 Alpha virt. eigenvalues --    0.96985   0.99952   1.02035   1.04487   1.06952
 Alpha virt. eigenvalues --    1.08789   1.13195   1.13405   1.16101   1.22316
 Alpha virt. eigenvalues --    1.25230   1.26137   1.29943   1.32679   1.34349
 Alpha virt. eigenvalues --    1.37158   1.39361   1.41447   1.43123   1.44954
 Alpha virt. eigenvalues --    1.48121   1.49040   1.51830   1.53618   1.56542
 Alpha virt. eigenvalues --    1.64597   1.67985   1.70517   1.71599   1.75880
 Alpha virt. eigenvalues --    1.80306   1.84165   1.85962   1.86390   1.88730
 Alpha virt. eigenvalues --    1.91845   1.93001   1.93285   1.96448   1.99220
 Alpha virt. eigenvalues --    2.00901   2.02999   2.03831   2.06131   2.09192
 Alpha virt. eigenvalues --    2.10884   2.14520   2.16213   2.18005   2.21701
 Alpha virt. eigenvalues --    2.23350   2.26198   2.26512   2.27067   2.30066
 Alpha virt. eigenvalues --    2.33271   2.37059   2.37682   2.38853   2.44378
 Alpha virt. eigenvalues --    2.47065   2.48943   2.53625   2.57025   2.59000
 Alpha virt. eigenvalues --    2.60363   2.61549   2.66509   2.66979   2.68152
 Alpha virt. eigenvalues --    2.71697   2.78862   2.80469   2.83124   2.91396
 Alpha virt. eigenvalues --    3.03761   3.13686   3.21802   3.39368   3.77985
 Alpha virt. eigenvalues --    4.05797   4.06524   4.12576   4.14162   4.21683
 Alpha virt. eigenvalues --    4.26089   4.30825   4.40117   4.46062   4.55769
 Alpha virt. eigenvalues --    4.65229
          Condensed to atoms (all electrons):
               1          2          3          4          5          6
     1  N    6.694584   0.304498   0.286374   0.254179  -0.023604  -0.034167
     2  H    0.304498   0.264645  -0.009536  -0.017533  -0.001493  -0.001901
     3  H    0.286374  -0.009536   0.283223  -0.023631  -0.002080   0.003979
     4  C    0.254179  -0.017533  -0.023631   5.007840   0.379073   0.377527
     5  H   -0.023604  -0.001493  -0.002080   0.379073   0.486951  -0.028302
     6  H   -0.034167  -0.001901   0.003979   0.377527  -0.028302   0.501392
     7  C   -0.061353   0.004176  -0.003549   0.346756  -0.042350  -0.030934
     8  H    0.003426  -0.000091   0.000198  -0.025391   0.000271  -0.003193
     9  H   -0.005567   0.000133  -0.000108  -0.045401   0.005029  -0.001950
    10  C   -0.006137  -0.000021   0.010702  -0.043112  -0.007284   0.004426
    11  C   -0.001884   0.000023   0.013648  -0.003148   0.000755  -0.000079
    12  H    0.000006   0.000003   0.000015   0.000130  -0.000001  -0.000004
    13  N   -0.000013   0.000001  -0.000125  -0.000101  -0.000013   0.000002
    14  C    0.000001  -0.000000  -0.000033   0.000002  -0.000001  -0.000000
    15  H   -0.000000   0.000000   0.000001  -0.000000   0.000000  -0.000000
    16  C    0.000000  -0.000000   0.000000  -0.000000   0.000000   0.000000
    17  H   -0.000000   0.000000   0.000000   0.000000   0.000000  -0.000000
    18  C   -0.000000   0.000000   0.000001  -0.000000  -0.000000   0.000000
    19  H    0.000000  -0.000000  -0.000000   0.000000   0.000000  -0.000000
    20  C    0.000000   0.000000   0.000001   0.000007   0.000004  -0.000000
    21  H    0.000000   0.000000   0.000000  -0.000000   0.000002  -0.000000
    22  C    0.000056  -0.000001  -0.000211   0.000270   0.000055  -0.000004
    23  N   -0.000014  -0.000007  -0.000342  -0.003806   0.007262   0.000027
    24  H    0.303281  -0.009526  -0.010010  -0.019688   0.002693  -0.002796
               7          8          9         10         11         12
     1  N   -0.061353   0.003426  -0.005567  -0.006137  -0.001884   0.000006
     2  H    0.004176  -0.000091   0.000133  -0.000021   0.000023   0.000003
     3  H   -0.003549   0.000198  -0.000108   0.010702   0.013648   0.000015
     4  C    0.346756  -0.025391  -0.045401  -0.043112  -0.003148   0.000130
     5  H   -0.042350   0.000271   0.005029  -0.007284   0.000755  -0.000001
     6  H   -0.030934  -0.003193  -0.001950   0.004426  -0.000079  -0.000004
     7  C    5.184511   0.360980   0.372167   0.360079  -0.070343  -0.001041
     8  H    0.360980   0.521449  -0.025888  -0.026234   0.004098  -0.000140
     9  H    0.372167  -0.025888   0.540741  -0.031278  -0.001203   0.002072
    10  C    0.360079  -0.026234  -0.031278   4.678051   0.542072  -0.033780
    11  C   -0.070343   0.004098  -0.001203   0.542072   5.055464   0.363277
    12  H   -0.001041  -0.000140   0.002072  -0.033780   0.363277   0.515992
    13  N    0.005730  -0.000114  -0.000012  -0.033488   0.341242  -0.041441
    14  C   -0.000085   0.000002  -0.000007   0.005681  -0.052818   0.000380
    15  H   -0.000002   0.000000   0.000000  -0.000002  -0.001824   0.001734
    16  C    0.000005  -0.000000   0.000000  -0.000471   0.004926   0.000133
    17  H   -0.000000   0.000000  -0.000000   0.000007  -0.000145  -0.000003
    18  C    0.000006  -0.000000  -0.000000  -0.000042   0.000890  -0.000004
    19  H   -0.000000  -0.000000   0.000000  -0.000000   0.000013   0.000000
    20  C   -0.000528   0.000012   0.000005   0.001020   0.012136  -0.000267
    21  H   -0.000003   0.000002   0.000000   0.000255  -0.000162   0.000001
    22  C    0.002776   0.000442  -0.000080  -0.086672  -0.078301   0.003517
    23  N   -0.058628  -0.000065   0.002776   0.447381  -0.092721   0.006080
    24  H   -0.001366  -0.000006   0.005460  -0.000250   0.000239   0.000060
              13         14         15         16         17         18
     1  N   -0.000013   0.000001  -0.000000   0.000000  -0.000000  -0.000000
     2  H    0.000001  -0.000000   0.000000  -0.000000   0.000000   0.000000
     3  H   -0.000125  -0.000033   0.000001   0.000000   0.000000   0.000001
     4  C   -0.000101   0.000002  -0.000000  -0.000000   0.000000  -0.000000
     5  H   -0.000013  -0.000001   0.000000   0.000000   0.000000  -0.000000
     6  H    0.000002  -0.000000  -0.000000   0.000000  -0.000000   0.000000
     7  C    0.005730  -0.000085  -0.000002   0.000005  -0.000000   0.000006
     8  H   -0.000114   0.000002   0.000000  -0.000000   0.000000  -0.000000
     9  H   -0.000012  -0.000007   0.000000   0.000000  -0.000000  -0.000000
    10  C   -0.033488   0.005681  -0.000002  -0.000471   0.000007  -0.000042
    11  C    0.341242  -0.052818  -0.001824   0.004926  -0.000145   0.000890
    12  H   -0.041441   0.000380   0.001734   0.000133  -0.000003  -0.000004
    13  N    6.777130   0.315740  -0.036317  -0.028820   0.003281  -0.029497
    14  C    0.315740   4.875850   0.370393   0.542336  -0.037284  -0.038088
    15  H   -0.036317   0.370393   0.478053  -0.031344  -0.001615   0.002423
    16  C   -0.028820   0.542336  -0.031344   4.972355   0.364958   0.487409
    17  H    0.003281  -0.037284  -0.001615   0.364958   0.542118  -0.035068
    18  C   -0.029497  -0.038088   0.002423   0.487409  -0.035068   4.905272
    19  H    0.000103   0.004913  -0.000095  -0.041756  -0.006997   0.366098
    20  C   -0.040691  -0.029020   0.000139  -0.029925   0.004895   0.522340
    21  H    0.004094   0.000065   0.000011   0.004729  -0.000147  -0.038680
    22  C    0.331421  -0.021868   0.001818  -0.031054   0.000499  -0.016229
    23  N   -0.107624   0.007896  -0.000175   0.000206  -0.000002   0.003771
    24  H    0.000000  -0.000000  -0.000000   0.000000   0.000000   0.000000
              19         20         21         22         23         24
     1  N    0.000000   0.000000   0.000000   0.000056  -0.000014   0.303281
     2  H   -0.000000   0.000000   0.000000  -0.000001  -0.000007  -0.009526
     3  H   -0.000000   0.000001   0.000000  -0.000211  -0.000342  -0.010010
     4  C    0.000000   0.000007  -0.000000   0.000270  -0.003806  -0.019688
     5  H    0.000000   0.000004   0.000002   0.000055   0.007262   0.002693
     6  H   -0.000000  -0.000000  -0.000000  -0.000004   0.000027  -0.002796
     7  C   -0.000000  -0.000528  -0.000003   0.002776  -0.058628  -0.001366
     8  H   -0.000000   0.000012   0.000002   0.000442  -0.000065  -0.000006
     9  H    0.000000   0.000005   0.000000  -0.000080   0.002776   0.005460
    10  C   -0.000000   0.001020   0.000255  -0.086672   0.447381  -0.000250
    11  C    0.000013   0.012136  -0.000162  -0.078301  -0.092721   0.000239
    12  H    0.000000  -0.000267   0.000001   0.003517   0.006080   0.000060
    13  N    0.000103  -0.040691   0.004094   0.331421  -0.107624   0.000000
    14  C    0.004913  -0.029020   0.000065  -0.021868   0.007896  -0.000000
    15  H   -0.000095   0.000139   0.000011   0.001818  -0.000175  -0.000000
    16  C   -0.041756  -0.029925   0.004729  -0.031054   0.000206   0.000000
    17  H   -0.006997   0.004895  -0.000147   0.000499  -0.000002   0.000000
    18  C    0.366098   0.522340  -0.038680  -0.016229   0.003771   0.000000
    19  H    0.549451  -0.035390  -0.004138   0.002736  -0.000112  -0.000000
    20  C   -0.035390   5.022703   0.362435   0.470299  -0.068914   0.000000
    21  H   -0.004138   0.362435   0.533767  -0.036528  -0.001669   0.000000
    22  C    0.002736   0.470299  -0.036528   4.448439   0.476223  -0.000001
    23  N   -0.000112  -0.068914  -0.001669   0.476223   6.993485   0.000006
    24  H   -0.000000   0.000000   0.000000  -0.000001   0.000006   0.268684
 Mulliken charges:
               1
     1  N   -0.713665
     2  H    0.466631
     3  H    0.451486
     4  C   -0.183972
     5  H    0.223032
     6  H    0.215977
     7  C   -0.367003
     8  H    0.190243
     9  H    0.183113
    10  C    0.219098
    11  C   -0.036153
    12  H    0.183282
    13  N   -0.460489
    14  C    0.055945
    15  H    0.216800
    16  C   -0.213689
    17  H    0.165504
    18  C   -0.130603
    19  H    0.165173
    20  C   -0.191261
    21  H    0.175965
    22  C    0.532399
    23  N   -0.611033
    24  H    0.463219
 Sum of Mulliken charges =   1.00000
 Mulliken charges with hydrogens summed into heavy atoms:
               1
     1  N    0.667671
     4  C    0.255037
     7  C    0.006352
    10  C    0.219098
    11  C    0.147129
    13  N   -0.460489
    14  C    0.272746
    16  C   -0.048185
    18  C    0.034570
    20  C   -0.015296
    22  C    0.532399
    23  N   -0.611033
 Electronic spatial extent (au):  <R**2>=           2318.3024
 Charge=              1.0000 electrons
 Dipole moment (field-independent basis, Debye):
    X=             13.2297    Y=              6.9327    Z=              4.0980  Tot=             15.4881
 Quadrupole moment (field-independent basis, Debye-Ang):
   XX=             -0.1537   YY=            -58.3909   ZZ=            -63.4476
   XY=             10.9671   XZ=             11.7387   YZ=              0.7787
 Traceless Quadrupole moment (field-independent basis, Debye-Ang):
   XX=             40.5103   YY=            -17.7268   ZZ=            -22.7835
   XY=             10.9671   XZ=             11.7387   YZ=              0.7787
 Octapole moment (field-independent basis, Debye-Ang**2):
  XXX=            195.7006  YYY=             30.0153  ZZZ=             16.1335  XYY=             13.5400
  XXY=             43.7251  XXZ=             59.9329  XZZ=             39.8135  YZZ=              5.8633
  YYZ=              5.4421  XYZ=             15.6954
 Hexadecapole moment (field-independent basis, Debye-Ang**3):
 XXXX=          -1350.8901 YYYY=           -419.2071 ZZZZ=           -184.3608 XXXY=            154.0679
 XXXZ=            171.0545 YYYX=             30.1553 YYYZ=             -8.8056 ZZZX=             64.6740
 ZZZY=             15.8036 XXYY=           -361.7183 XXZZ=           -344.4173 YYZZ=           -108.6411
 XXYZ=             30.9064 YYXZ=             13.4729 ZZXY=             24.3872
 N-N= 6.822718006261D+02 E-N=-2.544202934374D+03  KE= 5.095620123615D+02
 No NMR shielding tensors so no spin-rotation constants.
 Leave Link  601 at Sun Jul 11 16:25:23 2021, MaxMem=   104857600 cpu:               0.5 elap:               0.2
 (Enter /prod/apps/gaussian/g16b1/l701.exe)
 ... and contract with generalized density number  0.
 Compute integral first derivatives.
 D1PCM: PCM CHGder 1st derivatives, ID1Alg=3 FixD1E=F DoIter=F DoCFld=F I1PDM=0.
 GePol: Maximum number of non-zero 1st derivatives   =     289
 Leave Link  701 at Sun Jul 11 16:25:24 2021, MaxMem=   104857600 cpu:               4.5 elap:               1.2
 (Enter /prod/apps/gaussian/g16b1/l702.exe)
 L702 exits ... SP integral derivatives will be done elsewhere.
 Leave Link  702 at Sun Jul 11 16:25:24 2021, MaxMem=   104857600 cpu:               0.1 elap:               0.0
 (Enter /prod/apps/gaussian/g16b1/l703.exe)
 Integral derivatives from FoFJK, PRISM(SPDF).
 Compute integral first derivatives, UseDBF=F ICtDFT=           0.
 Calling FoFJK, ICntrl=      2127 FMM=F ISym2X=0 I1Cent= 0 IOpClX= 0 NMat=1 NMatS=1 NMatT=0.
 FoFJK:  IHMeth= 1 ICntrl=    2127 DoSepK=F KAlg= 0 I1Cent=           0 FoldK=F
 IRaf=         0 NMat=       1 IRICut=       1 DoRegI=T DoRafI=F ISym2E= 0 IDoP0=0 IntGTp=1.
 FoFCou: FMM=F IPFlag=           0 FMFlag=      100000 FMFlg1=         800
         NFxFlg=           0 DoJE=F BraDBF=F KetDBF=F FulRan=T
         wScrn=  0.000000 ICntrl=      2127 IOpCl=  0 I1Cent=           0 NGrid=           0
         NMat0=    1 NMatS0=      1 NMatT0=    0 NMatD0=    1 NMtDS0=    0 NMtDT0=    0
 Symmetry not used in FoFCou.
 Leave Link  703 at Sun Jul 11 16:25:30 2021, MaxMem=   104857600 cpu:              22.0 elap:               5.5
 (Enter /prod/apps/gaussian/g16b1/l716.exe)
 Dipole        = 5.20495511D+00 2.72751979D+00 1.61229467D+00
 ***** Axes restored to original set *****
 -------------------------------------------------------------------
 Center     Atomic                   Forces (Hartrees/Bohr)
 Number     Number              X              Y              Z
 -------------------------------------------------------------------
      1        7           0.017161805    0.038208115   -0.007498839
      2        1          -0.004893456    0.002960098    0.027142577
      3        1           0.019363140   -0.018890056    0.003090899
      4        6          -0.006582464    0.022777552   -0.031511306
      5        1          -0.000328856   -0.010795225    0.017209171
      6        1          -0.001006432   -0.005036113    0.006034989
      7        6           0.009749508   -0.006543848   -0.011640175
      8        1          -0.004362651    0.008278182    0.007984891
      9        1           0.002039434   -0.004604875   -0.004793113
     10        6          -0.031876614    0.009277758    0.024400769
     11        6          -0.028732112   -0.032614354   -0.016678884
     12        1           0.002551301    0.000588709    0.001467656
     13        7           0.022355110   -0.023418673    0.002169573
     14        6           0.051890508    0.054035741    0.008030421
     15        1          -0.000444018    0.003423587   -0.005994013
     16        6          -0.023986130   -0.018594323    0.002379851
     17        1          -0.005264231   -0.006190316    0.005073226
     18        6          -0.003163238   -0.017440315   -0.016203789
     19        1          -0.001201863    0.009114904    0.000082609
     20        6           0.027431205   -0.014825634    0.012846589
     21        1          -0.005233759   -0.000367418   -0.002178766
     22        6           0.000979817   -0.002233661   -0.000783727
     23        7          -0.011975503    0.030227218   -0.013049248
     24        1          -0.024470502   -0.017337055   -0.007581361
 -------------------------------------------------------------------
 Cartesian Forces:  Max     0.054035741 RMS     0.017287194
 Leave Link  716 at Sun Jul 11 16:25:30 2021, MaxMem=   104857600 cpu:               0.1 elap:               0.0
 (Enter /prod/apps/gaussian/g16b1/l103.exe)

 GradGradGradGradGradGradGradGradGradGradGradGradGradGradGradGradGradGrad
 Berny optimization.
 FormGI is forming the generalized inverse of G from B-inverse, IUseBI=4.
 Internal  Forces:  Max     0.043721019 RMS     0.010617370
 Search for a local minimum.
 Step number   1 out of a maximum of  138
 All quantities printed in internal units (Hartrees-Bohrs-Radians)
 RMS Force = .10617D-01 SwitMx=.10000D-02 MixMth= 1
 Mixed Optimization -- RFO/linear search
 Second derivative matrix not updated -- first step.
 ITU=  0
     Eigenvalues ---    0.00442   0.00553   0.00590   0.01604   0.01708
     Eigenvalues ---    0.01743   0.01814   0.01908   0.02012   0.02108
     Eigenvalues ---    0.02197   0.02241   0.02370   0.02620   0.02699
     Eigenvalues ---    0.04008   0.04081   0.04993   0.05343   0.05926
     Eigenvalues ---    0.05928   0.07688   0.09385   0.11604   0.12801
     Eigenvalues ---    0.15006   0.15572   0.15760   0.15887   0.15992
     Eigenvalues ---    0.16000   0.16000   0.16000   0.21749   0.21833
     Eigenvalues ---    0.21842   0.22572   0.23627   0.24476   0.24629
     Eigenvalues ---    0.24885   0.29935   0.31024   0.33884   0.34447
     Eigenvalues ---    0.34473   0.34510   0.34612   0.35392   0.35414
     Eigenvalues ---    0.35421   0.35633   0.35695   0.36829   0.40464
     Eigenvalues ---    0.40661   0.43987   0.46842   0.47682   0.47705
     Eigenvalues ---    0.47710   0.48826   0.49849   0.51303   0.55559
     Eigenvalues ---    0.62014
 RFO step:  Lambda=-4.64332299D-02 EMin= 4.41517841D-03
 Linear search not attempted -- first point.
 Maximum step size (   0.300) exceeded in Quadratic search.
    -- Step size scaled by   0.865
 Iteration  1 RMS(Cart)=  0.06692813 RMS(Int)=  0.00189591
 Iteration  2 RMS(Cart)=  0.00378257 RMS(Int)=  0.00078784
 Iteration  3 RMS(Cart)=  0.00000736 RMS(Int)=  0.00078783
 Iteration  4 RMS(Cart)=  0.00000001 RMS(Int)=  0.00078783
 ITry= 1 IFail=0 DXMaxC= 3.14D-01 DCOld= 1.00D+10 DXMaxT= 3.00D-01 DXLimC= 3.00D+00 Rises=F
 Variable       Old X    -DE/DX   Delta X   Delta X   Delta X     New X
                                 (Linear)    (Quad)   (Total)
    R1        1.88949   0.02712   0.00000   0.04481   0.04481   1.93430
    R2        1.88955   0.02675   0.00000   0.04421   0.04421   1.93375
    R3        2.80827   0.00384   0.00000   0.00862   0.00862   2.81689
    R4        1.88979   0.03077   0.00000   0.05087   0.05087   1.94066
    R5        2.06540  -0.00270   0.00000  -0.00597  -0.00597   2.05943
    R6        2.06583  -0.00216   0.00000  -0.00479  -0.00479   2.06104
    R7        2.88094   0.01055   0.00000   0.02638   0.02638   2.90732
    R8        2.06477   0.00020   0.00000   0.00044   0.00044   2.06521
    R9        2.06309   0.00265   0.00000   0.00583   0.00583   2.06892
   R10        2.85967  -0.00276   0.00000  -0.00670  -0.00670   2.85296
   R11        2.56327   0.03049   0.00000   0.04675   0.04672   2.60999
   R12        2.54100   0.02237   0.00000   0.03350   0.03344   2.57444
   R13        2.04561  -0.00196   0.00000  -0.00421  -0.00421   2.04140
   R14        2.54428   0.03240   0.00000   0.04579   0.04587   2.59015
   R15        2.64783  -0.01332   0.00000  -0.02506  -0.02443   2.62339
   R16        2.66666  -0.00196   0.00000  -0.00513  -0.00492   2.66174
   R17        2.04660  -0.00374   0.00000  -0.00803  -0.00803   2.03857
   R18        2.68910  -0.04372   0.00000  -0.08443  -0.08407   2.60503
   R19        2.05007  -0.00024   0.00000  -0.00051  -0.00051   2.04956
   R20        2.71030  -0.00973   0.00000  -0.01977  -0.02003   2.69027
   R21        2.05043  -0.00082   0.00000  -0.00177  -0.00177   2.04866
   R22        2.60007   0.00278   0.00000   0.00657   0.00605   2.60612
   R23        2.04996  -0.00221   0.00000  -0.00476  -0.00476   2.04520
   R24        2.62029   0.02136   0.00000   0.03817   0.03781   2.65810
   R25        2.47621   0.03351   0.00000   0.04149   0.04145   2.51766
    A1        1.91045  -0.00528   0.00000  -0.02122  -0.02154   1.88891
    A2        1.91089   0.00619   0.00000   0.02612   0.02590   1.93679
    A3        1.91054  -0.00422   0.00000  -0.01823  -0.01833   1.89220
    A4        1.91018   0.00496   0.00000   0.02105   0.02084   1.93103
    A5        1.91126  -0.00356   0.00000  -0.01528  -0.01536   1.89590
    A6        1.91048   0.00192   0.00000   0.00758   0.00749   1.91797
    A7        2.04918  -0.01875   0.00000  -0.10937  -0.11059   1.93859
    A8        1.90612  -0.00423   0.00000  -0.02156  -0.02347   1.88265
    A9        1.87859   0.01373   0.00000   0.04695   0.04776   1.92636
   A10        1.85969   0.00564   0.00000   0.02385   0.01986   1.87955
   A11        1.86555   0.00585   0.00000   0.04860   0.05018   1.91573
   A12        1.90071  -0.00151   0.00000   0.01942   0.01942   1.92013
   A13        2.00551  -0.01410   0.00000  -0.07378  -0.07343   1.93208
   A14        1.86232   0.00728   0.00000   0.04017   0.04048   1.90280
   A15        1.95519   0.00422   0.00000   0.01382   0.01372   1.96892
   A16        1.84218   0.00166   0.00000   0.00843   0.00918   1.85136
   A17        1.85136   0.00763   0.00000   0.03734   0.03746   1.88882
   A18        1.94551  -0.00745   0.00000  -0.02893  -0.02931   1.91620
   A19        2.17876   0.01114   0.00000   0.03131   0.03149   2.21025
   A20        2.15959  -0.00711   0.00000  -0.02297  -0.02312   2.13648
   A21        1.93179  -0.00338   0.00000  -0.00003  -0.00143   1.93035
   A22        2.25595   0.00412   0.00000   0.02082   0.02017   2.27613
   A23        1.86422  -0.00347   0.00000  -0.00333  -0.00555   1.85866
   A24        2.12353   0.00146   0.00000   0.00720   0.00606   2.12959
   A25        2.26701   0.00485   0.00000   0.01689   0.01691   2.28391
   A26        1.83457   0.00597   0.00000   0.01682   0.01587   1.85044
   A27        2.18100  -0.01083   0.00000  -0.03409  -0.03324   2.14776
   A28        2.10094  -0.01821   0.00000  -0.05225  -0.05326   2.04769
   A29        1.92545   0.03410   0.00000   0.10015   0.10035   2.02580
   A30        2.23935  -0.01490   0.00000  -0.03756  -0.03840   2.20094
   A31        2.11433  -0.00262   0.00000  -0.01215  -0.01204   2.10230
   A32        2.17640  -0.01151   0.00000  -0.04603  -0.04621   2.13019
   A33        1.99182   0.01411   0.00000   0.05787   0.05790   2.04972
   A34        1.97552   0.01048   0.00000   0.04321   0.04357   2.01909
   A35        2.11307  -0.00222   0.00000  -0.00377  -0.00508   2.10800
   A36        2.18660  -0.00787   0.00000  -0.03408  -0.03400   2.15259
   A37        2.12777  -0.00025   0.00000   0.00028   0.00041   2.12818
   A38        2.01017   0.01074   0.00000   0.04620   0.04469   2.05486
   A39        2.13470  -0.00986   0.00000  -0.03963  -0.03938   2.09532
   A40        2.13697  -0.01934   0.00000  -0.04932  -0.04932   2.08765
   A41        1.92707   0.00260   0.00000   0.00268   0.00209   1.92916
   A42        2.21786   0.01675   0.00000   0.04694   0.04752   2.26538
   A43        1.84651   0.00015   0.00000   0.00699   0.00566   1.85216
    D1        1.01965  -0.00499   0.00000  -0.03008  -0.02847   0.99118
    D2       -1.09864   0.00451   0.00000   0.03486   0.03384  -1.06480
    D3        3.12358   0.00087   0.00000  -0.00301  -0.00343   3.12015
    D4       -1.07439  -0.00534   0.00000  -0.03296  -0.03147  -1.10586
    D5        3.09049   0.00416   0.00000   0.03199   0.03085   3.12134
    D6        1.02953   0.00052   0.00000  -0.00589  -0.00642   1.02311
    D7        3.11400  -0.00520   0.00000  -0.03177  -0.03021   3.08378
    D8        0.99570   0.00430   0.00000   0.03317   0.03210   1.02780
    D9       -1.06526   0.00067   0.00000  -0.00471  -0.00517  -1.07043
   D10        2.84743   0.00344   0.00000   0.03523   0.03497   2.88240
   D11        0.81221   0.00453   0.00000   0.03979   0.04003   0.85224
   D12       -1.32143   0.00633   0.00000   0.04040   0.04012  -1.28132
   D13       -1.21979  -0.00724   0.00000  -0.03851  -0.03859  -1.25838
   D14        3.02818  -0.00616   0.00000  -0.03395  -0.03354   2.99464
   D15        0.89453  -0.00435   0.00000  -0.03334  -0.03345   0.86108
   D16        0.78298   0.00162   0.00000   0.02399   0.02386   0.80684
   D17       -1.25224   0.00270   0.00000   0.02855   0.02892  -1.22332
   D18        2.89730   0.00450   0.00000   0.02915   0.02900   2.92631
   D19        1.62092   0.00829   0.00000   0.07176   0.07143   1.69236
   D20       -1.33151   0.00391   0.00000   0.01213   0.01220  -1.31932
   D21       -2.46120  -0.00131   0.00000   0.01433   0.01418  -2.44702
   D22        0.86955  -0.00568   0.00000  -0.04530  -0.04506   0.82449
   D23       -0.46454   0.00126   0.00000   0.03100   0.03089  -0.43365
   D24        2.86621  -0.00312   0.00000  -0.02864  -0.02835   2.83786
   D25        0.26707  -0.00125   0.00000  -0.02796  -0.02909   0.23798
   D26        3.10828   0.00651   0.00000   0.06372   0.06251  -3.11239
   D27       -3.04245   0.00204   0.00000   0.02225   0.02173  -3.02073
   D28       -0.20124   0.00980   0.00000   0.11393   0.11333  -0.08791
   D29        3.13481  -0.00198   0.00000  -0.03481  -0.03657   3.09824
   D30        0.15895  -0.00732   0.00000  -0.09056  -0.09101   0.06794
   D31       -2.94968  -0.00581   0.00000  -0.07223  -0.07184  -3.02152
   D32        0.15515  -0.00672   0.00000  -0.08449  -0.08472   0.07043
   D33       -0.08064   0.00188   0.00000   0.01402   0.01350  -0.06714
   D34        3.02418   0.00097   0.00000   0.00176   0.00062   3.02481
   D35       -0.08757   0.00136   0.00000   0.00758   0.00692  -0.08064
   D36       -3.04559  -0.00256   0.00000  -0.04323  -0.04361  -3.08920
   D37        3.09735   0.00203   0.00000   0.02081   0.02054   3.11789
   D38        0.13932  -0.00189   0.00000  -0.03001  -0.02999   0.10934
   D39        3.02737   0.00344   0.00000   0.03922   0.03933   3.06670
   D40       -0.06319   0.00255   0.00000   0.03173   0.03174  -0.03144
   D41       -0.14864   0.00299   0.00000   0.02905   0.02895  -0.11969
   D42        3.04398   0.00210   0.00000   0.02155   0.02137   3.06535
   D43       -3.07680   0.00027   0.00000  -0.00116  -0.00204  -3.07884
   D44        0.02427  -0.00011   0.00000  -0.00978  -0.01024   0.01403
   D45        0.26685  -0.00428   0.00000  -0.05703  -0.05771   0.20914
   D46       -2.91526  -0.00466   0.00000  -0.06565  -0.06592  -2.98118
   D47        3.07851   0.00191   0.00000   0.02147   0.02006   3.09857
   D48       -0.19172   0.00443   0.00000   0.06195   0.06172  -0.13000
   D49       -0.10108   0.00125   0.00000   0.01213   0.01073  -0.09035
   D50        2.91188   0.00378   0.00000   0.05261   0.05239   2.96427
   D51       -3.11279  -0.00113   0.00000  -0.01619  -0.01625  -3.12903
   D52        0.18096  -0.00480   0.00000  -0.06200  -0.06299   0.11797
   D53       -0.11615   0.00319   0.00000   0.03572   0.03488  -0.08127
   D54       -3.10559  -0.00048   0.00000  -0.01009  -0.01187  -3.11746
   D55       -0.02557   0.00311   0.00000   0.02724   0.02624   0.00067
   D56        3.05607   0.00346   0.00000   0.03398   0.03323   3.08929
   D57       -3.01434  -0.00151   0.00000  -0.02267  -0.02324  -3.03758
   D58        0.06730  -0.00116   0.00000  -0.01593  -0.01626   0.05104
   D59       -0.05655   0.00244   0.00000   0.03419   0.03484  -0.02171
   D60        3.13903   0.00284   0.00000   0.02987   0.03002  -3.11414
         Item               Value     Threshold  Converged?
 Maximum Force            0.043721     0.000450     NO 
 RMS     Force            0.010617     0.000300     NO 
 Maximum Displacement     0.313651     0.001800     NO 
 RMS     Displacement     0.066938     0.001200     NO 
 Predicted change in Energy=-2.711338D-02
 Lowest energy point so far.  Saving SCF results.
 GradGradGradGradGradGradGradGradGradGradGradGradGradGradGradGradGradGrad

 Leave Link  103 at Sun Jul 11 16:25:30 2021, MaxMem=   104857600 cpu:               0.1 elap:               0.0
 (Enter /prod/apps/gaussian/g16b1/l202.exe)
                          Input orientation:                          
 ---------------------------------------------------------------------
 Center     Atomic      Atomic             Coordinates (Angstroms)
 Number     Number       Type             X           Y           Z
 ---------------------------------------------------------------------
      1          7           0       -2.746579    0.423093    2.036816
      2          1           0       -2.906886    0.772535    2.985459
      3          1           0       -1.926394   -0.188538    2.055370
      4          6           0       -2.541181    1.548627    1.081317
      5          1           0       -1.714167    2.184423    1.396726
      6          1           0       -3.446127    2.157397    1.081839
      7          6           0       -2.271270    1.007666   -0.333411
      8          1           0       -2.379687    1.800761   -1.077449
      9          1           0       -3.028819    0.256268   -0.578687
     10          6           0       -0.892580    0.409754   -0.478250
     11          6           0       -0.560308   -0.927629   -0.385675
     12          1           0       -1.187363   -1.807229   -0.393977
[...]
                 (A) (A) (A) (A) (A) (A) (A) (A) (A) (A) (A) (A)
                 (A) (A) (A) (A) (A) (A) (A) (A) (A) (A) (A) (A)
                 (A) (A) (A) (A) (A) (A) (A) (A) (A) (A) (A) (A)
                 (A) (A) (A) (A) (A) (A) (A) (A) (A) (A) (A) (A)
                 (A) (A) (A) (A) (A) (A) (A) (A) (A) (A) (A) (A)
                 (A) (A) (A) (A) (A) (A) (A) (A) (A) (A) (A) (A)
                 (A) (A) (A) (A) (A) (A) (A) (A) (A) (A) (A) (A)
                 (A) (A) (A) (A) (A) (A) (A) (A) (A) (A) (A) (A)
                 (A) (A) (A) (A) (A) (A) (A) (A) (A) (A) (A) (A)
                 (A) (A) (A) (A) (A) (A) (A) (A) (A) (A) (A) (A)
                 (A) (A) (A) (A) (A) (A) (A) (A) (A) (A) (A) (A)
                 (A) (A) (A) (A) (A) (A) (A) (A) (A) (A) (A) (A)
                 (A) (A) (A) (A) (A) (A) (A) (A) (A) (A) (A) (A)
                 (A) (A) (A) (A) (A) (A) (A) (A) (A) (A) (A) (A)
                 (A) (A) (A) (A) (A) (A) (A) (A) (A) (A) (A) (A)
                 (A) (A) (A) (A) (A) (A) (A) (A) (A) (A) (A) (A)
                 (A) (A) (A) (A) (A) (A) (A) (A) (A) (A) (A) (A)
                 (A) (A) (A) (A) (A) (A) (A) (A) (A) (A) (A) (A)
                 (A) (A) (A) (A) (A) (A) (A) (A) (A) (A) (A) (A)
                 (A) (A) (A) (A) (A) (A) (A) (A) (A) (A) (A) (A)
                 (A) (A) (A) (A) (A) (A) (A) (A) (A) (A) (A) (A)
                 (A) (A) (A) (A) (A) (A) (A) (A) (A) (A) (A) (A)
                 (A) (A) (A) (A) (A) (A) (A) (A) (A) (A) (A) (A)
                 (A) (A) (A) (A) (A) (A) (A) (A) (A) (A) (A) (A)
                 (A) (A) (A) (A) (A) (A) (A) (A) (A) (A) (A) (A)
                 (A) (A) (A) (A) (A) (A) (A) (A) (A) (A) (A) (A)
                 (A) (A) (A) (A) (A)
 The electronic state is 1-A.
 Alpha  occ. eigenvalues --  -15.88466 -15.76917 -15.66772 -11.46457 -11.42939
 Alpha  occ. eigenvalues --  -11.41003 -11.39883 -11.39732 -11.38877 -11.36721
 Alpha  occ. eigenvalues --  -11.35633 -11.35613  -1.49352  -1.47924  -1.33064
 Alpha  occ. eigenvalues --   -1.23362  -1.21639  -1.13735  -1.12064  -1.05026
 Alpha  occ. eigenvalues --   -0.97710  -0.95435  -0.95050  -0.94271  -0.91070
 Alpha  occ. eigenvalues --   -0.83899  -0.82626  -0.80577  -0.77639  -0.75865
 Alpha  occ. eigenvalues --   -0.75072  -0.73700  -0.72529  -0.70943  -0.68656
 Alpha  occ. eigenvalues --   -0.66806  -0.64740  -0.63329  -0.58164  -0.55608
 Alpha  occ. eigenvalues --   -0.54840  -0.44342  -0.40473
 Alpha virt. eigenvalues --   -0.10374  -0.07033  -0.06867  -0.05230  -0.03999
 Alpha virt. eigenvalues --   -0.03487  -0.03184  -0.03057  -0.02482  -0.02038
 Alpha virt. eigenvalues --   -0.01515  -0.01111  -0.00505   0.00457   0.00722
 Alpha virt. eigenvalues --    0.01310   0.02125   0.02443   0.02809   0.03438
 Alpha virt. eigenvalues --    0.03599   0.04163   0.04535   0.04606   0.04726
 Alpha virt. eigenvalues --    0.05538   0.06301   0.06361   0.06710   0.06882
 Alpha virt. eigenvalues --    0.06936   0.07633   0.08074   0.08180   0.08509
 Alpha virt. eigenvalues --    0.09138   0.09490   0.09879   0.10619   0.10905
 Alpha virt. eigenvalues --    0.11119   0.11617   0.12011   0.12494   0.13416
 Alpha virt. eigenvalues --    0.13641   0.14504   0.15191   0.15637   0.16402
 Alpha virt. eigenvalues --    0.17523   0.18411   0.19020   0.19358   0.19906
 Alpha virt. eigenvalues --    0.20329   0.20826   0.21003   0.21380   0.22212
 Alpha virt. eigenvalues --    0.22665   0.23031   0.23367   0.23848   0.23901
 Alpha virt. eigenvalues --    0.24603   0.25186   0.26002   0.26791   0.27280
 Alpha virt. eigenvalues --    0.27788   0.28924   0.29030   0.29222   0.29670
 Alpha virt. eigenvalues --    0.29839   0.31141   0.31427   0.31936   0.32787
 Alpha virt. eigenvalues --    0.32856   0.33530   0.33923   0.34491   0.34820
 Alpha virt. eigenvalues --    0.35318   0.35962   0.36944   0.36996   0.37183
 Alpha virt. eigenvalues --    0.37972   0.38594   0.39195   0.39715   0.40380
 Alpha virt. eigenvalues --    0.41212   0.41822   0.42115   0.43903   0.44205
 Alpha virt. eigenvalues --    0.44451   0.44735   0.45443   0.46419   0.46484
 Alpha virt. eigenvalues --    0.46833   0.47369   0.48712   0.49781   0.50131
 Alpha virt. eigenvalues --    0.50478   0.51537   0.51741   0.52641   0.53078
 Alpha virt. eigenvalues --    0.54645   0.54777   0.55397   0.56064   0.56255
 Alpha virt. eigenvalues --    0.57346   0.57684   0.58016   0.58105   0.58318
 Alpha virt. eigenvalues --    0.59055   0.60791   0.61000   0.61960   0.62197
 Alpha virt. eigenvalues --    0.62550   0.63221   0.64380   0.65087   0.65256
 Alpha virt. eigenvalues --    0.65740   0.66328   0.66678   0.66777   0.67662
 Alpha virt. eigenvalues --    0.68137   0.69014   0.69874   0.70799   0.72557
 Alpha virt. eigenvalues --    0.72911   0.73571   0.74359   0.75334   0.75986
 Alpha virt. eigenvalues --    0.76204   0.76355   0.77513   0.79480   0.79643
 Alpha virt. eigenvalues --    0.80011   0.80662   0.81438   0.82293   0.82468
 Alpha virt. eigenvalues --    0.83205   0.83658   0.84412   0.84622   0.85406
 Alpha virt. eigenvalues --    0.86864   0.87637   0.88249   0.89782   0.90107
 Alpha virt. eigenvalues --    0.90566   0.92033   0.93085   0.93787   0.94837
 Alpha virt. eigenvalues --    0.96000   0.96064   0.97707   0.98303   0.99883
 Alpha virt. eigenvalues --    1.02477   1.02736   1.03957   1.04929   1.06440
 Alpha virt. eigenvalues --    1.07178   1.08930   1.09633   1.10282   1.11747
 Alpha virt. eigenvalues --    1.12957   1.15285   1.15909   1.17634   1.19277
 Alpha virt. eigenvalues --    1.22540   1.24803   1.26127   1.26518   1.29996
 Alpha virt. eigenvalues --    1.31253   1.31799   1.33158   1.35720   1.36256
 Alpha virt. eigenvalues --    1.37444   1.41203   1.43120   1.44910   1.46495
 Alpha virt. eigenvalues --    1.47297   1.48490   1.49206   1.50230   1.50971
 Alpha virt. eigenvalues --    1.51236   1.52904   1.53470   1.55368   1.56522
 Alpha virt. eigenvalues --    1.56952   1.57703   1.57786   1.60896   1.61566
 Alpha virt. eigenvalues --    1.63467   1.64536   1.64907   1.67746   1.68097
 Alpha virt. eigenvalues --    1.68446   1.69102   1.70088   1.72208   1.72960
 Alpha virt. eigenvalues --    1.74353   1.75842   1.77507   1.78405   1.80468
 Alpha virt. eigenvalues --    1.81099   1.82568   1.83022   1.83476   1.84579
 Alpha virt. eigenvalues --    1.85614   1.86894   1.88871   1.89630   1.91143
 Alpha virt. eigenvalues --    1.92459   1.92952   1.94303   1.94837   1.97185
 Alpha virt. eigenvalues --    1.99780   2.00188   2.01013   2.02054   2.03746
 Alpha virt. eigenvalues --    2.05297   2.05598   2.07245   2.07860   2.10058
 Alpha virt. eigenvalues --    2.10686   2.12397   2.13195   2.15292   2.15652
 Alpha virt. eigenvalues --    2.17063   2.17848   2.18166   2.19598   2.21211
 Alpha virt. eigenvalues --    2.22201   2.23536   2.24627   2.25674   2.27707
 Alpha virt. eigenvalues --    2.28752   2.30374   2.31315   2.32874   2.34560
 Alpha virt. eigenvalues --    2.35379   2.36157   2.36731   2.40309   2.42780
 Alpha virt. eigenvalues --    2.44907   2.45605   2.47467   2.48402   2.50297
 Alpha virt. eigenvalues --    2.54517   2.55055   2.56487   2.56610   2.61889
 Alpha virt. eigenvalues --    2.63042   2.65446   2.67847   2.68869   2.69156
 Alpha virt. eigenvalues --    2.71453   2.72473   2.75602   2.76482   2.78628
 Alpha virt. eigenvalues --    2.79289   2.80772   2.82733   2.83657   2.85716
 Alpha virt. eigenvalues --    2.86475   2.88899   2.91818   2.94801   2.96201
 Alpha virt. eigenvalues --    2.98342   3.02478   3.04117   3.05585   3.09677
 Alpha virt. eigenvalues --    3.12153   3.14994   3.22098   3.23451   3.35400
 Alpha virt. eigenvalues --    3.37403   3.37639   3.41295   3.45081   3.48254
 Alpha virt. eigenvalues --    3.51838   3.59431   3.64167   3.81249   4.20632
 Alpha virt. eigenvalues --    4.44394
          Condensed to atoms (all electrons):
               1          2          3          4          5          6
     1  N    6.497358   0.432181   0.407806  -0.070336  -0.088197  -0.103205
     2  H    0.432181   0.599585  -0.064023  -0.039727  -0.030612  -0.013375
     3  H    0.407806  -0.064023   0.490345  -0.053504  -0.021174   0.021927
     4  C   -0.070336  -0.039727  -0.053504   4.647800   0.239673   0.263914
     5  H   -0.088197  -0.030612  -0.021174   0.239673   1.163100  -0.188341
     6  H   -0.103205  -0.013375   0.021927   0.263914  -0.188341   1.222423
     7  C   -0.076128   0.038878  -0.039384   0.597651  -0.042483  -0.053294
     8  H    0.027131   0.002144  -0.000260   0.008213  -0.030657  -0.060973
     9  H    0.027659  -0.003710  -0.001501  -0.240710   0.060278  -0.022056
    10  C    0.024126  -0.008627   0.044021  -0.190754  -0.023671   0.112515
    11  C    0.055856  -0.000954  -0.028664   0.053318  -0.027799  -0.023014
    12  H   -0.003989  -0.000015  -0.002616   0.020828  -0.001165  -0.000204
    13  N    0.008038  -0.002326   0.005733  -0.013940   0.006525  -0.002086
    14  C    0.004878  -0.000826   0.001905   0.006732   0.004038  -0.002785
    15  H    0.000643  -0.000076  -0.000810  -0.001681   0.000394  -0.000017
    16  C    0.000410   0.000390  -0.004483   0.003501   0.000042  -0.000200
    17  H    0.000015   0.000010   0.000023  -0.000083   0.000012  -0.000007
    18  C   -0.000765  -0.000409   0.002955  -0.000565  -0.000234   0.000744
    19  H   -0.000032   0.000001  -0.000096   0.000234   0.000062  -0.000000
    20  C    0.002374  -0.000305  -0.000150  -0.048069  -0.004852   0.003202
    21  H    0.000114  -0.000009   0.000291  -0.000093   0.000080   0.000235
    22  C   -0.041534  -0.006591   0.012204  -0.091158   0.047222   0.018771
    23  N   -0.000495  -0.001826  -0.002937   0.022344   0.008635  -0.001610
    24  H    0.367965  -0.068893  -0.042235  -0.000002   0.025959  -0.039602
               7          8          9         10         11         12
     1  N   -0.076128   0.027131   0.027659   0.024126   0.055856  -0.003989
     2  H    0.038878   0.002144  -0.003710  -0.008627  -0.000954  -0.000015
     3  H   -0.039384  -0.000260  -0.001501   0.044021  -0.028664  -0.002616
     4  C    0.597651   0.008213  -0.240710  -0.190754   0.053318   0.020828
     5  H   -0.042483  -0.030657   0.060278  -0.023671  -0.027799  -0.001165
     6  H   -0.053294  -0.060973  -0.022056   0.112515  -0.023014  -0.000204
     7  C    5.217371   0.254883   0.129850  -0.052712  -0.007091  -0.023770
     8  H    0.254883   0.941986  -0.161187  -0.226907   0.162054   0.011053
     9  H    0.129850  -0.161187   1.276597   0.181247  -0.175171  -0.006569
    10  C   -0.052712  -0.226907   0.181247   7.797769  -1.735097  -0.043037
    11  C   -0.007091   0.162054  -0.175171  -1.735097   9.098894  -0.333303
    12  H   -0.023770   0.011053  -0.006569  -0.043037  -0.333303   1.612313
    13  N    0.007273  -0.014051   0.052272   0.462177  -0.264058  -0.011737
    14  C   -0.042334  -0.001598   0.005031  -0.183465  -0.797880   0.155952
    15  H    0.018635  -0.000563   0.002987   0.023896  -0.032012  -0.054256
    16  C    0.051943   0.002555  -0.003633   0.013605   0.297194  -0.023308
    17  H    0.000031   0.000070   0.000088  -0.001380   0.024287  -0.001605
    18  C   -0.031117  -0.003398   0.000796  -0.326539  -0.059085   0.035422
    19  H    0.000308   0.000083  -0.000027   0.020444  -0.006804   0.001568
    20  C   -0.056353  -0.006407   0.012664   0.675763  -0.685342  -0.046111
    21  H    0.002353   0.000542   0.000164  -0.049403   0.072336   0.002074
    22  C   -0.238967  -0.028319   0.026372  -0.618873  -0.971653   0.152354
    23  N   -0.076619   0.037019  -0.035670   0.009890   0.280982   0.023373
    24  H   -0.025532   0.003544   0.003540  -0.040241   0.034399   0.001661
              13         14         15         16         17         18
     1  N    0.008038   0.004878   0.000643   0.000410   0.000015  -0.000765
     2  H   -0.002326  -0.000826  -0.000076   0.000390   0.000010  -0.000409
     3  H    0.005733   0.001905  -0.000810  -0.004483   0.000023   0.002955
     4  C   -0.013940   0.006732  -0.001681   0.003501  -0.000083  -0.000565
     5  H    0.006525   0.004038   0.000394   0.000042   0.000012  -0.000234
     6  H   -0.002086  -0.002785  -0.000017  -0.000200  -0.000007   0.000744
     7  C    0.007273  -0.042334   0.018635   0.051943   0.000031  -0.031117
     8  H   -0.014051  -0.001598  -0.000563   0.002555   0.000070  -0.003398
     9  H    0.052272   0.005031   0.002987  -0.003633   0.000088   0.000796
    10  C    0.462177  -0.183465   0.023896   0.013605  -0.001380  -0.326539
    11  C   -0.264058  -0.797880  -0.032012   0.297194   0.024287  -0.059085
    12  H   -0.011737   0.155952  -0.054256  -0.023308  -0.001605   0.035422
    13  N    8.034772  -0.075919  -0.038464  -0.144897   0.026379  -0.380076
    14  C   -0.075919   7.496556  -0.379128  -1.479561   0.277436   0.867700
    15  H   -0.038464  -0.379128   1.719170   0.365434  -0.066454   0.011233
    16  C   -0.144897  -1.479561   0.365434   7.531367  -0.569651  -1.187732
    17  H    0.026379   0.277436  -0.066454  -0.569651   1.611451   0.269823
    18  C   -0.380076   0.867700   0.011233  -1.187732   0.269823   7.554802
    19  H    0.007215  -0.123367  -0.009690   0.254898  -0.061433  -0.404564
    20  C    0.079492  -0.760932   0.038153   1.307018  -0.090881  -1.536012
    21  H    0.037096   0.020832  -0.001661  -0.140601  -0.009003   0.270031
    22  C    0.159459   0.426092  -0.109313  -1.187335   0.021515   1.057310
    23  N   -0.202343  -0.087896   0.004349   0.112013  -0.001483  -0.081644
    24  H   -0.000629   0.002030   0.000143   0.000865  -0.000006  -0.000593
              19         20         21         22         23         24
     1  N   -0.000032   0.002374   0.000114  -0.041534  -0.000495   0.367965
     2  H    0.000001  -0.000305  -0.000009  -0.006591  -0.001826  -0.068893
     3  H   -0.000096  -0.000150   0.000291   0.012204  -0.002937  -0.042235
     4  C    0.000234  -0.048069  -0.000093  -0.091158   0.022344  -0.000002
     5  H    0.000062  -0.004852   0.000080   0.047222   0.008635   0.025959
     6  H   -0.000000   0.003202   0.000235   0.018771  -0.001610  -0.039602
     7  C    0.000308  -0.056353   0.002353  -0.238967  -0.076619  -0.025532
     8  H    0.000083  -0.006407   0.000542  -0.028319   0.037019   0.003544
     9  H   -0.000027   0.012664   0.000164   0.026372  -0.035670   0.003540
    10  C    0.020444   0.675763  -0.049403  -0.618873   0.009890  -0.040241
    11  C   -0.006804  -0.685342   0.072336  -0.971653   0.280982   0.034399
    12  H    0.001568  -0.046111   0.002074   0.152354   0.023373   0.001661
    13  N    0.007215   0.079492   0.037096   0.159459  -0.202343  -0.000629
    14  C   -0.123367  -0.760932   0.020832   0.426092  -0.087896   0.002030
    15  H   -0.009690   0.038153  -0.001661  -0.109313   0.004349   0.000143
    16  C    0.254898   1.307018  -0.140601  -1.187335   0.112013   0.000865
    17  H   -0.061433  -0.090881  -0.009003   0.021515  -0.001483  -0.000006
    18  C   -0.404564  -1.536012   0.270031   1.057310  -0.081644  -0.000593
    19  H    1.505288   0.312006  -0.059217  -0.034412   0.004153   0.000009
    20  C    0.312006   9.845751  -1.018621  -3.709763   0.211896  -0.000229
    21  H   -0.059217  -1.018621   1.645838   0.790348  -0.083045   0.000006
    22  C   -0.034412  -3.709763   0.790348  10.700741  -0.065105  -0.004201
    23  N    0.004153   0.211896  -0.083045  -0.065105   7.967392   0.002111
    24  H    0.000009  -0.000229   0.000006  -0.004201   0.002111   0.540063
 Mulliken charges:
               1
     1  N   -0.471874
     2  H    0.169114
     3  H    0.274628
     4  C    0.886414
     5  H   -0.096832
     6  H   -0.132963
     7  C    0.446606
     8  H    0.083044
     9  H   -0.129313
    10  C    0.135252
    11  C    1.068605
    12  H   -0.464914
    13  N   -0.735906
    14  C    0.666509
    15  H   -0.490912
    16  C    0.800165
    17  H   -0.429153
    18  C   -0.058082
    19  H   -0.406627
    20  C    1.475707
    21  H   -0.480688
    22  C   -0.305166
    23  N   -1.043482
    24  H    0.239867
 Sum of Mulliken charges =   1.00000
 Mulliken charges with hydrogens summed into heavy atoms:
               1
     1  N    0.211735
     4  C    0.656619
     7  C    0.400338
    10  C    0.135252
    11  C    0.603691
    13  N   -0.735906
    14  C    0.175597
    16  C    0.371012
    18  C   -0.464708
    20  C    0.995019
    22  C   -0.305166
    23  N   -1.043482
 Electronic spatial extent (au):  <R**2>=           2349.0110
 Charge=              1.0000 electrons
 Dipole moment (field-independent basis, Debye):
    X=             10.0802    Y=              3.2822    Z=              5.1038  Tot=             11.7657
 Quadrupole moment (field-independent basis, Debye-Ang):
   XX=             -2.3897   YY=            -60.8301   ZZ=            -62.6158
   XY=              3.6945   XZ=             13.2348   YZ=             -0.0524
 Traceless Quadrupole moment (field-independent basis, Debye-Ang):
   XX=             39.5555   YY=            -18.8849   ZZ=            -20.6706
   XY=              3.6945   XZ=             13.2348   YZ=             -0.0524
 Octapole moment (field-independent basis, Debye-Ang**2):
  XXX=            152.3754  YYY=             16.7166  ZZZ=             23.8184  XYY=              1.0170
  XXY=              7.3931  XXZ=             70.3421  XZZ=             52.8940  YZZ=              1.7828
  YYZ=              6.2121  XYZ=              5.7366
 Hexadecapole moment (field-independent basis, Debye-Ang**3):
 XXXX=          -1446.8361 YYYY=           -395.2662 ZZZZ=           -215.8025 XXXY=             40.2952
 XXXZ=            179.0234 YYYX=             15.7135 YYYZ=             -5.2426 ZZZX=             90.3035
 ZZZY=              6.0744 XXYY=           -388.1272 XXZZ=           -332.2552 YYZZ=           -122.6817
 XXYZ=             16.4170 YYXZ=             11.9112 ZZXY=              2.3780
 N-N= 6.779139514769D+02 E-N=-2.534520018790D+03  KE= 5.102712098701D+02
 Leave Link  601 at Sun Jul 11 16:49:08 2021, MaxMem=   262144000 cpu:               2.2 elap:               0.9
 (Enter /prod/apps/gaussian/g16b1/l9999.exe)
 1\1\GINC-PIRINEUS47\SP\RMP2-FC\Aug-CC-pVDZ\C9H12N3(1+)\UBATOR02\11-Jul
 -2021\0\\#p mp2/aug-cc-pVDZ scf=tight maxdisk=180GB geom=allcheck\\SET
 _328_BBB315_conf1.geo_285_285 geometry\\1,1\N,0,-2.574919342,0.5779296
 353,2.1060630733\H,0,-2.7193464156,1.034046928,3.0197453865\H,0,-1.674
 9194827,0.0791873285,2.1486723448\C,0,-2.593658447,1.5793594087,0.9880
 371999\H,0,-1.829996116,2.3210669053,1.2206496653\H,0,-3.5731204168,2.
 0536904932,1.0089066266\C,0,-2.3231865874,0.9121272896,-0.3600366742\H
 ,0,-2.4554202383,1.6869322778,-1.1224379386\H,0,-3.0749119479,0.141446
 3734,-0.5513777377\C,0,-0.9438357679,0.3281491669,-0.4601229732\C,0,-0
 .6071870029,-1.0005378958,-0.6147862489\H,0,-1.2032720334,-1.892707013
 ,-0.7144521351\N,0,0.7721314083,-1.035402774,-0.6442207303\C,0,1.64649
 86056,-2.086362726,-0.7833005652\H,0,1.2072106869,-3.0686172881,-0.891
 5040195\C,0,2.9896166604,-1.8372179993,-0.7772087854\H,0,3.677331712,-
 2.666131746,-0.8867030673\C,0,3.4758884148,-0.5081966105,-0.629463514\
 H,0,4.5448315369,-0.3291124618,-0.6267740077\C,0,2.6003312992,0.541818
 2001,-0.4914076752\H,0,2.9388373573,1.5643602353,-0.3774831138\C,0,1.2
 090753992,0.2906942592,-0.4968535176\N,0,0.1718209089,1.1236798509,-0.
 3837903134\H,0,-3.3198001917,-0.1342018377,1.9938487207\\Version=ES64L
 -G16RevB.01\State=1-A\HF=-510.995669\MP2=-512.748197\RMSD=3.811e-09\PG
 =C01 [X(C9H12N3)]\\@


 REPARTEE - WHAT YOU THINK OF AFTER YOU BECOME A DEPARTEE.
 Job cpu time:       0 days  0 hours 28 minutes 31.2 seconds.
 Elapsed time:       0 days  0 hours  7 minutes 34.4 seconds.
 File lengths (MBytes):  RWF=  16278 Int=      0 D2E=      0 Chk=     13 Scr=      1
 Normal termination of Gaussian 16 at Sun Jul 11 16:49:12 2021.
