 Entering Gaussian System, Link 0=g16
 Initial command:
 /prod/apps/gaussian/g16b1/l1.exe "/tmp/ubator02/1834543/Gau-40955.inp" -scrdir="/tmp/ubator02/1834543/"
 Entering Link 1 = /prod/apps/gaussian/g16b1/l1.exe PID=     40956.
  
 Copyright (c) 1988-2017, Gaussian, Inc.  All Rights Reserved.
  
 This is part of the Gaussian(R) 16 program.  It is based on
 the Gaussian(R) 09 system (copyright 2009, Gaussian, Inc.),
 the Gaussian(R) 03 system (copyright 2003, Gaussian, Inc.),
 the Gaussian(R) 98 system (copyright 1998, Gaussian, Inc.),
 the Gaussian(R) 94 system (copyright 1995, Gaussian, Inc.),
 the Gaussian 92(TM) system (copyright 1992, Gaussian, Inc.),
 the Gaussian 90(TM) system (copyright 1990, Gaussian, Inc.),
 the Gaussian 88(TM) system (copyright 1988, Gaussian, Inc.),
 the Gaussian 86(TM) system (copyright 1986, Carnegie Mellon
 University), and the Gaussian 82(TM) system (copyright 1983,
 Carnegie Mellon University). Gaussian is a federally registered
 trademark of Gaussian, Inc.
  
 This software contains proprietary and confidential information,
 including trade secrets, belonging to Gaussian, Inc.
  
 This software is provided under written license and may be
 used, copied, transmitted, or stored only in accord with that
 written license.
  
 The following legend is applicable only to US Government
 contracts under FAR:
  
                    RESTRICTED RIGHTS LEGEND
  
 Use, reproduction and disclosure by the US Government is
 subject to restrictions as set forth in subparagraphs (a)
 and (c) of the Commercial Computer Software - Restricted
 Rights clause in FAR 52.227-19.
  
 Gaussian, Inc.
 340 Quinnipiac St., Bldg. 40, Wallingford CT 06492
  
  
 ---------------------------------------------------------------
 Warning -- This program may not be used in any manner that
 competes with the business of Gaussian, Inc. or will provide
 assistance to any competitor of Gaussian, Inc.  The licensee
 of this program is prohibited from giving any competitor of
 Gaussian, Inc. access to this program.  By using this program,
 the user acknowledges that Gaussian, Inc. is engaged in the
 business of creating and licensing software in the field of
 computational chemistry and represents and warrants to the
 licensee that it is not a competitor of Gaussian, Inc. and that
 it will not use this program in any manner prohibited above.
 ---------------------------------------------------------------
  

 Cite this work as:
 Gaussian 16, Revision B.01,
 M. J. Frisch, G. W. Trucks, H. B. Schlegel, G. E. Scuseria, 
 M. A. Robb, J. R. Cheeseman, G. Scalmani, V. Barone, 
 G. A. Petersson, H. Nakatsuji, X. Li, M. Caricato, A. V. Marenich, 
 J. Bloino, B. G. Janesko, R. Gomperts, B. Mennucci, H. P. Hratchian, 
 J. V. Ortiz, A. F. Izmaylov, J. L. Sonnenberg, D. Williams-Young, 
 F. Ding, F. Lipparini, F. Egidi, J. Goings, B. Peng, A. Petrone, 
 T. Henderson, D. Ranasinghe, V. G. Zakrzewski, J. Gao, N. Rega, 
 G. Zheng, W. Liang, M. Hada, M. Ehara, K. Toyota, R. Fukuda, 
 J. Hasegawa, M. Ishida, T. Nakajima, Y. Honda, O. Kitao, H. Nakai, 
 T. Vreven, K. Throssell, J. A. Montgomery, Jr., J. E. Peralta, 
 F. Ogliaro, M. J. Bearpark, J. J. Heyd, E. N. Brothers, K. N. Kudin, 
 V. N. Staroverov, T. A. Keith, R. Kobayashi, J. Normand, 
 K. Raghavachari, A. P. Rendell, J. C. Burant, S. S. Iyengar, 
 J. Tomasi, M. Cossi, J. M. Millam, M. Klene, C. Adamo, R. Cammi, 
 J. W. Ochterski, R. L. Martin, K. Morokuma, O. Farkas, 
 J. B. Foresman, and D. J. Fox, Gaussian, Inc., Wallingford CT, 2016.
 
 ******************************************
 Gaussian 16:  ES64L-G16RevB.01 20-Dec-2017
                11-Jul-2021 
 ******************************************
 %mem=800MB
 %nproc=4
 Will use up to    4 processors via shared memory.
 %chk=SET_328_BBB277_conf1.geo_210_285.chk
 -----------------------------------------------------------
 #p b3lyp/6-31G(d) opt freq scrf=(iefpcm,read,solvent=water)
 -----------------------------------------------------------
 1/18=20,19=15,26=3,38=1,40=2/1,3;
 2/9=110,12=2,17=6,18=5,40=1/2;
 3/5=1,6=6,7=1,11=2,25=1,30=1,70=2203,71=1,72=1,74=-5/1,2,3;
 4//1;
 5/5=2,38=5,53=1/2;
 6/7=2,8=2,9=2,10=2,28=1/1;
 7//1,2,3,16;
 1/18=20,19=15,26=3/3(2);
 2/9=110/2;
 99//99;
 2/9=110/2;
 3/5=1,6=6,7=1,11=2,25=1,30=1,70=2205,71=1,72=1,74=-5/1,2,3;
 4/5=5,16=3,69=1/1;
 5/5=2,38=5,53=1/2;
 7//1,2,3,16;
 1/18=20,19=15,26=3/3(-5);
 2/9=110/2;
 6/7=2,8=2,9=2,10=2,19=2,28=1/1;
 99/9=1/99;
 Leave Link    1 at Sun Jul 11 15:59:43 2021, MaxMem=   104857600 cpu:               0.1 elap:               0.0
 (Enter /prod/apps/gaussian/g16b1/l101.exe)
 -----------------------------------------
 SET_328_BBB277_conf1.geo_210_285 geometry
 -----------------------------------------
 Symbolic Z-matrix:
 Charge = -1 Multiplicity = 1
 C                    -3.085     2.37     -0.545 
 H                    -4.07      2.682    -0.192 
 H                    -3.247     2.001    -1.56 
 H                    -2.341     3.165    -0.465 
 C                    -2.608     1.242     0.388 
 C                    -3.389     0.567     1.488 
 N                    -2.811    -0.527     1.973 
 C                    -1.662    -1.056     1.626 
 O                    -1.278    -2.039     2.131 
 O                    -4.54      0.79      1.864 
 C                    -1.347     0.833     0.138 
 H                    -0.69      1.346    -0.553 
 N                    -0.922    -0.363     0.723 
 C                     0.359    -0.871     0.453 
 O                     1.245     0.207     0.103 
 H                     0.706    -1.293     1.408 
 C                     0.582    -1.801    -0.77 
 H                    -0.158    -1.448    -1.492 
 H                     0.397    -2.866    -0.617 
 C                     2.006    -1.563    -1.222 
 F                     2.341    -1.929    -2.471 
 H                     2.72     -2.088    -0.583 
 C                     2.275    -0.077    -0.929 
 H                     2.02      0.485    -1.831 
 C                     3.701     0.205    -0.359 
 H                     4.504    -0.251    -0.944 
 H                     3.86     -0.327     0.583 
 O                     3.971     1.609    -0.269 
 H                     4.648     1.864    -0.921 
 
 ITRead=  0  0  0  0  0  0  0  0  0  0  0  0  0  0  0  0  0  0  0  0
 ITRead=  0  0  0  0  0  0  0  0  0
 MicOpt= -1 -1 -1 -1 -1 -1 -1 -1 -1 -1 -1 -1 -1 -1 -1 -1 -1 -1 -1 -1
 MicOpt= -1 -1 -1 -1 -1 -1 -1 -1 -1
 NAtoms=     29 NQM=       29 NQMF=       0 NMMI=      0 NMMIF=      0
                NMic=       0 NMicF=      0.
                    Isotopes and Nuclear Properties:
 (Nuclear quadrupole moments (NQMom) in fm**2, nuclear magnetic moments (NMagM)
  in nuclear magnetons)

  Atom         1           2           3           4           5           6           7           8           9          10
 IAtWgt=          12           1           1           1          12          12          14          12          16          16
 AtmWgt=  12.0000000   1.0078250   1.0078250   1.0078250  12.0000000  12.0000000  14.0030740  12.0000000  15.9949146  15.9949146
 NucSpn=           0           1           1           1           0           0           2           0           0           0
 AtZEff=  -0.0000000  -0.0000000  -0.0000000  -0.0000000  -0.0000000  -0.0000000  -0.0000000  -0.0000000  -0.0000000  -0.0000000
 NQMom=    0.0000000   0.0000000   0.0000000   0.0000000   0.0000000   0.0000000   2.0440000   0.0000000   0.0000000   0.0000000
 NMagM=    0.0000000   2.7928460   2.7928460   2.7928460   0.0000000   0.0000000   0.4037610   0.0000000   0.0000000   0.0000000
 AtZNuc=   6.0000000   1.0000000   1.0000000   1.0000000   6.0000000   6.0000000   7.0000000   6.0000000   8.0000000   8.0000000

  Atom        11          12          13          14          15          16          17          18          19          20
 IAtWgt=          12           1          14          12          16           1          12           1           1          12
 AtmWgt=  12.0000000   1.0078250  14.0030740  12.0000000  15.9949146   1.0078250  12.0000000   1.0078250   1.0078250  12.0000000
 NucSpn=           0           1           2           0           0           1           0           1           1           0
 AtZEff=  -0.0000000  -0.0000000  -0.0000000  -0.0000000  -0.0000000  -0.0000000  -0.0000000  -0.0000000  -0.0000000  -0.0000000
 NQMom=    0.0000000   0.0000000   2.0440000   0.0000000   0.0000000   0.0000000   0.0000000   0.0000000   0.0000000   0.0000000
 NMagM=    0.0000000   2.7928460   0.4037610   0.0000000   0.0000000   2.7928460   0.0000000   2.7928460   2.7928460   0.0000000
 AtZNuc=   6.0000000   1.0000000   7.0000000   6.0000000   8.0000000   1.0000000   6.0000000   1.0000000   1.0000000   6.0000000

  Atom        21          22          23          24          25          26          27          28          29
 IAtWgt=          19           1          12           1          12           1           1          16           1
 AtmWgt=  18.9984033   1.0078250  12.0000000   1.0078250  12.0000000   1.0078250   1.0078250  15.9949146   1.0078250
 NucSpn=           1           1           0           1           0           1           1           0           1
 AtZEff=  -0.0000000  -0.0000000  -0.0000000  -0.0000000  -0.0000000  -0.0000000  -0.0000000  -0.0000000  -0.0000000
 NQMom=    0.0000000   0.0000000   0.0000000   0.0000000   0.0000000   0.0000000   0.0000000   0.0000000   0.0000000
 NMagM=    2.6288670   2.7928460   0.0000000   2.7928460   0.0000000   2.7928460   2.7928460   0.0000000   2.7928460
 AtZNuc=   9.0000000   1.0000000   6.0000000   1.0000000   6.0000000   1.0000000   1.0000000   8.0000000   1.0000000
 Leave Link  101 at Sun Jul 11 15:59:43 2021, MaxMem=   104857600 cpu:               0.5 elap:               0.1
 (Enter /prod/apps/gaussian/g16b1/l103.exe)

 GradGradGradGradGradGradGradGradGradGradGradGradGradGradGradGradGradGrad
 Berny optimization.
 Initialization pass.
                           ----------------------------
                           !    Initial Parameters    !
                           ! (Angstroms and Degrees)  !
 --------------------------                            --------------------------
 ! Name  Definition              Value          Derivative Info.                !
 --------------------------------------------------------------------------------
 ! R1    R(1,2)                  1.0919         estimate D2E/DX2                !
 ! R2    R(1,3)                  1.0921         estimate D2E/DX2                !
 ! R3    R(1,4)                  1.0918         estimate D2E/DX2                !
 ! R4    R(1,5)                  1.5396         estimate D2E/DX2                !
 ! R5    R(5,6)                  1.5085         estimate D2E/DX2                !
 ! R6    R(5,11)                 1.349          estimate D2E/DX2                !
 ! R7    R(6,7)                  1.329          estimate D2E/DX2                !
 ! R8    R(6,10)                 1.2312         estimate D2E/DX2                !
 ! R9    R(7,8)                  1.3117         estimate D2E/DX2                !
 ! R10   R(8,9)                  1.1699         estimate D2E/DX2                !
 ! R11   R(8,13)                 1.3577         estimate D2E/DX2                !
 ! R12   R(11,12)                1.0827         estimate D2E/DX2                !
 ! R13   R(11,13)                1.3976         estimate D2E/DX2                !
 ! R14   R(13,14)                1.4043         estimate D2E/DX2                !
 ! R15   R(14,15)                1.4386         estimate D2E/DX2                !
 ! R16   R(14,16)                1.1002         estimate D2E/DX2                !
 ! R17   R(14,17)                1.5525         estimate D2E/DX2                !
 ! R18   R(15,23)                1.4855         estimate D2E/DX2                !
 ! R19   R(17,18)                1.0925         estimate D2E/DX2                !
 ! R20   R(17,19)                1.0917         estimate D2E/DX2                !
 ! R21   R(17,20)                1.5129         estimate D2E/DX2                !
 ! R22   R(20,21)                1.3439         estimate D2E/DX2                !
 ! R23   R(20,22)                1.0926         estimate D2E/DX2                !
 ! R24   R(20,23)                1.5383         estimate D2E/DX2                !
 ! R25   R(23,24)                1.0929         estimate D2E/DX2                !
 ! R26   R(23,25)                1.5614         estimate D2E/DX2                !
 ! R27   R(25,26)                1.0931         estimate D2E/DX2                !
 ! R28   R(25,27)                1.0935         estimate D2E/DX2                !
 ! R29   R(25,28)                1.4326         estimate D2E/DX2                !
 ! R30   R(28,29)                0.9739         estimate D2E/DX2                !
 ! A1    A(2,1,3)              105.2606         estimate D2E/DX2                !
 ! A2    A(2,1,4)              112.5195         estimate D2E/DX2                !
 ! A3    A(2,1,5)              107.0335         estimate D2E/DX2                !
 ! A4    A(3,1,4)              114.5341         estimate D2E/DX2                !
 ! A5    A(3,1,5)              111.2004         estimate D2E/DX2                !
 ! A6    A(4,1,5)              106.1388         estimate D2E/DX2                !
 ! A7    A(1,5,6)              127.5407         estimate D2E/DX2                !
 ! A8    A(1,5,11)             113.5421         estimate D2E/DX2                !
 ! A9    A(6,5,11)             118.9088         estimate D2E/DX2                !
 ! A10   A(5,6,7)              114.1605         estimate D2E/DX2                !
 ! A11   A(5,6,10)             128.7293         estimate D2E/DX2                !
 ! A12   A(7,6,10)             116.3744         estimate D2E/DX2                !
 ! A13   A(6,7,8)              128.0569         estimate D2E/DX2                !
 ! A14   A(7,8,9)              120.8097         estimate D2E/DX2                !
 ! A15   A(7,8,13)             116.5869         estimate D2E/DX2                !
 ! A16   A(9,8,13)             122.4842         estimate D2E/DX2                !
 ! A17   A(5,11,12)            122.8079         estimate D2E/DX2                !
 ! A18   A(5,11,13)            117.7832         estimate D2E/DX2                !
 ! A19   A(12,11,13)           119.214          estimate D2E/DX2                !
 ! A20   A(8,13,11)            123.33           estimate D2E/DX2                !
 ! A21   A(8,13,14)            116.1321         estimate D2E/DX2                !
 ! A22   A(11,13,14)           120.431          estimate D2E/DX2                !
 ! A23   A(13,14,15)           109.7258         estimate D2E/DX2                !
 ! A24   A(13,14,16)           105.0444         estimate D2E/DX2                !
 ! A25   A(13,14,17)           119.9466         estimate D2E/DX2                !
 ! A26   A(15,14,16)           107.719          estimate D2E/DX2                !
 ! A27   A(15,14,17)            99.7155         estimate D2E/DX2                !
 ! A28   A(16,14,17)           114.1233         estimate D2E/DX2                !
 ! A29   A(14,15,23)           116.9235         estimate D2E/DX2                !
 ! A30   A(14,17,18)           103.283          estimate D2E/DX2                !
 ! A31   A(14,17,19)           116.7193         estimate D2E/DX2                !
 ! A32   A(14,17,20)           106.0407         estimate D2E/DX2                !
 ! A33   A(18,17,19)           107.0405         estimate D2E/DX2                !
 ! A34   A(18,17,20)           112.9105         estimate D2E/DX2                !
 ! A35   A(19,17,20)           110.7839         estimate D2E/DX2                !
 ! A36   A(17,20,21)           117.9986         estimate D2E/DX2                !
 ! A37   A(17,20,22)           111.3943         estimate D2E/DX2                !
 ! A38   A(17,20,23)           105.0498         estimate D2E/DX2                !
 ! A39   A(21,20,22)           104.4645         estimate D2E/DX2                !
 ! A40   A(21,20,23)           113.3593         estimate D2E/DX2                !
 ! A41   A(22,20,23)           103.7981         estimate D2E/DX2                !
 ! A42   A(15,23,20)           101.2891         estimate D2E/DX2                !
 ! A43   A(15,23,24)           108.257          estimate D2E/DX2                !
 ! A44   A(15,23,25)           110.189          estimate D2E/DX2                !
 ! A45   A(20,23,24)           107.3817         estimate D2E/DX2                !
 ! A46   A(20,23,25)           113.8101         estimate D2E/DX2                !
 ! A47   A(24,23,25)           114.9298         estimate D2E/DX2                !
 ! A48   A(23,25,26)           113.5895         estimate D2E/DX2                !
 ! A49   A(23,25,27)           111.0648         estimate D2E/DX2                !
 ! A50   A(23,25,28)           111.8438         estimate D2E/DX2                !
 ! A51   A(26,25,27)            98.6998         estimate D2E/DX2                !
 ! A52   A(26,25,28)           107.6981         estimate D2E/DX2                !
 ! A53   A(27,25,28)           113.2847         estimate D2E/DX2                !
 ! A54   A(25,28,29)           110.217          estimate D2E/DX2                !
 ! D1    D(2,1,5,6)              6.3858         estimate D2E/DX2                !
 ! D2    D(2,1,5,11)          -174.6925         estimate D2E/DX2                !
 ! D3    D(3,1,5,6)           -108.0771         estimate D2E/DX2                !
 ! D4    D(3,1,5,11)            70.8445         estimate D2E/DX2                !
 ! D5    D(4,1,5,6)            126.7608         estimate D2E/DX2                !
 ! D6    D(4,1,5,11)           -54.3175         estimate D2E/DX2                !
 ! D7    D(1,5,6,7)            168.7773         estimate D2E/DX2                !
 ! D8    D(1,5,6,10)            -0.9238         estimate D2E/DX2                !
 ! D9    D(11,5,6,7)           -10.0933         estimate D2E/DX2                !
 ! D10   D(11,5,6,10)         -179.7945         estimate D2E/DX2                !
 ! D11   D(1,5,11,12)            8.3834         estimate D2E/DX2                !
 ! D12   D(1,5,11,13)         -166.4974         estimate D2E/DX2                !
 ! D13   D(6,5,11,12)         -172.5933         estimate D2E/DX2                !
 ! D14   D(6,5,11,13)           12.5258         estimate D2E/DX2                !
 ! D15   D(5,6,7,8)              1.1518         estimate D2E/DX2                !
 ! D16   D(10,6,7,8)           172.1959         estimate D2E/DX2                !
 ! D17   D(6,7,8,9)           -179.1577         estimate D2E/DX2                !
 ! D18   D(6,7,8,13)             4.715          estimate D2E/DX2                !
 ! D19   D(7,8,13,11)           -2.0412         estimate D2E/DX2                !
 ! D20   D(7,8,13,14)          174.2069         estimate D2E/DX2                !
 ! D21   D(9,8,13,11)         -178.098          estimate D2E/DX2                !
 ! D22   D(9,8,13,14)           -1.8499         estimate D2E/DX2                !
 ! D23   D(5,11,13,8)           -6.7298         estimate D2E/DX2                !
 ! D24   D(5,11,13,14)         177.177          estimate D2E/DX2                !
 ! D25   D(12,11,13,8)         178.1994         estimate D2E/DX2                !
 ! D26   D(12,11,13,14)          2.1062         estimate D2E/DX2                !
 ! D27   D(8,13,14,15)        -149.9261         estimate D2E/DX2                !
 ! D28   D(8,13,14,16)         -34.3843         estimate D2E/DX2                !
 ! D29   D(8,13,14,17)          95.651          estimate D2E/DX2                !
 ! D30   D(11,13,14,15)         26.4384         estimate D2E/DX2                !
 ! D31   D(11,13,14,16)        141.9802         estimate D2E/DX2                !
 ! D32   D(11,13,14,17)        -87.9844         estimate D2E/DX2                !
 ! D33   D(13,14,15,23)       -144.4019         estimate D2E/DX2                !
 ! D34   D(16,14,15,23)        101.767          estimate D2E/DX2                !
 ! D35   D(17,14,15,23)        -17.5737         estimate D2E/DX2                !
 ! D36   D(13,14,17,18)         31.0569         estimate D2E/DX2                !
 ! D37   D(13,14,17,19)        -86.068          estimate D2E/DX2                !
 ! D38   D(13,14,17,20)        150.0087         estimate D2E/DX2                !
 ! D39   D(15,14,17,18)        -88.5355         estimate D2E/DX2                !
 ! D40   D(15,14,17,19)        154.3396         estimate D2E/DX2                !
 ! D41   D(15,14,17,20)         30.4162         estimate D2E/DX2                !
 ! D42   D(16,14,17,18)        156.9456         estimate D2E/DX2                !
 ! D43   D(16,14,17,19)         39.8207         estimate D2E/DX2                !
 ! D44   D(16,14,17,20)        -84.1027         estimate D2E/DX2                !
 ! D45   D(14,15,23,20)         -1.9532         estimate D2E/DX2                !
 ! D46   D(14,15,23,24)        110.7918         estimate D2E/DX2                !
 ! D47   D(14,15,23,25)       -122.7519         estimate D2E/DX2                !
 ! D48   D(14,17,20,21)       -160.7862         estimate D2E/DX2                !
 ! D49   D(14,17,20,22)         78.4081         estimate D2E/DX2                !
 ! D50   D(14,17,20,23)        -33.344          estimate D2E/DX2                !
 ! D51   D(18,17,20,21)        -48.3872         estimate D2E/DX2                !
 ! D52   D(18,17,20,22)       -169.1928         estimate D2E/DX2                !
 ! D53   D(18,17,20,23)         79.0551         estimate D2E/DX2                !
 ! D54   D(19,17,20,21)         71.6589         estimate D2E/DX2                !
 ! D55   D(19,17,20,22)        -49.1468         estimate D2E/DX2                !
 ! D56   D(19,17,20,23)       -160.8989         estimate D2E/DX2                !
 ! D57   D(17,20,23,15)         21.5219         estimate D2E/DX2                !
 ! D58   D(17,20,23,24)        -91.8835         estimate D2E/DX2                !
 ! D59   D(17,20,23,25)        139.735          estimate D2E/DX2                !
 ! D60   D(21,20,23,15)        151.7367         estimate D2E/DX2                !
 ! D61   D(21,20,23,24)         38.3312         estimate D2E/DX2                !
 ! D62   D(21,20,23,25)        -90.0502         estimate D2E/DX2                !
 ! D63   D(22,20,23,15)        -95.5429         estimate D2E/DX2                !
 ! D64   D(22,20,23,24)        151.0516         estimate D2E/DX2                !
 ! D65   D(22,20,23,25)         22.6702         estimate D2E/DX2                !
 ! D66   D(15,23,25,26)        163.0535         estimate D2E/DX2                !
 ! D67   D(15,23,25,27)         52.8681         estimate D2E/DX2                !
 ! D68   D(15,23,25,28)        -74.7772         estimate D2E/DX2                !
 ! D69   D(20,23,25,26)         50.0843         estimate D2E/DX2                !
 ! D70   D(20,23,25,27)        -60.1011         estimate D2E/DX2                !
 ! D71   D(20,23,25,28)        172.2537         estimate D2E/DX2                !
 ! D72   D(24,23,25,26)        -74.3307         estimate D2E/DX2                !
 ! D73   D(24,23,25,27)        175.4839         estimate D2E/DX2                !
 ! D74   D(24,23,25,28)         47.8387         estimate D2E/DX2                !
 ! D75   D(23,25,28,29)       -110.7917         estimate D2E/DX2                !
 ! D76   D(26,25,28,29)         14.6919         estimate D2E/DX2                !
 ! D77   D(27,25,28,29)        122.7618         estimate D2E/DX2                !
 --------------------------------------------------------------------------------
 Trust Radius=3.00D-01 FncErr=1.00D-07 GrdErr=1.00D-06 EigMax=2.50D+02 EigMin=1.00D-04
 Number of steps in this run=    171 maximum allowed number of steps=    174.
 GradGradGradGradGradGradGradGradGradGradGradGradGradGradGradGradGradGrad

 Leave Link  103 at Sun Jul 11 15:59:43 2021, MaxMem=   104857600 cpu:               0.1 elap:               0.0
 (Enter /prod/apps/gaussian/g16b1/l202.exe)
                          Input orientation:                          
 ---------------------------------------------------------------------
 Center     Atomic      Atomic             Coordinates (Angstroms)
 Number     Number       Type             X           Y           Z
 ---------------------------------------------------------------------
      1          6           0       -3.085000    2.370000   -0.545000
      2          1           0       -4.070000    2.682000   -0.192000
      3          1           0       -3.247000    2.001000   -1.560000
      4          1           0       -2.341000    3.165000   -0.465000
      5          6           0       -2.608000    1.242000    0.388000
      6          6           0       -3.389000    0.567000    1.488000
      7          7           0       -2.811000   -0.527000    1.973000
      8          6           0       -1.662000   -1.056000    1.626000
      9          8           0       -1.278000   -2.039000    2.131000
     10          8           0       -4.540000    0.790000    1.864000
     11          6           0       -1.347000    0.833000    0.138000
     12          1           0       -0.690000    1.346000   -0.553000
     13          7           0       -0.922000   -0.363000    0.723000
     14          6           0        0.359000   -0.871000    0.453000
     15          8           0        1.245000    0.207000    0.103000
     16          1           0        0.706000   -1.293000    1.408000
     17          6           0        0.582000   -1.801000   -0.770000
     18          1           0       -0.158000   -1.448000   -1.492000
     19          1           0        0.397000   -2.866000   -0.617000
     20          6           0        2.006000   -1.563000   -1.222000
     21          9           0        2.341000   -1.929000   -2.471000
     22          1           0        2.720000   -2.088000   -0.583000
     23          6           0        2.275000   -0.077000   -0.929000
     24          1           0        2.020000    0.485000   -1.831000
     25          6           0        3.701000    0.205000   -0.359000
     26          1           0        4.504000   -0.251000   -0.944000
     27          1           0        3.860000   -0.327000    0.583000
     28          8           0        3.971000    1.609000   -0.269000
     29          1           0        4.648000    1.864000   -0.921000
 ---------------------------------------------------------------------
                    Distance matrix (angstroms):
                    1          2          3          4          5
     1  C    0.000000
     2  H    1.091869   0.000000
     3  H    1.092076   1.735660   0.000000
     4  H    1.091770   1.815836   1.837051   0.000000
     5  C    1.539611   2.132474   2.186117   2.120572   0.000000
     6  C    2.734285   2.785567   3.371472   3.414984   1.508505
     7  N    3.848118   4.070625   4.366116   4.449226   2.383861
     8  C    4.298331   4.803773   4.691276   4.759219   2.776394
     9  O    5.464934   5.956462   5.815672   5.911920   3.946126
    10  O    3.227492   2.833320   3.855145   3.987539   2.472955
    11  C    2.418574   3.307934   2.803110   2.605738   1.349037
    12  H    2.604739   3.652344   2.825124   2.458110   2.138930
    13  N    3.708865   4.474277   4.025694   3.983929   2.351775
    14  C    4.833345   5.714532   5.030287   4.941864   3.643087
    15  O    4.883377   5.870424   5.114887   4.683138   3.999757
    16  H    5.621695   6.416448   5.940174   5.715427   4.295256
    17  C    5.558305   6.486330   5.453489   5.770451   4.558170
    18  H    4.903189   5.835293   4.630566   5.205765   4.095485
    19  H    6.288498   7.135476   6.152696   6.625157   5.188036
    20  C    6.468779   7.483228   6.356913   6.467105   5.634636
    21  F    7.185566   8.219251   6.892065   7.203749   6.536186
    22  H    7.319374   8.307219   7.299283   7.295317   6.357619
    23  C    5.904648   6.958037   5.933694   5.659798   5.226657
    24  H    5.591784   6.678415   5.487530   5.297799   5.188005
    25  C    7.125420   8.157932   7.276175   6.728938   6.437147
    26  H    8.038766   9.092935   8.094996   7.665019   7.388086
    27  H    7.535199   8.517019   7.779555   7.193384   6.658439
    28  O    7.102284   8.112641   7.343015   6.503914   6.621901
    29  H    7.758653   8.786586   7.922002   7.123669   7.399318
                    6          7          8          9         10
     6  C    0.000000
     7  N    1.328964   0.000000
     8  C    2.373963   1.311660   0.000000
     9  O    3.414822   2.158981   1.169944   0.000000
    10  O    1.231221   2.176192   3.427425   4.326104   0.000000
    11  C    2.462320   2.712954   2.425220   3.496454   3.629900
    12  H    3.472337   3.793079   3.385621   4.359796   4.579686
    13  N    2.745217   2.271061   1.357666   2.217696   3.964999
    14  C    4.145669   3.532370   2.344055   2.619099   5.361907
    15  O    4.849926   4.526234   3.516440   3.939902   6.075133
    16  H    4.498336   3.643524   2.389794   2.239531   5.662803
    17  C    5.145370   4.545280   3.366211   3.454279   6.315546
    18  H    4.835286   4.460143   3.483906   3.837943   5.955947
    19  H    5.527233   4.740283   3.542122   3.322809   6.625380
    20  C    6.402111   5.872377   4.671443   4.717398   7.609870
    21  F    7.398419   6.946787   5.794096   5.855567   8.575159
    22  H    6.975525   6.289819   5.014641   4.832412   8.184027
    23  C    6.191730   5.872946   4.794417   5.082996   7.415980
    24  H    6.346634   6.231623   5.280403   5.739758   7.535227
    25  C    7.335568   6.955587   5.855947   6.002173   8.555585
    26  H    8.299590   7.879993   6.728483   6.788527   9.526935
    27  H    7.359773   6.817209   5.666725   5.632610   8.570219
    28  O    7.638221   7.455507   6.513366   6.827877   8.812353
    29  H    8.489927   8.350377   7.404709   7.724350   9.660696
                   11         12         13         14         15
    11  C    0.000000
    12  H    1.082728   0.000000
    13  N    1.397593   2.145386   0.000000
    14  C    2.431723   2.650948   1.404252   0.000000
    15  O    2.666752   2.339205   2.324906   1.438603   0.000000
    16  H    3.216766   3.571926   1.996123   1.100235   2.059987
    17  C    3.388726   3.401277   2.561037   1.552533   2.287742
    18  H    3.045256   2.995193   2.582082   2.093620   2.692853
    19  H    4.158625   4.350472   3.130554   2.264149   3.268154
    20  C    4.339703   4.022221   3.714325   2.448897   2.338300
    21  F    5.294985   4.857089   4.827128   3.687474   3.519828
    22  H    5.058910   4.839562   4.236204   2.851089   2.813049
    23  C    3.884002   3.310216   3.609946   2.492271   1.485456
    24  H    3.915961   3.117484   3.987152   3.132780   2.101967
    25  C    5.111135   4.540969   4.781786   3.603621   2.499077
    26  H    6.048139   5.448020   5.677403   4.417809   3.453557
    27  H    5.353174   4.979149   4.784184   3.545397   2.711786
    28  O    5.389708   4.677045   5.367895   4.440521   3.087890
    29  H    6.174501   5.375685   6.219901   5.269120   3.921050
                   16         17         18         19         20
    16  H    0.000000
    17  C    2.239894   0.000000
    18  H    3.029937   1.092471   0.000000
    19  H    2.582719   1.091723   1.756239   0.000000
    20  C    2.946150   1.512853   2.183809   2.157015   0.000000
    21  F    4.257272   2.450279   2.726684   2.845070   1.343943
    22  H    2.941480   2.165267   3.085250   2.450055   1.092585
    23  C    3.066266   2.421509   2.848877   3.376796   1.538313
    24  H    3.921607   2.901614   2.931739   3.916264   2.136675
    25  C    3.786333   3.731101   4.348331   4.518188   2.596848
    26  H    4.587207   4.220765   4.844312   4.879816   2.835248
    27  H    3.400220   3.840387   4.659033   4.458575   2.867584
    28  O    4.679119   4.833676   5.281062   5.737613   3.851106
    29  H    5.561497   5.476074   5.864556   6.366814   4.337637
                   21         22         23         24         25
    21  F    0.000000
    22  H    1.932218   0.000000
    23  C    2.410814   2.088507   0.000000
    24  H    2.517943   2.944118   1.092919   0.000000
    25  C    3.296073   2.504074   1.561378   2.251876   0.000000
    26  H    3.134642   2.586029   2.235831   2.738379   1.093147
    27  H    3.768379   2.400058   2.204738   3.142028   1.093467
    28  O    4.474723   3.915534   2.480849   2.740369   1.432556
    29  H    4.702297   4.410185   3.065726   3.104211   1.991214
                   26         27         28         29
    26  H    0.000000
    27  H    1.658988   0.000000
    28  O    2.049223   2.118094   0.000000
    29  H    2.120021   2.771902   0.973888   0.000000
 Stoichiometry    C10H12FN2O4(1-)
 Framework group  C1[X(C10H12FN2O4)]
 Deg. of freedom    81
 Full point group                 C1      NOp   1
 Largest Abelian subgroup         C1      NOp   1
 Largest concise Abelian subgroup C1      NOp   1
                         Standard orientation:                         
 ---------------------------------------------------------------------
 Center     Atomic      Atomic             Coordinates (Angstroms)
 Number     Number       Type             X           Y           Z
 ---------------------------------------------------------------------
      1          6           0        2.829802    2.432722    1.178718
      2          1           0        3.909299    2.593358    1.146160
      3          1           0        2.588600    2.314365    2.237228
      4          1           0        2.273787    3.224485    0.672833
      5          6           0        2.542408    1.139530    0.394204
      6          6           0        3.545917    0.173618   -0.185078
      7          7           0        3.018652   -0.971565   -0.605427
      8          6           0        1.758292   -1.334555   -0.591914
      9          8           0        1.433873   -2.388033   -0.983969
     10          8           0        4.775449    0.233177   -0.160373
     11          6           0        1.226930    0.875290    0.254213
     12          1           0        0.453869    1.577517    0.539787
     13          7           0        0.861652   -0.401636   -0.180871
     14          6           0       -0.492905   -0.755711   -0.289183
     15          8           0       -1.286412    0.423014   -0.513980
     16          1           0       -0.553897   -1.378090   -1.194414
     17          6           0       -1.240449   -1.344788    0.937407
     18          1           0       -0.744627   -0.868138    1.786206
     19          1           0       -1.164386   -2.423537    1.086984
     20          6           0       -2.685918   -0.924202    0.787572
     21          9           0       -3.468328   -0.954653    1.879859
     22          1           0       -3.209250   -1.548544    0.059518
     23          6           0       -2.632038    0.457870    0.114236
     24          1           0       -2.619539    1.207988    0.908994
     25          6           0       -3.729961    0.671512   -0.975178
     26          1           0       -4.737803    0.417949   -0.636166
     27          1           0       -3.635427   -0.064712   -1.778114
     28          8           0       -3.756575    2.023845   -1.447094
     29          1           0       -4.570945    2.467899   -1.150318
 ---------------------------------------------------------------------
 Rotational constants (GHZ):           0.8421355           0.2456621           0.2236230
 Leave Link  202 at Sun Jul 11 15:59:43 2021, MaxMem=   104857600 cpu:               0.1 elap:               0.0
 (Enter /prod/apps/gaussian/g16b1/l301.exe)
 Standard basis: 6-31G(d) (6D, 7F)
 Ernie: Thresh=  0.10000D-02 Tol=  0.10000D-05 Strict=F.
 There are   279 symmetry adapted cartesian basis functions of A   symmetry.
 There are   279 symmetry adapted basis functions of A   symmetry.
   279 basis functions,   524 primitive gaussians,   279 cartesian basis functions
    64 alpha electrons       64 beta electrons
       nuclear repulsion energy      1253.2675305812 Hartrees.
 IExCor=  402 DFT=T Ex+Corr=B3LYP ExCW=0 ScaHFX=  0.200000
 ScaDFX=  0.800000  0.720000  1.000000  0.810000 ScalE2=  1.000000  1.000000
 IRadAn=      5 IRanWt=     -1 IRanGd=            0 ICorTp=0 IEmpDi=  4
 NAtoms=   29 NActive=   29 NUniq=   29 SFac= 1.00D+00 NAtFMM=   60 NAOKFM=F Big=F
 Integral buffers will be    131072 words long.
 Raffenetti 2 integral format.
 Two-electron integral symmetry is turned on.
 Using the following non-standard input for PCM:
 MSTModel=DFT cav MSTCharged
 --- end of non-standard input.
 MST model for solvation energy: B3LYP parametrization.
 MST cavity parameters:
 ISph   IAn     Re0     Alpha   Atom Type   QCorr
 ------------------------------------------------
   1      6     1.50     1.25      CH3        F
   2      1     1.20     1.25      CH3        F
   3      1     1.20     1.25      CH3        F
   4      1     1.20     1.25      CH3        F
   5      6     1.50     1.25      C          F
   6      6     1.50     1.25      C          F
   7      7     1.40     1.15      N          T
   8      6     1.50     1.25      C          F
   9      8     1.40     1.25      O          F
  10      8     1.40     1.25      O          F
  11      6     1.50     1.25      CH         F
  12      1     1.20     1.25      CH         F
  13      7     1.40     1.25      N          F
  14      6     1.50     1.25      CH         F
  15      8     1.40     1.25      O          F
  16      1     1.20     1.25      CH         F
  17      6     1.50     1.25      CH2        F
  18      1     1.20     1.25      CH2        F
  19      1     1.20     1.25      CH2        F
  20      6     1.50     1.25      CH         F
  21      9     1.35     1.25      F          F
  22      1     1.20     1.25      CH         F
  23      6     1.50     1.25      CH         F
  24      1     1.20     1.25      CH         F
  25      6     1.50     1.25      CH2        F
  26      1     1.20     1.25      CH2        F
  27      1     1.20     1.25      CH2        F
  28      8     1.45     1.25      OH         F
  29      1     0.90     1.25      OH         F
 ------------------------------------------------------------------------------
 Polarizable Continuum Model (PCM)
 =================================
 Model                : PCM.
 Atomic radii         : MST.
 Polarization charges : Total charges.
 Charge compensation  : None.
 Solution method      : On-the-fly selection.
 Cavity type          : Scaled VdW (van der Waals Surface) (Alpha=1.250).
 Cavity algorithm     : GePol (No added spheres)
                        Default sphere list used, NSphG=   29.
                        Lebedev-Laikov grids with approx.  5.0 points / Ang**2.
                        Smoothing algorithm: York/Karplus (Gamma=1.0000).
                        Polarization charges: spherical gaussians, with
                                              point-specific exponents (IZeta= 3).
                        Self-potential: point-specific (ISelfS= 7).
                        Self-field    : sphere-specific E.n sum rule (ISelfD= 2).
 1st derivatives      : Analytical E(r).r(x)/FMM algorithm (CHGder, D1EAlg=3).
                        Cavity 1st derivative terms included.
 Solvent              : Water, Eps=  78.355300 Eps(inf)=   1.777849
 ------------------------------------------------------------------------------
 GePol: Number of generator spheres                  =      29
 GePol: Total number of spheres                      =      29
 GePol: Number of exposed spheres                    =      29 (100.00%)
 GePol: Number of points                             =    2128
 GePol: Average weight of points                     =       0.13
 GePol: Minimum weight of points                     =   0.64D-10
 GePol: Maximum weight of points                     =    0.22001
 GePol: Number of points with low weight             =     138
 GePol: Fraction of low-weight points (<1% of avg)   =       6.48%
 GePol: Cavity surface area                          =    287.071 Ang**2
 GePol: Cavity volume                                =    262.983 Ang**3
 PCM non-electrostatic energy =         0.0049040362 Hartrees.
 Nuclear repulsion after PCM non-electrostatic terms =     1253.2724346174 Hartrees.
 Leave Link  301 at Sun Jul 11 15:59:43 2021, MaxMem=   104857600 cpu:               0.3 elap:               0.1
 (Enter /prod/apps/gaussian/g16b1/l302.exe)
 NPDir=0 NMtPBC=     1 NCelOv=     1 NCel=       1 NClECP=     1 NCelD=      1
         NCelK=      1 NCelE2=     1 NClLst=     1 CellRange=     0.0.
 One-electron integrals computed using PRISM.
 One-electron integral symmetry used in STVInt
 NBasis=   279 RedAO= T EigKep=  1.17D-03  NBF=   279
 NBsUse=   279 1.00D-06 EigRej= -1.00D+00 NBFU=   279
 Precomputing XC quadrature grid using
 IXCGrd= 4 IRadAn=           5 IRanWt=          -1 IRanGd=           0 AccXCQ= 0.00D+00.
 Generated NRdTot=       0 NPtTot=           0 NUsed=           0 NTot=          32
 NSgBfM=   277   277   277   277   277 MxSgAt=    29 MxSgA2=    29.
 Leave Link  302 at Sun Jul 11 15:59:44 2021, MaxMem=   104857600 cpu:               1.4 elap:               0.4
 (Enter /prod/apps/gaussian/g16b1/l303.exe)
 DipDrv:  MaxL=1.
 Leave Link  303 at Sun Jul 11 15:59:44 2021, MaxMem=   104857600 cpu:               0.1 elap:               0.1
 (Enter /prod/apps/gaussian/g16b1/l401.exe)
 ExpMin= 1.61D-01 ExpMax= 7.00D+03 ExpMxC= 1.05D+03 IAcc=3 IRadAn=         5 AccDes= 0.00D+00
 Harris functional with IExCor=  402 and IRadAn=       5 diagonalized for initial guess.
 HarFok:  IExCor=  402 AccDes= 0.00D+00 IRadAn=         5 IDoV= 1 UseB2=F ITyADJ=14
 ICtDFT=  3500011 ScaDFX=  1.000000  1.000000  1.000000  1.000000
 FoFCou: FMM=F IPFlag=           0 FMFlag=      100000 FMFlg1=           0
         NFxFlg=           0 DoJE=T BraDBF=F KetDBF=T FulRan=T
         wScrn=  0.000000 ICntrl=       500 IOpCl=  0 I1Cent=   200000004 NGrid=           0
         NMat0=    1 NMatS0=      1 NMatT0=    0 NMatD0=    1 NMtDS0=    0 NMtDT0=    0
 Petite list used in FoFCou.
 Harris En= -898.663651015215    
 JPrj=0 DoOrth=F DoCkMO=F.
 Leave Link  401 at Sun Jul 11 15:59:46 2021, MaxMem=   104857600 cpu:               7.1 elap:               1.8
 (Enter /prod/apps/gaussian/g16b1/l502.exe)
 Integral symmetry usage will be decided dynamically.
 Closed shell SCF:
 Using DIIS extrapolation, IDIIS=  1040.
 NGot=   104857600 LenX=   104697134 LenY=   104618852
 Requested convergence on RMS density matrix=1.00D-08 within 128 cycles.
 Requested convergence on MAX density matrix=1.00D-06.
 Requested convergence on             energy=1.00D-06.
 No special actions if energy rises.
 Fock matrices will be formed incrementally for  20 cycles.

 Cycle   1  Pass 1  IDiag  1:
 FoFJK:  IHMeth= 1 ICntrl=       0 DoSepK=F KAlg= 0 I1Cent=           0 FoldK=F
 IRaf= 810000000 NMat=       1 IRICut=       1 DoRegI=T DoRafI=F ISym2E= 0 IDoP0=0 IntGTp=1.
 FoFCou: FMM=F IPFlag=           0 FMFlag=      100000 FMFlg1=           0
         NFxFlg=           0 DoJE=F BraDBF=F KetDBF=F FulRan=T
         wScrn=  0.000000 ICntrl=         0 IOpCl=  0 I1Cent=           0 NGrid=           0
         NMat0=    1 NMatS0=      1 NMatT0=    0 NMatD0=    1 NMtDS0=    0 NMtDT0=    0
 Symmetry not used in FoFCou.
 Inv3:  Mode=1 IEnd=    13585152.
 Iteration    1 A*A^-1 deviation from unit magnitude is 3.44D-15 for    371.
 Iteration    1 A*A^-1 deviation from orthogonality  is 2.12D-15 for   1622   1209.
 Iteration    1 A^-1*A deviation from unit magnitude is 3.77D-15 for   1131.
 Iteration    1 A^-1*A deviation from orthogonality  is 6.55D-13 for   1810   1802.
 E= -898.186512435552    
 DIIS: error= 2.91D-02 at cycle   1 NSaved=   1.
 NSaved= 1 IEnMin= 1 EnMin= -898.186512435552     IErMin= 1 ErrMin= 2.91D-02
 ErrMax= 2.91D-02  0.00D+00 EMaxC= 1.00D-01 BMatC= 5.15D-01 BMatP= 5.15D-01
 IDIUse=3 WtCom= 7.09D-01 WtEn= 2.91D-01
 Coeff-Com:  0.100D+01
 Coeff-En:   0.100D+01
 Coeff:      0.100D+01
 Gap=     0.192 Goal=   None    Shift=    0.000
 GapD=    0.192 DampG=1.000 DampE=0.500 DampFc=0.5000 IDamp=-1.
 Damping current iteration by 5.00D-01
 RMSDP=5.97D-03 MaxDP=1.98D-01              OVMax= 2.26D-01

 Cycle   2  Pass 1  IDiag  1:
 RMSU=  2.98D-03    CP:  9.89D-01
 E= -898.347529848754     Delta-E=       -0.161017413202 Rises=F Damp=T
 DIIS: error= 7.24D-03 at cycle   2 NSaved=   2.
 NSaved= 2 IEnMin= 2 EnMin= -898.347529848754     IErMin= 2 ErrMin= 7.24D-03
 ErrMax= 7.24D-03  0.00D+00 EMaxC= 1.00D-01 BMatC= 4.79D-02 BMatP= 5.15D-01
 IDIUse=3 WtCom= 9.28D-01 WtEn= 7.24D-02
 Coeff-Com:  0.142D+00 0.858D+00
 Coeff-En:   0.221D+00 0.779D+00
 Coeff:      0.147D+00 0.853D+00
 Gap=     0.235 Goal=   None    Shift=    0.000
 RMSDP=1.59D-03 MaxDP=8.64D-02 DE=-1.61D-01 OVMax= 1.81D-01

 Cycle   3  Pass 1  IDiag  1:
 RMSU=  1.45D-03    CP:  9.81D-01  7.85D-01
 E= -898.574822375357     Delta-E=       -0.227292526603 Rises=F Damp=F
 DIIS: error= 1.13D-02 at cycle   3 NSaved=   3.
 NSaved= 3 IEnMin= 3 EnMin= -898.574822375357     IErMin= 2 ErrMin= 7.24D-03
 ErrMax= 1.13D-02  0.00D+00 EMaxC= 1.00D-01 BMatC= 3.98D-02 BMatP= 4.79D-02
 IDIUse=3 WtCom= 8.87D-01 WtEn= 1.13D-01
 Coeff-Com:  0.228D-01 0.474D+00 0.504D+00
 Coeff-En:   0.000D+00 0.000D+00 0.100D+01
 Coeff:      0.202D-01 0.420D+00 0.560D+00
 Gap=     0.200 Goal=   None    Shift=    0.000
 RMSDP=1.04D-03 MaxDP=5.18D-02 DE=-2.27D-01 OVMax= 7.35D-02

 Cycle   4  Pass 1  IDiag  1:
 RMSU=  5.72D-04    CP:  9.85D-01  8.86D-01  4.40D-01
 E= -898.602108257198     Delta-E=       -0.027285881841 Rises=F Damp=F
 DIIS: error= 4.71D-03 at cycle   4 NSaved=   4.
 NSaved= 4 IEnMin= 4 EnMin= -898.602108257198     IErMin= 4 ErrMin= 4.71D-03
 ErrMax= 4.71D-03  0.00D+00 EMaxC= 1.00D-01 BMatC= 8.68D-03 BMatP= 3.98D-02
 IDIUse=3 WtCom= 9.53D-01 WtEn= 4.71D-02
 Coeff-Com:  0.941D-03 0.104D+00 0.333D+00 0.562D+00
 Coeff-En:   0.000D+00 0.000D+00 0.191D+00 0.809D+00
 Coeff:      0.896D-03 0.992D-01 0.327D+00 0.573D+00
 Gap=     0.201 Goal=   None    Shift=    0.000
 RMSDP=3.74D-04 MaxDP=2.32D-02 DE=-2.73D-02 OVMax= 3.28D-02

 Cycle   5  Pass 1  IDiag  1:
 RMSU=  1.64D-04    CP:  9.84D-01  8.46D-01  5.98D-01  6.25D-01
 E= -898.608720902162     Delta-E=       -0.006612644964 Rises=F Damp=F
 DIIS: error= 1.27D-03 at cycle   5 NSaved=   5.
 NSaved= 5 IEnMin= 5 EnMin= -898.608720902162     IErMin= 5 ErrMin= 1.27D-03
 ErrMax= 1.27D-03  0.00D+00 EMaxC= 1.00D-01 BMatC= 5.26D-04 BMatP= 8.68D-03
 IDIUse=3 WtCom= 9.87D-01 WtEn= 1.27D-02
 Coeff-Com: -0.332D-03 0.128D-01 0.130D+00 0.311D+00 0.546D+00
 Coeff-En:   0.000D+00 0.000D+00 0.000D+00 0.000D+00 0.100D+01
 Coeff:     -0.327D-03 0.127D-01 0.128D+00 0.308D+00 0.552D+00
 Gap=     0.199 Goal=   None    Shift=    0.000
 RMSDP=9.37D-05 MaxDP=5.07D-03 DE=-6.61D-03 OVMax= 8.20D-03

 Cycle   6  Pass 1  IDiag  1:
 RMSU=  4.05D-05    CP:  9.84D-01  8.50D-01  5.96D-01  6.77D-01  5.25D-01
 E= -898.609130837062     Delta-E=       -0.000409934900 Rises=F Damp=F
 DIIS: error= 2.64D-04 at cycle   6 NSaved=   6.
 NSaved= 6 IEnMin= 6 EnMin= -898.609130837062     IErMin= 6 ErrMin= 2.64D-04
 ErrMax= 2.64D-04  0.00D+00 EMaxC= 1.00D-01 BMatC= 3.17D-05 BMatP= 5.26D-04
 IDIUse=3 WtCom= 9.97D-01 WtEn= 2.64D-03
 Coeff-Com: -0.227D-03 0.172D-03 0.439D-01 0.117D+00 0.283D+00 0.557D+00
 Coeff-En:   0.000D+00 0.000D+00 0.000D+00 0.000D+00 0.000D+00 0.100D+01
 Coeff:     -0.226D-03 0.172D-03 0.438D-01 0.116D+00 0.282D+00 0.558D+00
 Gap=     0.199 Goal=   None    Shift=    0.000
 RMSDP=2.24D-05 MaxDP=1.06D-03 DE=-4.10D-04 OVMax= 1.62D-03

 Cycle   7  Pass 1  IDiag  1:
 RMSU=  1.25D-05    CP:  9.84D-01  8.51D-01  5.97D-01  6.73D-01  5.87D-01
                    CP:  6.24D-01
 E= -898.609155259185     Delta-E=       -0.000024422123 Rises=F Damp=F
 DIIS: error= 8.24D-05 at cycle   7 NSaved=   7.
 NSaved= 7 IEnMin= 7 EnMin= -898.609155259185     IErMin= 7 ErrMin= 8.24D-05
 ErrMax= 8.24D-05  0.00D+00 EMaxC= 1.00D-01 BMatC= 2.57D-06 BMatP= 3.17D-05
 IDIUse=1 WtCom= 1.00D+00 WtEn= 0.00D+00
 Coeff-Com: -0.926D-04-0.110D-02 0.107D-01 0.311D-01 0.992D-01 0.295D+00
 Coeff-Com:  0.565D+00
 Coeff:     -0.926D-04-0.110D-02 0.107D-01 0.311D-01 0.992D-01 0.295D+00
 Coeff:      0.565D+00
 Gap=     0.199 Goal=   None    Shift=    0.000
 RMSDP=6.09D-06 MaxDP=3.25D-04 DE=-2.44D-05 OVMax= 2.80D-04

 Cycle   8  Pass 1  IDiag  1:
 RMSU=  3.88D-06    CP:  9.84D-01  8.50D-01  5.97D-01  6.75D-01  5.88D-01
                    CP:  6.73D-01  6.82D-01
 E= -898.609157142709     Delta-E=       -0.000001883524 Rises=F Damp=F
 DIIS: error= 1.64D-05 at cycle   8 NSaved=   8.
 NSaved= 8 IEnMin= 8 EnMin= -898.609157142709     IErMin= 8 ErrMin= 1.64D-05
 ErrMax= 1.64D-05  0.00D+00 EMaxC= 1.00D-01 BMatC= 2.19D-07 BMatP= 2.57D-06
 IDIUse=1 WtCom= 1.00D+00 WtEn= 0.00D+00
 Coeff-Com: -0.286D-04-0.540D-03 0.286D-02 0.860D-02 0.352D-01 0.123D+00
 Coeff-Com:  0.299D+00 0.532D+00
 Coeff:     -0.286D-04-0.540D-03 0.286D-02 0.860D-02 0.352D-01 0.123D+00
 Coeff:      0.299D+00 0.532D+00
 Gap=     0.199 Goal=   None    Shift=    0.000
 RMSDP=2.08D-06 MaxDP=7.69D-05 DE=-1.88D-06 OVMax= 1.76D-04

 Cycle   9  Pass 1  IDiag  1:
 RMSU=  1.35D-06    CP:  9.84D-01  8.50D-01  5.97D-01  6.75D-01  5.88D-01
                    CP:  6.80D-01  7.10D-01  6.12D-01
 E= -898.609157307346     Delta-E=       -0.000000164637 Rises=F Damp=F
 DIIS: error= 5.68D-06 at cycle   9 NSaved=   9.
 NSaved= 9 IEnMin= 9 EnMin= -898.609157307346     IErMin= 9 ErrMin= 5.68D-06
 ErrMax= 5.68D-06  0.00D+00 EMaxC= 1.00D-01 BMatC= 2.64D-08 BMatP= 2.19D-07
 IDIUse=1 WtCom= 1.00D+00 WtEn= 0.00D+00
 Coeff-Com: -0.395D-05-0.872D-04-0.215D-03-0.765D-03 0.251D-02 0.155D-01
 Coeff-Com:  0.517D-01 0.275D+00 0.657D+00
 Coeff:     -0.395D-05-0.872D-04-0.215D-03-0.765D-03 0.251D-02 0.155D-01
 Coeff:      0.517D-01 0.275D+00 0.657D+00
 Gap=     0.199 Goal=   None    Shift=    0.000
 RMSDP=6.62D-07 MaxDP=3.09D-05 DE=-1.65D-07 OVMax= 5.93D-05

 Cycle  10  Pass 1  IDiag  1:
 RMSU=  3.87D-07    CP:  9.84D-01  8.50D-01  5.97D-01  6.75D-01  5.89D-01
                    CP:  6.82D-01  7.16D-01  7.12D-01  7.70D-01
 E= -898.609157329435     Delta-E=       -0.000000022089 Rises=F Damp=F
 DIIS: error= 1.19D-06 at cycle  10 NSaved=  10.
 NSaved=10 IEnMin=10 EnMin= -898.609157329435     IErMin=10 ErrMin= 1.19D-06
 ErrMax= 1.19D-06  0.00D+00 EMaxC= 1.00D-01 BMatC= 2.08D-09 BMatP= 2.64D-08
 IDIUse=1 WtCom= 1.00D+00 WtEn= 0.00D+00
 Coeff-Com: -0.109D-05-0.139D-04-0.267D-03-0.910D-03-0.576D-03 0.116D-02
 Coeff-Com:  0.814D-02 0.113D+00 0.338D+00 0.541D+00
 Coeff:     -0.109D-05-0.139D-04-0.267D-03-0.910D-03-0.576D-03 0.116D-02
 Coeff:      0.814D-02 0.113D+00 0.338D+00 0.541D+00
 Gap=     0.199 Goal=   None    Shift=    0.000
 RMSDP=1.99D-07 MaxDP=9.31D-06 DE=-2.21D-08 OVMax= 1.97D-05

 Cycle  11  Pass 1  IDiag  1:
 RMSU=  1.26D-07    CP:  9.84D-01  8.50D-01  5.97D-01  6.75D-01  5.89D-01
                    CP:  6.82D-01  7.18D-01  7.16D-01  8.15D-01  6.53D-01
 E= -898.609157331088     Delta-E=       -0.000000001653 Rises=F Damp=F
 DIIS: error= 4.67D-07 at cycle  11 NSaved=  11.
 NSaved=11 IEnMin=11 EnMin= -898.609157331088     IErMin=11 ErrMin= 4.67D-07
 ErrMax= 4.67D-07  0.00D+00 EMaxC= 1.00D-01 BMatC= 2.35D-10 BMatP= 2.08D-09
 IDIUse=1 WtCom= 1.00D+00 WtEn= 0.00D+00
 Coeff-Com: -0.551D-06 0.611D-05-0.123D-03-0.426D-03-0.740D-03-0.182D-02
 Coeff-Com: -0.430D-02 0.217D-01 0.827D-01 0.283D+00 0.620D+00
 Coeff:     -0.551D-06 0.611D-05-0.123D-03-0.426D-03-0.740D-03-0.182D-02
 Coeff:     -0.430D-02 0.217D-01 0.827D-01 0.283D+00 0.620D+00
 Gap=     0.199 Goal=   None    Shift=    0.000
 RMSDP=6.02D-08 MaxDP=2.50D-06 DE=-1.65D-09 OVMax= 3.36D-06

 Cycle  12  Pass 1  IDiag  1:
 RMSU=  3.30D-08    CP:  9.84D-01  8.50D-01  5.97D-01  6.75D-01  5.89D-01
                    CP:  6.82D-01  7.18D-01  7.20D-01  8.23D-01  7.28D-01
                    CP:  7.58D-01
 E= -898.609157331291     Delta-E=       -0.000000000202 Rises=F Damp=F
 DIIS: error= 1.23D-07 at cycle  12 NSaved=  12.
 NSaved=12 IEnMin=12 EnMin= -898.609157331291     IErMin=12 ErrMin= 1.23D-07
 ErrMax= 1.23D-07  0.00D+00 EMaxC= 1.00D-01 BMatC= 1.39D-11 BMatP= 2.35D-10
 IDIUse=1 WtCom= 1.00D+00 WtEn= 0.00D+00
 Coeff-Com: -0.221D-06 0.390D-05-0.308D-04-0.118D-03-0.242D-03-0.749D-03
 Coeff-Com: -0.237D-02 0.254D-02 0.122D-01 0.886D-01 0.266D+00 0.635D+00
 Coeff:     -0.221D-06 0.390D-05-0.308D-04-0.118D-03-0.242D-03-0.749D-03
 Coeff:     -0.237D-02 0.254D-02 0.122D-01 0.886D-01 0.266D+00 0.635D+00
 Gap=     0.199 Goal=   None    Shift=    0.000
 RMSDP=1.71D-08 MaxDP=6.40D-07 DE=-2.02D-10 OVMax= 1.30D-06

 Cycle  13  Pass 1  IDiag  1:
 RMSU=  1.25D-08    CP:  9.84D-01  8.50D-01  5.97D-01  6.75D-01  5.89D-01
                    CP:  6.82D-01  7.18D-01  7.21D-01  8.26D-01  7.37D-01
                    CP:  8.04D-01  7.79D-01
 E= -898.609157331300     Delta-E=       -0.000000000010 Rises=F Damp=F
 DIIS: error= 4.40D-08 at cycle  13 NSaved=  13.
 NSaved=13 IEnMin=13 EnMin= -898.609157331300     IErMin=13 ErrMin= 4.40D-08
 ErrMax= 4.40D-08  0.00D+00 EMaxC= 1.00D-01 BMatC= 2.41D-12 BMatP= 1.39D-11
 IDIUse=1 WtCom= 1.00D+00 WtEn= 0.00D+00
 Coeff-Com: -0.322D-07 0.835D-06 0.313D-05 0.333D-05-0.126D-04-0.124D-03
 Coeff-Com: -0.649D-03-0.218D-02-0.743D-02 0.616D-03 0.302D-01 0.316D+00
 Coeff-Com:  0.664D+00
 Coeff:     -0.322D-07 0.835D-06 0.313D-05 0.333D-05-0.126D-04-0.124D-03
 Coeff:     -0.649D-03-0.218D-02-0.743D-02 0.616D-03 0.302D-01 0.316D+00
 Coeff:      0.664D+00
 Gap=     0.199 Goal=   None    Shift=    0.000
 RMSDP=6.72D-09 MaxDP=2.54D-07 DE=-9.55D-12 OVMax= 3.75D-07

 Error on total polarization charges =  0.01763
 SCF Done:  E(RB3LYP) =  -898.609157331     A.U. after   13 cycles
            NFock= 13  Conv=0.67D-08     -V/T= 2.0078
 KE= 8.916577494540D+02 PE=-4.629190096297D+03 EE= 1.585650754894D+03
 Leave Link  502 at Sun Jul 11 16:00:36 2021, MaxMem=   104857600 cpu:             199.9 elap:              50.0
 (Enter /prod/apps/gaussian/g16b1/l601.exe)
 Copying SCF densities to generalized density rwf, IOpCl= 0 IROHF=0.

 **********************************************************************

            Population analysis using the SCF Density.

 **********************************************************************

 Orbital symmetries:
       Occupied  (A) (A) (A) (A) (A) (A) (A) (A) (A) (A) (A) (A)
                 (A) (A) (A) (A) (A) (A) (A) (A) (A) (A) (A) (A)
                 (A) (A) (A) (A) (A) (A) (A) (A) (A) (A) (A) (A)
                 (A) (A) (A) (A) (A) (A) (A) (A) (A) (A) (A) (A)
                 (A) (A) (A) (A) (A) (A) (A) (A) (A) (A) (A) (A)
                 (A) (A) (A) (A)
       Virtual   (A) (A) (A) (A) (A) (A) (A) (A) (A) (A) (A) (A)
                 (A) (A) (A) (A) (A) (A) (A) (A) (A) (A) (A) (A)
                 (A) (A) (A) (A) (A) (A) (A) (A) (A) (A) (A) (A)
                 (A) (A) (A) (A) (A) (A) (A) (A) (A) (A) (A) (A)
                 (A) (A) (A) (A) (A) (A) (A) (A) (A) (A) (A) (A)
                 (A) (A) (A) (A) (A) (A) (A) (A) (A) (A) (A) (A)
                 (A) (A) (A) (A) (A) (A) (A) (A) (A) (A) (A) (A)
                 (A) (A) (A) (A) (A) (A) (A) (A) (A) (A) (A) (A)
                 (A) (A) (A) (A) (A) (A) (A) (A) (A) (A) (A) (A)
                 (A) (A) (A) (A) (A) (A) (A) (A) (A) (A) (A) (A)
                 (A) (A) (A) (A) (A) (A) (A) (A) (A) (A) (A) (A)
                 (A) (A) (A) (A) (A) (A) (A) (A) (A) (A) (A) (A)
                 (A) (A) (A) (A) (A) (A) (A) (A) (A) (A) (A) (A)
                 (A) (A) (A) (A) (A) (A) (A) (A) (A) (A) (A) (A)
                 (A) (A) (A) (A) (A) (A) (A) (A) (A) (A) (A) (A)
                 (A) (A) (A) (A) (A) (A) (A) (A) (A) (A) (A) (A)
                 (A) (A) (A) (A) (A) (A) (A) (A) (A) (A) (A) (A)
                 (A) (A) (A) (A) (A) (A) (A) (A) (A) (A) (A)
 The electronic state is 1-A.
 Alpha  occ. eigenvalues --  -24.68972 -19.14778 -19.14087 -19.07903 -19.07232
 Alpha  occ. eigenvalues --  -14.36056 -14.25354 -10.26878 -10.26513 -10.26241
 Alpha  occ. eigenvalues --  -10.24567 -10.24297 -10.23557 -10.21663 -10.18785
 Alpha  occ. eigenvalues --  -10.17340 -10.17252  -1.21092  -1.06134  -1.03156
 Alpha  occ. eigenvalues --   -1.00614  -0.99254  -0.94631  -0.85536  -0.78553
 Alpha  occ. eigenvalues --   -0.78206  -0.75061  -0.68754  -0.66589  -0.62372
 Alpha  occ. eigenvalues --   -0.61844  -0.60078  -0.56786  -0.52939  -0.52847
 Alpha  occ. eigenvalues --   -0.50744  -0.50057  -0.48431  -0.47373  -0.45854
 Alpha  occ. eigenvalues --   -0.44646  -0.43735  -0.43096  -0.42192  -0.41267
 Alpha  occ. eigenvalues --   -0.41009  -0.40273  -0.39273  -0.38187  -0.37649
 Alpha  occ. eigenvalues --   -0.36074  -0.34898  -0.34394  -0.33884  -0.32415
 Alpha  occ. eigenvalues --   -0.31357  -0.29719  -0.27790  -0.26267  -0.24918
 Alpha  occ. eigenvalues --   -0.22835  -0.21871  -0.21049  -0.19815
 Alpha virt. eigenvalues --    0.00070   0.05951   0.07493   0.09534   0.10300
 Alpha virt. eigenvalues --    0.11683   0.12731   0.13150   0.14483   0.15374
 Alpha virt. eigenvalues --    0.16616   0.16690   0.17063   0.17750   0.18758
 Alpha virt. eigenvalues --    0.19428   0.21422   0.22531   0.23621   0.24637
 Alpha virt. eigenvalues --    0.24803   0.26037   0.26912   0.28001   0.30303
 Alpha virt. eigenvalues --    0.31423   0.32197   0.34120   0.37599   0.39159
 Alpha virt. eigenvalues --    0.42310   0.42826   0.49687   0.50608   0.51778
 Alpha virt. eigenvalues --    0.52475   0.53978   0.54966   0.56309   0.56492
 Alpha virt. eigenvalues --    0.56945   0.57776   0.58715   0.59788   0.60844
 Alpha virt. eigenvalues --    0.62534   0.64011   0.64512   0.65072   0.66410
 Alpha virt. eigenvalues --    0.68869   0.69126   0.69636   0.70905   0.72267
 Alpha virt. eigenvalues --    0.73501   0.74739   0.75990   0.76994   0.79487
 Alpha virt. eigenvalues --    0.80534   0.81262   0.82134   0.82417   0.84184
 Alpha virt. eigenvalues --    0.85374   0.86518   0.87939   0.88037   0.88917
 Alpha virt. eigenvalues --    0.89456   0.90706   0.91807   0.92264   0.93238
 Alpha virt. eigenvalues --    0.94109   0.94715   0.95231   0.96242   0.97036
 Alpha virt. eigenvalues --    0.98567   1.02202   1.03667   1.04061   1.05641
 Alpha virt. eigenvalues --    1.06549   1.07687   1.07834   1.10333   1.11951
 Alpha virt. eigenvalues --    1.14489   1.15687   1.16826   1.19560   1.21102
 Alpha virt. eigenvalues --    1.24760   1.25249   1.28168   1.29139   1.29889
 Alpha virt. eigenvalues --    1.35803   1.38180   1.39160   1.39552   1.41255
 Alpha virt. eigenvalues --    1.41642   1.45834   1.47150   1.48422   1.51313
 Alpha virt. eigenvalues --    1.52682   1.54926   1.56049   1.58274   1.59504
 Alpha virt. eigenvalues --    1.61153   1.64516   1.65227   1.67473   1.71100
 Alpha virt. eigenvalues --    1.73541   1.75011   1.76874   1.77631   1.79858
 Alpha virt. eigenvalues --    1.80804   1.81681   1.81838   1.82246   1.83847
 Alpha virt. eigenvalues --    1.84807   1.86479   1.88067   1.88986   1.90638
 Alpha virt. eigenvalues --    1.90697   1.92375   1.93314   1.93929   1.95958
 Alpha virt. eigenvalues --    1.97732   1.99891   2.01087   2.02556   2.03768
 Alpha virt. eigenvalues --    2.06107   2.06407   2.07230   2.08813   2.10140
 Alpha virt. eigenvalues --    2.10516   2.12890   2.17033   2.18159   2.18745
 Alpha virt. eigenvalues --    2.21672   2.21790   2.25814   2.28453   2.28978
 Alpha virt. eigenvalues --    2.29600   2.30902   2.33000   2.34152   2.36509
 Alpha virt. eigenvalues --    2.38958   2.40474   2.41902   2.44902   2.46834
 Alpha virt. eigenvalues --    2.48933   2.51502   2.52547   2.53820   2.56025
 Alpha virt. eigenvalues --    2.56695   2.62297   2.65067   2.67999   2.69131
 Alpha virt. eigenvalues --    2.71953   2.74809   2.77107   2.78589   2.80444
 Alpha virt. eigenvalues --    2.80663   2.82967   2.85973   2.92432   2.96511
 Alpha virt. eigenvalues --    2.98698   3.04334   3.04473   3.08295   3.10584
 Alpha virt. eigenvalues --    3.16734   3.41446   3.54144   3.76110   3.99867
 Alpha virt. eigenvalues --    4.04506   4.09493   4.15119   4.18106   4.20859
 Alpha virt. eigenvalues --    4.26900   4.33703   4.34444   4.41923   4.44206
 Alpha virt. eigenvalues --    4.54729   4.66215   4.71429   4.72783   4.81331
          Condensed to atoms (all electrons):
               1          2          3          4          5          6
     1  C    5.203419   0.354986   0.372552   0.367529   0.335499  -0.033426
     2  H    0.354986   0.578942  -0.035306  -0.021193  -0.040155  -0.001399
     3  H    0.372552  -0.035306   0.555242  -0.025375  -0.026101   0.001174
     4  H    0.367529  -0.021193  -0.025375   0.545254  -0.030641   0.001619
     5  C    0.335499  -0.040155  -0.026101  -0.030641   5.202390   0.344284
     6  C   -0.033426  -0.001399   0.001174   0.001619   0.344284   4.383783
     7  N    0.006618   0.000438  -0.000128  -0.000172  -0.100547   0.359080
     8  C    0.000580  -0.000083   0.000012  -0.000013   0.008142  -0.041173
     9  O    0.000004   0.000000  -0.000000  -0.000000   0.000635   0.001500
    10  O   -0.005216   0.010977   0.000051  -0.000018  -0.089475   0.557382
    11  C   -0.078442   0.005920  -0.006991  -0.004258   0.498718  -0.009594
    12  H   -0.006641   0.000011   0.001020   0.004123  -0.043099   0.003224
    13  N    0.004892  -0.000111   0.000091   0.000013  -0.041785  -0.010472
    14  C   -0.000215   0.000003  -0.000009   0.000008   0.006823   0.000439
    15  O   -0.000016  -0.000000   0.000001  -0.000005   0.001823  -0.000022
    16  H    0.000004  -0.000000   0.000000  -0.000001   0.000082  -0.000147
    17  C   -0.000001   0.000000  -0.000003   0.000001  -0.000100   0.000014
    18  H    0.000003  -0.000000   0.000002   0.000001  -0.000382   0.000016
    19  H   -0.000000  -0.000000  -0.000000   0.000000   0.000017  -0.000004
    20  C   -0.000000  -0.000000   0.000000  -0.000000  -0.000010   0.000000
    21  F    0.000000  -0.000000  -0.000000   0.000000  -0.000000  -0.000000
    22  H    0.000000  -0.000000   0.000000  -0.000000  -0.000000   0.000000
    23  C    0.000000  -0.000000  -0.000000  -0.000000   0.000032  -0.000000
    24  H    0.000000   0.000000   0.000000   0.000000  -0.000039   0.000000
    25  C   -0.000000   0.000000   0.000000  -0.000000   0.000001  -0.000000
    26  H    0.000000   0.000000  -0.000000   0.000000  -0.000000   0.000000
    27  H    0.000000   0.000000   0.000000  -0.000000  -0.000000   0.000000
    28  O    0.000000   0.000000  -0.000000   0.000000  -0.000000   0.000000
    29  H   -0.000000   0.000000  -0.000000   0.000000   0.000000  -0.000000
               7          8          9         10         11         12
     1  C    0.006618   0.000580   0.000004  -0.005216  -0.078442  -0.006641
     2  H    0.000438  -0.000083   0.000000   0.010977   0.005920   0.000011
     3  H   -0.000128   0.000012  -0.000000   0.000051  -0.006991   0.001020
     4  H   -0.000172  -0.000013  -0.000000  -0.000018  -0.004258   0.004123
     5  C   -0.100547   0.008142   0.000635  -0.089475   0.498718  -0.043099
     6  C    0.359080  -0.041173   0.001500   0.557382  -0.009594   0.003224
     7  N    7.393353   0.423630  -0.115523  -0.133749  -0.038072  -0.001102
     8  C    0.423630   4.152280   0.627024   0.002108  -0.046879   0.001460
     9  O   -0.115523   0.627024   8.186344  -0.000012   0.000560  -0.000134
    10  O   -0.133749   0.002108  -0.000012   8.307158   0.003380  -0.000053
    11  C   -0.038072  -0.046879   0.000560   0.003380   4.995146   0.367633
    12  H   -0.001102   0.001460  -0.000134  -0.000053   0.367633   0.524633
    13  N   -0.127650   0.247666  -0.127983  -0.000067   0.303832  -0.046015
    14  C    0.005143  -0.027656   0.003041   0.000004  -0.042656  -0.005445
    15  O   -0.000075   0.001660   0.000317  -0.000000   0.006332   0.013681
    16  H    0.000509  -0.006443   0.021035  -0.000000   0.006416   0.000390
    17  C   -0.000165  -0.002266  -0.000104  -0.000000  -0.001122   0.000506
    18  H   -0.000067  -0.000054  -0.000112  -0.000000   0.003891   0.001063
    19  H    0.000015   0.001239   0.001441   0.000000  -0.000035  -0.000029
    20  C    0.000001   0.000088   0.000058   0.000000  -0.000070  -0.000106
    21  F   -0.000000  -0.000000  -0.000000  -0.000000  -0.000001  -0.000001
    22  H   -0.000000  -0.000006  -0.000001   0.000000  -0.000016   0.000004
    23  C    0.000002  -0.000016  -0.000006   0.000000   0.000103   0.000204
    24  H   -0.000000   0.000007   0.000000  -0.000000  -0.000191   0.000007
    25  C   -0.000000  -0.000001  -0.000000  -0.000000   0.000036   0.000031
    26  H    0.000000   0.000000   0.000000   0.000000  -0.000001  -0.000001
    27  H   -0.000000   0.000000   0.000000  -0.000000  -0.000002   0.000001
    28  O    0.000000  -0.000000  -0.000000   0.000000  -0.000001   0.000001
    29  H   -0.000000  -0.000000   0.000000   0.000000   0.000000   0.000000
              13         14         15         16         17         18
     1  C    0.004892  -0.000215  -0.000016   0.000004  -0.000001   0.000003
     2  H   -0.000111   0.000003  -0.000000  -0.000000   0.000000  -0.000000
     3  H    0.000091  -0.000009   0.000001   0.000000  -0.000003   0.000002
     4  H    0.000013   0.000008  -0.000005  -0.000001   0.000001   0.000001
     5  C   -0.041785   0.006823   0.001823   0.000082  -0.000100  -0.000382
     6  C   -0.010472   0.000439  -0.000022  -0.000147   0.000014   0.000016
     7  N   -0.127650   0.005143  -0.000075   0.000509  -0.000165  -0.000067
     8  C    0.247666  -0.027656   0.001660  -0.006443  -0.002266  -0.000054
     9  O   -0.127983   0.003041   0.000317   0.021035  -0.000104  -0.000112
    10  O   -0.000067   0.000004  -0.000000  -0.000000  -0.000000  -0.000000
    11  C    0.303832  -0.042656   0.006332   0.006416  -0.001122   0.003891
    12  H   -0.046015  -0.005445   0.013681   0.000390   0.000506   0.001063
    13  N    7.188634   0.275550  -0.056031  -0.075411  -0.044139  -0.004519
    14  C    0.275550   4.704121   0.200770   0.379310   0.290807  -0.025864
    15  O   -0.056031   0.200770   8.399984  -0.036876  -0.056220  -0.000465
    16  H   -0.075411   0.379310  -0.036876   0.610415  -0.053860   0.005332
    17  C   -0.044139   0.290807  -0.056220  -0.053860   5.379555   0.338222
    18  H   -0.004519  -0.025864  -0.000465   0.005332   0.338222   0.571827
    19  H    0.000057  -0.017230   0.003787  -0.001716   0.351480  -0.031995
    20  C    0.002499  -0.028518  -0.032687  -0.002935   0.314941  -0.024963
    21  F   -0.000007   0.001316   0.000788  -0.000029  -0.028285   0.000524
    22  H   -0.000050   0.006207   0.002349   0.001582  -0.065688   0.006069
    23  C    0.001754  -0.040445   0.203382   0.002308  -0.061726  -0.004934
    24  H    0.000267   0.006474  -0.037595  -0.000309  -0.008757   0.002045
    25  C   -0.000144  -0.000395  -0.036545   0.000795   0.005047   0.000027
    26  H    0.000003   0.000001   0.003081  -0.000042   0.000213  -0.000004
    27  H    0.000006   0.000800  -0.000327  -0.000020  -0.000767   0.000004
    28  O   -0.000000   0.000004   0.000796   0.000004  -0.000093   0.000001
    29  H   -0.000000   0.000000  -0.000059   0.000000   0.000002  -0.000000
              19         20         21         22         23         24
     1  C   -0.000000  -0.000000   0.000000   0.000000   0.000000   0.000000
     2  H   -0.000000  -0.000000  -0.000000  -0.000000  -0.000000   0.000000
     3  H   -0.000000   0.000000  -0.000000   0.000000  -0.000000   0.000000
     4  H    0.000000  -0.000000   0.000000  -0.000000  -0.000000   0.000000
     5  C    0.000017  -0.000010  -0.000000  -0.000000   0.000032  -0.000039
     6  C   -0.000004   0.000000  -0.000000   0.000000  -0.000000   0.000000
     7  N    0.000015   0.000001  -0.000000  -0.000000   0.000002  -0.000000
     8  C    0.001239   0.000088  -0.000000  -0.000006  -0.000016   0.000007
     9  O    0.001441   0.000058  -0.000000  -0.000001  -0.000006   0.000000
    10  O    0.000000   0.000000  -0.000000   0.000000   0.000000  -0.000000
    11  C   -0.000035  -0.000070  -0.000001  -0.000016   0.000103  -0.000191
    12  H   -0.000029  -0.000106  -0.000001   0.000004   0.000204   0.000007
    13  N    0.000057   0.002499  -0.000007  -0.000050   0.001754   0.000267
    14  C   -0.017230  -0.028518   0.001316   0.006207  -0.040445   0.006474
    15  O    0.003787  -0.032687   0.000788   0.002349   0.203382  -0.037595
    16  H   -0.001716  -0.002935  -0.000029   0.001582   0.002308  -0.000309
    17  C    0.351480   0.314941  -0.028285  -0.065688  -0.061726  -0.008757
    18  H   -0.031995  -0.024963   0.000524   0.006069  -0.004934   0.002045
    19  H    0.551719  -0.027759   0.001263  -0.007496   0.006302  -0.000286
    20  C   -0.027759   4.741840   0.269800   0.374740   0.271890  -0.036031
    21  F    0.001263   0.269800   9.132023  -0.042114  -0.029317   0.002946
    22  H   -0.007496   0.374740  -0.042114   0.655390  -0.073380   0.008219
    23  C    0.006302   0.271890  -0.029317  -0.073380   5.039249   0.345121
    24  H   -0.000286  -0.036031   0.002946   0.008219   0.345121   0.602221
    25  C   -0.000015  -0.012454  -0.000279  -0.009098   0.338671  -0.047735
    26  H   -0.000011   0.001782   0.001243   0.000375  -0.032349   0.001197
    27  H   -0.000000  -0.001950   0.000009   0.006040  -0.042687   0.004521
    28  O    0.000000   0.002232  -0.000004   0.000133  -0.044193   0.001647
    29  H   -0.000000  -0.000186   0.000003   0.000011   0.002007   0.000692
              25         26         27         28         29
     1  C   -0.000000   0.000000   0.000000   0.000000  -0.000000
     2  H    0.000000   0.000000   0.000000   0.000000   0.000000
     3  H    0.000000  -0.000000   0.000000  -0.000000  -0.000000
     4  H   -0.000000   0.000000  -0.000000   0.000000   0.000000
     5  C    0.000001  -0.000000  -0.000000  -0.000000   0.000000
     6  C   -0.000000   0.000000   0.000000   0.000000  -0.000000
     7  N   -0.000000   0.000000  -0.000000   0.000000  -0.000000
     8  C   -0.000001   0.000000   0.000000  -0.000000  -0.000000
     9  O   -0.000000   0.000000   0.000000  -0.000000   0.000000
    10  O   -0.000000   0.000000  -0.000000   0.000000   0.000000
    11  C    0.000036  -0.000001  -0.000002  -0.000001   0.000000
    12  H    0.000031  -0.000001   0.000001   0.000001   0.000000
    13  N   -0.000144   0.000003   0.000006  -0.000000  -0.000000
    14  C   -0.000395   0.000001   0.000800   0.000004   0.000000
    15  O   -0.036545   0.003081  -0.000327   0.000796  -0.000059
    16  H    0.000795  -0.000042  -0.000020   0.000004   0.000000
    17  C    0.005047   0.000213  -0.000767  -0.000093   0.000002
    18  H    0.000027  -0.000004   0.000004   0.000001  -0.000000
    19  H   -0.000015  -0.000011  -0.000000   0.000000  -0.000000
    20  C   -0.012454   0.001782  -0.001950   0.002232  -0.000186
    21  F   -0.000279   0.001243   0.000009  -0.000004   0.000003
    22  H   -0.009098   0.000375   0.006040   0.000133   0.000011
    23  C    0.338671  -0.032349  -0.042687  -0.044193   0.002007
    24  H   -0.047735   0.001197   0.004521   0.001647   0.000692
    25  C    4.888789   0.352943   0.359021   0.245263  -0.020737
    26  H    0.352943   0.602268  -0.050011  -0.028099  -0.011757
    27  H    0.359021  -0.050011   0.597939  -0.034602   0.004493
    28  O    0.245263  -0.028099  -0.034602   8.286562   0.245677
    29  H   -0.020737  -0.011757   0.004493   0.245677   0.333824
 Mulliken charges:
               1
     1  C   -0.522127
     2  H    0.146970
     3  H    0.163767
     4  H    0.163128
     5  C   -0.026112
     6  C    0.443721
     7  N   -0.671539
     8  C    0.658696
     9  O   -0.598083
    10  O   -0.652471
    11  C    0.036365
    12  H    0.184633
    13  N   -0.490878
    14  C    0.307611
    15  O   -0.581827
    16  H    0.149604
    17  C   -0.357491
    18  H    0.164333
    19  H    0.169255
    20  C    0.187800
    21  F   -0.309879
    22  H    0.136729
    23  C    0.118030
    24  H    0.155580
    25  C   -0.063219
    26  H    0.159170
    27  H    0.157533
    28  O   -0.675328
    29  H    0.446030
 Sum of Mulliken charges =  -1.00000
 Mulliken charges with hydrogens summed into heavy atoms:
               1
     1  C   -0.048262
     5  C   -0.026112
     6  C    0.443721
     7  N   -0.671539
     8  C    0.658696
     9  O   -0.598083
    10  O   -0.652471
    11  C    0.220999
    13  N   -0.490878
    14  C    0.457215
    15  O   -0.581827
    17  C   -0.023903
    20  C    0.324528
    21  F   -0.309879
    23  C    0.273609
    25  C    0.253484
    28  O   -0.229298
 Electronic spatial extent (au):  <R**2>=           4935.5977
 Charge=             -1.0000 electrons
 Dipole moment (field-independent basis, Debye):
    X=            -20.6696    Y=              5.5235    Z=              4.8219  Tot=             21.9316
 Quadrupole moment (field-independent basis, Debye-Ang):
   XX=           -159.4702   YY=           -111.7841   ZZ=           -105.7503
   XY=              9.6097   XZ=             11.8646   YZ=             -1.8541
 Traceless Quadrupole moment (field-independent basis, Debye-Ang):
   XX=            -33.8020   YY=             13.8841   ZZ=             19.9179
   XY=              9.6097   XZ=             11.8646   YZ=             -1.8541
 Octapole moment (field-independent basis, Debye-Ang**2):
  XXX=           -487.4828  YYY=             38.0486  ZZZ=              9.1439  XYY=            -59.9195
  XXY=             58.0385  XXZ=             10.3712  XZZ=             -1.0805  YZZ=              1.0410
  YYZ=             24.3734  XYZ=            -26.0110
 Hexadecapole moment (field-independent basis, Debye-Ang**3):
 XXXX=          -5549.8551 YYYY=          -1168.1051 ZZZZ=           -554.3029 XXXY=           -212.1334
 XXXZ=            208.2876 YYYX=             -0.5414 YYYZ=            -66.8226 ZZZX=            -21.1126
 ZZZY=             -4.3173 XXYY=           -906.6948 XXZZ=           -907.1484 YYZZ=           -304.0955
 XXYZ=            -20.0227 YYXZ=             17.6245 ZZXY=             18.4127
 N-N= 1.253272434617D+03 E-N=-4.629190087013D+03  KE= 8.916577494540D+02
 No NMR shielding tensors so no spin-rotation constants.
 Leave Link  601 at Sun Jul 11 16:00:36 2021, MaxMem=   104857600 cpu:               0.4 elap:               0.1
 (Enter /prod/apps/gaussian/g16b1/l701.exe)
 ... and contract with generalized density number  0.
 Compute integral first derivatives.
 D1PCM: PCM CHGder 1st derivatives, ID1Alg=3 FixD1E=F DoIter=F DoCFld=F I1PDM=0.
 GePol: Maximum number of non-zero 1st derivatives   =     252
 Leave Link  701 at Sun Jul 11 16:00:38 2021, MaxMem=   104857600 cpu:               7.5 elap:               1.9
 (Enter /prod/apps/gaussian/g16b1/l702.exe)
 L702 exits ... SP integral derivatives will be done elsewhere.
 Leave Link  702 at Sun Jul 11 16:00:38 2021, MaxMem=   104857600 cpu:               0.1 elap:               0.0
 (Enter /prod/apps/gaussian/g16b1/l703.exe)
 Integral derivatives from FoFJK, PRISM(SPDF).
 Compute integral first derivatives, UseDBF=F ICtDFT=           0.
 Calling FoFJK, ICntrl=      2127 FMM=F ISym2X=0 I1Cent= 0 IOpClX= 0 NMat=1 NMatS=1 NMatT=0.
 FoFJK:  IHMeth= 1 ICntrl=    2127 DoSepK=F KAlg= 0 I1Cent=           0 FoldK=F
 IRaf=         0 NMat=       1 IRICut=       1 DoRegI=T DoRafI=F ISym2E= 0 IDoP0=0 IntGTp=1.
 FoFCou: FMM=F IPFlag=           0 FMFlag=      100000 FMFlg1=         800
         NFxFlg=           0 DoJE=F BraDBF=F KetDBF=F FulRan=T
         wScrn=  0.000000 ICntrl=      2127 IOpCl=  0 I1Cent=           0 NGrid=           0
         NMat0=    1 NMatS0=      1 NMatT0=    0 NMatD0=    1 NMtDS0=    0 NMtDT0=    0
 Symmetry not used in FoFCou.
 Leave Link  703 at Sun Jul 11 16:00:51 2021, MaxMem=   104857600 cpu:              53.1 elap:              13.3
 (Enter /prod/apps/gaussian/g16b1/l716.exe)
 Dipole        =-8.13205574D+00 2.17311853D+00 1.89708483D+00
 ***** Axes restored to original set *****
 -------------------------------------------------------------------
 Center     Atomic                   Forces (Hartrees/Bohr)
 Number     Number              X              Y              Z
 -------------------------------------------------------------------
      1        6          -0.011052001   -0.014473391    0.030977483
      2        1           0.000909083    0.010019871    0.000381470
      3        1           0.006932116    0.002904265   -0.002539026
      4        1          -0.006934671    0.005689060   -0.010092213
      5        6          -0.008655547    0.022755284   -0.009546773
      6        6           0.021965120   -0.016580987   -0.039608932
      7        7          -0.030115226   -0.007530791    0.031469336
      8        6          -0.048859991    0.091779227   -0.022395695
      9        8           0.061486293   -0.126785979    0.049089084
     10        8          -0.032522260    0.038830279   -0.000913495
     11        6          -0.017470251   -0.027871589    0.013618549
     12        1           0.001869242   -0.007305255    0.000447475
     13        7           0.025701064    0.035976396   -0.041276696
     14        6           0.065810245   -0.015135043   -0.010014308
     15        8           0.018940473    0.028320649   -0.002432403
     16        1           0.000433714   -0.006195939   -0.008061145
     17        6          -0.022150248   -0.009177354   -0.000933950
     18        1           0.003890758   -0.001380930   -0.009707546
     19        1          -0.002858915    0.000985891    0.005608641
     20        6           0.018972448    0.013370008    0.045660411
     21        9          -0.003592682   -0.005472451   -0.037467278
     22        1          -0.004738329   -0.009561077    0.007041751
     23        6          -0.017709061   -0.013185519    0.020032792
     24        1           0.005975071    0.007952958    0.002443091
     25        6           0.001353203    0.006249151   -0.018428115
     26        1          -0.007013514   -0.003714675   -0.015067900
     27        1          -0.011716021    0.008823479    0.010642855
     28        8          -0.005099272   -0.003047731    0.009930654
     29        1          -0.003750842   -0.006237808    0.001141882
 -------------------------------------------------------------------
 Cartesian Forces:  Max     0.126785979 RMS     0.026436090
 Leave Link  716 at Sun Jul 11 16:00:51 2021, MaxMem=   104857600 cpu:               0.1 elap:               0.1
 (Enter /prod/apps/gaussian/g16b1/l103.exe)

 GradGradGradGradGradGradGradGradGradGradGradGradGradGradGradGradGradGrad
 Berny optimization.
 FormGI is forming the generalized inverse of G from B-inverse, IUseBI=4.
 Internal  Forces:  Max     0.147894007 RMS     0.017216105
 Search for a local minimum.
 Step number   1 out of a maximum of  171
 All quantities printed in internal units (Hartrees-Bohrs-Radians)
 RMS Force = .17216D-01 SwitMx=.10000D-02 MixMth= 1
 Mixed Optimization -- RFO/linear search
 Second derivative matrix not updated -- first step.
 ITU=  0
     Eigenvalues ---    0.00230   0.00242   0.00509   0.00624   0.00991
     Eigenvalues ---    0.01250   0.01261   0.01627   0.01636   0.01877
     Eigenvalues ---    0.02126   0.02340   0.02472   0.02685   0.02955
     Eigenvalues ---    0.03076   0.03850   0.04339   0.04393   0.04675
     Eigenvalues ---    0.05042   0.05487   0.05791   0.05933   0.07221
     Eigenvalues ---    0.07227   0.07409   0.07756   0.07862   0.09030
     Eigenvalues ---    0.09416   0.11796   0.12851   0.14067   0.15016
     Eigenvalues ---    0.15909   0.15936   0.16000   0.16000   0.16000
     Eigenvalues ---    0.16000   0.20007   0.21004   0.21665   0.23330
     Eigenvalues ---    0.24711   0.24833   0.24952   0.24972   0.24990
[...]
 Center     Atomic      Atomic             Coordinates (Angstroms)
 Number     Number       Type             X           Y           Z
 ---------------------------------------------------------------------
      1          6           0        2.944345    2.581148    0.023204
      2          1           0        3.408514    2.861349   -0.928919
      3          1           0        3.698583    2.753288    0.799282
      4          1           0        2.105039    3.257849    0.205745
      5          6           0        2.489931    1.151711    0.009096
      6          6           0        3.466480    0.075088   -0.223356
      7          7           0        3.035093   -1.224403   -0.262389
      8          6           0        1.740806   -1.559730   -0.082049
      9          8           0        1.325751   -2.736057   -0.123212
     10          8           0        4.678369    0.352136   -0.389003
     11          6           0        1.202665    0.792628    0.197671
     12          1           0        0.417008    1.520722    0.363180
     13          7           0        0.798854   -0.523184    0.182922
     14          6           0       -0.603319   -0.850212    0.334447
     15          8           0       -1.365159   -0.255510   -0.741340
     16          1           0       -0.646509   -1.934295    0.246212
     17          6           0       -1.253112   -0.352889    1.629958
     18          1           0       -0.824207    0.606669    1.933483
     19          1           0       -1.135688   -1.064040    2.447987
     20          6           0       -2.696219   -0.123731    1.208220
     21          9           0       -3.334213    0.841859    1.989914
     22          1           0       -3.295839   -1.036672    1.269586
     23          6           0       -2.558218    0.363322   -0.240989
     24          1           0       -2.426263    1.455418   -0.219921
     25          6           0       -3.747003    0.013094   -1.123210
     26          1           0       -4.661267    0.385456   -0.636067
     27          1           0       -3.825046   -1.075423   -1.202967
     28          8           0       -3.626253    0.503110   -2.449373
     29          1           0       -3.663837    1.474063   -2.405086
 ---------------------------------------------------------------------
 Rotational constants (GHZ):           0.8120219           0.2437471           0.2348734
 Leave Link  202 at Sun Jul 11 17:07:52 2021, MaxMem=   262144000 cpu:               0.0 elap:               0.0
 (Enter /prod/apps/gaussian/g16b1/l301.exe)
 Standard basis: Aug-CC-pVDZ (5D, 7F)
 Ernie: Thresh=  0.10000D-02 Tol=  0.10000D-05 Strict=F.
 Ernie:  34 primitive shells out of 509 were deleted.
 There are   533 symmetry adapted cartesian basis functions of A   symmetry.
 There are   499 symmetry adapted basis functions of A   symmetry.
   499 basis functions,   863 primitive gaussians,   533 cartesian basis functions
    64 alpha electrons       64 beta electrons
       nuclear repulsion energy      1250.6612836293 Hartrees.
 IExCor=    0 DFT=F Ex=HF Corr=None ExCW=0 ScaHFX=  1.000000
 ScaDFX=  1.000000  1.000000  1.000000  1.000000 ScalE2=  1.000000  1.000000
 IRadAn=      5 IRanWt=     -1 IRanGd=            0 ICorTp=0 IEmpDi=  4
 NAtoms=   29 NActive=   29 NUniq=   29 SFac= 1.00D+00 NAtFMM=   60 NAOKFM=F Big=F
 Integral buffers will be    131072 words long.
 Raffenetti 1 integral format.
 Two-electron integral symmetry is turned on.
 Leave Link  301 at Sun Jul 11 17:07:52 2021, MaxMem=   262144000 cpu:               0.2 elap:               0.1
 (Enter /prod/apps/gaussian/g16b1/l302.exe)
 NPDir=0 NMtPBC=     1 NCelOv=     1 NCel=       1 NClECP=     1 NCelD=      1
         NCelK=      1 NCelE2=     1 NClLst=     1 CellRange=     0.0.
 One-electron integrals computed using PRISM.
 One-electron integral symmetry used in STVInt
 NBasis=   499 RedAO= T EigKep=  3.43D-06  NBF=   499
 NBsUse=   499 1.00D-06 EigRej= -1.00D+00 NBFU=   499
 Leave Link  302 at Sun Jul 11 17:07:52 2021, MaxMem=   262144000 cpu:               1.2 elap:               0.3
 (Enter /prod/apps/gaussian/g16b1/l303.exe)
 DipDrv:  MaxL=1.
 Leave Link  303 at Sun Jul 11 17:07:53 2021, MaxMem=   262144000 cpu:               0.3 elap:               0.1
 (Enter /prod/apps/gaussian/g16b1/l401.exe)
 ExpMin= 2.97D-02 ExpMax= 1.47D+04 ExpMxC= 5.03D+02 IAcc=3 IRadAn=         5 AccDes= 0.00D+00
 Harris functional with IExCor=  205 and IRadAn=       5 diagonalized for initial guess.
 HarFok:  IExCor=  205 AccDes= 0.00D+00 IRadAn=         5 IDoV= 1 UseB2=F ITyADJ=14
 ICtDFT=  3500011 ScaDFX=  1.000000  1.000000  1.000000  1.000000
 FoFCou: FMM=F IPFlag=           0 FMFlag=      100000 FMFlg1=           0
         NFxFlg=           0 DoJE=T BraDBF=F KetDBF=T FulRan=T
         wScrn=  0.000000 ICntrl=       500 IOpCl=  0 I1Cent=   200000004 NGrid=           0
         NMat0=    1 NMatS0=      1 NMatT0=    0 NMatD0=    1 NMtDS0=    0 NMtDT0=    0
 Petite list used in FoFCou.
 Harris En= -894.518817629095    
 JPrj=0 DoOrth=F DoCkMO=F.
 Leave Link  401 at Sun Jul 11 17:07:55 2021, MaxMem=   262144000 cpu:              10.0 elap:               2.5
 (Enter /prod/apps/gaussian/g16b1/l502.exe)
 Integral symmetry usage will be decided dynamically.
 Closed shell SCF:
 Using DIIS extrapolation, IDIIS=  1040.
 NGot=   262144000 LenX=   261567649 LenY=   261283027
 Requested convergence on RMS density matrix=1.00D-08 within 128 cycles.
 Requested convergence on MAX density matrix=1.00D-06.
 Requested convergence on             energy=1.00D-06.
 No special actions if energy rises.
 Fock matrices will be formed incrementally for  20 cycles.

 Cycle   1  Pass 1  IDiag  1:
 FoFJK:  IHMeth= 1 ICntrl=       0 DoSepK=F KAlg= 0 I1Cent=           0 FoldK=F
 IRaf= 940000000 NMat=       1 IRICut=       1 DoRegI=T DoRafI=F ISym2E= 0 IDoP0=0 IntGTp=1.
 FoFCou: FMM=F IPFlag=           0 FMFlag=      100000 FMFlg1=           0
         NFxFlg=           0 DoJE=F BraDBF=F KetDBF=F FulRan=T
         wScrn=  0.000000 ICntrl=         0 IOpCl=  0 I1Cent=           0 NGrid=           0
         NMat0=    1 NMatS0=      1 NMatT0=    0 NMatD0=    1 NMtDS0=    0 NMtDT0=    0
 Symmetry not used in FoFCou.
 E= -893.005410056539    
 DIIS: error= 1.76D-02 at cycle   1 NSaved=   1.
 NSaved= 1 IEnMin= 1 EnMin= -893.005410056539     IErMin= 1 ErrMin= 1.76D-02
 ErrMax= 1.76D-02  0.00D+00 EMaxC= 1.00D-01 BMatC= 8.83D-01 BMatP= 8.83D-01
 IDIUse=3 WtCom= 8.24D-01 WtEn= 1.76D-01
 Coeff-Com:  0.100D+01
 Coeff-En:   0.100D+01
 Coeff:      0.100D+01
 Gap=     0.450 Goal=   None    Shift=    0.000
 GapD=    0.450 DampG=2.000 DampE=0.500 DampFc=1.0000 IDamp=-1.
 RMSDP=2.32D-02 MaxDP=3.77D+00              OVMax= 1.82D-01

 Cycle   2  Pass 1  IDiag  1:
 RMSU=  1.14D-02    CP:  4.87D-01
 E= -893.483781217743     Delta-E=       -0.478371161204 Rises=F Damp=F
 DIIS: error= 8.58D-03 at cycle   2 NSaved=   2.
 NSaved= 2 IEnMin= 2 EnMin= -893.483781217743     IErMin= 2 ErrMin= 8.58D-03
 ErrMax= 8.58D-03  0.00D+00 EMaxC= 1.00D-01 BMatC= 1.66D-01 BMatP= 8.83D-01
 IDIUse=3 WtCom= 9.14D-01 WtEn= 8.58D-02
 Coeff-Com:  0.250D+00 0.750D+00
 Coeff-En:   0.000D+00 0.100D+01
 Coeff:      0.228D+00 0.772D+00
 Gap=     0.307 Goal=   None    Shift=    0.000
 RMSDP=2.75D-03 MaxDP=3.22D-01 DE=-4.78D-01 OVMax= 7.23D-02

 Cycle   3  Pass 1  IDiag  1:
 RMSU=  2.33D-03    CP:  4.57D-01  9.24D-01
 E= -893.600626642627     Delta-E=       -0.116845424884 Rises=F Damp=F
 DIIS: error= 3.49D-03 at cycle   3 NSaved=   3.
 NSaved= 3 IEnMin= 3 EnMin= -893.600626642627     IErMin= 3 ErrMin= 3.49D-03
 ErrMax= 3.49D-03  0.00D+00 EMaxC= 1.00D-01 BMatC= 2.07D-02 BMatP= 1.66D-01
 IDIUse=3 WtCom= 9.65D-01 WtEn= 3.49D-02
 Coeff-Com: -0.105D-01 0.233D+00 0.778D+00
 Coeff-En:   0.000D+00 0.000D+00 0.100D+01
 Coeff:     -0.101D-01 0.225D+00 0.785D+00
 Gap=     0.289 Goal=   None    Shift=    0.000
 RMSDP=6.62D-04 MaxDP=3.62D-02 DE=-1.17D-01 OVMax= 3.78D-02

 Cycle   4  Pass 1  IDiag  1:
 RMSU=  6.04D-04    CP:  4.52D-01  9.42D-01  9.72D-01
 E= -893.616976055077     Delta-E=       -0.016349412450 Rises=F Damp=F
 DIIS: error= 7.01D-04 at cycle   4 NSaved=   4.
 NSaved= 4 IEnMin= 4 EnMin= -893.616976055077     IErMin= 4 ErrMin= 7.01D-04
 ErrMax= 7.01D-04  0.00D+00 EMaxC= 1.00D-01 BMatC= 1.31D-03 BMatP= 2.07D-02
 IDIUse=3 WtCom= 9.93D-01 WtEn= 7.01D-03
 Coeff-Com: -0.163D-01 0.235D-01 0.238D+00 0.755D+00
 Coeff-En:   0.000D+00 0.000D+00 0.000D+00 0.100D+01
 Coeff:     -0.161D-01 0.233D-01 0.236D+00 0.757D+00
 Gap=     0.277 Goal=   None    Shift=    0.000
 RMSDP=2.57D-04 MaxDP=1.60D-02 DE=-1.63D-02 OVMax= 6.11D-03

 Cycle   5  Pass 1  IDiag  1:
 RMSU=  2.06D-04    CP:  4.49D-01  9.43D-01  9.98D-01  9.17D-01
 E= -893.618394170321     Delta-E=       -0.001418115245 Rises=F Damp=F
 DIIS: error= 3.12D-04 at cycle   5 NSaved=   5.
 NSaved= 5 IEnMin= 5 EnMin= -893.618394170321     IErMin= 5 ErrMin= 3.12D-04
 ErrMax= 3.12D-04  0.00D+00 EMaxC= 1.00D-01 BMatC= 6.91D-05 BMatP= 1.31D-03
 IDIUse=3 WtCom= 9.97D-01 WtEn= 3.12D-03
 Coeff-Com:  0.114D-02-0.170D-01-0.667D-01-0.325D-01 0.112D+01
 Coeff-En:   0.000D+00 0.000D+00 0.000D+00 0.000D+00 0.100D+01
 Coeff:      0.114D-02-0.169D-01-0.665D-01-0.324D-01 0.111D+01
 Gap=     0.278 Goal=   None    Shift=    0.000
 RMSDP=1.09D-04 MaxDP=8.49D-03 DE=-1.42D-03 OVMax= 6.31D-03

 Cycle   6  Pass 1  IDiag  1:
 RMSU=  6.03D-05    CP:  4.48D-01  9.42D-01  1.02D+00  1.00D+00  1.18D+00
 E= -893.618598837945     Delta-E=       -0.000204667624 Rises=F Damp=F
 DIIS: error= 9.30D-05 at cycle   6 NSaved=   6.
 NSaved= 6 IEnMin= 6 EnMin= -893.618598837945     IErMin= 6 ErrMin= 9.30D-05
 ErrMax= 9.30D-05  0.00D+00 EMaxC= 1.00D-01 BMatC= 1.72D-05 BMatP= 6.91D-05
 IDIUse=1 WtCom= 1.00D+00 WtEn= 0.00D+00
 Coeff-Com:  0.221D-02-0.719D-02-0.438D-01-0.112D+00 0.273D+00 0.888D+00
 Coeff:      0.221D-02-0.719D-02-0.438D-01-0.112D+00 0.273D+00 0.888D+00
 Gap=     0.279 Goal=   None    Shift=    0.000
 RMSDP=3.68D-05 MaxDP=1.81D-03 DE=-2.05D-04 OVMax= 2.61D-03

 Cycle   7  Pass 1  IDiag  1:
 RMSU=  1.89D-05    CP:  4.48D-01  9.42D-01  1.03D+00  1.03D+00  1.26D+00
                    CP:  1.28D+00
 E= -893.618637467846     Delta-E=       -0.000038629902 Rises=F Damp=F
 DIIS: error= 4.44D-05 at cycle   7 NSaved=   7.
 NSaved= 7 IEnMin= 7 EnMin= -893.618637467846     IErMin= 7 ErrMin= 4.44D-05
 ErrMax= 4.44D-05  0.00D+00 EMaxC= 1.00D-01 BMatC= 2.27D-06 BMatP= 1.72D-05
 IDIUse=1 WtCom= 1.00D+00 WtEn= 0.00D+00
 Coeff-Com: -0.812D-04 0.236D-02 0.110D-01-0.752D-02-0.155D+00-0.160D-01
 Coeff-Com:  0.117D+01
 Coeff:     -0.812D-04 0.236D-02 0.110D-01-0.752D-02-0.155D+00-0.160D-01
 Coeff:      0.117D+01
 Gap=     0.280 Goal=   None    Shift=    0.000
 RMSDP=1.92D-05 MaxDP=8.43D-04 DE=-3.86D-05 OVMax= 1.79D-03

 Cycle   8  Pass 1  IDiag  1:
 RMSU=  9.00D-06    CP:  4.48D-01  9.42D-01  1.03D+00  1.03D+00  1.30D+00
                    CP:  1.47D+00  1.39D+00
 E= -893.618645830199     Delta-E=       -0.000008362353 Rises=F Damp=F
 DIIS: error= 1.95D-05 at cycle   8 NSaved=   8.
 NSaved= 8 IEnMin= 8 EnMin= -893.618645830199     IErMin= 8 ErrMin= 1.95D-05
 ErrMax= 1.95D-05  0.00D+00 EMaxC= 1.00D-01 BMatC= 3.72D-07 BMatP= 2.27D-06
 IDIUse=1 WtCom= 1.00D+00 WtEn= 0.00D+00
 Coeff-Com: -0.330D-03 0.138D-02 0.865D-02 0.131D-01-0.450D-01-0.144D+00
 Coeff-Com:  0.126D+00 0.104D+01
 Coeff:     -0.330D-03 0.138D-02 0.865D-02 0.131D-01-0.450D-01-0.144D+00
 Coeff:      0.126D+00 0.104D+01
 Gap=     0.280 Goal=   None    Shift=    0.000
 RMSDP=7.68D-06 MaxDP=5.24D-04 DE=-8.36D-06 OVMax= 6.32D-04

 Cycle   9  Pass 1  IDiag  1:
 RMSU=  3.68D-06    CP:  4.48D-01  9.42D-01  1.03D+00  1.03D+00  1.31D+00
                    CP:  1.52D+00  1.61D+00  1.38D+00
 E= -893.618646919727     Delta-E=       -0.000001089528 Rises=F Damp=F
 DIIS: error= 5.88D-06 at cycle   9 NSaved=   9.
 NSaved= 9 IEnMin= 9 EnMin= -893.618646919727     IErMin= 9 ErrMin= 5.88D-06
 ErrMax= 5.88D-06  0.00D+00 EMaxC= 1.00D-01 BMatC= 5.46D-08 BMatP= 3.72D-07
 IDIUse=1 WtCom= 1.00D+00 WtEn= 0.00D+00
 Coeff-Com: -0.534D-04-0.301D-04 0.337D-03 0.207D-02 0.133D-01-0.312D-01
 Coeff-Com: -0.128D+00 0.173D+00 0.970D+00
 Coeff:     -0.534D-04-0.301D-04 0.337D-03 0.207D-02 0.133D-01-0.312D-01
 Coeff:     -0.128D+00 0.173D+00 0.970D+00
 Gap=     0.280 Goal=   None    Shift=    0.000
 RMSDP=3.09D-06 MaxDP=2.22D-04 DE=-1.09D-06 OVMax= 2.60D-04

 Cycle  10  Pass 1  IDiag  1:
 RMSU=  1.29D-06    CP:  4.48D-01  9.42D-01  1.03D+00  1.03D+00  1.31D+00
                    CP:  1.54D+00  1.68D+00  1.56D+00  1.28D+00
 E= -893.618647072000     Delta-E=       -0.000000152272 Rises=F Damp=F
 DIIS: error= 3.03D-06 at cycle  10 NSaved=  10.
 NSaved=10 IEnMin=10 EnMin= -893.618647072000     IErMin=10 ErrMin= 3.03D-06
 ErrMax= 3.03D-06  0.00D+00 EMaxC= 1.00D-01 BMatC= 8.39D-09 BMatP= 5.46D-08
 IDIUse=1 WtCom= 1.00D+00 WtEn= 0.00D+00
 Coeff-Com:  0.453D-04-0.220D-03-0.120D-02-0.231D-02 0.859D-02 0.190D-01
 Coeff-Com: -0.168D-01-0.173D+00 0.738D-01 0.109D+01
 Coeff:      0.453D-04-0.220D-03-0.120D-02-0.231D-02 0.859D-02 0.190D-01
 Coeff:     -0.168D-01-0.173D+00 0.738D-01 0.109D+01
 Gap=     0.280 Goal=   None    Shift=    0.000
 RMSDP=1.18D-06 MaxDP=8.20D-05 DE=-1.52D-07 OVMax= 8.38D-05

 Cycle  11  Pass 1  IDiag  1:
 RMSU=  5.10D-07    CP:  4.48D-01  9.42D-01  1.03D+00  1.03D+00  1.31D+00
                    CP:  1.54D+00  1.70D+00  1.62D+00  1.46D+00  1.25D+00
 E= -893.618647094632     Delta-E=       -0.000000022632 Rises=F Damp=F
 DIIS: error= 8.28D-07 at cycle  11 NSaved=  11.
 NSaved=11 IEnMin=11 EnMin= -893.618647094632     IErMin=11 ErrMin= 8.28D-07
 ErrMax= 8.28D-07  0.00D+00 EMaxC= 1.00D-01 BMatC= 1.18D-09 BMatP= 8.39D-09
 IDIUse=1 WtCom= 1.00D+00 WtEn= 0.00D+00
 Coeff-Com:  0.165D-04-0.407D-04-0.234D-03-0.855D-03-0.494D-03 0.783D-02
 Coeff-Com:  0.197D-01-0.640D-01-0.129D+00 0.189D+00 0.978D+00
 Coeff:      0.165D-04-0.407D-04-0.234D-03-0.855D-03-0.494D-03 0.783D-02
 Coeff:      0.197D-01-0.640D-01-0.129D+00 0.189D+00 0.978D+00
 Gap=     0.280 Goal=   None    Shift=    0.000
 RMSDP=4.53D-07 MaxDP=3.46D-05 DE=-2.26D-08 OVMax= 2.53D-05

 Cycle  12  Pass 1  IDiag  1:
 RMSU=  2.07D-07    CP:  4.48D-01  9.42D-01  1.03D+00  1.03D+00  1.31D+00
                    CP:  1.54D+00  1.70D+00  1.64D+00  1.52D+00  1.37D+00
                    CP:  1.27D+00
 E= -893.618647097410     Delta-E=       -0.000000002778 Rises=F Damp=F
 DIIS: error= 2.30D-07 at cycle  12 NSaved=  12.
 NSaved=12 IEnMin=12 EnMin= -893.618647097410     IErMin=12 ErrMin= 2.30D-07
 ErrMax= 2.30D-07  0.00D+00 EMaxC= 1.00D-01 BMatC= 1.03D-10 BMatP= 1.18D-09
 IDIUse=1 WtCom= 1.00D+00 WtEn= 0.00D+00
 Coeff-Com: -0.433D-05 0.212D-04 0.144D-03 0.222D-03-0.113D-02-0.191D-02
 Coeff-Com:  0.358D-02 0.158D-01-0.114D-01-0.120D+00 0.109D-01 0.110D+01
 Coeff:     -0.433D-05 0.212D-04 0.144D-03 0.222D-03-0.113D-02-0.191D-02
 Coeff:      0.358D-02 0.158D-01-0.114D-01-0.120D+00 0.109D-01 0.110D+01
 Gap=     0.280 Goal=   None    Shift=    0.000
 RMSDP=1.63D-07 MaxDP=1.14D-05 DE=-2.78D-09 OVMax= 7.89D-06

 Cycle  13  Pass 1  IDiag  1:
 RMSU=  8.28D-08    CP:  4.48D-01  9.42D-01  1.03D+00  1.03D+00  1.32D+00
                    CP:  1.54D+00  1.71D+00  1.64D+00  1.52D+00  1.37D+00
                    CP:  1.40D+00  1.34D+00
 E= -893.618647097696     Delta-E=       -0.000000000286 Rises=F Damp=F
 DIIS: error= 8.76D-08 at cycle  13 NSaved=  13.
 NSaved=13 IEnMin=13 EnMin= -893.618647097696     IErMin=13 ErrMin= 8.76D-08
 ErrMax= 8.76D-08  0.00D+00 EMaxC= 1.00D-01 BMatC= 1.26D-11 BMatP= 1.03D-10
 IDIUse=1 WtCom= 1.00D+00 WtEn= 0.00D+00
 Coeff-Com: -0.227D-05 0.712D-05 0.487D-04 0.112D-03-0.186D-03-0.978D-03
 Coeff-Com: -0.112D-02 0.817D-02 0.109D-01-0.332D-01-0.107D+00 0.194D+00
 Coeff-Com:  0.929D+00
 Coeff:     -0.227D-05 0.712D-05 0.487D-04 0.112D-03-0.186D-03-0.978D-03
 Coeff:     -0.112D-02 0.817D-02 0.109D-01-0.332D-01-0.107D+00 0.194D+00
 Coeff:      0.929D+00
 Gap=     0.280 Goal=   None    Shift=    0.000
 RMSDP=4.55D-08 MaxDP=2.52D-06 DE=-2.86D-10 OVMax= 2.30D-06

 Cycle  14  Pass 1  IDiag  1:
 RMSU=  1.97D-08    CP:  4.48D-01  9.42D-01  1.03D+00  1.03D+00  1.32D+00
                    CP:  1.54D+00  1.71D+00  1.64D+00  1.52D+00  1.37D+00
                    CP:  1.41D+00  1.46D+00  1.24D+00
 E= -893.618647097727     Delta-E=       -0.000000000030 Rises=F Damp=F
 DIIS: error= 2.99D-08 at cycle  14 NSaved=  14.
 NSaved=14 IEnMin=14 EnMin= -893.618647097727     IErMin=14 ErrMin= 2.99D-08
 ErrMax= 2.99D-08  0.00D+00 EMaxC= 1.00D-01 BMatC= 1.92D-12 BMatP= 1.26D-11
 IDIUse=1 WtCom= 1.00D+00 WtEn= 0.00D+00
 Coeff-Com:  0.251D-06-0.184D-05-0.115D-04-0.135D-04 0.123D-03 0.167D-03
 Coeff-Com: -0.661D-03-0.111D-02 0.276D-02 0.137D-01-0.234D-01-0.120D+00
 Coeff-Com:  0.135D+00 0.994D+00
 Coeff:      0.251D-06-0.184D-05-0.115D-04-0.135D-04 0.123D-03 0.167D-03
 Coeff:     -0.661D-03-0.111D-02 0.276D-02 0.137D-01-0.234D-01-0.120D+00
 Coeff:      0.135D+00 0.994D+00
 Gap=     0.280 Goal=   None    Shift=    0.000
 RMSDP=2.03D-08 MaxDP=1.70D-06 DE=-3.05D-11 OVMax= 1.13D-06

 Cycle  15  Pass 1  IDiag  1:
 RMSU=  9.49D-09    CP:  4.48D-01  9.42D-01  1.03D+00  1.03D+00  1.32D+00
                    CP:  1.54D+00  1.71D+00  1.64D+00  1.52D+00  1.36D+00
                    CP:  1.41D+00  1.50D+00  1.37D+00  1.38D+00
 E= -893.618647097727     Delta-E=       -0.000000000000 Rises=F Damp=F
 DIIS: error= 1.41D-08 at cycle  15 NSaved=  15.
 NSaved=15 IEnMin=15 EnMin= -893.618647097727     IErMin=15 ErrMin= 1.41D-08
 ErrMax= 1.41D-08  0.00D+00 EMaxC= 1.00D-01 BMatC= 2.14D-13 BMatP= 1.92D-12
 IDIUse=1 WtCom= 1.00D+00 WtEn= 0.00D+00
 Coeff-Com:  0.294D-06-0.102D-05-0.635D-05-0.162D-04 0.183D-04 0.158D-03
 Coeff-Com:  0.144D-03-0.114D-02-0.182D-02 0.583D-02 0.124D-01-0.251D-01
 Coeff-Com: -0.114D+00-0.181D-01 0.114D+01
 Coeff:      0.294D-06-0.102D-05-0.635D-05-0.162D-04 0.183D-04 0.158D-03
 Coeff:      0.144D-03-0.114D-02-0.182D-02 0.583D-02 0.124D-01-0.251D-01
 Coeff:     -0.114D+00-0.181D-01 0.114D+01
 Gap=     0.280 Goal=   None    Shift=    0.000
 RMSDP=8.30D-09 MaxDP=6.91D-07 DE=-4.55D-13 OVMax= 6.08D-07

 SCF Done:  E(RHF) =  -893.618647098     A.U. after   15 cycles
            NFock= 15  Conv=0.83D-08     -V/T= 2.0014
 KE= 8.923520445379D+02 PE=-4.620178736350D+03 EE= 1.583546761085D+03
 Leave Link  502 at Sun Jul 11 17:15:33 2021, MaxMem=   262144000 cpu:            1831.9 elap:             458.0
 (Enter /prod/apps/gaussian/g16b1/l801.exe)
 ExpMin= 2.97D-02 ExpMax= 1.47D+04 ExpMxC= 5.03D+02 IAcc=3 IRadAn=         5 AccDes= 0.00D+00
 HarFok:  IExCor=  205 AccDes= 0.00D+00 IRadAn=         5 IDoV=-2 UseB2=F ITyADJ=14
 ICtDFT= 12500011 ScaDFX=  1.000000  1.000000  1.000000  1.000000
 Largest valence mixing into a core orbital is  1.19D-04
 Largest core mixing into a valence orbital is  4.31D-05
 Range of M.O.s used for correlation:    18   499
 NBasis=   499 NAE=    64 NBE=    64 NFC=    17 NFV=     0
 NROrb=    482 NOA=    47 NOB=    47 NVA=   435 NVB=   435

 **** Warning!!: The largest alpha MO coefficient is  0.11575393D+03

 Leave Link  801 at Sun Jul 11 17:15:33 2021, MaxMem=   262144000 cpu:               0.9 elap:               0.3
 (Enter /prod/apps/gaussian/g16b1/l906.exe)
 FulOut=F Deriv=F AODrv=F NAtomX=    29
   MMem=           5  MDisk=          47 MDiskD=          47
  W3Min=    10897185 MinDsk=    11358598 NBas6D=         533
 NBas2D=      143046    NTT=      142311    LW2=     2000000
    MDV=   260393347 MDiskM=        6733 NBas2p=      130688
 Disk-based method using OVN memory for 47 occupieds at a time.
 Estimated scratch disk usage=  8275822720 words.
 IMap=   1   2   3   4   5   6   7   8   9  10  11  12  13  14  15  16  17  18  19  20
 IMap=  21  22  23  24  25  26  27  28  29  30  31  32  33  34  35  36  37  38  39  40
 IMap=  41  42  43  44  45  46  47
 Actual    scratch disk usage=  8036710016 words.
 JobTyp=1 Pass  1:  I=   1 to  47 NPSUse=  4 ParTrn=T ParDer=T DoDerP=F.
Erroneous write. Write -1 instead of 1540568.
fd = 4
orig len = 8384512 left = 1540568
