 Entering Gaussian System, Link 0=g16
 Initial command:
 /prod/apps/gaussian/g16b1/l1.exe "/tmp/ubator02/1834571/Gau-10852.inp" -scrdir="/tmp/ubator02/1834571/"
 Entering Link 1 = /prod/apps/gaussian/g16b1/l1.exe PID=     10853.
  
 Copyright (c) 1988-2017, Gaussian, Inc.  All Rights Reserved.
  
 This is part of the Gaussian(R) 16 program.  It is based on
 the Gaussian(R) 09 system (copyright 2009, Gaussian, Inc.),
 the Gaussian(R) 03 system (copyright 2003, Gaussian, Inc.),
 the Gaussian(R) 98 system (copyright 1998, Gaussian, Inc.),
 the Gaussian(R) 94 system (copyright 1995, Gaussian, Inc.),
 the Gaussian 92(TM) system (copyright 1992, Gaussian, Inc.),
 the Gaussian 90(TM) system (copyright 1990, Gaussian, Inc.),
 the Gaussian 88(TM) system (copyright 1988, Gaussian, Inc.),
 the Gaussian 86(TM) system (copyright 1986, Carnegie Mellon
 University), and the Gaussian 82(TM) system (copyright 1983,
 Carnegie Mellon University). Gaussian is a federally registered
 trademark of Gaussian, Inc.
  
 This software contains proprietary and confidential information,
 including trade secrets, belonging to Gaussian, Inc.
  
 This software is provided under written license and may be
 used, copied, transmitted, or stored only in accord with that
 written license.
  
 The following legend is applicable only to US Government
 contracts under FAR:
  
                    RESTRICTED RIGHTS LEGEND
  
 Use, reproduction and disclosure by the US Government is
 subject to restrictions as set forth in subparagraphs (a)
 and (c) of the Commercial Computer Software - Restricted
 Rights clause in FAR 52.227-19.
  
 Gaussian, Inc.
 340 Quinnipiac St., Bldg. 40, Wallingford CT 06492
  
  
 ---------------------------------------------------------------
 Warning -- This program may not be used in any manner that
 competes with the business of Gaussian, Inc. or will provide
 assistance to any competitor of Gaussian, Inc.  The licensee
 of this program is prohibited from giving any competitor of
 Gaussian, Inc. access to this program.  By using this program,
 the user acknowledges that Gaussian, Inc. is engaged in the
 business of creating and licensing software in the field of
 computational chemistry and represents and warrants to the
 licensee that it is not a competitor of Gaussian, Inc. and that
 it will not use this program in any manner prohibited above.
 ---------------------------------------------------------------
  

 Cite this work as:
 Gaussian 16, Revision B.01,
 M. J. Frisch, G. W. Trucks, H. B. Schlegel, G. E. Scuseria, 
 M. A. Robb, J. R. Cheeseman, G. Scalmani, V. Barone, 
 G. A. Petersson, H. Nakatsuji, X. Li, M. Caricato, A. V. Marenich, 
 J. Bloino, B. G. Janesko, R. Gomperts, B. Mennucci, H. P. Hratchian, 
 J. V. Ortiz, A. F. Izmaylov, J. L. Sonnenberg, D. Williams-Young, 
 F. Ding, F. Lipparini, F. Egidi, J. Goings, B. Peng, A. Petrone, 
 T. Henderson, D. Ranasinghe, V. G. Zakrzewski, J. Gao, N. Rega, 
 G. Zheng, W. Liang, M. Hada, M. Ehara, K. Toyota, R. Fukuda, 
 J. Hasegawa, M. Ishida, T. Nakajima, Y. Honda, O. Kitao, H. Nakai, 
 T. Vreven, K. Throssell, J. A. Montgomery, Jr., J. E. Peralta, 
 F. Ogliaro, M. J. Bearpark, J. J. Heyd, E. N. Brothers, K. N. Kudin, 
 V. N. Staroverov, T. A. Keith, R. Kobayashi, J. Normand, 
 K. Raghavachari, A. P. Rendell, J. C. Burant, S. S. Iyengar, 
 J. Tomasi, M. Cossi, J. M. Millam, M. Klene, C. Adamo, R. Cammi, 
 J. W. Ochterski, R. L. Martin, K. Morokuma, O. Farkas, 
 J. B. Foresman, and D. J. Fox, Gaussian, Inc., Wallingford CT, 2016.
 
 ******************************************
 Gaussian 16:  ES64L-G16RevB.01 20-Dec-2017
                11-Jul-2021 
 ******************************************
 %mem=800MB
 %nproc=4
 Will use up to    4 processors via shared memory.
 %chk=SET_328_BBB299_conf1.geo_000_180.chk
 -----------------------------------------------------------
 #p b3lyp/6-31G(d) opt freq scrf=(iefpcm,read,solvent=water)
 -----------------------------------------------------------
 1/18=20,19=15,26=3,38=1,40=2/1,3;
 2/9=110,12=2,17=6,18=5,40=1/2;
 3/5=1,6=6,7=1,11=2,25=1,30=1,70=2203,71=1,72=1,74=-5/1,2,3;
 4//1;
 5/5=2,38=5,53=1/2;
 6/7=2,8=2,9=2,10=2,28=1/1;
 7//1,2,3,16;
 1/18=20,19=15,26=3/3(2);
 2/9=110/2;
 99//99;
 2/9=110/2;
 3/5=1,6=6,7=1,11=2,25=1,30=1,70=2205,71=1,72=1,74=-5/1,2,3;
 4/5=5,16=3,69=1/1;
 5/5=2,38=5,53=1/2;
 7//1,2,3,16;
 1/18=20,19=15,26=3/3(-5);
 2/9=110/2;
 6/7=2,8=2,9=2,10=2,19=2,28=1/1;
 99/9=1/99;
 Leave Link    1 at Sun Jul 11 16:10:14 2021, MaxMem=   104857600 cpu:               0.1 elap:               0.0
 (Enter /prod/apps/gaussian/g16b1/l101.exe)
 -----------------------------------------
 SET_328_BBB299_conf1.geo_000_180 geometry
 -----------------------------------------
 Symbolic Z-matrix:
 Charge = -1 Multiplicity = 1
 O                    -1.895    -1.247     1.793 
 C                    -1.21     -1.692     0.772 
 O                    -1.394    -2.882     0.488 
 C                    -0.413    -0.665     0.071 
 C                    -0.382     0.699     0.465 
 O                    -1.319     1.179     1.341 
 H                    -1.048     2.112     1.412 
 C                     0.52      1.539    -0.153 
 H                     0.577     2.524     0.303 
 C                     1.455     1.103    -1.1 
 H                     2.12      1.8      -1.602 
 C                     1.492    -0.223    -1.431 
 H                     2.223    -0.693    -2.085 
 C                     0.483    -1.096    -0.908 
 H                     0.544    -2.169    -1.073 
 
 ITRead=  0  0  0  0  0  0  0  0  0  0  0  0  0  0  0
 MicOpt= -1 -1 -1 -1 -1 -1 -1 -1 -1 -1 -1 -1 -1 -1 -1
 NAtoms=     15 NQM=       15 NQMF=       0 NMMI=      0 NMMIF=      0
                NMic=       0 NMicF=      0.
                    Isotopes and Nuclear Properties:
 (Nuclear quadrupole moments (NQMom) in fm**2, nuclear magnetic moments (NMagM)
  in nuclear magnetons)

  Atom         1           2           3           4           5           6           7           8           9          10
 IAtWgt=          16          12          16          12          12          16           1          12           1          12
 AtmWgt=  15.9949146  12.0000000  15.9949146  12.0000000  12.0000000  15.9949146   1.0078250  12.0000000   1.0078250  12.0000000
 NucSpn=           0           0           0           0           0           0           1           0           1           0
 AtZEff=  -0.0000000  -0.0000000  -0.0000000  -0.0000000  -0.0000000  -0.0000000  -0.0000000  -0.0000000  -0.0000000  -0.0000000
 NQMom=    0.0000000   0.0000000   0.0000000   0.0000000   0.0000000   0.0000000   0.0000000   0.0000000   0.0000000   0.0000000
 NMagM=    0.0000000   0.0000000   0.0000000   0.0000000   0.0000000   0.0000000   2.7928460   0.0000000   2.7928460   0.0000000
 AtZNuc=   8.0000000   6.0000000   8.0000000   6.0000000   6.0000000   8.0000000   1.0000000   6.0000000   1.0000000   6.0000000

  Atom        11          12          13          14          15
 IAtWgt=           1          12           1          12           1
 AtmWgt=   1.0078250  12.0000000   1.0078250  12.0000000   1.0078250
 NucSpn=           1           0           1           0           1
 AtZEff=  -0.0000000  -0.0000000  -0.0000000  -0.0000000  -0.0000000
 NQMom=    0.0000000   0.0000000   0.0000000   0.0000000   0.0000000
 NMagM=    2.7928460   0.0000000   2.7928460   0.0000000   2.7928460
 AtZNuc=   1.0000000   6.0000000   1.0000000   6.0000000   1.0000000
 Leave Link  101 at Sun Jul 11 16:10:14 2021, MaxMem=   104857600 cpu:               0.5 elap:               0.2
 (Enter /prod/apps/gaussian/g16b1/l103.exe)

 GradGradGradGradGradGradGradGradGradGradGradGradGradGradGradGradGradGrad
 Berny optimization.
 Initialization pass.
                           ----------------------------
                           !    Initial Parameters    !
                           ! (Angstroms and Degrees)  !
 --------------------------                            --------------------------
 ! Name  Definition              Value          Derivative Info.                !
 --------------------------------------------------------------------------------
 ! R1    R(1,2)                  1.3076         estimate D2E/DX2                !
 ! R2    R(2,3)                  1.2372         estimate D2E/DX2                !
 ! R3    R(2,4)                  1.4769         estimate D2E/DX2                !
 ! R4    R(4,5)                  1.4201         estimate D2E/DX2                !
 ! R5    R(4,14)                 1.3954         estimate D2E/DX2                !
 ! R6    R(5,6)                  1.3696         estimate D2E/DX2                !
 ! R7    R(5,8)                  1.3788         estimate D2E/DX2                !
 ! R8    R(6,7)                  0.9742         estimate D2E/DX2                !
 ! R9    R(8,9)                  1.0869         estimate D2E/DX2                !
 ! R10   R(8,10)                 1.4004         estimate D2E/DX2                !
 ! R11   R(10,11)                1.0863         estimate D2E/DX2                !
 ! R12   R(10,12)                1.3672         estimate D2E/DX2                !
 ! R13   R(12,13)                1.0876         estimate D2E/DX2                !
 ! R14   R(12,14)                1.4331         estimate D2E/DX2                !
 ! R15   R(14,15)                1.0873         estimate D2E/DX2                !
 ! A1    A(1,2,3)              115.3842         estimate D2E/DX2                !
 ! A2    A(1,2,4)              114.6242         estimate D2E/DX2                !
 ! A3    A(3,2,4)              129.8026         estimate D2E/DX2                !
 ! A4    A(2,4,5)              123.2288         estimate D2E/DX2                !
 ! A5    A(2,4,14)             117.6932         estimate D2E/DX2                !
 ! A6    A(5,4,14)             118.5105         estimate D2E/DX2                !
 ! A7    A(4,5,6)              119.9437         estimate D2E/DX2                !
 ! A8    A(4,5,8)              118.3644         estimate D2E/DX2                !
 ! A9    A(6,5,8)              121.3812         estimate D2E/DX2                !
 ! A10   A(5,6,7)              101.0672         estimate D2E/DX2                !
 ! A11   A(5,8,9)              113.4755         estimate D2E/DX2                !
 ! A12   A(5,8,10)             123.3806         estimate D2E/DX2                !
 ! A13   A(9,8,10)             122.0616         estimate D2E/DX2                !
 ! A14   A(8,10,11)            121.4305         estimate D2E/DX2                !
 ! A15   A(8,10,12)            118.9303         estimate D2E/DX2                !
 ! A16   A(11,10,12)           119.5941         estimate D2E/DX2                !
 ! A17   A(10,12,13)           125.6527         estimate D2E/DX2                !
 ! A18   A(10,12,14)           118.9086         estimate D2E/DX2                !
 ! A19   A(13,12,14)           115.4298         estimate D2E/DX2                !
 ! A20   A(4,14,12)            121.332          estimate D2E/DX2                !
 ! A21   A(4,14,15)            116.5709         estimate D2E/DX2                !
 ! A22   A(12,14,15)           120.4157         estimate D2E/DX2                !
 ! D1    D(1,2,4,5)              0.1134         estimate D2E/DX2                !
 ! D2    D(1,2,4,14)           171.3333         estimate D2E/DX2                !
 ! D3    D(3,2,4,5)            174.8204         estimate D2E/DX2                !
 ! D4    D(3,2,4,14)           -13.9597         estimate D2E/DX2                !
 ! D5    D(2,4,5,6)            -14.2299         estimate D2E/DX2                !
 ! D6    D(2,4,5,8)            172.0813         estimate D2E/DX2                !
 ! D7    D(14,4,5,6)           174.6178         estimate D2E/DX2                !
 ! D8    D(14,4,5,8)             0.9291         estimate D2E/DX2                !
 ! D9    D(2,4,14,12)         -166.3911         estimate D2E/DX2                !
 ! D10   D(2,4,14,15)           -1.1148         estimate D2E/DX2                !
 ! D11   D(5,4,14,12)            5.254          estimate D2E/DX2                !
 ! D12   D(5,4,14,15)          170.5302         estimate D2E/DX2                !
 ! D13   D(4,5,6,7)           -179.8071         estimate D2E/DX2                !
 ! D14   D(8,5,6,7)             -6.3131         estimate D2E/DX2                !
 ! D15   D(4,5,8,9)           -171.7279         estimate D2E/DX2                !
 ! D16   D(4,5,8,10)            -3.4273         estimate D2E/DX2                !
 ! D17   D(6,5,8,9)             14.6784         estimate D2E/DX2                !
 ! D18   D(6,5,8,10)          -177.021          estimate D2E/DX2                !
 ! D19   D(5,8,10,11)          177.0796         estimate D2E/DX2                !
 ! D20   D(5,8,10,12)           -0.4669         estimate D2E/DX2                !
 ! D21   D(9,8,10,11)          -15.5981         estimate D2E/DX2                !
 ! D22   D(9,8,10,12)          166.8554         estimate D2E/DX2                !
 ! D23   D(8,10,12,13)        -174.5311         estimate D2E/DX2                !
 ! D24   D(8,10,12,14)           6.6059         estimate D2E/DX2                !
 ! D25   D(11,10,12,13)          7.8764         estimate D2E/DX2                !
 ! D26   D(11,10,12,14)       -170.9865         estimate D2E/DX2                !
 ! D27   D(10,12,14,4)          -9.1641         estimate D2E/DX2                !
 ! D28   D(10,12,14,15)       -173.8808         estimate D2E/DX2                !
 ! D29   D(13,12,14,4)         171.859          estimate D2E/DX2                !
 ! D30   D(13,12,14,15)          7.1422         estimate D2E/DX2                !
 --------------------------------------------------------------------------------
 Trust Radius=3.00D-01 FncErr=1.00D-07 GrdErr=1.00D-06 EigMax=2.50D+02 EigMin=1.00D-04
 Number of steps in this run=     77 maximum allowed number of steps=    100.
 GradGradGradGradGradGradGradGradGradGradGradGradGradGradGradGradGradGrad

 Leave Link  103 at Sun Jul 11 16:10:14 2021, MaxMem=   104857600 cpu:               0.1 elap:               0.0
 (Enter /prod/apps/gaussian/g16b1/l202.exe)
                          Input orientation:                          
 ---------------------------------------------------------------------
 Center     Atomic      Atomic             Coordinates (Angstroms)
 Number     Number       Type             X           Y           Z
 ---------------------------------------------------------------------
      1          8           0       -1.895000   -1.247000    1.793000
      2          6           0       -1.210000   -1.692000    0.772000
      3          8           0       -1.394000   -2.882000    0.488000
      4          6           0       -0.413000   -0.665000    0.071000
      5          6           0       -0.382000    0.699000    0.465000
      6          8           0       -1.319000    1.179000    1.341000
      7          1           0       -1.048000    2.112000    1.412000
      8          6           0        0.520000    1.539000   -0.153000
      9          1           0        0.577000    2.524000    0.303000
     10          6           0        1.455000    1.103000   -1.100000
     11          1           0        2.120000    1.800000   -1.602000
     12          6           0        1.492000   -0.223000   -1.431000
     13          1           0        2.223000   -0.693000   -2.085000
     14          6           0        0.483000   -1.096000   -0.908000
     15          1           0        0.544000   -2.169000   -1.073000
 ---------------------------------------------------------------------
                    Distance matrix (angstroms):
                    1          2          3          4          5
     1  O    0.000000
     2  C    1.307552   0.000000
     3  O    2.151105   1.237179   0.000000
     4  C    2.345279   1.476936   2.459947   0.000000
     5  C    2.799941   2.548865   3.721322   1.420103   0.000000
     6  O    2.534079   2.928871   4.150296   2.415382   1.369578
     7  H    3.485032   3.860863   5.090533   3.148529   1.826728
     8  C    4.169045   3.779932   4.859992   2.403806   1.378814
     9  H    4.748824   4.603041   5.757074   3.347185   2.067982
    10  C    5.011432   4.291694   5.149638   2.826038   2.446837
    11  H    6.077044   5.377624   6.215901   3.910402   3.427053
    12  C    4.786911   3.783117   4.368276   2.465845   2.820776
    13  H    5.683637   4.576673   4.949216   3.405527   3.902075
    14  C    3.601817   2.458427   2.943084   1.395356   2.419789
    15  H    3.874630   2.589994   2.588616   2.118160   3.383540
                    6          7          8          9         10
     6  O    0.000000
     7  H    0.974151   0.000000
     8  C    2.396572   2.288270   0.000000
     9  H    2.545837   2.010037   1.086927   0.000000
    10  C    3.695853   3.686900   1.400404   2.181406   0.000000
    11  H    4.568765   4.383807   2.174333   2.556179   1.086296
    12  C    4.189428   4.470623   2.383844   3.374906   1.367189
    13  H    5.271397   5.549457   3.408028   4.331391   2.187616
    14  C    3.671625   4.244717   2.741281   3.818345   2.411897
    15  H    4.528495   5.199678   3.820503   4.890676   3.396562
                   11         12         13         14         15
    11  H    0.000000
    12  C    2.125124   0.000000
    13  H    2.541446   1.087647   0.000000
    14  C    3.398267   1.433087   2.139004   0.000000
    15  H    4.303089   2.194034   2.453928   1.087325   0.000000
 Stoichiometry    C7H5O3(1-)
 Framework group  C1[X(C7H5O3)]
 Deg. of freedom    39
 Full point group                 C1      NOp   1
 Largest Abelian subgroup         C1      NOp   1
 Largest concise Abelian subgroup C1      NOp   1
                         Standard orientation:                         
 ---------------------------------------------------------------------
 Center     Atomic      Atomic             Coordinates (Angstroms)
 Number     Number       Type             X           Y           Z
 ---------------------------------------------------------------------
      1          8           0       -2.334899    0.757637    0.214489
      2          6           0       -1.721147   -0.382902    0.035129
      3          8           0       -2.458756   -1.368496   -0.087949
      4          6           0       -0.253512   -0.278446   -0.093236
      5          6           0        0.447674    0.954677   -0.026617
      6          8           0       -0.236716    2.136622   -0.128415
      7          1           0        0.490189    2.780722   -0.052818
      8          6           0        1.825709    0.923602    0.007764
      9          1           0        2.275992    1.893785    0.201154
     10          6           0        2.568834   -0.262605    0.050292
     11          1           0        3.654874   -0.251731    0.029415
     12          6           0        1.905803   -1.458126    0.068333
     13          1           0        2.366108   -2.436638    0.184998
     14          6           0        0.482758   -1.463716   -0.100929
     15          1           0       -0.080917   -2.387141    0.007848
 ---------------------------------------------------------------------
 Rotational constants (GHZ):           2.3749154           1.2187807           0.8094004
 Leave Link  202 at Sun Jul 11 16:10:14 2021, MaxMem=   104857600 cpu:               0.0 elap:               0.0
 (Enter /prod/apps/gaussian/g16b1/l301.exe)
 Standard basis: 6-31G(d) (6D, 7F)
 Ernie: Thresh=  0.10000D-02 Tol=  0.10000D-05 Strict=F.
 There are   160 symmetry adapted cartesian basis functions of A   symmetry.
 There are   160 symmetry adapted basis functions of A   symmetry.
   160 basis functions,   300 primitive gaussians,   160 cartesian basis functions
    36 alpha electrons       36 beta electrons
       nuclear repulsion energy       486.9638626807 Hartrees.
 IExCor=  402 DFT=T Ex+Corr=B3LYP ExCW=0 ScaHFX=  0.200000
 ScaDFX=  0.800000  0.720000  1.000000  0.810000 ScalE2=  1.000000  1.000000
 IRadAn=      5 IRanWt=     -1 IRanGd=            0 ICorTp=0 IEmpDi=  4
 NAtoms=   15 NActive=   15 NUniq=   15 SFac= 1.00D+00 NAtFMM=   60 NAOKFM=F Big=F
 Integral buffers will be    131072 words long.
 Raffenetti 2 integral format.
 Two-electron integral symmetry is turned on.
 Using the following non-standard input for PCM:
 MSTModel=DFT cav MSTCharged
 --- end of non-standard input.
 MST model for solvation energy: B3LYP parametrization.
 MST cavity parameters:
 ISph   IAn     Re0     Alpha   Atom Type   QCorr
 ------------------------------------------------
   1      8     1.40     1.15      O          T
   2      6     1.50     1.15      C          T
   3      8     1.40     1.15      O          T
   4      6     1.50     1.25      C          F
   5      6     1.50     1.25      C          F
   6      8     1.45     1.25      OH         F
   7      1     0.90     1.25      OH         F
   8      6     1.50     1.25      CH         F
   9      1     1.20     1.25      CH         F
  10      6     1.50     1.25      CH         F
  11      1     1.20     1.25      CH         F
  12      6     1.50     1.25      CH         F
  13      1     1.20     1.25      CH         F
  14      6     1.50     1.25      CH         F
  15      1     1.20     1.25      CH         F
 ------------------------------------------------------------------------------
 Polarizable Continuum Model (PCM)
 =================================
 Model                : PCM.
 Atomic radii         : MST.
 Polarization charges : Total charges.
 Charge compensation  : None.
 Solution method      : On-the-fly selection.
 Cavity type          : Scaled VdW (van der Waals Surface) (Alpha=1.250).
 Cavity algorithm     : GePol (No added spheres)
                        Default sphere list used, NSphG=   15.
                        Lebedev-Laikov grids with approx.  5.0 points / Ang**2.
                        Smoothing algorithm: York/Karplus (Gamma=1.0000).
                        Polarization charges: spherical gaussians, with
                                              point-specific exponents (IZeta= 3).
                        Self-potential: point-specific (ISelfS= 7).
                        Self-field    : sphere-specific E.n sum rule (ISelfD= 2).
 1st derivatives      : Analytical E(r).r(x)/FMM algorithm (CHGder, D1EAlg=3).
                        Cavity 1st derivative terms included.
 Solvent              : Water, Eps=  78.355300 Eps(inf)=   1.777849
 ------------------------------------------------------------------------------
 Spheres list:
 ISph  on   Nord     Re0    Alpha      Xe            Ye            Ze
    1   O      1    1.4000  1.150     -2.334899      0.757637      0.214489
    2   C      2    1.5000  1.150     -1.721147     -0.382902      0.035129
    3   O      3    1.4000  1.150     -2.458756     -1.368496     -0.087949
    4   C      4    1.5000  1.250     -0.253512     -0.278446     -0.093236
    5   C      5    1.5000  1.250      0.447674      0.954677     -0.026617
    6   O      6    1.4500  1.250     -0.236716      2.136622     -0.128415
    7   H      7    0.9000  1.250      0.490189      2.780722     -0.052818
    8   C      8    1.5000  1.250      1.825709      0.923602      0.007764
    9   H      9    1.2000  1.250      2.275992      1.893785      0.201154
   10   C     10    1.5000  1.250      2.568834     -0.262605      0.050292
   11   H     11    1.2000  1.250      3.654874     -0.251731      0.029415
   12   C     12    1.5000  1.250      1.905803     -1.458126      0.068333
   13   H     13    1.2000  1.250      2.366108     -2.436638      0.184998
   14   C     14    1.5000  1.250      0.482758     -1.463716     -0.100929
   15   H     15    1.2000  1.250     -0.080917     -2.387141      0.007848
 ------------------------------------------------------------------------------
 GePol: Number of generator spheres                  =      15
 GePol: Total number of spheres                      =      15
 GePol: Number of exposed spheres                    =      15 (100.00%)
 GePol: Number of points                             =    1290
 GePol: Average weight of points                     =       0.13
 GePol: Minimum weight of points                     =   0.20D-08
 GePol: Maximum weight of points                     =    0.21416
 GePol: Number of points with low weight             =      78
 GePol: Fraction of low-weight points (<1% of avg)   =       6.05%
 GePol: Cavity surface area                          =    165.261 Ang**2
 GePol: Cavity volume                                =    144.737 Ang**3
 PCM non-electrostatic energy =         0.0015872429 Hartrees.
 Nuclear repulsion after PCM non-electrostatic terms =      486.9654499236 Hartrees.
 Leave Link  301 at Sun Jul 11 16:10:14 2021, MaxMem=   104857600 cpu:               0.3 elap:               0.1
 (Enter /prod/apps/gaussian/g16b1/l302.exe)
 NPDir=0 NMtPBC=     1 NCelOv=     1 NCel=       1 NClECP=     1 NCelD=      1
         NCelK=      1 NCelE2=     1 NClLst=     1 CellRange=     0.0.
 One-electron integrals computed using PRISM.
 One-electron integral symmetry used in STVInt
 NBasis=   160 RedAO= T EigKep=  5.17D-04  NBF=   160
 NBsUse=   160 1.00D-06 EigRej= -1.00D+00 NBFU=   160
 Precomputing XC quadrature grid using
 IXCGrd= 4 IRadAn=           5 IRanWt=          -1 IRanGd=           0 AccXCQ= 0.00D+00.
 Generated NRdTot=       0 NPtTot=           0 NUsed=           0 NTot=          32
 NSgBfM=   160   160   160   160   160 MxSgAt=    15 MxSgA2=    15.
 Leave Link  302 at Sun Jul 11 16:10:14 2021, MaxMem=   104857600 cpu:               0.7 elap:               0.2
 (Enter /prod/apps/gaussian/g16b1/l303.exe)
 DipDrv:  MaxL=1.
 Leave Link  303 at Sun Jul 11 16:10:14 2021, MaxMem=   104857600 cpu:               0.1 elap:               0.0
 (Enter /prod/apps/gaussian/g16b1/l401.exe)
 ExpMin= 1.61D-01 ExpMax= 5.48D+03 ExpMxC= 8.25D+02 IAcc=3 IRadAn=         5 AccDes= 0.00D+00
 Harris functional with IExCor=  402 and IRadAn=       5 diagonalized for initial guess.
 HarFok:  IExCor=  402 AccDes= 0.00D+00 IRadAn=         5 IDoV= 1 UseB2=F ITyADJ=14
 ICtDFT=  3500011 ScaDFX=  1.000000  1.000000  1.000000  1.000000
 FoFCou: FMM=F IPFlag=           0 FMFlag=      100000 FMFlg1=           0
         NFxFlg=           0 DoJE=T BraDBF=F KetDBF=T FulRan=T
         wScrn=  0.000000 ICntrl=       500 IOpCl=  0 I1Cent=   200000004 NGrid=           0
         NMat0=    1 NMatS0=      1 NMatT0=    0 NMatD0=    1 NMtDS0=    0 NMtDT0=    0
 Petite list used in FoFCou.
 Harris En= -495.660248405842    
 JPrj=0 DoOrth=F DoCkMO=F.
 Leave Link  401 at Sun Jul 11 16:10:15 2021, MaxMem=   104857600 cpu:               2.8 elap:               0.7
 (Enter /prod/apps/gaussian/g16b1/l502.exe)
 Keep R1 ints in memory in canonical form, NReq=86910067.
 FoFCou: FMM=F IPFlag=           0 FMFlag=           0 FMFlg1=           0
         NFxFlg=           0 DoJE=F BraDBF=F KetDBF=F FulRan=T
         wScrn=  0.000000 ICntrl=       600 IOpCl=  0 I1Cent=           0 NGrid=           0
         NMat0=    1 NMatS0=  12880 NMatT0=    0 NMatD0=    1 NMtDS0=    0 NMtDT0=    0
 Symmetry not used in FoFCou.
 Two-electron integral symmetry not used.
 Closed shell SCF:
 Using DIIS extrapolation, IDIIS=  1040.
 NGot=   104857600 LenX=    21850029 LenY=    21823988
 Requested convergence on RMS density matrix=1.00D-08 within 128 cycles.
 Requested convergence on MAX density matrix=1.00D-06.
 Requested convergence on             energy=1.00D-06.
 No special actions if energy rises.

 Cycle   1  Pass 1  IDiag  1:
 Inv3:  Mode=1 IEnd=     4992300.
 Iteration    1 A*A^-1 deviation from unit magnitude is 3.55D-15 for    184.
 Iteration    1 A*A^-1 deviation from orthogonality  is 2.22D-15 for   1231    594.
 Iteration    1 A^-1*A deviation from unit magnitude is 3.11D-15 for    117.
 Iteration    1 A^-1*A deviation from orthogonality  is 4.26D-14 for   1025   1008.
 E= -495.253925277001    
 DIIS: error= 3.72D-02 at cycle   1 NSaved=   1.
 NSaved= 1 IEnMin= 1 EnMin= -495.253925277001     IErMin= 1 ErrMin= 3.72D-02
 ErrMax= 3.72D-02  0.00D+00 EMaxC= 1.00D-01 BMatC= 3.52D-01 BMatP= 3.52D-01
 IDIUse=3 WtCom= 6.28D-01 WtEn= 3.72D-01
 Coeff-Com:  0.100D+01
 Coeff-En:   0.100D+01
 Coeff:      0.100D+01
 Gap=     0.199 Goal=   None    Shift=    0.000
 GapD=    0.199 DampG=1.000 DampE=0.500 DampFc=0.5000 IDamp=-1.
 Damping current iteration by 5.00D-01
 RMSDP=1.00D-02 MaxDP=2.05D-01              OVMax= 2.07D-01

 Cycle   2  Pass 1  IDiag  1:
 E= -495.370502890801     Delta-E=       -0.116577613800 Rises=F Damp=T
 DIIS: error= 9.80D-03 at cycle   2 NSaved=   2.
 NSaved= 2 IEnMin= 2 EnMin= -495.370502890801     IErMin= 2 ErrMin= 9.80D-03
 ErrMax= 9.80D-03  0.00D+00 EMaxC= 1.00D-01 BMatC= 2.83D-02 BMatP= 3.52D-01
 IDIUse=3 WtCom= 9.02D-01 WtEn= 9.80D-02
 Coeff-Com:  0.137D+00 0.863D+00
 Coeff-En:   0.203D+00 0.797D+00
 Coeff:      0.143D+00 0.857D+00
 Gap=     0.178 Goal=   None    Shift=    0.000
 RMSDP=2.47D-03 MaxDP=4.85D-02 DE=-1.17D-01 OVMax= 1.72D-01

 Cycle   3  Pass 1  IDiag  1:
 E= -495.531767593505     Delta-E=       -0.161264702703 Rises=F Damp=F
 DIIS: error= 9.20D-03 at cycle   3 NSaved=   3.
 NSaved= 3 IEnMin= 3 EnMin= -495.531767593505     IErMin= 3 ErrMin= 9.20D-03
 ErrMax= 9.20D-03  0.00D+00 EMaxC= 1.00D-01 BMatC= 1.92D-02 BMatP= 2.83D-02
 IDIUse=3 WtCom= 9.08D-01 WtEn= 9.20D-02
 Coeff-Com:  0.248D-01 0.448D+00 0.527D+00
 Coeff-En:   0.000D+00 0.000D+00 0.100D+01
 Coeff:      0.225D-01 0.407D+00 0.571D+00
 Gap=     0.158 Goal=   None    Shift=    0.000
 RMSDP=1.26D-03 MaxDP=3.34D-02 DE=-1.61D-01 OVMax= 5.14D-02

 Cycle   4  Pass 1  IDiag  1:
 E= -495.546409573700     Delta-E=       -0.014641980195 Rises=F Damp=F
 DIIS: error= 4.63D-03 at cycle   4 NSaved=   4.
 NSaved= 4 IEnMin= 4 EnMin= -495.546409573700     IErMin= 4 ErrMin= 4.63D-03
 ErrMax= 4.63D-03  0.00D+00 EMaxC= 1.00D-01 BMatC= 3.46D-03 BMatP= 1.92D-02
 IDIUse=3 WtCom= 9.54D-01 WtEn= 4.63D-02
 Coeff-Com:  0.408D-02 0.101D+00 0.316D+00 0.579D+00
 Coeff-En:   0.000D+00 0.000D+00 0.135D+00 0.865D+00
 Coeff:      0.389D-02 0.962D-01 0.307D+00 0.592D+00
 Gap=     0.165 Goal=   None    Shift=    0.000
 RMSDP=4.89D-04 MaxDP=1.52D-02 DE=-1.46D-02 OVMax= 2.63D-02

 Cycle   5  Pass 1  IDiag  1:
 E= -495.548754761454     Delta-E=       -0.002345187754 Rises=F Damp=F
 DIIS: error= 2.36D-03 at cycle   5 NSaved=   5.
 NSaved= 5 IEnMin= 5 EnMin= -495.548754761454     IErMin= 5 ErrMin= 2.36D-03
 ErrMax= 2.36D-03  0.00D+00 EMaxC= 1.00D-01 BMatC= 6.96D-04 BMatP= 3.46D-03
 IDIUse=3 WtCom= 9.76D-01 WtEn= 2.36D-02
 Coeff-Com:  0.973D-03 0.111D-01 0.142D+00 0.401D+00 0.445D+00
 Coeff-En:   0.000D+00 0.000D+00 0.000D+00 0.131D+00 0.869D+00
 Coeff:      0.950D-03 0.108D-01 0.139D+00 0.394D+00 0.455D+00
 Gap=     0.164 Goal=   None    Shift=    0.000
 RMSDP=1.81D-04 MaxDP=5.88D-03 DE=-2.35D-03 OVMax= 9.41D-03

 Cycle   6  Pass 1  IDiag  1:
 E= -495.549267555167     Delta-E=       -0.000512793713 Rises=F Damp=F
 DIIS: error= 3.17D-04 at cycle   6 NSaved=   6.
 NSaved= 6 IEnMin= 6 EnMin= -495.549267555167     IErMin= 6 ErrMin= 3.17D-04
 ErrMax= 3.17D-04  0.00D+00 EMaxC= 1.00D-01 BMatC= 2.37D-05 BMatP= 6.96D-04
 IDIUse=3 WtCom= 9.97D-01 WtEn= 3.17D-03
 Coeff-Com:  0.232D-03-0.380D-03 0.505D-01 0.161D+00 0.239D+00 0.550D+00
 Coeff-En:   0.000D+00 0.000D+00 0.000D+00 0.000D+00 0.000D+00 0.100D+01
 Coeff:      0.231D-03-0.378D-03 0.504D-01 0.161D+00 0.238D+00 0.551D+00
 Gap=     0.164 Goal=   None    Shift=    0.000
 RMSDP=3.62D-05 MaxDP=1.06D-03 DE=-5.13D-04 OVMax= 1.65D-03

 Cycle   7  Pass 1  IDiag  1:
 E= -495.549286073180     Delta-E=       -0.000018518014 Rises=F Damp=F
 DIIS: error= 5.45D-05 at cycle   7 NSaved=   7.
 NSaved= 7 IEnMin= 7 EnMin= -495.549286073180     IErMin= 7 ErrMin= 5.45D-05
 ErrMax= 5.45D-05  0.00D+00 EMaxC= 1.00D-01 BMatC= 1.81D-06 BMatP= 2.37D-05
 IDIUse=1 WtCom= 1.00D+00 WtEn= 0.00D+00
 Coeff-Com:  0.731D-04-0.116D-02 0.151D-01 0.520D-01 0.882D-01 0.290D+00
 Coeff-Com:  0.555D+00
 Coeff:      0.731D-04-0.116D-02 0.151D-01 0.520D-01 0.882D-01 0.290D+00
 Coeff:      0.555D+00
 Gap=     0.164 Goal=   None    Shift=    0.000
 RMSDP=9.35D-06 MaxDP=3.39D-04 DE=-1.85D-05 OVMax= 5.27D-04

 Cycle   8  Pass 1  IDiag  1:
 E= -495.549287778764     Delta-E=       -0.000001705583 Rises=F Damp=F
 DIIS: error= 1.22D-05 at cycle   8 NSaved=   8.
 NSaved= 8 IEnMin= 8 EnMin= -495.549287778764     IErMin= 8 ErrMin= 1.22D-05
 ErrMax= 1.22D-05  0.00D+00 EMaxC= 1.00D-01 BMatC= 6.96D-08 BMatP= 1.81D-06
 IDIUse=1 WtCom= 1.00D+00 WtEn= 0.00D+00
 Coeff-Com:  0.248D-04-0.495D-03 0.334D-02 0.124D-01 0.230D-01 0.891D-01
 Coeff-Com:  0.239D+00 0.633D+00
 Coeff:      0.248D-04-0.495D-03 0.334D-02 0.124D-01 0.230D-01 0.891D-01
 Coeff:      0.239D+00 0.633D+00
 Gap=     0.164 Goal=   None    Shift=    0.000
 RMSDP=2.63D-06 MaxDP=5.73D-05 DE=-1.71D-06 OVMax= 1.11D-04

 Cycle   9  Pass 1  IDiag  1:
 E= -495.549287841429     Delta-E=       -0.000000062666 Rises=F Damp=F
 DIIS: error= 4.99D-06 at cycle   9 NSaved=   9.
 NSaved= 9 IEnMin= 9 EnMin= -495.549287841429     IErMin= 9 ErrMin= 4.99D-06
 ErrMax= 4.99D-06  0.00D+00 EMaxC= 1.00D-01 BMatC= 1.12D-08 BMatP= 6.96D-08
 IDIUse=1 WtCom= 1.00D+00 WtEn= 0.00D+00
 Coeff-Com:  0.394D-05-0.961D-04-0.291D-03-0.680D-03-0.348D-03 0.537D-02
 Coeff-Com:  0.471D-01 0.322D+00 0.627D+00
 Coeff:      0.394D-05-0.961D-04-0.291D-03-0.680D-03-0.348D-03 0.537D-02
 Coeff:      0.471D-01 0.322D+00 0.627D+00
 Gap=     0.164 Goal=   None    Shift=    0.000
 RMSDP=7.75D-07 MaxDP=1.99D-05 DE=-6.27D-08 OVMax= 4.73D-05

 Cycle  10  Pass 1  IDiag  1:
 E= -495.549287852267     Delta-E=       -0.000000010838 Rises=F Damp=F
 DIIS: error= 1.85D-06 at cycle  10 NSaved=  10.
 NSaved=10 IEnMin=10 EnMin= -495.549287852267     IErMin=10 ErrMin= 1.85D-06
 ErrMax= 1.85D-06  0.00D+00 EMaxC= 1.00D-01 BMatC= 8.66D-10 BMatP= 1.12D-08
 IDIUse=1 WtCom= 1.00D+00 WtEn= 0.00D+00
 Coeff-Com:  0.812D-06-0.222D-04-0.293D-03-0.889D-03-0.132D-02-0.178D-02
 Coeff-Com:  0.116D-01 0.123D+00 0.309D+00 0.561D+00
 Coeff:      0.812D-06-0.222D-04-0.293D-03-0.889D-03-0.132D-02-0.178D-02
 Coeff:      0.116D-01 0.123D+00 0.309D+00 0.561D+00
 Gap=     0.164 Goal=   None    Shift=    0.000
 RMSDP=2.21D-07 MaxDP=6.21D-06 DE=-1.08D-08 OVMax= 1.24D-05

 Cycle  11  Pass 1  IDiag  1:
 E= -495.549287853050     Delta-E=       -0.000000000783 Rises=F Damp=F
 DIIS: error= 5.91D-07 at cycle  11 NSaved=  11.
 NSaved=11 IEnMin=11 EnMin= -495.549287853050     IErMin=11 ErrMin= 5.91D-07
 ErrMax= 5.91D-07  0.00D+00 EMaxC= 1.00D-01 BMatC= 7.54D-11 BMatP= 8.66D-10
 IDIUse=1 WtCom= 1.00D+00 WtEn= 0.00D+00
 Coeff-Com: -0.772D-06 0.524D-05-0.108D-03-0.351D-03-0.671D-03-0.175D-02
 Coeff-Com: -0.841D-03 0.117D-01 0.537D-01 0.252D+00 0.686D+00
 Coeff:     -0.772D-06 0.524D-05-0.108D-03-0.351D-03-0.671D-03-0.175D-02
 Coeff:     -0.841D-03 0.117D-01 0.537D-01 0.252D+00 0.686D+00
 Gap=     0.164 Goal=   None    Shift=    0.000
 RMSDP=7.46D-08 MaxDP=1.54D-06 DE=-7.83D-10 OVMax= 3.75D-06

 Cycle  12  Pass 1  IDiag  1:
 E= -495.549287853119     Delta-E=       -0.000000000069 Rises=F Damp=F
 DIIS: error= 1.11D-07 at cycle  12 NSaved=  12.
 NSaved=12 IEnMin=12 EnMin= -495.549287853119     IErMin=12 ErrMin= 1.11D-07
 ErrMax= 1.11D-07  0.00D+00 EMaxC= 1.00D-01 BMatC= 5.50D-12 BMatP= 7.54D-11
 IDIUse=1 WtCom= 1.00D+00 WtEn= 0.00D+00
 Coeff-Com: -0.374D-06 0.285D-05-0.271D-04-0.856D-04-0.206D-03-0.587D-03
 Coeff-Com: -0.695D-03-0.136D-02 0.561D-02 0.837D-01 0.299D+00 0.614D+00
 Coeff:     -0.374D-06 0.285D-05-0.271D-04-0.856D-04-0.206D-03-0.587D-03
 Coeff:     -0.695D-03-0.136D-02 0.561D-02 0.837D-01 0.299D+00 0.614D+00
 Gap=     0.164 Goal=   None    Shift=    0.000
 RMSDP=1.91D-08 MaxDP=5.18D-07 DE=-6.87D-11 OVMax= 1.07D-06

 Cycle  13  Pass 1  IDiag  1:
 E= -495.549287853122     Delta-E=       -0.000000000003 Rises=F Damp=F
 DIIS: error= 5.60D-08 at cycle  13 NSaved=  13.
 NSaved=13 IEnMin=13 EnMin= -495.549287853122     IErMin=13 ErrMin= 5.60D-08
 ErrMax= 5.60D-08  0.00D+00 EMaxC= 1.00D-01 BMatC= 1.22D-12 BMatP= 5.50D-12
 IDIUse=1 WtCom= 1.00D+00 WtEn= 0.00D+00
 Coeff-Com: -0.824D-07 0.733D-06 0.542D-05 0.197D-04 0.799D-05-0.145D-04
 Coeff-Com: -0.276D-03-0.357D-02-0.872D-02-0.445D-02 0.218D-01 0.340D+00
 Coeff-Com:  0.656D+00
 Coeff:     -0.824D-07 0.733D-06 0.542D-05 0.197D-04 0.799D-05-0.145D-04
 Coeff:     -0.276D-03-0.357D-02-0.872D-02-0.445D-02 0.218D-01 0.340D+00
 Coeff:      0.656D+00
 Gap=     0.164 Goal=   None    Shift=    0.000
 RMSDP=8.91D-09 MaxDP=1.62D-07 DE=-3.41D-12 OVMax= 6.64D-07

 Error on total polarization charges =  0.01924
 SCF Done:  E(RB3LYP) =  -495.549287853     A.U. after   13 cycles
            NFock= 13  Conv=0.89D-08     -V/T= 2.0086
 KE= 4.913078232896D+02 PE=-2.146479553087D+03 EE= 6.726569920212D+02
 Leave Link  502 at Sun Jul 11 16:10:32 2021, MaxMem=   104857600 cpu:              63.4 elap:              16.9
 (Enter /prod/apps/gaussian/g16b1/l601.exe)
 Copying SCF densities to generalized density rwf, IOpCl= 0 IROHF=0.

 **********************************************************************

            Population analysis using the SCF Density.

 **********************************************************************

 Orbital symmetries:
       Occupied  (A) (A) (A) (A) (A) (A) (A) (A) (A) (A) (A) (A)
                 (A) (A) (A) (A) (A) (A) (A) (A) (A) (A) (A) (A)
                 (A) (A) (A) (A) (A) (A) (A) (A) (A) (A) (A) (A)
       Virtual   (A) (A) (A) (A) (A) (A) (A) (A) (A) (A) (A) (A)
                 (A) (A) (A) (A) (A) (A) (A) (A) (A) (A) (A) (A)
                 (A) (A) (A) (A) (A) (A) (A) (A) (A) (A) (A) (A)
                 (A) (A) (A) (A) (A) (A) (A) (A) (A) (A) (A) (A)
                 (A) (A) (A) (A) (A) (A) (A) (A) (A) (A) (A) (A)
                 (A) (A) (A) (A) (A) (A) (A) (A) (A) (A) (A) (A)
                 (A) (A) (A) (A) (A) (A) (A) (A) (A) (A) (A) (A)
                 (A) (A) (A) (A) (A) (A) (A) (A) (A) (A) (A) (A)
                 (A) (A) (A) (A) (A) (A) (A) (A) (A) (A) (A) (A)
                 (A) (A) (A) (A) (A) (A) (A) (A) (A) (A) (A) (A)
                 (A) (A) (A) (A)
 The electronic state is 1-A.
 Alpha  occ. eigenvalues --  -19.16938 -19.06741 -19.04170 -10.24876 -10.24670
 Alpha  occ. eigenvalues --  -10.19218 -10.18663 -10.18341 -10.18264 -10.18231
 Alpha  occ. eigenvalues --   -1.05259  -1.00086  -0.88294  -0.84591  -0.75093
 Alpha  occ. eigenvalues --   -0.73135  -0.61994  -0.60612  -0.53425  -0.52053
 Alpha  occ. eigenvalues --   -0.46708  -0.45344  -0.42186  -0.41514  -0.40967
 Alpha  occ. eigenvalues --   -0.39232  -0.36705  -0.36543  -0.35311  -0.34144
 Alpha  occ. eigenvalues --   -0.32751  -0.24701  -0.23117  -0.22115  -0.21372
 Alpha  occ. eigenvalues --   -0.18339
 Alpha virt. eigenvalues --   -0.01958   0.01003   0.09164   0.10254   0.11539
 Alpha virt. eigenvalues --    0.15941   0.18162   0.18623   0.20832   0.24383
 Alpha virt. eigenvalues --    0.27957   0.29696   0.33106   0.33960   0.34510
 Alpha virt. eigenvalues --    0.41417   0.42963   0.51076   0.51560   0.54406
 Alpha virt. eigenvalues --    0.55718   0.56497   0.58044   0.59935   0.60794
 Alpha virt. eigenvalues --    0.61502   0.63077   0.63607   0.64597   0.64739
 Alpha virt. eigenvalues --    0.66039   0.70675   0.71180   0.75174   0.77028
 Alpha virt. eigenvalues --    0.79119   0.83724   0.84169   0.85098   0.85925
 Alpha virt. eigenvalues --    0.90839   0.92061   0.94120   0.94552   0.95795
 Alpha virt. eigenvalues --    0.98388   1.01619   1.01631   1.03726   1.05886
 Alpha virt. eigenvalues --    1.08310   1.08552   1.11915   1.14230   1.19357
 Alpha virt. eigenvalues --    1.21294   1.25375   1.27769   1.29499   1.34977
 Alpha virt. eigenvalues --    1.39835   1.41747   1.42968   1.48652   1.49635
 Alpha virt. eigenvalues --    1.51990   1.53821   1.57361   1.70563   1.71922
 Alpha virt. eigenvalues --    1.73958   1.75404   1.76123   1.81113   1.83768
 Alpha virt. eigenvalues --    1.86483   1.88185   1.89640   1.90333   1.92461
 Alpha virt. eigenvalues --    1.95967   1.96936   1.99128   2.03324   2.06000
 Alpha virt. eigenvalues --    2.07720   2.10843   2.14990   2.16052   2.18151
 Alpha virt. eigenvalues --    2.24553   2.28317   2.30226   2.34445   2.36442
 Alpha virt. eigenvalues --    2.45619   2.46625   2.49302   2.56986   2.59659
 Alpha virt. eigenvalues --    2.62408   2.64565   2.67511   2.70945   2.74812
 Alpha virt. eigenvalues --    2.75512   2.82669   2.87715   2.90202   2.96743
 Alpha virt. eigenvalues --    3.03321   3.13105   3.26136   3.42075   3.87211
 Alpha virt. eigenvalues --    3.99356   4.08993   4.12080   4.17323   4.31425
 Alpha virt. eigenvalues --    4.37435   4.42862   4.51272   4.78183
          Condensed to atoms (all electrons):
               1          2          3          4          5          6
     1  O    8.512201   0.498768  -0.152490  -0.128014   0.000932  -0.016870
     2  C    0.498768   4.447618   0.533780   0.161377  -0.027641  -0.003588
     3  O   -0.152490   0.533780   8.391031  -0.132485   0.002760  -0.000030
     4  C   -0.128014   0.161377  -0.132485   5.364870   0.431540  -0.054500
     5  C    0.000932  -0.027641   0.002760   0.431540   4.747118   0.286787
     6  O   -0.016870  -0.003588  -0.000030  -0.054500   0.286787   8.252504
     7  H    0.001381   0.000277   0.000006   0.007208  -0.032572   0.234046
     8  C    0.000931   0.009590  -0.000039  -0.036787   0.457491  -0.069841
     9  H    0.000017  -0.000099   0.000000   0.006194  -0.040905  -0.006575
    10  C   -0.000032  -0.000821  -0.000009  -0.042237  -0.003918   0.004684
    11  H   -0.000000   0.000003   0.000000   0.000305   0.003699  -0.000039
    12  C   -0.000043   0.006044   0.000554  -0.019450  -0.041262  -0.000104
    13  H    0.000001  -0.000070  -0.000001   0.004575   0.000430   0.000001
    14  C    0.006097  -0.036746   0.003969   0.445883  -0.065795   0.004578
    15  H    0.000536  -0.006150   0.017329  -0.061967   0.006592  -0.000041
               7          8          9         10         11         12
     1  O    0.001381   0.000931   0.000017  -0.000032  -0.000000  -0.000043
     2  C    0.000277   0.009590  -0.000099  -0.000821   0.000003   0.006044
     3  O    0.000006  -0.000039   0.000000  -0.000009   0.000000   0.000554
     4  C    0.007208  -0.036787   0.006194  -0.042237   0.000305  -0.019450
     5  C   -0.032572   0.457491  -0.040905  -0.003918   0.003699  -0.041262
     6  O    0.234046  -0.069841  -0.006575   0.004684  -0.000039  -0.000104
     7  H    0.339982  -0.002514   0.010952   0.000602  -0.000026  -0.000009
     8  C   -0.002514   5.178656   0.344143   0.464403  -0.037636  -0.022330
     9  H    0.010952   0.344143   0.576871  -0.035487  -0.005095   0.004156
    10  C    0.000602   0.464403  -0.035487   4.912947   0.363502   0.538057
    11  H   -0.000026  -0.037636  -0.005095   0.363502   0.565447  -0.043456
    12  C   -0.000009  -0.022330   0.004156   0.538057  -0.043456   4.959020
    13  H   -0.000001   0.005225  -0.000146  -0.043099  -0.004992   0.361786
    14  C   -0.000216  -0.063686   0.000781  -0.020611   0.004710   0.458256
    15  H    0.000005  -0.000277   0.000014   0.005683  -0.000164  -0.037693
              13         14         15
     1  O    0.000001   0.006097   0.000536
     2  C   -0.000070  -0.036746  -0.006150
     3  O   -0.000001   0.003969   0.017329
     4  C    0.004575   0.445883  -0.061967
     5  C    0.000430  -0.065795   0.006592
     6  O    0.000001   0.004578  -0.000041
     7  H   -0.000001  -0.000216   0.000005
     8  C    0.005225  -0.063686  -0.000277
     9  H   -0.000146   0.000781   0.000014
    10  C   -0.043099  -0.020611   0.005683
    11  H   -0.004992   0.004710  -0.000164
    12  C    0.361786   0.458256  -0.037693
    13  H    0.580139  -0.041118  -0.005436
    14  C   -0.041118   5.165888   0.349020
    15  H   -0.005436   0.349020   0.596617
 Mulliken charges:
               1
     1  O   -0.723413
     2  C    0.417658
     3  O   -0.664376
     4  C    0.053488
     5  C    0.274746
     6  O   -0.631013
     7  H    0.440879
     8  C   -0.227329
     9  H    0.145179
    10  C   -0.143664
    11  H    0.153743
    12  C   -0.163526
    13  H    0.142705
    14  C   -0.211010
    15  H    0.135932
 Sum of Mulliken charges =  -1.00000
 Mulliken charges with hydrogens summed into heavy atoms:
               1
     1  O   -0.723413
     2  C    0.417658
     3  O   -0.664376
     4  C    0.053488
     5  C    0.274746
     6  O   -0.190134
     8  C   -0.082150
    10  C    0.010079
    12  C   -0.020821
    14  C   -0.075077
 Electronic spatial extent (au):  <R**2>=           1354.2523
 Charge=             -1.0000 electrons
 Dipole moment (field-independent basis, Debye):
    X=             14.5649    Y=              2.0410    Z=              0.0273  Tot=             14.7072
 Quadrupole moment (field-independent basis, Debye-Ang):
   XX=            -86.7412   YY=            -57.4199   ZZ=            -59.4694
   XY=              0.9157   XZ=              1.5140   YZ=             -0.9083
 Traceless Quadrupole moment (field-independent basis, Debye-Ang):
   XX=            -18.8643   YY=             10.4569   ZZ=              8.4074
   XY=              0.9157   XZ=              1.5140   YZ=             -0.9083
 Octapole moment (field-independent basis, Debye-Ang**2):
  XXX=             90.5455  YYY=             31.5946  ZZZ=              0.0535  XYY=             32.6842
  XXY=             13.2784  XXZ=             -1.6611  XZZ=             -8.0828  YZZ=              3.8080
  YYZ=              2.5094  XYZ=              2.5096
 Hexadecapole moment (field-independent basis, Debye-Ang**3):
 XXXX=          -1249.0357 YYYY=           -492.2581 ZZZZ=            -59.4334 XXXY=            -28.5876
 XXXZ=              9.9284 YYYX=             10.6973 YYYZ=             -2.6993 ZZZX=             -0.1640
 ZZZY=             -0.7811 XXYY=           -312.9577 XXZZ=           -201.2894 YYZZ=           -110.3165
 XXYZ=             -6.3951 YYXZ=              2.1428 ZZXY=              3.6579
 N-N= 4.869654499236D+02 E-N=-2.146479554016D+03  KE= 4.913078232896D+02
 No NMR shielding tensors so no spin-rotation constants.
 Leave Link  601 at Sun Jul 11 16:10:32 2021, MaxMem=   104857600 cpu:               0.4 elap:               0.1
 (Enter /prod/apps/gaussian/g16b1/l701.exe)
 ... and contract with generalized density number  0.
 Compute integral first derivatives.
 D1PCM: PCM CHGder 1st derivatives, ID1Alg=3 FixD1E=F DoIter=F DoCFld=F I1PDM=0.
 GePol: Maximum number of non-zero 1st derivatives   =     220
 Leave Link  701 at Sun Jul 11 16:10:33 2021, MaxMem=   104857600 cpu:               3.4 elap:               0.9
 (Enter /prod/apps/gaussian/g16b1/l702.exe)
 L702 exits ... SP integral derivatives will be done elsewhere.
 Leave Link  702 at Sun Jul 11 16:10:33 2021, MaxMem=   104857600 cpu:               0.1 elap:               0.0
 (Enter /prod/apps/gaussian/g16b1/l703.exe)
 Integral derivatives from FoFJK, PRISM(SPDF).
 Compute integral first derivatives, UseDBF=F ICtDFT=           0.
 Calling FoFJK, ICntrl=      2127 FMM=F ISym2X=0 I1Cent= 0 IOpClX= 0 NMat=1 NMatS=1 NMatT=0.
 FoFJK:  IHMeth= 1 ICntrl=    2127 DoSepK=F KAlg= 0 I1Cent=           0 FoldK=F
 IRaf=         0 NMat=       1 IRICut=       1 DoRegI=T DoRafI=F ISym2E= 0 IDoP0=0 IntGTp=1.
 FoFCou: FMM=F IPFlag=           0 FMFlag=      100000 FMFlg1=         800
         NFxFlg=           0 DoJE=F BraDBF=F KetDBF=F FulRan=T
         wScrn=  0.000000 ICntrl=      2127 IOpCl=  0 I1Cent=           0 NGrid=           0
         NMat0=    1 NMatS0=      1 NMatT0=    0 NMatD0=    1 NMtDS0=    0 NMtDT0=    0
 Symmetry not used in FoFCou.
 Leave Link  703 at Sun Jul 11 16:10:36 2021, MaxMem=   104857600 cpu:              11.5 elap:               2.9
 (Enter /prod/apps/gaussian/g16b1/l716.exe)
 Dipole        = 5.73025686D+00 8.02997420D-01 1.07216302D-02
 ***** Axes restored to original set *****
 -------------------------------------------------------------------
 Center     Atomic                   Forces (Hartrees/Bohr)
 Number     Number              X              Y              Z
 -------------------------------------------------------------------
      1        8           0.021630578    0.006130897   -0.012400737
      2        6          -0.074015272    0.025354690    0.071833502
      3        8           0.030367013   -0.034553313   -0.044544476
      4        6           0.014066425   -0.008895041   -0.011143129
      5        6          -0.020438385   -0.026007766   -0.008576090
      6        8           0.021581009    0.009847448   -0.006590353
      7        1          -0.010116456    0.007901964    0.008338905
      8        6           0.010757883    0.017323175    0.009829568
      9        1           0.001740433    0.007585494   -0.011909001
     10        6           0.000508692    0.013118767    0.002260367
     11        1           0.002233450    0.001935982    0.007015709
     12        6          -0.025509775   -0.045221567   -0.006513817
     13        1           0.000661151    0.009394153   -0.003065933
     14        6           0.029673588    0.013906774    0.010407228
     15        1          -0.003140333    0.002178341   -0.004941744
 -------------------------------------------------------------------
 Cartesian Forces:  Max     0.074015272 RMS     0.022831654
 Leave Link  716 at Sun Jul 11 16:10:36 2021, MaxMem=   104857600 cpu:               0.1 elap:               0.0
 (Enter /prod/apps/gaussian/g16b1/l103.exe)

 GradGradGradGradGradGradGradGradGradGradGradGradGradGradGradGradGradGrad
 Berny optimization.
 FormGI is forming the generalized inverse of G from B-inverse, IUseBI=4.
 Internal  Forces:  Max     0.065276019 RMS     0.014418791
 Search for a local minimum.
 Step number   1 out of a maximum of   77
 All quantities printed in internal units (Hartrees-Bohrs-Radians)
 RMS Force = .14419D-01 SwitMx=.10000D-02 MixMth= 1
 Mixed Optimization -- RFO/linear search
 Second derivative matrix not updated -- first step.
 ITU=  0
     Eigenvalues ---    0.01071   0.01112   0.01733   0.01922   0.01966
     Eigenvalues ---    0.02094   0.02123   0.02128   0.02139   0.02255
     Eigenvalues ---    0.02305   0.02377   0.15510   0.15704   0.15987
     Eigenvalues ---    0.15998   0.16000   0.21935   0.22481   0.24326
     Eigenvalues ---    0.24676   0.24861   0.25000   0.25000   0.34923
     Eigenvalues ---    0.35086   0.35124   0.35170   0.35244   0.38852
     Eigenvalues ---    0.40773   0.43485   0.46020   0.47997   0.50451
     Eigenvalues ---    0.51058   0.52538   0.65139   0.88159
 RFO step:  Lambda=-4.75095012D-02 EMin= 1.07104427D-02
 Linear search not attempted -- first point.
 Maximum step size (   0.300) exceeded in Quadratic search.
    -- Step size scaled by   0.815
 Iteration  1 RMS(Cart)=  0.08825133 RMS(Int)=  0.00817185
 Iteration  2 RMS(Cart)=  0.00915242 RMS(Int)=  0.00104064
 Iteration  3 RMS(Cart)=  0.00012257 RMS(Int)=  0.00103603
 Iteration  4 RMS(Cart)=  0.00000025 RMS(Int)=  0.00103603
 ITry= 1 IFail=0 DXMaxC= 3.48D-01 DCOld= 1.00D+10 DXMaxT= 3.00D-01 DXLimC= 3.00D+00 Rises=F
 Variable       Old X    -DE/DX   Delta X   Delta X   Delta X     New X
                                 (Linear)    (Quad)   (Total)
    R1        2.47091  -0.01895   0.00000  -0.02210  -0.02210   2.44881
    R2        2.33793   0.03896   0.00000   0.03418   0.03418   2.37211
    R3        2.79100   0.02107   0.00000   0.04329   0.04329   2.83429
    R4        2.68361   0.01210   0.00000   0.02128   0.02141   2.70502
    R5        2.63684   0.00412   0.00000   0.00534   0.00547   2.64231
    R6        2.58813  -0.00049   0.00000  -0.00072  -0.00072   2.58741
    R7        2.60558   0.01935   0.00000   0.03065   0.03064   2.63622
    R8        1.84088   0.00534   0.00000   0.00760   0.00760   1.84848
    R9        2.05399   0.00198   0.00000   0.00404   0.00404   2.05804
   R10        2.64638  -0.00344   0.00000  -0.00432  -0.00445   2.64192
   R11        2.05280  -0.00063   0.00000  -0.00129  -0.00129   2.05152
   R12        2.58361   0.01832   0.00000   0.02623   0.02609   2.60970
   R13        2.05536  -0.00178   0.00000  -0.00364  -0.00364   2.05172
   R14        2.70814  -0.02334   0.00000  -0.04373  -0.04372   2.66442
   R15        2.05475  -0.00159   0.00000  -0.00324  -0.00324   2.05151
    A1        2.01383   0.05199   0.00000   0.14600   0.14147   2.15530
    A2        2.00057   0.01401   0.00000   0.04195   0.03744   2.03801
    A3        2.26548  -0.06528   0.00000  -0.17524  -0.17974   2.08574
    A4        2.15075   0.02251   0.00000   0.06424   0.06407   2.21482
    A5        2.05413  -0.01585   0.00000  -0.04181  -0.04218   2.01196
    A6        2.06840  -0.00632   0.00000  -0.01824  -0.01814   2.05026
    A7        2.09341   0.01258   0.00000   0.03373   0.03358   2.12699
    A8        2.06585   0.00177   0.00000   0.00847   0.00850   2.07435
    A9        2.11850  -0.01410   0.00000  -0.03964  -0.03984   2.07866
   A10        1.76396   0.02628   0.00000   0.10320   0.10320   1.86716
   A11        1.98052   0.01448   0.00000   0.05377   0.05364   2.03416
   A12        2.15340  -0.00792   0.00000  -0.01748  -0.01791   2.13549
   A13        2.13038  -0.00596   0.00000  -0.02756  -0.02794   2.10243
   A14        2.11936  -0.00594   0.00000  -0.02280  -0.02268   2.09668
   A15        2.07573   0.00303   0.00000   0.01051   0.01024   2.08597
   A16        2.08731   0.00288   0.00000   0.01196   0.01209   2.09940
   A17        2.19305  -0.00948   0.00000  -0.03519  -0.03519   2.15787
   A18        2.07535   0.00043   0.00000  -0.00223  -0.00233   2.07302
   A19        2.01463   0.00907   0.00000   0.03765   0.03766   2.05229
   A20        2.11764   0.00968   0.00000   0.02690   0.02595   2.14359
   A21        2.03455  -0.00306   0.00000   0.00030  -0.00083   2.03372
   A22        2.10165  -0.00479   0.00000  -0.00774  -0.00901   2.09264
    D1        0.00198  -0.00818   0.00000  -0.11590  -0.11590  -0.11392
    D2        2.99033  -0.00632   0.00000  -0.08585  -0.08546   2.90487
    D3        3.05119   0.00527   0.00000   0.07108   0.07068   3.12187
    D4       -0.24364   0.00713   0.00000   0.10113   0.10112  -0.14252
    D5       -0.24836   0.00222   0.00000   0.04012   0.04085  -0.20751
    D6        3.00339   0.00066   0.00000   0.01678   0.01711   3.02049
    D7        3.04766   0.00111   0.00000   0.01171   0.01160   3.05925
    D8        0.01622  -0.00045   0.00000  -0.01163  -0.01215   0.00407
    D9       -2.90407  -0.00659   0.00000  -0.06413  -0.06345  -2.96753
   D10       -0.01946   0.00046   0.00000   0.01802   0.01895  -0.00051
   D11        0.09170  -0.00215   0.00000  -0.02792  -0.02826   0.06344
   D12        2.97631   0.00490   0.00000   0.05423   0.05414   3.03045
   D13       -3.13823  -0.00004   0.00000   0.00195   0.00216  -3.13607
   D14       -0.11018   0.00266   0.00000   0.02929   0.02909  -0.08109
   D15       -2.99722  -0.00069   0.00000  -0.02057  -0.02166  -3.01888
   D16       -0.05982   0.00206   0.00000   0.02347   0.02347  -0.03635
   D17        0.25619  -0.00405   0.00000  -0.04916  -0.04950   0.20669
   D18       -3.08960  -0.00130   0.00000  -0.00512  -0.00437  -3.09397
   D19        3.09062   0.00014   0.00000   0.00128   0.00158   3.09220
   D20       -0.00815   0.00097   0.00000   0.00981   0.00985   0.00170
   D21       -0.27224   0.00537   0.00000   0.05825   0.05772  -0.21452
   D22        2.91218   0.00621   0.00000   0.06679   0.06599   2.97816
   D23       -3.04614  -0.00342   0.00000  -0.03654  -0.03657  -3.08271
   D24        0.11530  -0.00434   0.00000  -0.05154  -0.05155   0.06374
   D25        0.13747  -0.00239   0.00000  -0.02730  -0.02741   0.11006
   D26       -2.98428  -0.00330   0.00000  -0.04229  -0.04240  -3.02668
   D27       -0.15994   0.00478   0.00000   0.06093   0.06132  -0.09863
   D28       -3.03479  -0.00290   0.00000  -0.02578  -0.02518  -3.05997
   D29        2.99950   0.00415   0.00000   0.04821   0.04803   3.04753
   D30        0.12466  -0.00353   0.00000  -0.03850  -0.03847   0.08618
         Item               Value     Threshold  Converged?
 Maximum Force            0.065276     0.000450     NO 
 RMS     Force            0.014419     0.000300     NO 
 Maximum Displacement     0.347544     0.001800     NO 
 RMS     Displacement     0.088936     0.001200     NO 
 Predicted change in Energy=-2.680161D-02
 Lowest energy point so far.  Saving SCF results.
 GradGradGradGradGradGradGradGradGradGradGradGradGradGradGradGradGradGrad

 Leave Link  103 at Sun Jul 11 16:10:36 2021, MaxMem=   104857600 cpu:               0.1 elap:               0.0
 (Enter /prod/apps/gaussian/g16b1/l202.exe)
                          Input orientation:                          
 ---------------------------------------------------------------------
 Center     Atomic      Atomic             Coordinates (Angstroms)
 Number     Number       Type             X           Y           Z
 ---------------------------------------------------------------------
      1          8           0       -1.906985   -1.399066    1.837521
      2          6           0       -1.260636   -1.727816    0.763556
      3          8           0       -1.210088   -2.899879    0.317013
      4          6           0       -0.440522   -0.653585    0.113199
      5          6           0       -0.394747    0.730576    0.475144
      6          8           0       -1.302217    1.282160    1.339412
      7          1           0       -1.073961    2.229272    1.427185
      8          6           0        0.537837    1.559156   -0.149232
      9          1           0        0.621807    2.574388    0.235888
     10          6           0        1.458149    1.077769   -1.085086
     11          1           0        2.137654    1.762441   -1.583140
     12          6           0        1.454849   -0.263247   -1.414958
     13          1           0        2.171955   -0.717908   -2.091595
     14          6           0        0.467218   -1.097989   -0.853041
     15          1           0        0.492685   -2.167273   -1.038866
 ---------------------------------------------------------------------
                    Distance matrix (angstroms):
                    1          2          3          4          5
     1  O    0.000000
     2  C    1.295857   0.000000
     3  O    2.247232   1.255264   0.000000
     4  C    2.383179   1.499841   2.383193   0.000000
     5  C    2.945897   2.622334   3.724244   1.431433   0.000000
     6  O    2.793355   3.064849   4.306187   2.448107   1.369199
     7  H    3.745283   4.016690   5.249686   3.230893   1.901001
     8  C    4.321507   3.856406   4.812029   2.433573   1.395028
     9  H    4.974773   4.725567   5.773216   3.400501   2.119026
    10  C    5.099066   4.322103   4.990697   2.835211   2.447057
    11  H    6.168886   5.407148   6.046088   3.919405   3.422621
    12  C    4.813588   3.776869   4.129581   2.465777   2.825098
    13  H    5.704356   4.577607   4.690480   3.419107   3.908224
    14  C    3.600919   2.448581   2.725655   1.398252   2.418824
    15  H    3.823894   2.552643   2.296640   2.118816   3.387815
                    6          7          8          9         10
     6  O    0.000000
     7  H    0.978175   0.000000
     8  C    2.382978   2.352028   0.000000
     9  H    2.567000   2.100934   1.089066   0.000000
    10  C    3.679618   3.748206   1.398046   2.164327   0.000000
    11  H    4.539239   4.426563   2.157970   2.503180   1.085615
    12  C    4.192404   4.548111   2.400860   3.386950   1.380996
    13  H    5.276548   5.621713   3.410006   4.319647   2.178768
    14  C    3.688206   4.318024   2.749682   3.833539   2.402022
    15  H    4.558122   5.278769   3.831418   4.911723   3.385934
                   11         12         13         14         15
    11  H    0.000000
    12  C    2.144276   0.000000
    13  H    2.532160   1.085723   0.000000
    14  C    3.391969   1.409949   2.141169   0.000000
    15  H    4.294742   2.166222   2.455370   1.085610   0.000000
 Stoichiometry    C7H5O3(1-)
 Framework group  C1[X(C7H5O3)]
 Deg. of freedom    39
 Full point group                 C1      NOp   1
 RotChk:  IX=0 Diff= 7.67D-02
 Largest Abelian subgroup         C1      NOp   1
 Largest concise Abelian subgroup C1      NOp   1
                         Standard orientation:                         
 ---------------------------------------------------------------------
 Center     Atomic      Atomic             Coordinates (Angstroms)
 Number     Number       Type             X           Y           Z
 ---------------------------------------------------------------------
      1          8           0       -2.420821    0.815139    0.249688
      2          6           0       -1.791648   -0.286834   -0.013070
      3          8           0       -2.357497   -1.404078   -0.098330
      4          6           0       -0.295924   -0.208467   -0.091763
      5          6           0        0.506812    0.975384   -0.035969
      6          8           0       -0.041300    2.225921   -0.138137
      7          1           0        0.695494    2.866525   -0.078249
      8          6           0        1.894577    0.845589    0.022021
      9          1           0        2.462787    1.760753    0.182262
     10          6           0        2.528173   -0.399698    0.070503
     11          1           0        3.612106   -0.460073    0.068638
     12          6           0        1.766437   -1.551559    0.059318
     13          1           0        2.184252   -2.549766    0.147687
     14          6           0        0.367869   -1.439051   -0.079628
     15          1           0       -0.255464   -2.325490   -0.014584
 ---------------------------------------------------------------------
 Rotational constants (GHZ):           2.2560293           1.2324443           0.8016422
 Leave Link  202 at Sun Jul 11 16:10:36 2021, MaxMem=   104857600 cpu:               0.0 elap:               0.0
 (Enter /prod/apps/gaussian/g16b1/l301.exe)
 Standard basis: 6-31G(d) (6D, 7F)
 Ernie: Thresh=  0.10000D-02 Tol=  0.10000D-05 Strict=F.
 There are   160 symmetry adapted cartesian basis functions of A   symmetry.
 There are   160 symmetry adapted basis functions of A   symmetry.
   160 basis functions,   300 primitive gaussians,   160 cartesian basis functions
    36 alpha electrons       36 beta electrons
       nuclear repulsion energy       483.7651249200 Hartrees.
 IExCor=  402 DFT=T Ex+Corr=B3LYP ExCW=0 ScaHFX=  0.200000
 ScaDFX=  0.800000  0.720000  1.000000  0.810000 ScalE2=  1.000000  1.000000
 IRadAn=      5 IRanWt=     -1 IRanGd=            0 ICorTp=0 IEmpDi=  4
 NAtoms=   15 NActive=   15 NUniq=   15 SFac= 1.00D+00 NAtFMM=   60 NAOKFM=F Big=F
 Integral buffers will be    131072 words long.
 Raffenetti 2 integral format.
 Two-electron integral symmetry is turned on.
 ------------------------------------------------------------------------------
 Polarizable Continuum Model (PCM)
 =================================
 Model                : PCM.
 Atomic radii         : MST.
 Polarization charges : Total charges.
 Charge compensation  : None.
 Solution method      : On-the-fly selection.
 Cavity type          : Scaled VdW (van der Waals Surface) (Alpha=1.250).
 Cavity algorithm     : GePol (No added spheres)
                        Default sphere list used, NSphG=   15.
                        Lebedev-Laikov grids with approx.  5.0 points / Ang**2.
                        Smoothing algorithm: York/Karplus (Gamma=1.0000).
                        Polarization charges: spherical gaussians, with
                                              point-specific exponents (IZeta= 3).
                        Self-potential: point-specific (ISelfS= 7).
                        Self-field    : sphere-specific E.n sum rule (ISelfD= 2).
 1st derivatives      : Analytical E(r).r(x)/FMM algorithm (CHGder, D1EAlg=3).
                        Cavity 1st derivative terms included.
 Solvent              : Water, Eps=  78.355300 Eps(inf)=   1.777849
 ------------------------------------------------------------------------------
 Spheres list:
 ISph  on   Nord     Re0    Alpha      Xe            Ye            Ze
    1   O      1    1.4000  1.150     -2.420821      0.815139      0.249688
    2   C      2    1.5000  1.150     -1.791648     -0.286834     -0.013070
    3   O      3    1.4000  1.150     -2.357497     -1.404078     -0.098330
    4   C      4    1.5000  1.250     -0.295924     -0.208467     -0.091763
    5   C      5    1.5000  1.250      0.506812      0.975384     -0.035969
    6   O      6    1.4500  1.250     -0.041300      2.225921     -0.138137
    7   H      7    0.9000  1.250      0.695494      2.866525     -0.078249
    8   C      8    1.5000  1.250      1.894577      0.845589      0.022021
    9   H      9    1.2000  1.250      2.462787      1.760753      0.182262
   10   C     10    1.5000  1.250      2.528173     -0.399698      0.070503
   11   H     11    1.2000  1.250      3.612106     -0.460073      0.068638
   12   C     12    1.5000  1.250      1.766437     -1.551559      0.059318
   13   H     13    1.2000  1.250      2.184252     -2.549766      0.147687
   14   C     14    1.5000  1.250      0.367869     -1.439051     -0.079628
   15   H     15    1.2000  1.250     -0.255464     -2.325490     -0.014584
 ------------------------------------------------------------------------------
 GePol: Number of generator spheres                  =      15
 GePol: Total number of spheres                      =      15
 GePol: Number of exposed spheres                    =      15 (100.00%)
 GePol: Number of points                             =    1301
 GePol: Average weight of points                     =       0.13
 GePol: Minimum weight of points                     =   0.44D-10
 GePol: Maximum weight of points                     =    0.21416
 GePol: Number of points with low weight             =      83
 GePol: Fraction of low-weight points (<1% of avg)   =       6.38%
 GePol: Cavity surface area                          =    166.089 Ang**2
 GePol: Cavity volume                                =    145.636 Ang**3
 PCM non-electrostatic energy =         0.0015922777 Hartrees.
 Nuclear repulsion after PCM non-electrostatic terms =      483.7667171977 Hartrees.
 Leave Link  301 at Sun Jul 11 16:10:36 2021, MaxMem=   104857600 cpu:               0.3 elap:               0.1
 (Enter /prod/apps/gaussian/g16b1/l302.exe)
 NPDir=0 NMtPBC=     1 NCelOv=     1 NCel=       1 NClECP=     1 NCelD=      1
         NCelK=      1 NCelE2=     1 NClLst=     1 CellRange=     0.0.
 One-electron integrals computed using PRISM.
 One-electron integral symmetry used in STVInt
 NBasis=   160 RedAO= T EigKep=  4.82D-04  NBF=   160
 NBsUse=   160 1.00D-06 EigRej= -1.00D+00 NBFU=   160
 Precomputing XC quadrature grid using
 IXCGrd= 4 IRadAn=           5 IRanWt=          -1 IRanGd=           0 AccXCQ= 0.00D+00.
 Generated NRdTot=       0 NPtTot=           0 NUsed=           0 NTot=          32
 NSgBfM=   160   160   160   160   160 MxSgAt=    15 MxSgA2=    15.
 Leave Link  302 at Sun Jul 11 16:10:36 2021, MaxMem=   104857600 cpu:               0.8 elap:               0.2
 (Enter /prod/apps/gaussian/g16b1/l303.exe)
 DipDrv:  MaxL=1.
 Leave Link  303 at Sun Jul 11 16:10:36 2021, MaxMem=   104857600 cpu:               0.1 elap:               0.0
 (Enter /prod/apps/gaussian/g16b1/l401.exe)
 Initial guess from the checkpoint file:  "SET_328_BBB299_conf1.geo_000_180.chk"
 B after Tr=     0.000000    0.000000   -0.000000
         Rot=    0.999794   -0.001360    0.002039    0.020163 Ang=  -2.33 deg.
 Guess basis will be translated and rotated to current coordinates.
 JPrj=2 DoOrth=T DoCkMO=T.
 Generating alternative initial guess.
 ExpMin= 1.61D-01 ExpMax= 5.48D+03 ExpMxC= 8.25D+02 IAcc=3 IRadAn=         5 AccDes= 0.00D+00
 Harris functional with IExCor=  402 and IRadAn=       5 diagonalized for initial guess.
 HarFok:  IExCor=  402 AccDes= 0.00D+00 IRadAn=         5 IDoV= 1 UseB2=F ITyADJ=14
 ICtDFT=  3500011 ScaDFX=  1.000000  1.000000  1.000000  1.000000
 FoFCou: FMM=F IPFlag=           0 FMFlag=      100000 FMFlg1=           0
         NFxFlg=           0 DoJE=T BraDBF=F KetDBF=T FulRan=T
         wScrn=  0.000000 ICntrl=       500 IOpCl=  0 I1Cent=   200000004 NGrid=           0
         NMat0=    1 NMatS0=      1 NMatT0=    0 NMatD0=    1 NMtDS0=    0 NMtDT0=    0
 Petite list used in FoFCou.
 Harris En= -495.674706434793    
 Leave Link  401 at Sun Jul 11 16:10:37 2021, MaxMem=   104857600 cpu:               3.0 elap:               0.8
 (Enter /prod/apps/gaussian/g16b1/l502.exe)
 Keep R1 ints in memory in canonical form, NReq=86910067.
 FoFCou: FMM=F IPFlag=           0 FMFlag=           0 FMFlg1=           0
         NFxFlg=           0 DoJE=F BraDBF=F KetDBF=F FulRan=T
         wScrn=  0.000000 ICntrl=       600 IOpCl=  0 I1Cent=           0 NGrid=           0
         NMat0=    1 NMatS0=  12880 NMatT0=    0 NMatD0=    1 NMtDS0=    0 NMtDT0=    0
 Symmetry not used in FoFCou.
 Two-electron integral symmetry not used.
 Closed shell SCF:
 Using DIIS extrapolation, IDIIS=  1040.
 NGot=   104857600 LenX=    21850029 LenY=    21823988
 Requested convergence on RMS density matrix=1.00D-08 within 128 cycles.
 Requested convergence on MAX density matrix=1.00D-06.
 Requested convergence on             energy=1.00D-06.
 No special actions if energy rises.

 Cycle   1  Pass 1  IDiag  1:
 Inv3:  Mode=1 IEnd=     5077803.
 Iteration    1 A*A^-1 deviation from unit magnitude is 3.00D-15 for    600.
 Iteration    1 A*A^-1 deviation from orthogonality  is 3.25D-15 for    844    222.
 Iteration    1 A^-1*A deviation from unit magnitude is 3.00D-15 for    600.
 Iteration    1 A^-1*A deviation from orthogonality  is 2.04D-15 for    832    218.
 E= -495.538993073891    
 DIIS: error= 7.24D-03 at cycle   1 NSaved=   1.
 NSaved= 1 IEnMin= 1 EnMin= -495.538993073891     IErMin= 1 ErrMin= 7.24D-03
 ErrMax= 7.24D-03  0.00D+00 EMaxC= 1.00D-01 BMatC= 2.04D-02 BMatP= 2.04D-02
 IDIUse=3 WtCom= 9.28D-01 WtEn= 7.24D-02
 Coeff-Com:  0.100D+01
 Coeff-En:   0.100D+01
 Coeff:      0.100D+01
 Gap=     1.867 Goal=   None    Shift=    0.000
 GapD=    1.867 DampG=2.000 DampE=1.000 DampFc=2.0000 IDamp=-1.
 RMSDP=2.21D-03 MaxDP=4.15D-02              OVMax= 4.54D-02

 Cycle   2  Pass 1  IDiag  1:
 E= -495.569676943797     Delta-E=       -0.030683869905 Rises=F Damp=F
 DIIS: error= 3.71D-03 at cycle   2 NSaved=   2.
 NSaved= 2 IEnMin= 2 EnMin= -495.569676943797     IErMin= 2 ErrMin= 3.71D-03
 ErrMax= 3.71D-03  0.00D+00 EMaxC= 1.00D-01 BMatC= 1.69D-03 BMatP= 2.04D-02
 IDIUse=3 WtCom= 9.63D-01 WtEn= 3.71D-02
 Coeff-Com:  0.523D-01 0.948D+00
 Coeff-En:   0.000D+00 0.100D+01
 Coeff:      0.504D-01 0.950D+00
 Gap=     0.186 Goal=   None    Shift=    0.000
 RMSDP=6.55D-04 MaxDP=2.11D-02 DE=-3.07D-02 OVMax= 4.04D-02

 Cycle   3  Pass 1  IDiag  1:
 E= -495.566950032699     Delta-E=        0.002726911098 Rises=F Damp=F
 DIIS: error= 7.35D-03 at cycle   3 NSaved=   3.
 NSaved= 3 IEnMin= 2 EnMin= -495.569676943797     IErMin= 2 ErrMin= 3.71D-03
 ErrMax= 7.35D-03  0.00D+00 EMaxC= 1.00D-01 BMatC= 5.47D-03 BMatP= 1.69D-03
 IDIUse=3 WtCom= 1.04D-01 WtEn= 8.96D-01
 Coeff-Com: -0.420D-01 0.673D+00 0.369D+00
 Coeff-En:   0.000D+00 0.715D+00 0.285D+00
 Coeff:     -0.439D-02 0.710D+00 0.294D+00
 Gap=     0.188 Goal=   None    Shift=    0.000
 RMSDP=3.74D-04 MaxDP=1.23D-02 DE= 2.73D-03 OVMax= 2.43D-02

 Cycle   4  Pass 1  IDiag  1:
 E= -495.570960755272     Delta-E=       -0.004010722573 Rises=F Damp=F
 DIIS: error= 8.98D-04 at cycle   4 NSaved=   4.
 NSaved= 4 IEnMin= 4 EnMin= -495.570960755272     IErMin= 4 ErrMin= 8.98D-04
 ErrMax= 8.98D-04  0.00D+00 EMaxC= 1.00D-01 BMatC= 1.26D-04 BMatP= 1.69D-03
 IDIUse=3 WtCom= 9.91D-01 WtEn= 8.98D-03
 Coeff-Com: -0.161D-01 0.204D+00-0.677D-02 0.819D+00
 Coeff-En:   0.000D+00 0.000D+00 0.000D+00 0.100D+01
 Coeff:     -0.159D-01 0.202D+00-0.671D-02 0.821D+00
 Gap=     0.189 Goal=   None    Shift=    0.000
 RMSDP=7.17D-05 MaxDP=1.85D-03 DE=-4.01D-03 OVMax= 2.99D-03

 Cycle   5  Pass 1  IDiag  1:
 E= -495.571049487177     Delta-E=       -0.000088731905 Rises=F Damp=F
 DIIS: error= 2.13D-04 at cycle   5 NSaved=   5.
 NSaved= 5 IEnMin= 5 EnMin= -495.571049487177     IErMin= 5 ErrMin= 2.13D-04
 ErrMax= 2.13D-04  0.00D+00 EMaxC= 1.00D-01 BMatC= 1.09D-05 BMatP= 1.26D-04
 IDIUse=3 WtCom= 9.98D-01 WtEn= 2.13D-03
 Coeff-Com: -0.557D-02 0.578D-01-0.405D-01 0.509D+00 0.479D+00
 Coeff-En:   0.000D+00 0.000D+00 0.000D+00 0.000D+00 0.100D+01
 Coeff:     -0.556D-02 0.577D-01-0.404D-01 0.508D+00 0.480D+00
 Gap=     0.189 Goal=   None    Shift=    0.000
 RMSDP=1.84D-05 MaxDP=6.70D-04 DE=-8.87D-05 OVMax= 6.94D-04

 Cycle   6  Pass 1  IDiag  1:
 E= -495.571058036199     Delta-E=       -0.000008549022 Rises=F Damp=F
 DIIS: error= 1.95D-05 at cycle   6 NSaved=   6.
 NSaved= 6 IEnMin= 6 EnMin= -495.571058036199     IErMin= 6 ErrMin= 1.95D-05
 ErrMax= 1.95D-05  0.00D+00 EMaxC= 1.00D-01 BMatC= 1.03D-07 BMatP= 1.09D-05
 IDIUse=1 WtCom= 1.00D+00 WtEn= 0.00D+00
 Coeff-Com: -0.123D-03-0.249D-02-0.109D-01 0.683D-01 0.121D+00 0.824D+00
 Coeff:     -0.123D-03-0.249D-02-0.109D-01 0.683D-01 0.121D+00 0.824D+00
 Gap=     0.189 Goal=   None    Shift=    0.000
 RMSDP=3.00D-06 MaxDP=5.41D-05 DE=-8.55D-06 OVMax= 1.34D-04

 Cycle   7  Pass 1  IDiag  1:
 E= -495.571058123430     Delta-E=       -0.000000087231 Rises=F Damp=F
 DIIS: error= 6.82D-06 at cycle   7 NSaved=   7.
 NSaved= 7 IEnMin= 7 EnMin= -495.571058123430     IErMin= 7 ErrMin= 6.82D-06
 ErrMax= 6.82D-06  0.00D+00 EMaxC= 1.00D-01 BMatC= 2.71D-08 BMatP= 1.03D-07
 IDIUse=1 WtCom= 1.00D+00 WtEn= 0.00D+00
 Coeff-Com:  0.248D-03-0.485D-02-0.387D-02 0.883D-02 0.376D-01 0.435D+00
 Coeff-Com:  0.528D+00
 Coeff:      0.248D-03-0.485D-02-0.387D-02 0.883D-02 0.376D-01 0.435D+00
 Coeff:      0.528D+00
 Gap=     0.189 Goal=   None    Shift=    0.000
 RMSDP=1.08D-06 MaxDP=3.10D-05 DE=-8.72D-08 OVMax= 5.67D-05

 Cycle   8  Pass 1  IDiag  1:
 E= -495.571058149095     Delta-E=       -0.000000025664 Rises=F Damp=F
 DIIS: error= 2.10D-06 at cycle   8 NSaved=   8.
 NSaved= 8 IEnMin= 8 EnMin= -495.571058149095     IErMin= 8 ErrMin= 2.10D-06
 ErrMax= 2.10D-06  0.00D+00 EMaxC= 1.00D-01 BMatC= 1.18D-09 BMatP= 2.71D-08
 IDIUse=1 WtCom= 1.00D+00 WtEn= 0.00D+00
 Coeff-Com:  0.860D-04-0.121D-02-0.807D-04-0.454D-02-0.261D-02 0.378D-01
 Coeff-Com:  0.181D+00 0.789D+00
 Coeff:      0.860D-04-0.121D-02-0.807D-04-0.454D-02-0.261D-02 0.378D-01
 Coeff:      0.181D+00 0.789D+00
 Gap=     0.189 Goal=   None    Shift=    0.000
 RMSDP=3.60D-07 MaxDP=7.37D-06 DE=-2.57D-08 OVMax= 2.27D-05

 Cycle   9  Pass 1  IDiag  1:
 E= -495.571058150584     Delta-E=       -0.000000001489 Rises=F Damp=F
 DIIS: error= 6.32D-07 at cycle   9 NSaved=   9.
 NSaved= 9 IEnMin= 9 EnMin= -495.571058150584     IErMin= 9 ErrMin= 6.32D-07
 ErrMax= 6.32D-07  0.00D+00 EMaxC= 1.00D-01 BMatC= 1.27D-10 BMatP= 1.18D-09
 IDIUse=1 WtCom= 1.00D+00 WtEn= 0.00D+00
 Coeff-Com:  0.178D-04-0.122D-03 0.233D-03-0.235D-02-0.381D-02-0.182D-01
 Coeff-Com:  0.330D-01 0.320D+00 0.671D+00
 Coeff:      0.178D-04-0.122D-03 0.233D-03-0.235D-02-0.381D-02-0.182D-01
 Coeff:      0.330D-01 0.320D+00 0.671D+00
 Gap=     0.189 Goal=   None    Shift=    0.000
 RMSDP=1.18D-07 MaxDP=2.13D-06 DE=-1.49D-09 OVMax= 6.25D-06

 Cycle  10  Pass 1  IDiag  1:
 E= -495.571058150704     Delta-E=       -0.000000000121 Rises=F Damp=F
 DIIS: error= 2.47D-07 at cycle  10 NSaved=  10.
 NSaved=10 IEnMin=10 EnMin= -495.571058150704     IErMin=10 ErrMin= 2.47D-07
 ErrMax= 2.47D-07  0.00D+00 EMaxC= 1.00D-01 BMatC= 2.40D-11 BMatP= 1.27D-10
 IDIUse=1 WtCom= 1.00D+00 WtEn= 0.00D+00
 Coeff-Com: -0.317D-05 0.117D-03 0.142D-03-0.613D-03-0.167D-02-0.154D-01
 Coeff-Com: -0.672D-02 0.697D-01 0.347D+00 0.607D+00
 Coeff:     -0.317D-05 0.117D-03 0.142D-03-0.613D-03-0.167D-02-0.154D-01
 Coeff:     -0.672D-02 0.697D-01 0.347D+00 0.607D+00
 Gap=     0.189 Goal=   None    Shift=    0.000
 RMSDP=3.75D-08 MaxDP=9.52D-07 DE=-1.21D-10 OVMax= 2.33D-06

 Cycle  11  Pass 1  IDiag  1:
 E= -495.571058150723     Delta-E=       -0.000000000019 Rises=F Damp=F
 DIIS: error= 9.03D-08 at cycle  11 NSaved=  11.
 NSaved=11 IEnMin=11 EnMin= -495.571058150723     IErMin=11 ErrMin= 9.03D-08
 ErrMax= 9.03D-08  0.00D+00 EMaxC= 1.00D-01 BMatC= 1.61D-12 BMatP= 2.40D-11
 IDIUse=1 WtCom= 1.00D+00 WtEn= 0.00D+00
 Coeff-Com: -0.257D-05 0.600D-04 0.510D-04-0.135D-03-0.513D-03-0.596D-02
 Coeff-Com: -0.565D-02 0.975D-02 0.110D+00 0.288D+00 0.605D+00
 Coeff:     -0.257D-05 0.600D-04 0.510D-04-0.135D-03-0.513D-03-0.596D-02
 Coeff:     -0.565D-02 0.975D-02 0.110D+00 0.288D+00 0.605D+00
 Gap=     0.189 Goal=   None    Shift=    0.000
 RMSDP=9.11D-09 MaxDP=2.25D-07 DE=-1.88D-11 OVMax= 3.69D-07

 Error on total polarization charges =  0.01934
 SCF Done:  E(RB3LYP) =  -495.571058151     A.U. after   11 cycles
            NFock= 11  Conv=0.91D-08     -V/T= 2.0091
 KE= 4.911136227061D+02 PE=-2.139887068174D+03 EE= 6.694356701197D+02
 Leave Link  502 at Sun Jul 11 16:10:52 2021, MaxMem=   104857600 cpu:              55.9 elap:              14.8
 (Enter /prod/apps/gaussian/g16b1/l701.exe)
 ... and contract with generalized density number  0.
 Compute integral first derivatives.
 D1PCM: PCM CHGder 1st derivatives, ID1Alg=3 FixD1E=F DoIter=F DoCFld=F I1PDM=0.
 GePol: Maximum number of non-zero 1st derivatives   =     225
 Leave Link  701 at Sun Jul 11 16:10:53 2021, MaxMem=   104857600 cpu:               4.0 elap:               1.0
 (Enter /prod/apps/gaussian/g16b1/l702.exe)
 L702 exits ... SP integral derivatives will be done elsewhere.
 Leave Link  702 at Sun Jul 11 16:10:53 2021, MaxMem=   104857600 cpu:               0.1 elap:               0.0
 (Enter /prod/apps/gaussian/g16b1/l703.exe)
 Integral derivatives from FoFJK, PRISM(SPDF).
 Compute integral first derivatives, UseDBF=F ICtDFT=           0.
 Calling FoFJK, ICntrl=      2127 FMM=F ISym2X=0 I1Cent= 0 IOpClX= 0 NMat=1 NMatS=1 NMatT=0.
 FoFJK:  IHMeth= 1 ICntrl=    2127 DoSepK=F KAlg= 0 I1Cent=           0 FoldK=F
 IRaf=         0 NMat=       1 IRICut=       1 DoRegI=T DoRafI=F ISym2E= 0 IDoP0=0 IntGTp=1.
 FoFCou: FMM=F IPFlag=           0 FMFlag=      100000 FMFlg1=         800
         NFxFlg=           0 DoJE=F BraDBF=F KetDBF=F FulRan=T
         wScrn=  0.000000 ICntrl=      2127 IOpCl=  0 I1Cent=           0 NGrid=           0
         NMat0=    1 NMatS0=      1 NMatT0=    0 NMatD0=    1 NMtDS0=    0 NMtDT0=    0
 Symmetry not used in FoFCou.
 Leave Link  703 at Sun Jul 11 16:10:56 2021, MaxMem=   104857600 cpu:              11.7 elap:               3.0
 (Enter /prod/apps/gaussian/g16b1/l716.exe)
 Dipole        = 5.54905012D+00 8.50721409D-01-6.53119529D-02
 ***** Axes restored to original set *****
 -------------------------------------------------------------------
 Center     Atomic                   Forces (Hartrees/Bohr)
 Number     Number              X              Y              Z
 -------------------------------------------------------------------
      1        8           0.011437192   -0.004336121   -0.025331879
      2        6          -0.023966338    0.007331725    0.047384435
      3        8           0.001359115   -0.004064466   -0.010219044
      4        6           0.005118603    0.007877788   -0.005337513
      5        6          -0.009041238   -0.010929556   -0.008444854
      6        8           0.006706491   -0.004624927    0.000270581
      7        1          -0.002736820   -0.001253443    0.000975730
      8        6           0.008511692    0.005099082    0.006336990
      9        1          -0.001601871    0.002279197   -0.007616384
     10        6          -0.001287778    0.007675736    0.000211251
     11        1           0.002761390    0.000718286    0.004482668
     12        6          -0.014495004   -0.020337063   -0.002704832
[...]
 Coeff-Com:  0.150D-02 0.335D-01-0.168D-01-0.247D+00-0.310D-01 0.126D+01
 Coeff:     -0.353D-05 0.193D-04 0.137D-03 0.126D-03-0.815D-03-0.255D-02
 Coeff:      0.150D-02 0.335D-01-0.168D-01-0.247D+00-0.310D-01 0.126D+01
 Gap=     0.294 Goal=   None    Shift=    0.000
 RMSDP=3.51D-07 MaxDP=9.64D-06 DE=-1.30D-09 OVMax= 1.44D-05

 Cycle  13  Pass 1  IDiag  1:
 RMSU=  1.28D-07    CP:  5.19D-01  8.76D-01  9.05D-01  1.06D+00  1.05D+00
                    CP:  1.18D+00  1.17D+00  1.38D+00  1.47D+00  1.72D+00
                    CP:  2.01D+00  1.58D+00
 E= -492.673141051333     Delta-E=       -0.000000000305 Rises=F Damp=F
 DIIS: error= 1.87D-07 at cycle  13 NSaved=  13.
 NSaved=13 IEnMin=13 EnMin= -492.673141051333     IErMin=13 ErrMin= 1.87D-07
 ErrMax= 1.87D-07  0.00D+00 EMaxC= 1.00D-01 BMatC= 6.16D-12 BMatP= 4.67D-11
 IDIUse=1 WtCom= 1.00D+00 WtEn= 0.00D+00
 Coeff-Com: -0.224D-05 0.750D-05 0.556D-04 0.103D-03-0.641D-04-0.182D-02
 Coeff-Com: -0.250D-02 0.143D-01 0.240D-01-0.582D-01-0.149D+00 0.117D+00
 Coeff-Com:  0.106D+01
 Coeff:     -0.224D-05 0.750D-05 0.556D-04 0.103D-03-0.641D-04-0.182D-02
 Coeff:     -0.250D-02 0.143D-01 0.240D-01-0.582D-01-0.149D+00 0.117D+00
 Coeff:      0.106D+01
 Gap=     0.294 Goal=   None    Shift=    0.000
 RMSDP=1.18D-07 MaxDP=3.85D-06 DE=-3.05D-10 OVMax= 4.72D-06

 Cycle  14  Pass 1  IDiag  1:
 RMSU=  3.65D-08    CP:  5.19D-01  8.76D-01  9.05D-01  1.06D+00  1.05D+00
                    CP:  1.18D+00  1.17D+00  1.38D+00  1.47D+00  1.73D+00
                    CP:  2.12D+00  1.79D+00  1.39D+00
 E= -492.673141051372     Delta-E=       -0.000000000039 Rises=F Damp=F
 DIIS: error= 5.61D-08 at cycle  14 NSaved=  14.
 NSaved=14 IEnMin=14 EnMin= -492.673141051372     IErMin=14 ErrMin= 5.61D-08
 ErrMax= 5.61D-08  0.00D+00 EMaxC= 1.00D-01 BMatC= 9.35D-13 BMatP= 6.16D-12
 IDIUse=1 WtCom= 1.00D+00 WtEn= 0.00D+00
 Coeff-Com:  0.117D-06-0.124D-05-0.101D-04-0.318D-06 0.106D-03 0.603D-04
 Coeff-Com: -0.738D-03-0.241D-02 0.713D-02 0.254D-01-0.193D-01-0.168D+00
 Coeff-Com:  0.206D+00 0.951D+00
 Coeff:      0.117D-06-0.124D-05-0.101D-04-0.318D-06 0.106D-03 0.603D-04
 Coeff:     -0.738D-03-0.241D-02 0.713D-02 0.254D-01-0.193D-01-0.168D+00
 Coeff:      0.206D+00 0.951D+00
 Gap=     0.294 Goal=   None    Shift=    0.000
 RMSDP=3.21D-08 MaxDP=1.16D-06 DE=-3.88D-11 OVMax= 1.34D-06

 Cycle  15  Pass 1  IDiag  1:
 RMSU=  1.58D-08    CP:  5.19D-01  8.76D-01  9.05D-01  1.06D+00  1.05D+00
                    CP:  1.18D+00  1.17D+00  1.38D+00  1.47D+00  1.73D+00
                    CP:  2.14D+00  1.82D+00  1.53D+00  1.10D+00
 E= -492.673141051374     Delta-E=       -0.000000000002 Rises=F Damp=F
 DIIS: error= 1.80D-08 at cycle  15 NSaved=  15.
 NSaved=15 IEnMin=15 EnMin= -492.673141051374     IErMin=15 ErrMin= 1.80D-08
 ErrMax= 1.80D-08  0.00D+00 EMaxC= 1.00D-01 BMatC= 1.08D-13 BMatP= 9.35D-13
 IDIUse=1 WtCom= 1.00D+00 WtEn= 0.00D+00
 Coeff-Com:  0.288D-06-0.920D-06-0.733D-05-0.140D-04-0.411D-06 0.271D-03
 Coeff-Com:  0.389D-03-0.180D-02-0.374D-02 0.526D-02 0.284D-01-0.134D-01
 Coeff-Com: -0.167D+00-0.489D-01 0.120D+01
 Coeff:      0.288D-06-0.920D-06-0.733D-05-0.140D-04-0.411D-06 0.271D-03
 Coeff:      0.389D-03-0.180D-02-0.374D-02 0.526D-02 0.284D-01-0.134D-01
 Coeff:     -0.167D+00-0.489D-01 0.120D+01
 Gap=     0.294 Goal=   None    Shift=    0.000
 RMSDP=1.56D-08 MaxDP=8.21D-07 DE=-2.39D-12 OVMax= 4.36D-07

 Cycle  16  Pass 1  IDiag  1:
 RMSU=  6.59D-09    CP:  5.19D-01  8.76D-01  9.05D-01  1.06D+00  1.05D+00
                    CP:  1.18D+00  1.17D+00  1.38D+00  1.47D+00  1.73D+00
                    CP:  2.14D+00  1.81D+00  1.57D+00  1.21D+00  1.38D+00
 E= -492.673141051374     Delta-E=        0.000000000000 Rises=F Damp=F
 DIIS: error= 7.10D-09 at cycle  16 NSaved=  16.
 NSaved=16 IEnMin=15 EnMin= -492.673141051374     IErMin=16 ErrMin= 7.10D-09
 ErrMax= 7.10D-09  0.00D+00 EMaxC= 1.00D-01 BMatC= 1.48D-14 BMatP= 1.08D-13
 IDIUse=1 WtCom= 1.00D+00 WtEn= 0.00D+00
 Coeff-Com: -0.193D-07 0.161D-06 0.119D-05 0.194D-06-0.116D-04-0.110D-04
 Coeff-Com:  0.617D-04 0.248D-03-0.535D-03-0.365D-02 0.317D-02 0.148D-01
 Coeff-Com: -0.130D-01-0.994D-01-0.299D-01 0.113D+01
 Coeff:     -0.193D-07 0.161D-06 0.119D-05 0.194D-06-0.116D-04-0.110D-04
 Coeff:      0.617D-04 0.248D-03-0.535D-03-0.365D-02 0.317D-02 0.148D-01
 Coeff:     -0.130D-01-0.994D-01-0.299D-01 0.113D+01
 Gap=     0.294 Goal=   None    Shift=    0.000
 RMSDP=4.68D-09 MaxDP=1.42D-07 DE= 1.14D-13 OVMax= 1.53D-07

 SCF Done:  E(RHF) =  -492.673141051     A.U. after   16 cycles
            NFock= 16  Conv=0.47D-08     -V/T= 2.0013
 KE= 4.920289136564D+02 PE=-2.137959281610D+03 EE= 6.692528491591D+02
 Leave Link  502 at Sun Jul 11 16:17:15 2021, MaxMem=   262144000 cpu:             237.8 elap:              59.5
 (Enter /prod/apps/gaussian/g16b1/l801.exe)
 ExpMin= 2.97D-02 ExpMax= 1.17D+04 ExpMxC= 4.01D+02 IAcc=3 IRadAn=         5 AccDes= 0.00D+00
 HarFok:  IExCor=  205 AccDes= 0.00D+00 IRadAn=         5 IDoV=-2 UseB2=F ITyADJ=14
 ICtDFT= 12500011 ScaDFX=  1.000000  1.000000  1.000000  1.000000
 Largest valence mixing into a core orbital is  1.19D-04
 Largest core mixing into a valence orbital is  4.23D-05
 Range of M.O.s used for correlation:    11   275
 NBasis=   275 NAE=    36 NBE=    36 NFC=    10 NFV=     0
 NROrb=    265 NOA=    26 NOB=    26 NVA=   239 NVB=   239

 **** Warning!!: The largest alpha MO coefficient is  0.11583457D+03

 Leave Link  801 at Sun Jul 11 16:17:15 2021, MaxMem=   262144000 cpu:               0.5 elap:               0.1
 (Enter /prod/apps/gaussian/g16b1/l906.exe)
 FulOut=F Deriv=F AODrv=F NAtomX=    15
   MMem=          33  MDisk=          26 MDiskD=          26
  W3Min=     1833130 MinDsk=     2275006 NBas6D=         295
 NBas2D=       44080    NTT=       43660    LW2=     2000000
    MDV=   261550103 MDiskM=       12219 NBas2p=       43188
 Fully direct method using O(OVN) memory.
 IMap=   1   2   3   4   5   6   7   8   9  10  11  12  13  14  15  16  17  18  19  20
 IMap=  21  22  23  24  25  26
 JobTyp=1 Pass  1:  I=   1 to  26 NPSUse=  4 ParTrn=T ParDer=T DoDerP=F.
 Spin components of T(2) and E(2):
     alpha-alpha T2 =       0.7620985275D-01 E2=     -0.2131857327D+00
     alpha-beta  T2 =       0.3765370997D+00 E2=     -0.1115619724D+01
     beta-beta   T2 =       0.7620985275D-01 E2=     -0.2131857327D+00
 The integrals were generated   1 times.
 ANorm=    0.1236509929D+01
 E2 =    -0.1541991189D+01 EUMP2 =    -0.49421513224031D+03
 Leave Link  906 at Sun Jul 11 16:17:37 2021, MaxMem=   262144000 cpu:              86.1 elap:              21.6
 (Enter /prod/apps/gaussian/g16b1/l601.exe)
 Copying SCF densities to generalized density rwf, IOpCl= 0 IROHF=0.

 **********************************************************************

            Population analysis using the SCF Density.

 **********************************************************************

 Orbital symmetries:
       Occupied  (A) (A) (A) (A) (A) (A) (A) (A) (A) (A) (A) (A)
                 (A) (A) (A) (A) (A) (A) (A) (A) (A) (A) (A) (A)
                 (A) (A) (A) (A) (A) (A) (A) (A) (A) (A) (A) (A)
       Virtual   (A) (A) (A) (A) (A) (A) (A) (A) (A) (A) (A) (A)
                 (A) (A) (A) (A) (A) (A) (A) (A) (A) (A) (A) (A)
                 (A) (A) (A) (A) (A) (A) (A) (A) (A) (A) (A) (A)
                 (A) (A) (A) (A) (A) (A) (A) (A) (A) (A) (A) (A)
                 (A) (A) (A) (A) (A) (A) (A) (A) (A) (A) (A) (A)
                 (A) (A) (A) (A) (A) (A) (A) (A) (A) (A) (A) (A)
                 (A) (A) (A) (A) (A) (A) (A) (A) (A) (A) (A) (A)
                 (A) (A) (A) (A) (A) (A) (A) (A) (A) (A) (A) (A)
                 (A) (A) (A) (A) (A) (A) (A) (A) (A) (A) (A) (A)
                 (A) (A) (A) (A) (A) (A) (A) (A) (A) (A) (A) (A)
                 (A) (A) (A) (A) (A) (A) (A) (A) (A) (A) (A) (A)
                 (A) (A) (A) (A) (A) (A) (A) (A) (A) (A) (A) (A)
                 (A) (A) (A) (A) (A) (A) (A) (A) (A) (A) (A) (A)
                 (A) (A) (A) (A) (A) (A) (A) (A) (A) (A) (A) (A)
                 (A) (A) (A) (A) (A) (A) (A) (A) (A) (A) (A) (A)
                 (A) (A) (A) (A) (A) (A) (A) (A) (A) (A) (A) (A)
                 (A) (A) (A) (A) (A) (A) (A) (A) (A) (A) (A) (A)
                 (A) (A) (A) (A) (A) (A) (A) (A) (A) (A) (A) (A)
                 (A) (A) (A) (A) (A) (A) (A) (A) (A) (A) (A) (A)
                 (A) (A) (A) (A) (A) (A) (A) (A) (A) (A) (A)
 The electronic state is 1-A.
 Alpha  occ. eigenvalues --  -20.47081 -20.30703 -20.30540 -11.18712 -11.15934
 Alpha  occ. eigenvalues --  -11.13321 -11.12041 -11.11197 -11.10935 -11.09880
 Alpha  occ. eigenvalues --   -1.27745  -1.17621  -1.07036  -1.02108  -0.89485
 Alpha  occ. eigenvalues --   -0.87953  -0.71957  -0.70665  -0.60523  -0.59121
 Alpha  occ. eigenvalues --   -0.53338  -0.51366  -0.47052  -0.46292  -0.45954
 Alpha  occ. eigenvalues --   -0.43085  -0.40281  -0.38863  -0.37276  -0.36773
 Alpha  occ. eigenvalues --   -0.34567  -0.22085  -0.21087  -0.20760  -0.19291
 Alpha  occ. eigenvalues --   -0.18607
 Alpha virt. eigenvalues --    0.10752   0.11515   0.12620   0.14791   0.16003
 Alpha virt. eigenvalues --    0.20787   0.21152   0.21410   0.21777   0.22434
 Alpha virt. eigenvalues --    0.22554   0.22798   0.23288   0.24136   0.24657
 Alpha virt. eigenvalues --    0.25094   0.25499   0.26134   0.27114   0.28265
 Alpha virt. eigenvalues --    0.28353   0.29090   0.29799   0.30016   0.31376
 Alpha virt. eigenvalues --    0.32072   0.33632   0.33754   0.34918   0.36205
 Alpha virt. eigenvalues --    0.38625   0.40220   0.40624   0.41112   0.41745
 Alpha virt. eigenvalues --    0.43175   0.43489   0.44036   0.44345   0.44866
 Alpha virt. eigenvalues --    0.46215   0.46613   0.48185   0.48620   0.48984
 Alpha virt. eigenvalues --    0.49405   0.49705   0.50424   0.51238   0.52637
 Alpha virt. eigenvalues --    0.53059   0.54230   0.54973   0.55488   0.56768
 Alpha virt. eigenvalues --    0.58127   0.58645   0.60024   0.60340   0.60843
 Alpha virt. eigenvalues --    0.61155   0.64769   0.66023   0.66623   0.67797
 Alpha virt. eigenvalues --    0.69201   0.70933   0.71194   0.71450   0.72373
 Alpha virt. eigenvalues --    0.73078   0.74012   0.75817   0.77284   0.78250
 Alpha virt. eigenvalues --    0.78740   0.78994   0.80345   0.80818   0.81804
 Alpha virt. eigenvalues --    0.82455   0.83137   0.83273   0.85481   0.86658
 Alpha virt. eigenvalues --    0.86863   0.87354   0.88854   0.91659   0.92310
 Alpha virt. eigenvalues --    0.94161   0.96565   0.96935   0.97529   0.98545
 Alpha virt. eigenvalues --    0.99747   1.01440   1.02781   1.03855   1.04266
 Alpha virt. eigenvalues --    1.05448   1.05943   1.07012   1.07973   1.09163
 Alpha virt. eigenvalues --    1.10194   1.10961   1.11747   1.12049   1.13227
 Alpha virt. eigenvalues --    1.14749   1.17298   1.18475   1.19145   1.20292
 Alpha virt. eigenvalues --    1.21539   1.22280   1.25158   1.27800   1.29776
 Alpha virt. eigenvalues --    1.30353   1.33964   1.36753   1.37470   1.38295
 Alpha virt. eigenvalues --    1.41194   1.43222   1.45078   1.46192   1.51083
 Alpha virt. eigenvalues --    1.52988   1.55187   1.56781   1.58491   1.58659
 Alpha virt. eigenvalues --    1.61725   1.63092   1.63562   1.64323   1.64852
 Alpha virt. eigenvalues --    1.66452   1.67375   1.69677   1.70714   1.71370
 Alpha virt. eigenvalues --    1.73429   1.75055   1.77290   1.80023   1.80625
 Alpha virt. eigenvalues --    1.82505   1.83478   1.84002   1.86530   1.87223
 Alpha virt. eigenvalues --    1.87879   1.89265   1.90888   1.94540   1.94853
 Alpha virt. eigenvalues --    1.96715   1.99001   2.00456   2.03500   2.05410
 Alpha virt. eigenvalues --    2.05682   2.06539   2.07265   2.08629   2.09361
 Alpha virt. eigenvalues --    2.10539   2.12360   2.13552   2.17093   2.17362
 Alpha virt. eigenvalues --    2.21364   2.21949   2.24106   2.25854   2.26063
 Alpha virt. eigenvalues --    2.29451   2.30858   2.34474   2.35356   2.35903
 Alpha virt. eigenvalues --    2.37220   2.39317   2.42572   2.44217   2.45689
 Alpha virt. eigenvalues --    2.46869   2.48136   2.48759   2.49163   2.50853
 Alpha virt. eigenvalues --    2.54455   2.58049   2.59607   2.63766   2.70695
 Alpha virt. eigenvalues --    2.73898   2.74689   2.77199   2.84937   2.90862
 Alpha virt. eigenvalues --    2.92864   2.93298   2.98517   3.07348   3.09830
 Alpha virt. eigenvalues --    3.12204   3.14705   3.21805   3.28512   3.33284
 Alpha virt. eigenvalues --    3.39371   3.41222   3.45641   3.47886   3.52112
 Alpha virt. eigenvalues --    3.73735   3.77607   3.88104   3.89934   3.91634
 Alpha virt. eigenvalues --    3.96244   3.99822   4.01040   4.03580   4.05743
 Alpha virt. eigenvalues --    4.08495   4.12905   4.16309   4.17053   4.23364
 Alpha virt. eigenvalues --    4.37269   4.42756   4.54774   4.84606
          Condensed to atoms (all electrons):
               1          2          3          4          5          6
     1  O    8.920597   0.235392  -0.116679   0.067463   0.115564  -0.073699
     2  C    0.235392   7.128520   0.138374  -0.872031  -0.495396  -0.014616
     3  O   -0.116679   0.138374   9.008375   0.082043  -0.028696  -0.008877
     4  C    0.067463  -0.872031   0.082043  11.196883  -2.969222   0.225621
     5  C    0.115564  -0.495396  -0.028696  -2.969222  13.674734  -0.875655
     6  O   -0.073699  -0.014616  -0.008877   0.225621  -0.875655   9.163515
     7  H    0.012207   0.006906   0.001949   0.059171  -0.011898   0.287551
     8  C   -0.082609  -0.227870  -0.023733   1.494100  -5.067979   0.479882
     9  H   -0.000387   0.012531  -0.000153  -0.213040   0.933204  -0.141577
    10  C   -0.015408   0.238664  -0.003804  -2.367155   1.983951  -0.154059
    11  H   -0.000089  -0.008484   0.000218   0.056728  -0.123322  -0.001603
    12  C   -0.011883  -0.393015  -0.130100   1.370749  -3.093802   0.139626
    13  H    0.000572   0.009979   0.000752  -0.062752   0.078960   0.001996
    14  C   -0.110855  -0.729394   0.106244  -3.157155   1.028456  -0.088398
    15  H    0.002281   0.110243  -0.039613   0.503687  -0.129797  -0.000184
               7          8          9         10         11         12
     1  O    0.012207  -0.082609  -0.000387  -0.015408  -0.000089  -0.011883
     2  C    0.006906  -0.227870   0.012531   0.238664  -0.008484  -0.393015
     3  O    0.001949  -0.023733  -0.000153  -0.003804   0.000218  -0.130100
     4  C    0.059171   1.494100  -0.213040  -2.367155   0.056728   1.370749
     5  C   -0.011898  -5.067979   0.933204   1.983951  -0.123322  -3.093802
     6  O    0.287551   0.479882  -0.141577  -0.154059  -0.001603   0.139626
     7  H    0.607504  -0.168405   0.003020   0.014136  -0.001941  -0.012769
     8  C   -0.168405  12.955743  -1.153076  -2.639917   0.423993   3.215437
     9  H    0.003020  -1.153076   1.996885   0.410184  -0.064028  -0.288232
    10  C    0.014136  -2.639917   0.410184   9.080469  -0.648902  -2.653965
    11  H   -0.001941   0.423993  -0.064028  -0.648902   1.649874   0.387574
    12  C   -0.012769   3.215437  -0.288232  -2.653965   0.387574  11.418665
    13  H    0.000395  -0.195642  -0.019542   0.269091  -0.052403  -0.800337
    14  C    0.024459  -3.828768   0.183248   2.376752  -0.147973  -3.706112
    15  H   -0.002418   0.125991   0.012607  -0.141377  -0.012487   0.315207
              13         14         15
     1  O    0.000572  -0.110855   0.002281
     2  C    0.009979  -0.729394   0.110243
     3  O    0.000752   0.106244  -0.039613
     4  C   -0.062752  -3.157155   0.503687
     5  C    0.078960   1.028456  -0.129797
     6  O    0.001996  -0.088398  -0.000184
     7  H    0.000395   0.024459  -0.002418
     8  C   -0.195642  -3.828768   0.125991
     9  H   -0.019542   0.183248   0.012607
    10  C    0.269091   2.376752  -0.141377
    11  H   -0.052403  -0.147973  -0.012487
    12  C   -0.800337  -3.706112   0.315207
    13  H    1.671963   0.638030  -0.082415
    14  C    0.638030  14.025533  -0.913048
    15  H   -0.082415  -0.913048   1.887854
 Mulliken charges:
               1
     1  O   -0.942469
     2  C    0.860196
     3  O   -0.986300
     4  C    0.584911
     5  C    0.980899
     6  O   -0.939523
     7  H    0.180133
     8  C    0.692853
     9  H   -0.671644
    10  C    0.251340
    11  H   -0.457153
    12  C    0.242955
    13  H   -0.458648
    14  C    0.298980
    15  H   -0.636530
 Sum of Mulliken charges =  -1.00000
 Mulliken charges with hydrogens summed into heavy atoms:
               1
     1  O   -0.942469
     2  C    0.860196
     3  O   -0.986300
     4  C    0.584911
     5  C    0.980899
     6  O   -0.759390
     8  C    0.021208
    10  C   -0.205813
    12  C   -0.215693
    14  C   -0.337550
 Electronic spatial extent (au):  <R**2>=           1380.7263
 Charge=             -1.0000 electrons
 Dipole moment (field-independent basis, Debye):
    X=             11.3218    Y=              1.9511    Z=             -0.0557  Tot=             11.4888
 Quadrupole moment (field-independent basis, Debye-Ang):
   XX=            -92.0234   YY=            -63.8777   ZZ=            -63.5126
   XY=              0.8197   XZ=              0.0289   YZ=             -0.9405
 Traceless Quadrupole moment (field-independent basis, Debye-Ang):
   XX=            -18.8855   YY=              9.2602   ZZ=              9.6253
   XY=              0.8197   XZ=              0.0289   YZ=             -0.9405
 Octapole moment (field-independent basis, Debye-Ang**2):
  XXX=             73.3451  YYY=             31.5053  ZZZ=             -0.2721  XYY=             30.3529
  XXY=             14.4551  XXZ=             -0.4745  XZZ=            -11.0976  YZZ=              4.9863
  YYZ=             -0.0317  XYZ=              1.4389
 Hexadecapole moment (field-independent basis, Debye-Ang**3):
 XXXX=          -1369.0642 YYYY=           -558.1417 ZZZZ=            -74.6140 XXXY=            -16.3388
 XXXZ=              1.3566 YYYX=             12.8914 YYYZ=             -3.5832 ZZZX=             -0.2654
 ZZZY=             -0.2063 XXYY=           -346.4615 XXZZ=           -224.1570 YYZZ=           -126.2284
 XXYZ=             -4.5285 YYXZ=             -1.6594 ZZXY=              3.8240
 N-N= 4.840043777434D+02 E-N=-2.137959281687D+03  KE= 4.920289136564D+02
 Leave Link  601 at Sun Jul 11 16:17:37 2021, MaxMem=   262144000 cpu:               0.2 elap:               0.1
 (Enter /prod/apps/gaussian/g16b1/l9999.exe)
 1\1\GINC-PIRINEUS37\SP\RMP2-FC\Aug-CC-pVDZ\C7H5O3(1-)\UBATOR02\11-Jul-
 2021\0\\#p mp2/aug-cc-pVDZ scf=tight maxdisk=180GB geom=allcheck\\SET_
 328_BBB299_conf1.geo_000_180 geometry\\-1,1\O,0,-2.0689688662,-1.36347
 99414,1.738432314\C,0,-1.3038174033,-1.7154854344,0.8001989984\O,0,-1.
 2285290021,-2.8819164116,0.3145311719\C,0,-0.3698555799,-0.6702084753,
 0.1769120613\C,0,-0.353606693,0.7090577965,0.4914504628\O,0,-1.2200562
 139,1.2208291713,1.4126253208\H,0,-1.0692892601,2.1829905652,1.4768234
 109\C,0,0.5557392386,1.5666911462,-0.1513356314\H,0,0.5501636867,2.623
 1236459,0.1029493313\C,0,1.4525054744,1.0834263074,-1.0990142981\H,0,2
 .144768997,1.7682594413,-1.5790013428\C,0,1.4530818475,-0.2745421094,-
 1.4239976743\H,0,2.145875906,-0.666894385,-2.1612485389\C,0,0.54756325
 76,-1.117694083,-0.7866503264\H,0,0.5174246106,-2.1751572336,-1.019675
 2595\\Version=ES64L-G16RevB.01\State=1-A\HF=-492.6731411\MP2=-494.2151
 322\RMSD=4.679e-09\PG=C01 [X(C7H5O3)]\\@


 AND HERE I AM, FOR ALL MY LORE,
 THE WRETCHED FOOL I WAS BEFORE.
 CALLED MASTER OF ARTS, AND DOCTOR TO BOOT,
 FOR TEN YEARS ALMOST I CONFUTE
 AND UP AND DOWN, WHEREVER IT GOES
 I DRAG MY STUDENTS BY THE NOSE --
 AND SEE THAT FOR ALL OUR SCIENCE AND ART
 WE CAN KNOW NOTHING.  IT BURNS MY HEART.

                                       -- FAUST
 Job cpu time:       0 days  0 hours  5 minutes 30.1 seconds.
 Elapsed time:       0 days  0 hours  1 minutes 22.7 seconds.
 File lengths (MBytes):  RWF=     44 Int=      0 D2E=      0 Chk=      8 Scr=      1
 Normal termination of Gaussian 16 at Sun Jul 11 16:17:37 2021.
