 Entering Gaussian System, Link 0=g16
 Initial command:
 /prod/apps/gaussian/g16b1/l1.exe "/tmp/ubator02/1834608/Gau-12556.inp" -scrdir="/tmp/ubator02/1834608/"
 Entering Link 1 = /prod/apps/gaussian/g16b1/l1.exe PID=     12557.
  
 Copyright (c) 1988-2017, Gaussian, Inc.  All Rights Reserved.
  
 This is part of the Gaussian(R) 16 program.  It is based on
 the Gaussian(R) 09 system (copyright 2009, Gaussian, Inc.),
 the Gaussian(R) 03 system (copyright 2003, Gaussian, Inc.),
 the Gaussian(R) 98 system (copyright 1998, Gaussian, Inc.),
 the Gaussian(R) 94 system (copyright 1995, Gaussian, Inc.),
 the Gaussian 92(TM) system (copyright 1992, Gaussian, Inc.),
 the Gaussian 90(TM) system (copyright 1990, Gaussian, Inc.),
 the Gaussian 88(TM) system (copyright 1988, Gaussian, Inc.),
 the Gaussian 86(TM) system (copyright 1986, Carnegie Mellon
 University), and the Gaussian 82(TM) system (copyright 1983,
 Carnegie Mellon University). Gaussian is a federally registered
 trademark of Gaussian, Inc.
  
 This software contains proprietary and confidential information,
 including trade secrets, belonging to Gaussian, Inc.
  
 This software is provided under written license and may be
 used, copied, transmitted, or stored only in accord with that
 written license.
  
 The following legend is applicable only to US Government
 contracts under FAR:
  
                    RESTRICTED RIGHTS LEGEND
  
 Use, reproduction and disclosure by the US Government is
 subject to restrictions as set forth in subparagraphs (a)
 and (c) of the Commercial Computer Software - Restricted
 Rights clause in FAR 52.227-19.
  
 Gaussian, Inc.
 340 Quinnipiac St., Bldg. 40, Wallingford CT 06492
  
  
 ---------------------------------------------------------------
 Warning -- This program may not be used in any manner that
 competes with the business of Gaussian, Inc. or will provide
 assistance to any competitor of Gaussian, Inc.  The licensee
 of this program is prohibited from giving any competitor of
 Gaussian, Inc. access to this program.  By using this program,
 the user acknowledges that Gaussian, Inc. is engaged in the
 business of creating and licensing software in the field of
 computational chemistry and represents and warrants to the
 licensee that it is not a competitor of Gaussian, Inc. and that
 it will not use this program in any manner prohibited above.
 ---------------------------------------------------------------
  

 Cite this work as:
 Gaussian 16, Revision B.01,
 M. J. Frisch, G. W. Trucks, H. B. Schlegel, G. E. Scuseria, 
 M. A. Robb, J. R. Cheeseman, G. Scalmani, V. Barone, 
 G. A. Petersson, H. Nakatsuji, X. Li, M. Caricato, A. V. Marenich, 
 J. Bloino, B. G. Janesko, R. Gomperts, B. Mennucci, H. P. Hratchian, 
 J. V. Ortiz, A. F. Izmaylov, J. L. Sonnenberg, D. Williams-Young, 
 F. Ding, F. Lipparini, F. Egidi, J. Goings, B. Peng, A. Petrone, 
 T. Henderson, D. Ranasinghe, V. G. Zakrzewski, J. Gao, N. Rega, 
 G. Zheng, W. Liang, M. Hada, M. Ehara, K. Toyota, R. Fukuda, 
 J. Hasegawa, M. Ishida, T. Nakajima, Y. Honda, O. Kitao, H. Nakai, 
 T. Vreven, K. Throssell, J. A. Montgomery, Jr., J. E. Peralta, 
 F. Ogliaro, M. J. Bearpark, J. J. Heyd, E. N. Brothers, K. N. Kudin, 
 V. N. Staroverov, T. A. Keith, R. Kobayashi, J. Normand, 
 K. Raghavachari, A. P. Rendell, J. C. Burant, S. S. Iyengar, 
 J. Tomasi, M. Cossi, J. M. Millam, M. Klene, C. Adamo, R. Cammi, 
 J. W. Ochterski, R. L. Martin, K. Morokuma, O. Farkas, 
 J. B. Foresman, and D. J. Fox, Gaussian, Inc., Wallingford CT, 2016.
 
 ******************************************
 Gaussian 16:  ES64L-G16RevB.01 20-Dec-2017
                11-Jul-2021 
 ******************************************
 %mem=800MB
 %nproc=4
 Will use up to    4 processors via shared memory.
 %chk=SET_328_BBB87_conf1.geo_180_090.chk
 -----------------------------------------------------------
 #p b3lyp/6-31G(d) opt freq scrf=(iefpcm,read,solvent=water)
 -----------------------------------------------------------
 1/18=20,19=15,26=3,38=1,40=2/1,3;
 2/9=110,12=2,17=6,18=5,40=1/2;
 3/5=1,6=6,7=1,11=2,25=1,30=1,70=2203,71=1,72=1,74=-5/1,2,3;
 4//1;
 5/5=2,38=5,53=1/2;
 6/7=2,8=2,9=2,10=2,28=1/1;
 7//1,2,3,16;
 1/18=20,19=15,26=3/3(2);
 2/9=110/2;
 99//99;
 2/9=110/2;
 3/5=1,6=6,7=1,11=2,25=1,30=1,70=2205,71=1,72=1,74=-5/1,2,3;
 4/5=5,16=3,69=1/1;
 5/5=2,38=5,53=1/2;
 7//1,2,3,16;
 1/18=20,19=15,26=3/3(-5);
 2/9=110/2;
 6/7=2,8=2,9=2,10=2,19=2,28=1/1;
 99/9=1/99;
 Leave Link    1 at Sun Jul 11 16:21:10 2021, MaxMem=   104857600 cpu:               0.1 elap:               0.0
 (Enter /prod/apps/gaussian/g16b1/l101.exe)
 ----------------------------------------
 SET_328_BBB87_conf1.geo_180_090 geometry
 ----------------------------------------
 Symbolic Z-matrix:
 Charge =  1 Multiplicity = 1
 N                    -1.224     1.78     -1.892 
 H                    -2.134     1.942    -1.51 
 H                    -1.297     1.639    -2.879 
 C                    -0.643     0.599    -1.275 
 H                     0.257     0.265    -1.797 
 H                    -1.345    -0.238    -1.243 
 C                    -0.327     1.078     0.156 
 H                    -1.211     1.41      0.705 
 H                     0.333     1.936     0.011 
 C                     0.273    -0.072     0.847 
 N                     1.616    -0.321     0.859 
 C                     1.926    -1.502     1.316 
 H                     2.975    -1.762     1.25 
 C                     0.854    -2.14      1.814 
 H                     0.731    -3.067     2.362 
 S                    -0.58     -1.446     1.329 
 H                    -0.641     2.572    -1.711 
 
 ITRead=  0  0  0  0  0  0  0  0  0  0  0  0  0  0  0  0  0
 MicOpt= -1 -1 -1 -1 -1 -1 -1 -1 -1 -1 -1 -1 -1 -1 -1 -1 -1
 NAtoms=     17 NQM=       17 NQMF=       0 NMMI=      0 NMMIF=      0
                NMic=       0 NMicF=      0.
                    Isotopes and Nuclear Properties:
 (Nuclear quadrupole moments (NQMom) in fm**2, nuclear magnetic moments (NMagM)
  in nuclear magnetons)

  Atom         1           2           3           4           5           6           7           8           9          10
 IAtWgt=          14           1           1          12           1           1          12           1           1          12
 AtmWgt=  14.0030740   1.0078250   1.0078250  12.0000000   1.0078250   1.0078250  12.0000000   1.0078250   1.0078250  12.0000000
 NucSpn=           2           1           1           0           1           1           0           1           1           0
 AtZEff=  -0.0000000  -0.0000000  -0.0000000  -0.0000000  -0.0000000  -0.0000000  -0.0000000  -0.0000000  -0.0000000  -0.0000000
 NQMom=    2.0440000   0.0000000   0.0000000   0.0000000   0.0000000   0.0000000   0.0000000   0.0000000   0.0000000   0.0000000
 NMagM=    0.4037610   2.7928460   2.7928460   0.0000000   2.7928460   2.7928460   0.0000000   2.7928460   2.7928460   0.0000000
 AtZNuc=   7.0000000   1.0000000   1.0000000   6.0000000   1.0000000   1.0000000   6.0000000   1.0000000   1.0000000   6.0000000

  Atom        11          12          13          14          15          16          17
 IAtWgt=          14          12           1          12           1          32           1
 AtmWgt=  14.0030740  12.0000000   1.0078250  12.0000000   1.0078250  31.9720718   1.0078250
 NucSpn=           2           0           1           0           1           0           1
 AtZEff=  -0.0000000  -0.0000000  -0.0000000  -0.0000000  -0.0000000  -0.0000000  -0.0000000
 NQMom=    2.0440000   0.0000000   0.0000000   0.0000000   0.0000000   0.0000000   0.0000000
 NMagM=    0.4037610   0.0000000   2.7928460   0.0000000   2.7928460   0.0000000   2.7928460
 AtZNuc=   7.0000000   6.0000000   1.0000000   6.0000000   1.0000000  16.0000000   1.0000000
 Leave Link  101 at Sun Jul 11 16:21:11 2021, MaxMem=   104857600 cpu:               0.5 elap:               0.1
 (Enter /prod/apps/gaussian/g16b1/l103.exe)

 GradGradGradGradGradGradGradGradGradGradGradGradGradGradGradGradGradGrad
 Berny optimization.
 Initialization pass.
                           ----------------------------
                           !    Initial Parameters    !
                           ! (Angstroms and Degrees)  !
 --------------------------                            --------------------------
 ! Name  Definition              Value          Derivative Info.                !
 --------------------------------------------------------------------------------
 ! R1    R(1,2)                  1.0001         estimate D2E/DX2                !
 ! R2    R(1,3)                  0.9997         estimate D2E/DX2                !
 ! R3    R(1,4)                  1.4536         estimate D2E/DX2                !
 ! R4    R(1,17)                 1.0            estimate D2E/DX2                !
 ! R5    R(4,5)                  1.0927         estimate D2E/DX2                !
 ! R6    R(4,6)                  1.0929         estimate D2E/DX2                !
 ! R7    R(4,7)                  1.5418         estimate D2E/DX2                !
 ! R8    R(7,8)                  1.0923         estimate D2E/DX2                !
 ! R9    R(7,9)                  1.0921         estimate D2E/DX2                !
 ! R10   R(7,10)                 1.4697         estimate D2E/DX2                !
 ! R11   R(10,11)                1.3659         estimate D2E/DX2                !
 ! R12   R(10,16)                1.6875         estimate D2E/DX2                !
 ! R13   R(11,12)                1.3037         estimate D2E/DX2                !
 ! R14   R(12,13)                1.0828         estimate D2E/DX2                !
 ! R15   R(12,14)                1.3432         estimate D2E/DX2                !
 ! R16   R(14,15)                1.0839         estimate D2E/DX2                !
 ! R17   R(14,16)                1.6653         estimate D2E/DX2                !
 ! A1    A(2,1,3)              109.4816         estimate D2E/DX2                !
 ! A2    A(2,1,4)              109.4601         estimate D2E/DX2                !
 ! A3    A(2,1,17)             109.4542         estimate D2E/DX2                !
 ! A4    A(3,1,4)              109.4914         estimate D2E/DX2                !
 ! A5    A(3,1,17)             109.4507         estimate D2E/DX2                !
 ! A6    A(4,1,17)             109.4893         estimate D2E/DX2                !
 ! A7    A(1,4,5)              112.0099         estimate D2E/DX2                !
 ! A8    A(1,4,6)              112.2049         estimate D2E/DX2                !
 ! A9    A(1,4,7)              102.9128         estimate D2E/DX2                !
 ! A10   A(5,4,6)              107.9956         estimate D2E/DX2                !
 ! A11   A(5,4,7)              111.687          estimate D2E/DX2                !
 ! A12   A(6,4,7)              110.0241         estimate D2E/DX2                !
 ! A13   A(4,7,8)              113.2698         estimate D2E/DX2                !
 ! A14   A(4,7,9)              104.1645         estimate D2E/DX2                !
 ! A15   A(4,7,10)             106.0789         estimate D2E/DX2                !
 ! A16   A(8,7,9)              108.483          estimate D2E/DX2                !
 ! A17   A(8,7,10)             109.3856         estimate D2E/DX2                !
 ! A18   A(9,7,10)             115.495          estimate D2E/DX2                !
 ! A19   A(7,10,11)            123.2411         estimate D2E/DX2                !
 ! A20   A(7,10,16)            124.4042         estimate D2E/DX2                !
 ! A21   A(11,10,16)           110.2457         estimate D2E/DX2                !
 ! A22   A(10,11,12)           113.7031         estimate D2E/DX2                !
 ! A23   A(11,12,13)           115.2471         estimate D2E/DX2                !
 ! A24   A(11,12,14)           111.7439         estimate D2E/DX2                !
 ! A25   A(13,12,14)           132.9804         estimate D2E/DX2                !
 ! A26   A(12,14,15)           133.1772         estimate D2E/DX2                !
 ! A27   A(12,14,16)           112.4151         estimate D2E/DX2                !
 ! A28   A(15,14,16)           113.9511         estimate D2E/DX2                !
 ! A29   A(10,16,14)            89.2685         estimate D2E/DX2                !
 ! D1    D(2,1,4,5)            168.4714         estimate D2E/DX2                !
 ! D2    D(2,1,4,6)             46.8083         estimate D2E/DX2                !
 ! D3    D(2,1,4,7)            -71.4225         estimate D2E/DX2                !
 ! D4    D(3,1,4,5)             48.4532         estimate D2E/DX2                !
 ! D5    D(3,1,4,6)            -73.21           estimate D2E/DX2                !
 ! D6    D(3,1,4,7)            168.5592         estimate D2E/DX2                !
 ! D7    D(17,1,4,5)           -71.5451         estimate D2E/DX2                !
 ! D8    D(17,1,4,6)           166.7917         estimate D2E/DX2                !
 ! D9    D(17,1,4,7)            48.5609         estimate D2E/DX2                !
 ! D10   D(1,4,7,8)             60.1731         estimate D2E/DX2                !
 ! D11   D(1,4,7,9)            -57.5015         estimate D2E/DX2                !
 ! D12   D(1,4,7,10)          -179.8283         estimate D2E/DX2                !
 ! D13   D(5,4,7,8)           -179.4985         estimate D2E/DX2                !
 ! D14   D(5,4,7,9)             62.8268         estimate D2E/DX2                !
 ! D15   D(5,4,7,10)           -59.5            estimate D2E/DX2                !
 ! D16   D(6,4,7,8)            -59.5776         estimate D2E/DX2                !
 ! D17   D(6,4,7,9)           -177.2522         estimate D2E/DX2                !
 ! D18   D(6,4,7,10)            60.421          estimate D2E/DX2                !
 ! D19   D(4,7,10,11)           90.0867         estimate D2E/DX2                !
 ! D20   D(4,7,10,16)          -71.775          estimate D2E/DX2                !
 ! D21   D(8,7,10,11)         -147.4148         estimate D2E/DX2                !
 ! D22   D(8,7,10,16)           50.7235         estimate D2E/DX2                !
 ! D23   D(9,7,10,11)          -24.7222         estimate D2E/DX2                !
 ! D24   D(9,7,10,16)          173.4161         estimate D2E/DX2                !
 ! D25   D(7,10,11,12)        -168.4626         estimate D2E/DX2                !
 ! D26   D(16,10,11,12)         -4.3512         estimate D2E/DX2                !
 ! D27   D(7,10,16,14)         174.9356         estimate D2E/DX2                !
 ! D28   D(11,10,16,14)         11.0478         estimate D2E/DX2                !
 ! D29   D(10,11,12,13)        174.477          estimate D2E/DX2                !
 ! D30   D(10,11,12,14)         -7.213          estimate D2E/DX2                !
 ! D31   D(11,12,14,15)       -172.4718         estimate D2E/DX2                !
 ! D32   D(11,12,14,16)         15.9495         estimate D2E/DX2                !
 ! D33   D(13,12,14,15)          5.4387         estimate D2E/DX2                !
 ! D34   D(13,12,14,16)       -166.1401         estimate D2E/DX2                !
 ! D35   D(12,14,16,10)        -15.4046         estimate D2E/DX2                !
 ! D36   D(15,14,16,10)        171.3063         estimate D2E/DX2                !
 --------------------------------------------------------------------------------
 Trust Radius=3.00D-01 FncErr=1.00D-07 GrdErr=1.00D-06 EigMax=2.50D+02 EigMin=1.00D-04
 Number of steps in this run=     92 maximum allowed number of steps=    102.
 GradGradGradGradGradGradGradGradGradGradGradGradGradGradGradGradGradGrad

 Leave Link  103 at Sun Jul 11 16:21:11 2021, MaxMem=   104857600 cpu:               0.1 elap:               0.0
 (Enter /prod/apps/gaussian/g16b1/l202.exe)
                          Input orientation:                          
 ---------------------------------------------------------------------
 Center     Atomic      Atomic             Coordinates (Angstroms)
 Number     Number       Type             X           Y           Z
 ---------------------------------------------------------------------
      1          7           0       -1.224000    1.780000   -1.892000
      2          1           0       -2.134000    1.942000   -1.510000
      3          1           0       -1.297000    1.639000   -2.879000
      4          6           0       -0.643000    0.599000   -1.275000
      5          1           0        0.257000    0.265000   -1.797000
      6          1           0       -1.345000   -0.238000   -1.243000
      7          6           0       -0.327000    1.078000    0.156000
      8          1           0       -1.211000    1.410000    0.705000
      9          1           0        0.333000    1.936000    0.011000
     10          6           0        0.273000   -0.072000    0.847000
     11          7           0        1.616000   -0.321000    0.859000
     12          6           0        1.926000   -1.502000    1.316000
     13          1           0        2.975000   -1.762000    1.250000
     14          6           0        0.854000   -2.140000    1.814000
     15          1           0        0.731000   -3.067000    2.362000
     16         16           0       -0.580000   -1.446000    1.329000
     17          1           0       -0.641000    2.572000   -1.711000
 ---------------------------------------------------------------------
                    Distance matrix (angstroms):
                    1          2          3          4          5
     1  N    0.000000
     2  H    1.000134   0.000000
     3  H    0.999689   1.632954   0.000000
     4  C    1.453620   2.020385   2.020429   0.000000
     5  H    2.120757   2.934549   2.339555   1.092721   0.000000
     6  H    2.123244   2.333712   2.490367   1.092885   1.768143
     7  C    2.343441   2.605245   3.235251   1.541771   2.194592
     8  H    2.623257   2.457881   3.592338   2.213763   3.118662
     9  H    2.463736   2.898200   3.331247   2.096173   2.463104
    10  C    3.629467   3.924958   4.390387   2.406695   2.665438
    11  N    4.477477   4.979541   5.128334   3.240901   3.040496
    12  C    5.566443   6.027521   6.152368   4.210373   3.949509
    13  H    6.328470   6.887605   6.845833   5.003985   4.558559
    14  C    5.780910   6.053085   6.397804   4.391475   4.379470
    15  H    6.738839   6.949150   7.329891   5.343707   5.350157
    16  S    4.603982   4.685444   5.266743   3.311617   3.660596
    17  H    0.999957   1.632896   1.632498   2.020601   2.477105
                    6          7          8          9         10
     6  H    0.000000
     7  C    2.173794   0.000000
     8  H    2.555105   1.092282   0.000000
     9  H    3.019019   1.092149   1.772639   0.000000
    10  C    2.648316   1.469687   2.102081   2.175904   0.000000
    11  N    3.632191   2.495327   3.318434   2.731161   1.365941
    12  C    4.341154   3.616353   4.323637   4.007558   2.235457
    13  H    5.215364   4.490617   5.280266   4.710678   3.212369
    14  C    4.218821   3.807788   4.254011   4.487318   2.355690
    15  H    5.030809   4.813193   5.153692   5.542167   3.387479
    16  S    2.942732   2.794730   2.990698   3.742809   1.687545
    17  H    2.934406   2.411705   2.740839   2.078090   3.790712
                   11         12         13         14         15
    11  N    0.000000
    12  C    1.303729   0.000000
    13  H    2.018971   1.082754   0.000000
    14  C    2.191217   1.343217   2.227021   0.000000
    15  H    3.253114   2.229656   2.824023   1.083864   0.000000
    16  S    2.511761   2.506659   3.569891   1.665298   2.326682
    17  H    4.479777   5.687679   6.373895   6.071540   7.090136
                   16         17
    16  S    0.000000
    17  H    5.038814   0.000000
 Stoichiometry    C5H9N2S(1+)
 Framework group  C1[X(C5H9N2S)]
 Deg. of freedom    45
 Full point group                 C1      NOp   1
 Largest Abelian subgroup         C1      NOp   1
 Largest concise Abelian subgroup C1      NOp   1
                         Standard orientation:                         
 ---------------------------------------------------------------------
 Center     Atomic      Atomic             Coordinates (Angstroms)
 Number     Number       Type             X           Y           Z
 ---------------------------------------------------------------------
      1          7           0       -3.326892   -0.001875   -0.211042
      2          1           0       -3.547221   -0.840383    0.287584
      3          1           0       -3.889306    0.053192   -1.035685
      4          6           0       -1.921550   -0.014332   -0.582353
      5          1           0       -1.679699    0.776395   -1.296705
      6          1           0       -1.618382   -0.968855   -1.019812
      7          6           0       -1.206772    0.198732    0.767000
      8          1           0       -1.423870   -0.582870    1.498470
      9          1           0       -1.612191    1.142505    1.138103
     10          6           0        0.232424    0.202013    0.469202
     11          7           0        0.930380    1.334590    0.159494
     12          6           0        2.128101    1.102825   -0.300353
     13          1           0        2.668926    1.976625   -0.641440
     14          6           0        2.450679   -0.198298   -0.215176
     15          1           0        3.368094   -0.748000   -0.391067
     16         16           0        1.120192   -1.167077    0.038770
     17          1           0       -3.511128    0.789974    0.371149
 ---------------------------------------------------------------------
 Rotational constants (GHZ):           4.2771425           1.0338268           0.9060264
 Leave Link  202 at Sun Jul 11 16:21:11 2021, MaxMem=   104857600 cpu:               0.1 elap:               0.0
 (Enter /prod/apps/gaussian/g16b1/l301.exe)
 Standard basis: 6-31G(d) (6D, 7F)
 Ernie: Thresh=  0.10000D-02 Tol=  0.10000D-05 Strict=F.
 There are   142 symmetry adapted cartesian basis functions of A   symmetry.
 There are   142 symmetry adapted basis functions of A   symmetry.
   142 basis functions,   284 primitive gaussians,   142 cartesian basis functions
    34 alpha electrons       34 beta electrons
       nuclear repulsion energy       449.8162880496 Hartrees.
 IExCor=  402 DFT=T Ex+Corr=B3LYP ExCW=0 ScaHFX=  0.200000
 ScaDFX=  0.800000  0.720000  1.000000  0.810000 ScalE2=  1.000000  1.000000
 IRadAn=      5 IRanWt=     -1 IRanGd=            0 ICorTp=0 IEmpDi=  4
 NAtoms=   17 NActive=   17 NUniq=   17 SFac= 1.00D+00 NAtFMM=   60 NAOKFM=F Big=F
 Integral buffers will be    131072 words long.
 Raffenetti 2 integral format.
 Two-electron integral symmetry is turned on.
 Using the following non-standard input for PCM:
 MSTModel=DFT cav MSTCharged
 --- end of non-standard input.
 MST model for solvation energy: B3LYP parametrization.
 MST cavity parameters:
 ISph   IAn     Re0     Alpha   Atom Type   QCorr
 ------------------------------------------------
   1      7     1.70     1.15      NH         T
   2      1     0.90     1.15      NH         T
   3      1     0.90     1.15      NH         T
   4      6     1.50     1.25      CH2        F
   5      1     1.20     1.25      CH2        F
   6      1     1.20     1.25      CH2        F
   7      6     1.50     1.25      CH2        F
   8      1     1.20     1.25      CH2        F
   9      1     1.20     1.25      CH2        F
  10      6     1.50     1.25      C          F
  11      7     1.40     1.25      N          F
  12      6     1.50     1.25      CH         F
  13      1     1.20     1.25      CH         F
  14      6     1.50     1.25      CH         F
  15      1     1.20     1.25      CH         F
  16     16     1.75     1.25      S          F
  17      1     0.90     1.15      NH         T
 ------------------------------------------------------------------------------
 Polarizable Continuum Model (PCM)
 =================================
 Model                : PCM.
 Atomic radii         : MST.
 Polarization charges : Total charges.
 Charge compensation  : None.
 Solution method      : On-the-fly selection.
 Cavity type          : Scaled VdW (van der Waals Surface) (Alpha=1.250).
 Cavity algorithm     : GePol (No added spheres)
                        Default sphere list used, NSphG=   17.
                        Lebedev-Laikov grids with approx.  5.0 points / Ang**2.
                        Smoothing algorithm: York/Karplus (Gamma=1.0000).
                        Polarization charges: spherical gaussians, with
                                              point-specific exponents (IZeta= 3).
                        Self-potential: point-specific (ISelfS= 7).
                        Self-field    : sphere-specific E.n sum rule (ISelfD= 2).
 1st derivatives      : Analytical E(r).r(x)/FMM algorithm (CHGder, D1EAlg=3).
                        Cavity 1st derivative terms included.
 Solvent              : Water, Eps=  78.355300 Eps(inf)=   1.777849
 ------------------------------------------------------------------------------
 Spheres list:
 ISph  on   Nord     Re0    Alpha      Xe            Ye            Ze
    1   N      1    1.7000  1.150     -3.326892     -0.001875     -0.211042
    2   H      2    0.9000  1.150     -3.547221     -0.840383      0.287584
    3   H      3    0.9000  1.150     -3.889306      0.053192     -1.035685
    4   C      4    1.5000  1.250     -1.921550     -0.014332     -0.582353
    5   H      5    1.2000  1.250     -1.679699      0.776395     -1.296705
    6   H      6    1.2000  1.250     -1.618382     -0.968855     -1.019812
    7   C      7    1.5000  1.250     -1.206772      0.198732      0.767000
    8   H      8    1.2000  1.250     -1.423870     -0.582870      1.498470
    9   H      9    1.2000  1.250     -1.612191      1.142505      1.138103
   10   C     10    1.5000  1.250      0.232424      0.202013      0.469202
   11   N     11    1.4000  1.250      0.930380      1.334590      0.159494
   12   C     12    1.5000  1.250      2.128101      1.102825     -0.300353
   13   H     13    1.2000  1.250      2.668926      1.976625     -0.641440
   14   C     14    1.5000  1.250      2.450679     -0.198298     -0.215176
   15   H     15    1.2000  1.250      3.368094     -0.748000     -0.391067
   16   S     16    1.7500  1.250      1.120192     -1.167077      0.038770
   17   H     17    0.9000  1.150     -3.511128      0.789974      0.371149
 ------------------------------------------------------------------------------
 GePol: Number of generator spheres                  =      17
 GePol: Total number of spheres                      =      17
 GePol: Number of exposed spheres                    =      17 (100.00%)
 GePol: Number of points                             =    1269
 GePol: Average weight of points                     =       0.14
 GePol: Minimum weight of points                     =   0.18D-09
 GePol: Maximum weight of points                     =    0.22001
 GePol: Number of points with low weight             =      51
 GePol: Fraction of low-weight points (<1% of avg)   =       4.02%
 GePol: Cavity surface area                          =    174.090 Ang**2
 GePol: Cavity volume                                =    156.254 Ang**3
 PCM non-electrostatic energy =         0.0002552232 Hartrees.
 Nuclear repulsion after PCM non-electrostatic terms =      449.8165432727 Hartrees.
 Leave Link  301 at Sun Jul 11 16:21:11 2021, MaxMem=   104857600 cpu:               0.3 elap:               0.1
 (Enter /prod/apps/gaussian/g16b1/l302.exe)
 NPDir=0 NMtPBC=     1 NCelOv=     1 NCel=       1 NClECP=     1 NCelD=      1
         NCelK=      1 NCelE2=     1 NClLst=     1 CellRange=     0.0.
 One-electron integrals computed using PRISM.
 One-electron integral symmetry used in STVInt
 NBasis=   142 RedAO= T EigKep=  1.96D-03  NBF=   142
 NBsUse=   142 1.00D-06 EigRej= -1.00D+00 NBFU=   142
 Precomputing XC quadrature grid using
 IXCGrd= 4 IRadAn=           5 IRanWt=          -1 IRanGd=           0 AccXCQ= 0.00D+00.
 Generated NRdTot=       0 NPtTot=           0 NUsed=           0 NTot=          32
 NSgBfM=   142   142   142   142   142 MxSgAt=    17 MxSgA2=    17.
 Leave Link  302 at Sun Jul 11 16:21:11 2021, MaxMem=   104857600 cpu:               0.9 elap:               0.2
 (Enter /prod/apps/gaussian/g16b1/l303.exe)
 DipDrv:  MaxL=1.
 Leave Link  303 at Sun Jul 11 16:21:11 2021, MaxMem=   104857600 cpu:               0.1 elap:               0.0
 (Enter /prod/apps/gaussian/g16b1/l401.exe)
 ExpMin= 1.17D-01 ExpMax= 2.19D+04 ExpMxC= 3.30D+03 IAcc=3 IRadAn=         5 AccDes= 0.00D+00
 Harris functional with IExCor=  402 and IRadAn=       5 diagonalized for initial guess.
 HarFok:  IExCor=  402 AccDes= 0.00D+00 IRadAn=         5 IDoV= 1 UseB2=F ITyADJ=14
 ICtDFT=  3500011 ScaDFX=  1.000000  1.000000  1.000000  1.000000
 FoFCou: FMM=F IPFlag=           0 FMFlag=      100000 FMFlg1=           0
         NFxFlg=           0 DoJE=T BraDBF=F KetDBF=T FulRan=T
         wScrn=  0.000000 ICntrl=       500 IOpCl=  0 I1Cent=   200000004 NGrid=           0
         NMat0=    1 NMatS0=      1 NMatT0=    0 NMatD0=    1 NMtDS0=    0 NMtDT0=    0
 Petite list used in FoFCou.
 Harris En= -703.354018798143    
 JPrj=0 DoOrth=F DoCkMO=F.
 Leave Link  401 at Sun Jul 11 16:21:12 2021, MaxMem=   104857600 cpu:               2.8 elap:               0.7
 (Enter /prod/apps/gaussian/g16b1/l502.exe)
 Keep R1 ints in memory in canonical form, NReq=55421297.
 FoFCou: FMM=F IPFlag=           0 FMFlag=           0 FMFlg1=           0
         NFxFlg=           0 DoJE=F BraDBF=F KetDBF=F FulRan=T
         wScrn=  0.000000 ICntrl=       600 IOpCl=  0 I1Cent=           0 NGrid=           0
         NMat0=    1 NMatS0=  10153 NMatT0=    0 NMatD0=    1 NMtDS0=    0 NMtDT0=    0
 Symmetry not used in FoFCou.
 Two-electron integral symmetry not used.
 Closed shell SCF:
 Using DIIS extrapolation, IDIIS=  1040.
 NGot=   104857600 LenX=    53267901 LenY=    53247296
 Requested convergence on RMS density matrix=1.00D-08 within 128 cycles.
 Requested convergence on MAX density matrix=1.00D-06.
 Requested convergence on             energy=1.00D-06.
 No special actions if energy rises.

 Cycle   1  Pass 1  IDiag  1:
 Inv3:  Mode=1 IEnd=     4831083.
 Iteration    1 A*A^-1 deviation from unit magnitude is 3.11D-15 for    552.
 Iteration    1 A*A^-1 deviation from orthogonality  is 1.86D-15 for    785    124.
 Iteration    1 A^-1*A deviation from unit magnitude is 3.11D-15 for    552.
 Iteration    1 A^-1*A deviation from orthogonality  is 1.69D-14 for   1087    913.
 E= -703.250291163929    
 DIIS: error= 2.33D-02 at cycle   1 NSaved=   1.
 NSaved= 1 IEnMin= 1 EnMin= -703.250291163929     IErMin= 1 ErrMin= 2.33D-02
 ErrMax= 2.33D-02  0.00D+00 EMaxC= 1.00D-01 BMatC= 2.11D-01 BMatP= 2.11D-01
 IDIUse=3 WtCom= 7.67D-01 WtEn= 2.33D-01
 Coeff-Com:  0.100D+01
 Coeff-En:   0.100D+01
 Coeff:      0.100D+01
 Gap=     0.213 Goal=   None    Shift=    0.000
 GapD=    0.213 DampG=1.000 DampE=0.500 DampFc=0.5000 IDamp=-1.
 Damping current iteration by 5.00D-01
 RMSDP=8.62D-03 MaxDP=2.41D-01              OVMax= 2.95D-01

 Cycle   2  Pass 1  IDiag  1:
 E= -703.324166813238     Delta-E=       -0.073875649309 Rises=F Damp=T
 DIIS: error= 7.28D-03 at cycle   2 NSaved=   2.
 NSaved= 2 IEnMin= 2 EnMin= -703.324166813238     IErMin= 2 ErrMin= 7.28D-03
 ErrMax= 7.28D-03  0.00D+00 EMaxC= 1.00D-01 BMatC= 2.10D-02 BMatP= 2.11D-01
 IDIUse=3 WtCom= 9.27D-01 WtEn= 7.28D-02
 Coeff-Com:  0.156D+00 0.844D+00
 Coeff-En:   0.288D+00 0.712D+00
 Coeff:      0.166D+00 0.834D+00
 Gap=     0.247 Goal=   None    Shift=    0.000
 RMSDP=2.40D-03 MaxDP=7.37D-02 DE=-7.39D-02 OVMax= 2.31D-01

 Cycle   3  Pass 1  IDiag  1:
 E= -703.453813771755     Delta-E=       -0.129646958517 Rises=F Damp=F
 DIIS: error= 8.13D-03 at cycle   3 NSaved=   3.
 NSaved= 3 IEnMin= 3 EnMin= -703.453813771755     IErMin= 2 ErrMin= 7.28D-03
 ErrMax= 8.13D-03  0.00D+00 EMaxC= 1.00D-01 BMatC= 1.42D-02 BMatP= 2.10D-02
 IDIUse=3 WtCom= 9.19D-01 WtEn= 8.13D-02
 Coeff-Com:  0.385D-01 0.444D+00 0.517D+00
 Coeff-En:   0.000D+00 0.000D+00 0.100D+01
 Coeff:      0.354D-01 0.408D+00 0.557D+00
 Gap=     0.203 Goal=   None    Shift=    0.000
 RMSDP=1.10D-03 MaxDP=3.51D-02 DE=-1.30D-01 OVMax= 5.79D-02

 Cycle   4  Pass 1  IDiag  1:
 E= -703.463995195995     Delta-E=       -0.010181424240 Rises=F Damp=F
 DIIS: error= 3.18D-03 at cycle   4 NSaved=   4.
 NSaved= 4 IEnMin= 4 EnMin= -703.463995195995     IErMin= 4 ErrMin= 3.18D-03
 ErrMax= 3.18D-03  0.00D+00 EMaxC= 1.00D-01 BMatC= 3.66D-03 BMatP= 1.42D-02
 IDIUse=3 WtCom= 9.68D-01 WtEn= 3.18D-02
 Coeff-Com: -0.806D-02 0.685D-01 0.344D+00 0.596D+00
 Coeff-En:   0.000D+00 0.000D+00 0.228D+00 0.772D+00
 Coeff:     -0.780D-02 0.663D-01 0.340D+00 0.602D+00
 Gap=     0.204 Goal=   None    Shift=    0.000
 RMSDP=4.28D-04 MaxDP=1.41D-02 DE=-1.02D-02 OVMax= 2.39D-02

 Cycle   5  Pass 1  IDiag  1:
 E= -703.467231831009     Delta-E=       -0.003236635014 Rises=F Damp=F
 DIIS: error= 5.08D-04 at cycle   5 NSaved=   5.
 NSaved= 5 IEnMin= 5 EnMin= -703.467231831009     IErMin= 5 ErrMin= 5.08D-04
 ErrMax= 5.08D-04  0.00D+00 EMaxC= 1.00D-01 BMatC= 1.16D-04 BMatP= 3.66D-03
 IDIUse=3 WtCom= 9.95D-01 WtEn= 5.08D-03
 Coeff-Com: -0.392D-02 0.117D-01 0.138D+00 0.291D+00 0.563D+00
 Coeff-En:   0.000D+00 0.000D+00 0.000D+00 0.000D+00 0.100D+01
 Coeff:     -0.390D-02 0.117D-01 0.137D+00 0.290D+00 0.565D+00
 Gap=     0.204 Goal=   None    Shift=    0.000
 RMSDP=1.13D-04 MaxDP=4.34D-03 DE=-3.24D-03 OVMax= 5.84D-03

 Cycle   6  Pass 1  IDiag  1:
 E= -703.467337830619     Delta-E=       -0.000105999610 Rises=F Damp=F
 DIIS: error= 2.44D-04 at cycle   6 NSaved=   6.
 NSaved= 6 IEnMin= 6 EnMin= -703.467337830619     IErMin= 6 ErrMin= 2.44D-04
 ErrMax= 2.44D-04  0.00D+00 EMaxC= 1.00D-01 BMatC= 1.65D-05 BMatP= 1.16D-04
 IDIUse=3 WtCom= 9.98D-01 WtEn= 2.44D-03
 Coeff-Com: -0.125D-02-0.542D-03 0.464D-01 0.111D+00 0.318D+00 0.526D+00
 Coeff-En:   0.000D+00 0.000D+00 0.000D+00 0.000D+00 0.569D-01 0.943D+00
 Coeff:     -0.124D-02-0.541D-03 0.463D-01 0.111D+00 0.317D+00 0.527D+00
 Gap=     0.204 Goal=   None    Shift=    0.000
 RMSDP=3.52D-05 MaxDP=1.06D-03 DE=-1.06D-04 OVMax= 2.42D-03

 Cycle   7  Pass 1  IDiag  1:
 E= -703.467353525666     Delta-E=       -0.000015695047 Rises=F Damp=F
 DIIS: error= 6.58D-05 at cycle   7 NSaved=   7.
 NSaved= 7 IEnMin= 7 EnMin= -703.467353525666     IErMin= 7 ErrMin= 6.58D-05
 ErrMax= 6.58D-05  0.00D+00 EMaxC= 1.00D-01 BMatC= 1.35D-06 BMatP= 1.65D-05
 IDIUse=1 WtCom= 1.00D+00 WtEn= 0.00D+00
 Coeff-Com: -0.293D-03-0.125D-02 0.136D-01 0.350D-01 0.112D+00 0.281D+00
 Coeff-Com:  0.559D+00
 Coeff:     -0.293D-03-0.125D-02 0.136D-01 0.350D-01 0.112D+00 0.281D+00
 Coeff:      0.559D+00
 Gap=     0.204 Goal=   None    Shift=    0.000
 RMSDP=1.03D-05 MaxDP=3.37D-04 DE=-1.57D-05 OVMax= 5.79D-04

 Cycle   8  Pass 1  IDiag  1:
 E= -703.467354879350     Delta-E=       -0.000001353684 Rises=F Damp=F
 DIIS: error= 1.58D-05 at cycle   8 NSaved=   8.
 NSaved= 8 IEnMin= 8 EnMin= -703.467354879350     IErMin= 8 ErrMin= 1.58D-05
 ErrMax= 1.58D-05  0.00D+00 EMaxC= 1.00D-01 BMatC= 9.65D-08 BMatP= 1.35D-06
 IDIUse=1 WtCom= 1.00D+00 WtEn= 0.00D+00
 Coeff-Com:  0.776D-04-0.637D-03 0.248D-04 0.716D-03 0.368D-02 0.547D-01
 Coeff-Com:  0.247D+00 0.694D+00
 Coeff:      0.776D-04-0.637D-03 0.248D-04 0.716D-03 0.368D-02 0.547D-01
 Coeff:      0.247D+00 0.694D+00
 Gap=     0.204 Goal=   None    Shift=    0.000
 RMSDP=2.75D-06 MaxDP=7.29D-05 DE=-1.35D-06 OVMax= 1.29D-04

 Cycle   9  Pass 1  IDiag  1:
 E= -703.467354977281     Delta-E=       -0.000000097931 Rises=F Damp=F
 DIIS: error= 3.26D-06 at cycle   9 NSaved=   9.
 NSaved= 9 IEnMin= 9 EnMin= -703.467354977281     IErMin= 9 ErrMin= 3.26D-06
 ErrMax= 3.26D-06  0.00D+00 EMaxC= 1.00D-01 BMatC= 5.86D-09 BMatP= 9.65D-08
 IDIUse=1 WtCom= 1.00D+00 WtEn= 0.00D+00
 Coeff-Com:  0.641D-04-0.196D-03-0.776D-03-0.187D-02-0.601D-02 0.540D-02
 Coeff-Com:  0.657D-01 0.290D+00 0.648D+00
 Coeff:      0.641D-04-0.196D-03-0.776D-03-0.187D-02-0.601D-02 0.540D-02
 Coeff:      0.657D-01 0.290D+00 0.648D+00
 Gap=     0.204 Goal=   None    Shift=    0.000
 RMSDP=8.79D-07 MaxDP=3.91D-05 DE=-9.79D-08 OVMax= 2.70D-05

 Cycle  10  Pass 1  IDiag  1:
 E= -703.467354983726     Delta-E=       -0.000000006446 Rises=F Damp=F
 DIIS: error= 7.78D-07 at cycle  10 NSaved=  10.
 NSaved=10 IEnMin=10 EnMin= -703.467354983726     IErMin=10 ErrMin= 7.78D-07
 ErrMax= 7.78D-07  0.00D+00 EMaxC= 1.00D-01 BMatC= 3.43D-10 BMatP= 5.86D-09
 IDIUse=1 WtCom= 1.00D+00 WtEn= 0.00D+00
 Coeff-Com:  0.180D-04-0.261D-04-0.271D-03-0.725D-03-0.264D-02-0.232D-02
 Coeff-Com:  0.396D-02 0.538D-01 0.240D+00 0.708D+00
 Coeff:      0.180D-04-0.261D-04-0.271D-03-0.725D-03-0.264D-02-0.232D-02
 Coeff:      0.396D-02 0.538D-01 0.240D+00 0.708D+00
 Gap=     0.204 Goal=   None    Shift=    0.000
 RMSDP=1.91D-07 MaxDP=4.71D-06 DE=-6.45D-09 OVMax= 8.36D-06

 Cycle  11  Pass 1  IDiag  1:
 E= -703.467354984055     Delta-E=       -0.000000000329 Rises=F Damp=F
 DIIS: error= 4.23D-07 at cycle  11 NSaved=  11.
 NSaved=11 IEnMin=11 EnMin= -703.467354984055     IErMin=11 ErrMin= 4.23D-07
 ErrMax= 4.23D-07  0.00D+00 EMaxC= 1.00D-01 BMatC= 4.66D-11 BMatP= 3.43D-10
 IDIUse=1 WtCom= 1.00D+00 WtEn= 0.00D+00
 Coeff-Com:  0.412D-05 0.763D-06-0.700D-04-0.204D-03-0.818D-03-0.140D-02
 Coeff-Com: -0.288D-02 0.485D-02 0.664D-01 0.334D+00 0.600D+00
 Coeff:      0.412D-05 0.763D-06-0.700D-04-0.204D-03-0.818D-03-0.140D-02
 Coeff:     -0.288D-02 0.485D-02 0.664D-01 0.334D+00 0.600D+00
 Gap=     0.204 Goal=   None    Shift=    0.000
 RMSDP=5.38D-08 MaxDP=1.98D-06 DE=-3.29D-10 OVMax= 3.00D-06

 Cycle  12  Pass 1  IDiag  1:
 E= -703.467354984102     Delta-E=       -0.000000000047 Rises=F Damp=F
 DIIS: error= 8.81D-08 at cycle  12 NSaved=  12.
 NSaved=12 IEnMin=12 EnMin= -703.467354984102     IErMin=12 ErrMin= 8.81D-08
 ErrMax= 8.81D-08  0.00D+00 EMaxC= 1.00D-01 BMatC= 3.08D-12 BMatP= 4.66D-11
 IDIUse=1 WtCom= 1.00D+00 WtEn= 0.00D+00
 Coeff-Com: -0.536D-06 0.320D-05 0.868D-05 0.173D-04 0.173D-04-0.181D-03
 Coeff-Com: -0.154D-02-0.473D-02-0.469D-02 0.436D-01 0.235D+00 0.732D+00
 Coeff:     -0.536D-06 0.320D-05 0.868D-05 0.173D-04 0.173D-04-0.181D-03
 Coeff:     -0.154D-02-0.473D-02-0.469D-02 0.436D-01 0.235D+00 0.732D+00
 Gap=     0.204 Goal=   None    Shift=    0.000
 RMSDP=1.50D-08 MaxDP=3.71D-07 DE=-4.66D-11 OVMax= 7.27D-07

 Cycle  13  Pass 1  IDiag  1:
 E= -703.467354984104     Delta-E=       -0.000000000002 Rises=F Damp=F
 DIIS: error= 1.40D-08 at cycle  13 NSaved=  13.
 NSaved=13 IEnMin=13 EnMin= -703.467354984104     IErMin=13 ErrMin= 1.40D-08
 ErrMax= 1.40D-08  0.00D+00 EMaxC= 1.00D-01 BMatC= 5.94D-14 BMatP= 3.08D-12
 IDIUse=1 WtCom= 1.00D+00 WtEn= 0.00D+00
 Coeff-Com: -0.237D-06 0.616D-06 0.450D-05 0.119D-04 0.274D-04 0.640D-05
 Coeff-Com: -0.289D-03-0.140D-02-0.364D-02 0.125D-03 0.370D-01 0.161D+00
 Coeff-Com:  0.807D+00
 Coeff:     -0.237D-06 0.616D-06 0.450D-05 0.119D-04 0.274D-04 0.640D-05
 Coeff:     -0.289D-03-0.140D-02-0.364D-02 0.125D-03 0.370D-01 0.161D+00
 Coeff:      0.807D+00
 Gap=     0.204 Goal=   None    Shift=    0.000
 RMSDP=2.76D-09 MaxDP=5.69D-08 DE=-1.82D-12 OVMax= 1.45D-07

 Error on total polarization charges =  0.01349
 SCF Done:  E(RB3LYP) =  -703.467354984     A.U. after   13 cycles
            NFock= 13  Conv=0.28D-08     -V/T= 2.0053
 KE= 6.997836939105D+02 PE=-2.542454673459D+03 EE= 6.893870812920D+02
 Leave Link  502 at Sun Jul 11 16:21:27 2021, MaxMem=   104857600 cpu:              57.8 elap:              15.1
 (Enter /prod/apps/gaussian/g16b1/l601.exe)
 Copying SCF densities to generalized density rwf, IOpCl= 0 IROHF=0.

 **********************************************************************

            Population analysis using the SCF Density.

 **********************************************************************

 Orbital symmetries:
       Occupied  (A) (A) (A) (A) (A) (A) (A) (A) (A) (A) (A) (A)
                 (A) (A) (A) (A) (A) (A) (A) (A) (A) (A) (A) (A)
                 (A) (A) (A) (A) (A) (A) (A) (A) (A) (A)
       Virtual   (A) (A) (A) (A) (A) (A) (A) (A) (A) (A) (A) (A)
                 (A) (A) (A) (A) (A) (A) (A) (A) (A) (A) (A) (A)
                 (A) (A) (A) (A) (A) (A) (A) (A) (A) (A) (A) (A)
                 (A) (A) (A) (A) (A) (A) (A) (A) (A) (A) (A) (A)
                 (A) (A) (A) (A) (A) (A) (A) (A) (A) (A) (A) (A)
                 (A) (A) (A) (A) (A) (A) (A) (A) (A) (A) (A) (A)
                 (A) (A) (A) (A) (A) (A) (A) (A) (A) (A) (A) (A)
                 (A) (A) (A) (A) (A) (A) (A) (A) (A) (A) (A) (A)
                 (A) (A) (A) (A) (A) (A) (A) (A) (A) (A) (A) (A)
 The electronic state is 1-A.
 Alpha  occ. eigenvalues --  -88.92326 -14.45042 -14.33389 -10.25622 -10.25525
 Alpha  occ. eigenvalues --  -10.21724 -10.21628 -10.21291  -7.98703  -5.95039
 Alpha  occ. eigenvalues --   -5.94697  -5.94460  -1.02430  -0.98042  -0.82458
 Alpha  occ. eigenvalues --   -0.81084  -0.73383  -0.67064  -0.60457  -0.60201
 Alpha  occ. eigenvalues --   -0.59139  -0.55014  -0.52409  -0.50052  -0.47103
 Alpha  occ. eigenvalues --   -0.43358  -0.42367  -0.40196  -0.39637  -0.38420
 Alpha  occ. eigenvalues --   -0.37251  -0.29207  -0.27557  -0.24197
 Alpha virt. eigenvalues --   -0.03753   0.01632   0.05137   0.05888   0.09951
 Alpha virt. eigenvalues --    0.10615   0.11629   0.11989   0.12844   0.15377
 Alpha virt. eigenvalues --    0.16912   0.17211   0.18290   0.19526   0.20920
 Alpha virt. eigenvalues --    0.23588   0.24908   0.30491   0.31692   0.36040
 Alpha virt. eigenvalues --    0.39153   0.40995   0.45232   0.49641   0.51233
 Alpha virt. eigenvalues --    0.52148   0.54064   0.54118   0.56566   0.58231
 Alpha virt. eigenvalues --    0.61352   0.62030   0.63744   0.64734   0.67806
 Alpha virt. eigenvalues --    0.70143   0.73021   0.74213   0.77426   0.80548
 Alpha virt. eigenvalues --    0.82265   0.83419   0.84057   0.85201   0.86085
 Alpha virt. eigenvalues --    0.86425   0.86531   0.88039   0.88782   0.90785
 Alpha virt. eigenvalues --    0.92373   0.94424   0.97305   0.97495   1.02261
 Alpha virt. eigenvalues --    1.04255   1.06467   1.07810   1.12511   1.21629
 Alpha virt. eigenvalues --    1.28455   1.31558   1.35782   1.41969   1.43542
 Alpha virt. eigenvalues --    1.48310   1.49415   1.56060   1.59128   1.67677
 Alpha virt. eigenvalues --    1.71910   1.74985   1.81552   1.82176   1.86640
 Alpha virt. eigenvalues --    1.93248   1.96431   1.98511   2.00249   2.02351
 Alpha virt. eigenvalues --    2.10212   2.14310   2.22288   2.22985   2.27510
 Alpha virt. eigenvalues --    2.28111   2.31304   2.32187   2.35643   2.39817
 Alpha virt. eigenvalues --    2.42210   2.47523   2.49772   2.56594   2.59088
 Alpha virt. eigenvalues --    2.67415   2.72973   2.81522   2.97374   3.07770
 Alpha virt. eigenvalues --    3.78678   3.94392   3.99576   4.12367   4.18065
 Alpha virt. eigenvalues --    4.33108   4.36155   4.49985
          Condensed to atoms (all electrons):
               1          2          3          4          5          6
     1  N    6.692516   0.305141   0.302623   0.224180  -0.029455  -0.026219
     2  H    0.305141   0.267226  -0.009264  -0.018962   0.003143  -0.003885
     3  H    0.302623  -0.009264   0.267166  -0.016743  -0.002816  -0.001169
     4  C    0.224180  -0.018962  -0.016743   5.053964   0.382891   0.379753
     5  H   -0.029455   0.003143  -0.002816   0.382891   0.473504  -0.027654
     6  H   -0.026219  -0.003885  -0.001169   0.379753  -0.027654   0.479963
     7  C   -0.069472  -0.001425   0.004876   0.355623  -0.033871  -0.037039
     8  H   -0.000445   0.002986  -0.000023  -0.035156   0.003714  -0.003728
     9  H   -0.004019  -0.000438  -0.000071  -0.041646  -0.003595   0.004433
    10  C    0.005333  -0.000064  -0.000174  -0.055980  -0.000661  -0.000218
    11  N    0.000055  -0.000001  -0.000001  -0.004400   0.004089   0.000039
    12  C   -0.000001  -0.000000  -0.000000  -0.000111   0.000029  -0.000022
    13  H   -0.000000   0.000000   0.000000   0.000005  -0.000002  -0.000000
    14  C   -0.000002  -0.000000   0.000000   0.000169  -0.000084  -0.000202
    15  H   -0.000000  -0.000000   0.000000   0.000002  -0.000002   0.000003
    16  S   -0.000015   0.000021   0.000002  -0.006062   0.000908   0.005833
    17  H    0.305476  -0.011025  -0.010632  -0.023936  -0.001790   0.003514
               7          8          9         10         11         12
     1  N   -0.069472  -0.000445  -0.004019   0.005333   0.000055  -0.000001
     2  H   -0.001425   0.002986  -0.000438  -0.000064  -0.000001  -0.000000
     3  H    0.004876  -0.000023  -0.000071  -0.000174  -0.000001  -0.000000
     4  C    0.355623  -0.035156  -0.041646  -0.055980  -0.004400  -0.000111
     5  H   -0.033871   0.003714  -0.003595  -0.000661   0.004089   0.000029
     6  H   -0.037039  -0.003728   0.004433  -0.000218   0.000039  -0.000022
     7  C    5.144112   0.371855   0.362930   0.357719  -0.049328   0.005899
     8  H    0.371855   0.509572  -0.027533  -0.030001   0.002254  -0.000121
     9  H    0.362930  -0.027533   0.509801  -0.018412   0.001527   0.000182
    10  C    0.357719  -0.030001  -0.018412   5.053654   0.477261  -0.109701
    11  N   -0.049328   0.002254   0.001527   0.477261   6.785435   0.465691
    12  C    0.005899  -0.000121   0.000182  -0.109701   0.465691   4.691204
    13  H   -0.000245   0.000004  -0.000017   0.008642  -0.050416   0.375778
    14  C    0.004274   0.000059  -0.000055  -0.061731  -0.076985   0.586777
    15  H   -0.000115  -0.000004   0.000001   0.003861   0.006627  -0.015998
    16  S   -0.068807   0.001840   0.004658   0.309633  -0.110820  -0.065415
    17  H   -0.003589  -0.000632   0.007802   0.000180  -0.000011   0.000000
              13         14         15         16         17
     1  N   -0.000000  -0.000002  -0.000000  -0.000015   0.305476
     2  H    0.000000  -0.000000  -0.000000   0.000021  -0.011025
     3  H    0.000000   0.000000   0.000000   0.000002  -0.010632
     4  C    0.000005   0.000169   0.000002  -0.006062  -0.023936
     5  H   -0.000002  -0.000084  -0.000002   0.000908  -0.001790
     6  H   -0.000000  -0.000202   0.000003   0.005833   0.003514
     7  C   -0.000245   0.004274  -0.000115  -0.068807  -0.003589
     8  H    0.000004   0.000059  -0.000004   0.001840  -0.000632
     9  H   -0.000017  -0.000055   0.000001   0.004658   0.007802
    10  C    0.008642  -0.061731   0.003861   0.309633   0.000180
    11  N   -0.050416  -0.076985   0.006627  -0.110820  -0.000011
    12  C    0.375778   0.586777  -0.015998  -0.065415   0.000000
    13  H    0.539242  -0.050375  -0.000848   0.004368   0.000000
    14  C   -0.050375   5.284638   0.344760   0.341648  -0.000000
    15  H   -0.000848   0.344760   0.502034  -0.042571   0.000000
    16  S    0.004368   0.341648  -0.042571  15.322965   0.000002
    17  H    0.000000  -0.000000   0.000000   0.000002   0.273265
 Mulliken charges:
               1
     1  N   -0.705697
     2  H    0.466548
     3  H    0.466224
     4  C   -0.193590
     5  H    0.231650
     6  H    0.226597
     7  C   -0.343400
     8  H    0.205359
     9  H    0.204450
    10  C    0.060658
    11  N   -0.451016
    12  C    0.065809
    13  H    0.173864
    14  C   -0.372889
    15  H    0.202248
    16  S    0.301810
    17  H    0.461374
 Sum of Mulliken charges =   1.00000
 Mulliken charges with hydrogens summed into heavy atoms:
               1
     1  N    0.688449
     4  C    0.264657
     7  C    0.066410
    10  C    0.060658
    11  N   -0.451016
    12  C    0.239673
    14  C   -0.170641
    16  S    0.301810
 Electronic spatial extent (au):  <R**2>=           1264.2717
 Charge=              1.0000 electrons
 Dipole moment (field-independent basis, Debye):
    X=            -14.8190    Y=             -1.9691    Z=             -1.4669  Tot=             15.0211
 Quadrupole moment (field-independent basis, Debye-Ang):
   XX=              7.4547   YY=            -52.2343   ZZ=            -50.4237
   XY=             -0.8632   XZ=              0.5183   YZ=             -1.1503
 Traceless Quadrupole moment (field-independent basis, Debye-Ang):
   XX=             39.1891   YY=            -20.4999   ZZ=            -18.6892
   XY=             -0.8632   XZ=              0.5183   YZ=             -1.1503
 Octapole moment (field-independent basis, Debye-Ang**2):
  XXX=           -190.5984  YYY=             -6.6514  ZZZ=             -3.2406  XYY=            -12.9982
  XXY=             -0.4364  XXZ=            -17.6525  XZZ=            -20.7987  YZZ=              0.0778
  YYZ=             -3.5571  XYZ=             -1.5120
 Hexadecapole moment (field-independent basis, Debye-Ang**3):
 XXXX=           -423.3369 YYYY=           -296.0284 ZZZZ=           -123.5858 XXXY=             -7.9222
 XXXZ=             34.9678 YYYX=              4.1332 YYYZ=             -4.5387 ZZZX=             12.6577
 ZZZY=             -2.2446 XXYY=           -193.9438 XXZZ=           -186.5607 YYZZ=            -67.6010
 XXYZ=             -3.8550 YYXZ=            -10.4220 ZZXY=             -0.6715
 N-N= 4.498165432727D+02 E-N=-2.542454671800D+03  KE= 6.997836939105D+02
 No NMR shielding tensors so no spin-rotation constants.
 Leave Link  601 at Sun Jul 11 16:21:27 2021, MaxMem=   104857600 cpu:               0.5 elap:               0.1
 (Enter /prod/apps/gaussian/g16b1/l701.exe)
 ... and contract with generalized density number  0.
 Compute integral first derivatives.
 D1PCM: PCM CHGder 1st derivatives, ID1Alg=3 FixD1E=F DoIter=F DoCFld=F I1PDM=0.
 GePol: Maximum number of non-zero 1st derivatives   =     287
 Leave Link  701 at Sun Jul 11 16:21:28 2021, MaxMem=   104857600 cpu:               3.1 elap:               0.8
 (Enter /prod/apps/gaussian/g16b1/l702.exe)
 L702 exits ... SP integral derivatives will be done elsewhere.
 Leave Link  702 at Sun Jul 11 16:21:28 2021, MaxMem=   104857600 cpu:               0.1 elap:               0.0
 (Enter /prod/apps/gaussian/g16b1/l703.exe)
 Integral derivatives from FoFJK, PRISM(SPDF).
 Compute integral first derivatives, UseDBF=F ICtDFT=           0.
 Calling FoFJK, ICntrl=      2127 FMM=F ISym2X=0 I1Cent= 0 IOpClX= 0 NMat=1 NMatS=1 NMatT=0.
 FoFJK:  IHMeth= 1 ICntrl=    2127 DoSepK=F KAlg= 0 I1Cent=           0 FoldK=F
 IRaf=         0 NMat=       1 IRICut=       1 DoRegI=T DoRafI=F ISym2E= 0 IDoP0=0 IntGTp=1.
 FoFCou: FMM=F IPFlag=           0 FMFlag=      100000 FMFlg1=         800
         NFxFlg=           0 DoJE=F BraDBF=F KetDBF=F FulRan=T
         wScrn=  0.000000 ICntrl=      2127 IOpCl=  0 I1Cent=           0 NGrid=           0
         NMat0=    1 NMatS0=      1 NMatT0=    0 NMatD0=    1 NMtDS0=    0 NMtDT0=    0
 Symmetry not used in FoFCou.
 Leave Link  703 at Sun Jul 11 16:21:30 2021, MaxMem=   104857600 cpu:              10.5 elap:               2.6
 (Enter /prod/apps/gaussian/g16b1/l716.exe)
 Dipole        =-5.83025698D+00-7.74707087D-01-5.77122920D-01
 ***** Axes restored to original set *****
 -------------------------------------------------------------------
 Center     Atomic                   Forces (Hartrees/Bohr)
 Number     Number              X              Y              Z
 -------------------------------------------------------------------
      1        7          -0.000007223   -0.023843556   -0.013591389
      2        1          -0.026900842    0.009400140    0.007931931
      3        1          -0.006450254    0.003119686   -0.031210543
      4        6           0.001128099   -0.010273350    0.028803793
      5        1          -0.000965540    0.006433900    0.000018020
      6        1          -0.003227698    0.005919799   -0.006744527
      7        6           0.000466594   -0.008067138   -0.008413556
      8        1          -0.004241020    0.001783380   -0.006156614
      9        1           0.008033694   -0.003305246    0.013422966
     10        6           0.068445257   -0.000758392   -0.009273154
     11        7          -0.042596681    0.081631157   -0.037572969
     12        6           0.024997966   -0.014296096    0.018804165
     13        1          -0.001221349   -0.009445334    0.011613105
     14        6          -0.005428011   -0.072354310    0.017085810
     15        1           0.010534616   -0.003784146   -0.004223239
     16       16          -0.037363052    0.009534056    0.019478935
     17        1           0.014795444    0.028305452    0.000027266
 -------------------------------------------------------------------
 Cartesian Forces:  Max     0.081631157 RMS     0.023775861
 Leave Link  716 at Sun Jul 11 16:21:31 2021, MaxMem=   104857600 cpu:               0.1 elap:               0.0
 (Enter /prod/apps/gaussian/g16b1/l103.exe)

 GradGradGradGradGradGradGradGradGradGradGradGradGradGradGradGradGradGrad
 Berny optimization.
 FormGI is forming the generalized inverse of G from B-inverse, IUseBI=4.
 Internal  Forces:  Max     0.074533420 RMS     0.016577926
 Search for a local minimum.
 Step number   1 out of a maximum of   92
 All quantities printed in internal units (Hartrees-Bohrs-Radians)
 RMS Force = .16578D-01 SwitMx=.10000D-02 MixMth= 1
 Mixed Optimization -- RFO/linear search
 Second derivative matrix not updated -- first step.
 ITU=  0
     Eigenvalues ---    0.00230   0.00982   0.01167   0.01718   0.02202
     Eigenvalues ---    0.02681   0.02811   0.02876   0.04669   0.04863
     Eigenvalues ---    0.05263   0.05784   0.06203   0.06206   0.06927
     Eigenvalues ---    0.08325   0.11012   0.12110   0.15876   0.15993
     Eigenvalues ---    0.16000   0.16000   0.16000   0.21706   0.21802
     Eigenvalues ---    0.22285   0.24219   0.24360   0.28363   0.34481
     Eigenvalues ---    0.34500   0.34550   0.34565   0.35531   0.35664
     Eigenvalues ---    0.35778   0.35886   0.37775   0.38908   0.47665
     Eigenvalues ---    0.47696   0.47743   0.49110   0.54299   0.63684
 RFO step:  Lambda=-6.42215063D-02 EMin= 2.30000000D-03
 Linear search not attempted -- first point.
 Maximum step size (   0.300) exceeded in Quadratic search.
    -- Step size scaled by   0.793
 Iteration  1 RMS(Cart)=  0.10184770 RMS(Int)=  0.00295966
 Iteration  2 RMS(Cart)=  0.00315631 RMS(Int)=  0.00133679
 Iteration  3 RMS(Cart)=  0.00000962 RMS(Int)=  0.00133677
 Iteration  4 RMS(Cart)=  0.00000001 RMS(Int)=  0.00133677
 ITry= 1 IFail=0 DXMaxC= 3.03D-01 DCOld= 1.00D+10 DXMaxT= 3.00D-01 DXLimC= 3.00D+00 Rises=F
 Variable       Old X    -DE/DX   Delta X   Delta X   Delta X     New X
                                 (Linear)    (Quad)   (Total)
    R1        1.88998   0.02902   0.00000   0.04255   0.04255   1.93253
    R2        1.88914   0.03086   0.00000   0.04518   0.04518   1.93432
    R3        2.74694   0.03683   0.00000   0.06609   0.06609   2.81303
    R4        1.88964   0.03104   0.00000   0.04548   0.04548   1.93513
    R5        2.06494  -0.00276   0.00000  -0.00534  -0.00534   2.05960
    R6        2.06525  -0.00266   0.00000  -0.00515  -0.00515   2.06010
    R7        2.91353   0.01230   0.00000   0.02805   0.02805   2.94157
    R8        2.06411   0.00089   0.00000   0.00172   0.00172   2.06584
    R9        2.06386   0.00046   0.00000   0.00090   0.00090   2.06476
   R10        2.77731   0.02196   0.00000   0.04127   0.04127   2.81858
   R11        2.58125  -0.03231   0.00000  -0.04817  -0.04788   2.53337
   R12        3.18900   0.03916   0.00000   0.06399   0.06425   3.25325
   R13        2.46369   0.07453   0.00000   0.08305   0.08306   2.54675
   R14        2.04611   0.00037   0.00000   0.00071   0.00071   2.04681
   R15        2.53831   0.03064   0.00000   0.04399   0.04381   2.58212
   R16        2.04821  -0.00010   0.00000  -0.00019  -0.00019   2.04802
   R17        3.14696   0.03015   0.00000   0.05397   0.05361   3.20056
    A1        1.91082  -0.00688   0.00000  -0.02480  -0.02504   1.88578
    A2        1.91044   0.00453   0.00000   0.01601   0.01577   1.92621
    A3        1.91034  -0.00548   0.00000  -0.01896  -0.01916   1.89118
    A4        1.91098   0.00879   0.00000   0.03089   0.03056   1.94155
    A5        1.91028  -0.00780   0.00000  -0.02755  -0.02793   1.88234
    A6        1.91095   0.00683   0.00000   0.02438   0.02407   1.93502
    A7        1.95494  -0.01339   0.00000  -0.04106  -0.04174   1.91321
    A8        1.95835  -0.01713   0.00000  -0.05865  -0.06042   1.89792
    A9        1.79617   0.04142   0.00000   0.12092   0.12162   1.91779
   A10        1.88488   0.00944   0.00000   0.01542   0.01332   1.89819
   A11        1.94931  -0.01298   0.00000  -0.03073  -0.02979   1.91951
   A12        1.92028  -0.00754   0.00000  -0.00496  -0.00333   1.91696
   A13        1.97693  -0.01497   0.00000  -0.04896  -0.04904   1.92789
   A14        1.81801   0.00573   0.00000   0.03923   0.04074   1.85875
   A15        1.85143   0.02338   0.00000   0.06991   0.07019   1.92161
   A16        1.89339   0.00312   0.00000   0.00012  -0.00006   1.89333
   A17        1.90914  -0.00011   0.00000   0.01000   0.01038   1.91952
   A18        2.01577  -0.01782   0.00000  -0.07232  -0.07392   1.94184
   A19        2.15096  -0.00543   0.00000  -0.00429  -0.00398   2.14698
   A20        2.17126  -0.00385   0.00000  -0.00098  -0.00105   2.17022
   A21        1.92415   0.01060   0.00000   0.02102   0.01934   1.94349
   A22        1.98449  -0.00989   0.00000  -0.02159  -0.02367   1.96083
   A23        2.01144   0.00688   0.00000   0.01972   0.02010   2.03154
   A24        1.95030   0.01438   0.00000   0.06098   0.05877   2.00907
   A25        2.32095  -0.02107   0.00000  -0.07904  -0.07862   2.24232
   A26        2.32438   0.00214   0.00000  -0.00942  -0.00955   2.31483
   A27        1.96201  -0.02465   0.00000  -0.04723  -0.05103   1.91099
   A28        1.98882   0.02381   0.00000   0.06770   0.06782   2.05664
   A29        1.55803   0.01482   0.00000   0.03526   0.03227   1.59030
    D1        2.94038  -0.00372   0.00000  -0.01662  -0.01575   2.92463
    D2        0.81696   0.00619   0.00000   0.03585   0.03455   0.85151
    D3       -1.24656  -0.00098   0.00000  -0.00107  -0.00061  -1.24717
    D4        0.84567  -0.00346   0.00000  -0.01498  -0.01408   0.83159
    D5       -1.27776   0.00645   0.00000   0.03750   0.03622  -1.24154
    D6        2.94191  -0.00072   0.00000   0.00057   0.00106   2.94298
    D7       -1.24870  -0.00348   0.00000  -0.01511  -0.01429  -1.26299
    D8        2.91106   0.00643   0.00000   0.03737   0.03600   2.94707
    D9        0.84755  -0.00074   0.00000   0.00044   0.00085   0.84839
   D10        1.05022  -0.00358   0.00000  -0.01728  -0.01657   1.03365
   D11       -1.00359  -0.00324   0.00000  -0.01668  -0.01532  -1.01892
   D12       -3.13860   0.00308   0.00000   0.01296   0.01244  -3.12615
   D13       -3.13284  -0.00130   0.00000  -0.00936  -0.00911   3.14123
   D14        1.09653  -0.00095   0.00000  -0.00875  -0.00786   1.08867
   D15       -1.03847   0.00537   0.00000   0.02088   0.01990  -1.01857
   D16       -1.03982  -0.00289   0.00000  -0.01325  -0.01363  -1.05345
   D17       -3.09364  -0.00254   0.00000  -0.01264  -0.01238  -3.10601
   D18        1.05455   0.00377   0.00000   0.01699   0.01539   1.06994
   D19        1.57231   0.00868   0.00000   0.05047   0.04947   1.62178
   D20       -1.25271   0.00131   0.00000  -0.01922  -0.02103  -1.27374
   D21       -2.57287   0.00467   0.00000   0.03931   0.03982  -2.53305
   D22        0.88529  -0.00269   0.00000  -0.03039  -0.03068   0.85462
   D23       -0.43148  -0.00419   0.00000  -0.00498  -0.00329  -0.43477
   D24        3.02668  -0.01155   0.00000  -0.07468  -0.07379   2.95289
   D25       -2.94023  -0.00137   0.00000  -0.02016  -0.02076  -2.96099
   D26       -0.07594   0.00316   0.00000   0.03800   0.03888  -0.03707
   D27        3.05320  -0.00328   0.00000  -0.03701  -0.03894   3.01426
   D28        0.19282  -0.00761   0.00000  -0.09541  -0.09903   0.09379
   D29        3.04520   0.00121   0.00000   0.01496   0.01358   3.05878
   D30       -0.12589   0.00644   0.00000   0.06209   0.06509  -0.06080
   D31       -3.01020  -0.00484   0.00000  -0.04235  -0.04448  -3.05468
   D32        0.27837  -0.01826   0.00000  -0.14864  -0.14842   0.12995
   D33        0.09492   0.00247   0.00000   0.01895   0.01718   0.11210
   D34       -2.89969  -0.01095   0.00000  -0.08734  -0.08677  -2.98646
   D35       -0.26886   0.01824   0.00000   0.14904   0.14579  -0.12307
   D36        2.98986   0.00858   0.00000   0.06914   0.06447   3.05432
         Item               Value     Threshold  Converged?
 Maximum Force            0.074533     0.000450     NO 
 RMS     Force            0.016578     0.000300     NO 
 Maximum Displacement     0.302861     0.001800     NO 
 RMS     Displacement     0.100994     0.001200     NO 
 Predicted change in Energy=-3.648591D-02
 Lowest energy point so far.  Saving SCF results.
 GradGradGradGradGradGradGradGradGradGradGradGradGradGradGradGradGradGrad

 Leave Link  103 at Sun Jul 11 16:21:31 2021, MaxMem=   104857600 cpu:               0.1 elap:               0.0
 (Enter /prod/apps/gaussian/g16b1/l202.exe)
                          Input orientation:                          
 ---------------------------------------------------------------------
 Center     Atomic      Atomic             Coordinates (Angstroms)
 Number     Number       Type             X           Y           Z
 ---------------------------------------------------------------------
      1          7           0       -1.279910    1.826554   -1.989028
      2          1           0       -2.211451    2.028733   -1.618662
      3          1           0       -1.369966    1.645901   -2.992527
      4          6           0       -0.683489    0.659994   -1.282400
      5          1           0        0.199124    0.317291   -1.822230
      6          1           0       -1.415702   -0.147329   -1.259247
      7          6           0       -0.295399    1.062835    0.170234
      8          1           0       -1.175465    1.408384    0.719009
      9          1           0        0.407769    1.894687    0.084194
     10          6           0        0.322465   -0.096800    0.876024
     11          7           0        1.645366   -0.311469    0.908754
     12          6           0        1.955423   -1.524825    1.406628
     13          1           0        3.003109   -1.799088    1.389330
     14          6           0        0.891038   -2.260992    1.845023
     15          1           0        0.817986   -3.218058    2.348248
     16         16           0       -0.549923   -1.473703    1.429919
     17          1           0       -0.697975    2.660886   -1.871267
 ---------------------------------------------------------------------
                    Distance matrix (angstroms):
                    1          2          3          4          5
     1  N    0.000000
     2  H    1.022651   0.000000
     3  H    1.023599   1.655947   0.000000
     4  C    1.488591   2.078746   2.089927   0.000000
     5  H    2.119726   2.963334   2.365765   1.089893   0.000000
     6  H    2.108847   2.344705   2.494398   1.090157   1.772141
     7  C    2.492978   2.793629   3.390828   1.556612   2.184102
     8  H    2.742123   2.631122   3.724210   2.192662   3.088345
     9  H    2.674164   3.126980   3.562084   2.140769   2.483176
    10  C    3.804658   4.142714   4.568043   2.498695   2.732629
    11  N    4.639560   5.171016   5.305046   3.341925   3.153605
    12  C    5.764512   6.256436   6.361154   4.355246   4.111387
    13  H    6.550026   7.133854   7.084660   5.174576   4.759781
    14  C    6.010074   6.326475   6.616482   4.559832   4.535971
    15  H    6.975761   7.241732   7.547788   5.520446   5.502233
    16  S    4.807678   4.931691   5.473794   3.453574   3.787506
    17  H    1.024024   1.659530   1.654989   2.085795   2.509906
                    6          7          8          9         10
     6  H    0.000000
     7  C    2.182428   0.000000
     8  H    2.528132   1.093194   0.000000
     9  H    3.049543   1.092623   1.773728   0.000000
    10  C    2.753755   1.491526   2.129325   2.144829   0.000000
    11  N    3.754638   2.490118   3.309227   2.660576   1.340604
    12  C    4.513188   3.645662   4.344996   3.979589   2.233237
    13  H    5.410098   4.533978   5.310149   4.699271   3.216694
    14  C    4.407393   3.906453   4.359204   4.539134   2.438434
    15  H    5.237629   4.930458   5.294547   5.606637   3.486436
    16  S    3.120970   2.843521   3.033664   3.751559   1.721546
    17  H    2.962393   2.623654   2.916554   2.373512   4.024144
                   11         12         13         14         15
    11  N    0.000000
    12  C    1.347683   0.000000
    13  H    2.070612   1.083128   0.000000
    14  C    2.290470   1.366399   2.209492   0.000000
    15  H    3.347381   2.246652   2.776285   1.083765   0.000000
    16  S    2.538049   2.505975   3.568131   1.693666   2.399433
    17  H    4.696238   5.941825   6.649878   6.368725   7.393539
                   16         17
    16  S    0.000000
    17  H    5.292879   0.000000
 Stoichiometry    C5H9N2S(1+)
 Framework group  C1[X(C5H9N2S)]
 Deg. of freedom    45
 Full point group                 C1      NOp   1
 RotChk:  IX=0 Diff= 2.15D-02
 Largest Abelian subgroup         C1      NOp   1
 Largest concise Abelian subgroup C1      NOp   1
                         Standard orientation:                         
 ---------------------------------------------------------------------
 Center     Atomic      Atomic             Coordinates (Angstroms)
 Number     Number       Type             X           Y           Z
 ---------------------------------------------------------------------
      1          7           0       -3.473529   -0.022973   -0.230819
      2          1           0       -3.732086   -0.857693    0.300413
      3          1           0       -4.034153   -0.005744   -1.087067
      4          6           0       -2.017399   -0.035980   -0.539721
      5          1           0       -1.794074    0.729531   -1.282680
      6          1           0       -1.755287   -1.010894   -0.951162
      7          6           0       -1.198644    0.227147    0.757756
      8          1           0       -1.417107   -0.536463    1.508920
      9          1           0       -1.528664    1.195297    1.141941
     10          6           0        0.260737    0.236428    0.449909
     11          7           0        0.939058    1.355960    0.160511
     12          6           0        2.180323    1.099143   -0.297260
     13          1           0        2.758545    1.953755   -0.626598
     14          6           0        2.532786   -0.220970   -0.308075
     15          1           0        3.459061   -0.731449   -0.544661
     16         16           0        1.184985   -1.168968    0.083376
     17          1           0       -3.721506    0.801644    0.323382
 ---------------------------------------------------------------------
 Rotational constants (GHZ):           4.2304448           0.9616620           0.8482176
 Leave Link  202 at Sun Jul 11 16:21:31 2021, MaxMem=   104857600 cpu:               0.1 elap:               0.0
 (Enter /prod/apps/gaussian/g16b1/l301.exe)
 Standard basis: 6-31G(d) (6D, 7F)
 Ernie: Thresh=  0.10000D-02 Tol=  0.10000D-05 Strict=F.
 There are   142 symmetry adapted cartesian basis functions of A   symmetry.
 There are   142 symmetry adapted basis functions of A   symmetry.
   142 basis functions,   284 primitive gaussians,   142 cartesian basis functions
    34 alpha electrons       34 beta electrons
       nuclear repulsion energy       440.4558893850 Hartrees.
 IExCor=  402 DFT=T Ex+Corr=B3LYP ExCW=0 ScaHFX=  0.200000
 ScaDFX=  0.800000  0.720000  1.000000  0.810000 ScalE2=  1.000000  1.000000
 IRadAn=      5 IRanWt=     -1 IRanGd=            0 ICorTp=0 IEmpDi=  4
 NAtoms=   17 NActive=   17 NUniq=   17 SFac= 1.00D+00 NAtFMM=   60 NAOKFM=F Big=F
 Integral buffers will be    131072 words long.
 Raffenetti 2 integral format.
 Two-electron integral symmetry is turned on.
 ------------------------------------------------------------------------------
 Polarizable Continuum Model (PCM)
 =================================
 Model                : PCM.
 Atomic radii         : MST.
 Polarization charges : Total charges.
 Charge compensation  : None.
 Solution method      : On-the-fly selection.
 Cavity type          : Scaled VdW (van der Waals Surface) (Alpha=1.250).
 Cavity algorithm     : GePol (No added spheres)
                        Default sphere list used, NSphG=   17.
                        Lebedev-Laikov grids with approx.  5.0 points / Ang**2.
                        Smoothing algorithm: York/Karplus (Gamma=1.0000).
                        Polarization charges: spherical gaussians, with
                                              point-specific exponents (IZeta= 3).
                        Self-potential: point-specific (ISelfS= 7).
                        Self-field    : sphere-specific E.n sum rule (ISelfD= 2).
 1st derivatives      : Analytical E(r).r(x)/FMM algorithm (CHGder, D1EAlg=3).
                        Cavity 1st derivative terms included.
 Solvent              : Water, Eps=  78.355300 Eps(inf)=   1.777849
 ------------------------------------------------------------------------------
 Spheres list:
 ISph  on   Nord     Re0    Alpha      Xe            Ye            Ze
    1   N      1    1.7000  1.150     -3.473529     -0.022973     -0.230819
    2   H      2    0.9000  1.150     -3.732086     -0.857693      0.300413
    3   H      3    0.9000  1.150     -4.034153     -0.005744     -1.087067
    4   C      4    1.5000  1.250     -2.017399     -0.035980     -0.539721
    5   H      5    1.2000  1.250     -1.794074      0.729531     -1.282680
    6   H      6    1.2000  1.250     -1.755287     -1.010894     -0.951162
    7   C      7    1.5000  1.250     -1.198644      0.227147      0.757756
    8   H      8    1.2000  1.250     -1.417107     -0.536463      1.508920
    9   H      9    1.2000  1.250     -1.528664      1.195297      1.141941
   10   C     10    1.5000  1.250      0.260737      0.236428      0.449909
   11   N     11    1.4000  1.250      0.939058      1.355960      0.160511
   12   C     12    1.5000  1.250      2.180323      1.099143     -0.297260
   13   H     13    1.2000  1.250      2.758545      1.953755     -0.626598
   14   C     14    1.5000  1.250      2.532786     -0.220970     -0.308075
   15   H     15    1.2000  1.250      3.459061     -0.731449     -0.544661
   16   S     16    1.7500  1.250      1.184985     -1.168968      0.083376
   17   H     17    0.9000  1.150     -3.721506      0.801644      0.323382
 ------------------------------------------------------------------------------
 GePol: Number of generator spheres                  =      17
 GePol: Total number of spheres                      =      17
 GePol: Number of exposed spheres                    =      17 (100.00%)
 GePol: Number of points                             =    1311
 GePol: Average weight of points                     =       0.14
 GePol: Minimum weight of points                     =   0.80D-09
 GePol: Maximum weight of points                     =    0.22001
 GePol: Number of points with low weight             =      68
 GePol: Fraction of low-weight points (<1% of avg)   =       5.19%
 GePol: Cavity surface area                          =    177.774 Ang**2
 GePol: Cavity volume                                =    158.552 Ang**3
 PCM non-electrostatic energy =         0.0002685004 Hartrees.
 Nuclear repulsion after PCM non-electrostatic terms =      440.4561578854 Hartrees.
 Leave Link  301 at Sun Jul 11 16:21:31 2021, MaxMem=   104857600 cpu:               0.4 elap:               0.1
 (Enter /prod/apps/gaussian/g16b1/l302.exe)
 NPDir=0 NMtPBC=     1 NCelOv=     1 NCel=       1 NClECP=     1 NCelD=      1
         NCelK=      1 NCelE2=     1 NClLst=     1 CellRange=     0.0.
 One-electron integrals computed using PRISM.
 One-electron integral symmetry used in STVInt
 NBasis=   142 RedAO= T EigKep=  2.30D-03  NBF=   142
 NBsUse=   142 1.00D-06 EigRej= -1.00D+00 NBFU=   142
 Precomputing XC quadrature grid using
 IXCGrd= 4 IRadAn=           5 IRanWt=          -1 IRanGd=           0 AccXCQ= 0.00D+00.
 Generated NRdTot=       0 NPtTot=           0 NUsed=           0 NTot=          32
 NSgBfM=   142   142   142   142   142 MxSgAt=    17 MxSgA2=    17.
 Leave Link  302 at Sun Jul 11 16:21:31 2021, MaxMem=   104857600 cpu:               1.0 elap:               0.3
 (Enter /prod/apps/gaussian/g16b1/l303.exe)
 DipDrv:  MaxL=1.
 Leave Link  303 at Sun Jul 11 16:21:31 2021, MaxMem=   104857600 cpu:               0.1 elap:               0.0
 (Enter /prod/apps/gaussian/g16b1/l401.exe)
 Initial guess from the checkpoint file:  "SET_328_BBB87_conf1.geo_180_090.chk"
 B after Tr=    -0.000000    0.000000   -0.000000
         Rot=    0.999942    0.010236   -0.002831   -0.001748 Ang=   1.23 deg.
 Guess basis will be translated and rotated to current coordinates.
 JPrj=2 DoOrth=T DoCkMO=T.
 Generating alternative initial guess.
 ExpMin= 1.17D-01 ExpMax= 2.19D+04 ExpMxC= 3.30D+03 IAcc=3 IRadAn=         5 AccDes= 0.00D+00
 Harris functional with IExCor=  402 and IRadAn=       5 diagonalized for initial guess.
 HarFok:  IExCor=  402 AccDes= 0.00D+00 IRadAn=         5 IDoV= 1 UseB2=F ITyADJ=14
 ICtDFT=  3500011 ScaDFX=  1.000000  1.000000  1.000000  1.000000
 FoFCou: FMM=F IPFlag=           0 FMFlag=      100000 FMFlg1=           0
         NFxFlg=           0 DoJE=T BraDBF=F KetDBF=T FulRan=T
         wScrn=  0.000000 ICntrl=       500 IOpCl=  0 I1Cent=   200000004 NGrid=           0
         NMat0=    1 NMatS0=      1 NMatT0=    0 NMatD0=    1 NMtDS0=    0 NMtDT0=    0
 Petite list used in FoFCou.
 Harris En= -703.375870560758    
 Leave Link  401 at Sun Jul 11 16:21:32 2021, MaxMem=   104857600 cpu:               3.3 elap:               0.8
 (Enter /prod/apps/gaussian/g16b1/l502.exe)
 Keep R1 ints in memory in canonical form, NReq=55421297.
 FoFCou: FMM=F IPFlag=           0 FMFlag=           0 FMFlg1=           0
         NFxFlg=           0 DoJE=F BraDBF=F KetDBF=F FulRan=T
         wScrn=  0.000000 ICntrl=       600 IOpCl=  0 I1Cent=           0 NGrid=           0
         NMat0=    1 NMatS0=  10153 NMatT0=    0 NMatD0=    1 NMtDS0=    0 NMtDT0=    0
 Symmetry not used in FoFCou.
 Two-electron integral symmetry not used.
 Closed shell SCF:
 Using DIIS extrapolation, IDIIS=  1040.
 NGot=   104857600 LenX=    53267901 LenY=    53247296
 Requested convergence on RMS density matrix=1.00D-08 within 128 cycles.
 Requested convergence on MAX density matrix=1.00D-06.
 Requested convergence on             energy=1.00D-06.
 No special actions if energy rises.

 Cycle   1  Pass 1  IDiag  1:
 Inv3:  Mode=1 IEnd=     5156163.
 Iteration    1 A*A^-1 deviation from unit magnitude is 3.66D-15 for    367.
 Iteration    1 A*A^-1 deviation from orthogonality  is 1.60D-15 for    874    506.
 Iteration    1 A^-1*A deviation from unit magnitude is 3.89D-15 for    367.
 Iteration    1 A^-1*A deviation from orthogonality  is 1.59D-15 for    799    665.
 E= -703.488793745131    
 DIIS: error= 4.95D-03 at cycle   1 NSaved=   1.
 NSaved= 1 IEnMin= 1 EnMin= -703.488793745131     IErMin= 1 ErrMin= 4.95D-03
 ErrMax= 4.95D-03  0.00D+00 EMaxC= 1.00D-01 BMatC= 6.25D-03 BMatP= 6.25D-03
 IDIUse=3 WtCom= 9.51D-01 WtEn= 4.95D-02
 Coeff-Com:  0.100D+01
 Coeff-En:   0.100D+01
 Coeff:      0.100D+01
 Gap=     1.569 Goal=   None    Shift=    0.000
 GapD=    1.569 DampG=2.000 DampE=1.000 DampFc=2.0000 IDamp=-1.
 RMSDP=1.14D-03 MaxDP=1.69D-02              OVMax= 2.87D-02

 Cycle   2  Pass 1  IDiag  1:
 E= -703.499434148680     Delta-E=       -0.010640403549 Rises=F Damp=F
 DIIS: error= 1.85D-03 at cycle   2 NSaved=   2.
 NSaved= 2 IEnMin= 2 EnMin= -703.499434148680     IErMin= 2 ErrMin= 1.85D-03
 ErrMax= 1.85D-03  0.00D+00 EMaxC= 1.00D-01 BMatC= 7.11D-04 BMatP= 6.25D-03
 IDIUse=3 WtCom= 9.81D-01 WtEn= 1.85D-02
 Coeff-Com:  0.125D+00 0.875D+00
 Coeff-En:   0.000D+00 0.100D+01
 Coeff:      0.122D+00 0.878D+00
 Gap=     0.213 Goal=   None    Shift=    0.000
 RMSDP=2.87D-04 MaxDP=9.78D-03 DE=-1.06D-02 OVMax= 8.69D-03

 Cycle   3  Pass 1  IDiag  1:
 E= -703.499545597315     Delta-E=       -0.000111448635 Rises=F Damp=F
 DIIS: error= 1.88D-03 at cycle   3 NSaved=   3.
 NSaved= 3 IEnMin= 3 EnMin= -703.499545597315     IErMin= 2 ErrMin= 1.85D-03
 ErrMax= 1.88D-03  0.00D+00 EMaxC= 1.00D-01 BMatC= 6.79D-04 BMatP= 7.11D-04
 IDIUse=3 WtCom= 9.81D-01 WtEn= 1.88D-02
 Coeff-Com: -0.316D-01 0.500D+00 0.531D+00
 Coeff-En:   0.000D+00 0.456D+00 0.544D+00
 Coeff:     -0.310D-01 0.499D+00 0.532D+00
 Gap=     0.212 Goal=   None    Shift=    0.000
 RMSDP=1.43D-04 MaxDP=5.25D-03 DE=-1.11D-04 OVMax= 4.89D-03

 Cycle   4  Pass 1  IDiag  1:
 E= -703.500119217014     Delta-E=       -0.000573619699 Rises=F Damp=F
 DIIS: error= 2.26D-04 at cycle   4 NSaved=   4.
 NSaved= 4 IEnMin= 4 EnMin= -703.500119217014     IErMin= 4 ErrMin= 2.26D-04
 ErrMax= 2.26D-04  0.00D+00 EMaxC= 1.00D-01 BMatC= 1.14D-05 BMatP= 6.79D-04
 IDIUse=3 WtCom= 9.98D-01 WtEn= 2.26D-03
 Coeff-Com: -0.169D-01 0.192D+00 0.232D+00 0.593D+00
 Coeff-En:   0.000D+00 0.000D+00 0.000D+00 0.100D+01
 Coeff:     -0.169D-01 0.192D+00 0.231D+00 0.594D+00
 Gap=     0.212 Goal=   None    Shift=    0.000
 RMSDP=3.59D-05 MaxDP=7.16D-04 DE=-5.74D-04 OVMax= 1.98D-03

 Cycle   5  Pass 1  IDiag  1:
 E= -703.500128109599     Delta-E=       -0.000008892586 Rises=F Damp=F
 DIIS: error= 1.10D-04 at cycle   5 NSaved=   5.
 NSaved= 5 IEnMin= 5 EnMin= -703.500128109599     IErMin= 5 ErrMin= 1.10D-04
 ErrMax= 1.10D-04  0.00D+00 EMaxC= 1.00D-01 BMatC= 2.68D-06 BMatP= 1.14D-05
 IDIUse=3 WtCom= 9.99D-01 WtEn= 1.10D-03
 Coeff-Com: -0.622D-02 0.548D-01 0.739D-01 0.350D+00 0.527D+00
 Coeff-En:   0.000D+00 0.000D+00 0.000D+00 0.188D+00 0.812D+00
 Coeff:     -0.622D-02 0.547D-01 0.738D-01 0.350D+00 0.528D+00
 Gap=     0.212 Goal=   None    Shift=    0.000
 RMSDP=1.45D-05 MaxDP=4.05D-04 DE=-8.89D-06 OVMax= 9.91D-04

 Cycle   6  Pass 1  IDiag  1:
 E= -703.500130876236     Delta-E=       -0.000002766637 Rises=F Damp=F
 DIIS: error= 2.50D-05 at cycle   6 NSaved=   6.
 NSaved= 6 IEnMin= 6 EnMin= -703.500130876236     IErMin= 6 ErrMin= 2.50D-05
 ErrMax= 2.50D-05  0.00D+00 EMaxC= 1.00D-01 BMatC= 1.91D-07 BMatP= 2.68D-06
 IDIUse=1 WtCom= 1.00D+00 WtEn= 0.00D+00
 Coeff-Com: -0.757D-03 0.151D-02 0.576D-02 0.939D-01 0.261D+00 0.638D+00
 Coeff:     -0.757D-03 0.151D-02 0.576D-02 0.939D-01 0.261D+00 0.638D+00
 Gap=     0.212 Goal=   None    Shift=    0.000
 RMSDP=3.99D-06 MaxDP=1.33D-04 DE=-2.77D-06 OVMax= 2.55D-04

 Cycle   7  Pass 1  IDiag  1:
 E= -703.500131073469     Delta-E=       -0.000000197233 Rises=F Damp=F
 DIIS: error= 6.95D-06 at cycle   7 NSaved=   7.
 NSaved= 7 IEnMin= 7 EnMin= -703.500131073469     IErMin= 7 ErrMin= 6.95D-06
 ErrMax= 6.95D-06  0.00D+00 EMaxC= 1.00D-01 BMatC= 1.73D-08 BMatP= 1.91D-07
 IDIUse=1 WtCom= 1.00D+00 WtEn= 0.00D+00
 Coeff-Com:  0.288D-03-0.530D-02-0.519D-02 0.787D-02 0.711D-01 0.304D+00
 Coeff-Com:  0.627D+00
 Coeff:      0.288D-03-0.530D-02-0.519D-02 0.787D-02 0.711D-01 0.304D+00
 Coeff:      0.627D+00
 Gap=     0.212 Goal=   None    Shift=    0.000
 RMSDP=9.99D-07 MaxDP=2.79D-05 DE=-1.97D-07 OVMax= 4.54D-05

 Cycle   8  Pass 1  IDiag  1:
 E= -703.500131088636     Delta-E=       -0.000000015168 Rises=F Damp=F
 DIIS: error= 2.45D-06 at cycle   8 NSaved=   8.
 NSaved= 8 IEnMin= 8 EnMin= -703.500131088636     IErMin= 8 ErrMin= 2.45D-06
 ErrMax= 2.45D-06  0.00D+00 EMaxC= 1.00D-01 BMatC= 2.10D-09 BMatP= 1.73D-08
 IDIUse=1 WtCom= 1.00D+00 WtEn= 0.00D+00
 Coeff-Com:  0.218D-03-0.314D-02-0.334D-02-0.181D-02 0.226D-01 0.128D+00
 Coeff-Com:  0.351D+00 0.506D+00
 Coeff:      0.218D-03-0.314D-02-0.334D-02-0.181D-02 0.226D-01 0.128D+00
 Coeff:      0.351D+00 0.506D+00
 Gap=     0.212 Goal=   None    Shift=    0.000
 RMSDP=3.84D-07 MaxDP=1.33D-05 DE=-1.52D-08 OVMax= 1.66D-05

 Cycle   9  Pass 1  IDiag  1:
[...]
 Gap=     0.334 Goal=   None    Shift=    0.000
 RMSDP=5.52D-07 MaxDP=2.49D-05 DE=-4.44D-08 OVMax= 3.73D-05

 Cycle  11  Pass 1  IDiag  1:
 RMSU=  3.39D-07    CP:  6.59D-01  9.67D-01  9.04D-01  1.17D+00  1.53D+00
                    CP:  1.84D+00  1.59D+00  1.46D+00  1.23D+00  1.29D+00
 E= -700.812129079768     Delta-E=       -0.000000003706 Rises=F Damp=F
 DIIS: error= 4.30D-07 at cycle  11 NSaved=  11.
 NSaved=11 IEnMin=11 EnMin= -700.812129079768     IErMin=11 ErrMin= 4.30D-07
 ErrMax= 4.30D-07  0.00D+00 EMaxC= 1.00D-01 BMatC= 1.31D-10 BMatP= 1.29D-09
 IDIUse=1 WtCom= 1.00D+00 WtEn= 0.00D+00
 Coeff-Com: -0.397D-05 0.344D-04 0.137D-03 0.125D-03-0.151D-02-0.185D-02
 Coeff-Com:  0.940D-02 0.723D-02-0.108D+00-0.118D-01 0.111D+01
 Coeff:     -0.397D-05 0.344D-04 0.137D-03 0.125D-03-0.151D-02-0.185D-02
 Coeff:      0.940D-02 0.723D-02-0.108D+00-0.118D-01 0.111D+01
 Gap=     0.334 Goal=   None    Shift=    0.000
 RMSDP=1.88D-07 MaxDP=7.60D-06 DE=-3.71D-09 OVMax= 1.07D-05

 Cycle  12  Pass 1  IDiag  1:
 RMSU=  9.47D-08    CP:  6.59D-01  9.67D-01  9.04D-01  1.17D+00  1.53D+00
                    CP:  1.84D+00  1.59D+00  1.46D+00  1.23D+00  1.40D+00
                    CP:  1.28D+00
 E= -700.812129080108     Delta-E=       -0.000000000340 Rises=F Damp=F
 DIIS: error= 1.80D-07 at cycle  12 NSaved=  12.
 NSaved=12 IEnMin=12 EnMin= -700.812129080108     IErMin=12 ErrMin= 1.80D-07
 ErrMax= 1.80D-07  0.00D+00 EMaxC= 1.00D-01 BMatC= 1.65D-11 BMatP= 1.31D-10
 IDIUse=1 WtCom= 1.00D+00 WtEn= 0.00D+00
 Coeff-Com: -0.341D-05 0.177D-04 0.778D-04 0.151D-03-0.380D-03-0.193D-02
 Coeff-Com:  0.200D-02 0.116D-01-0.212D-01-0.997D-01 0.184D+00 0.926D+00
 Coeff:     -0.341D-05 0.177D-04 0.778D-04 0.151D-03-0.380D-03-0.193D-02
 Coeff:      0.200D-02 0.116D-01-0.212D-01-0.997D-01 0.184D+00 0.926D+00
 Gap=     0.334 Goal=   None    Shift=    0.000
 RMSDP=5.22D-08 MaxDP=2.62D-06 DE=-3.40D-10 OVMax= 3.42D-06

 Cycle  13  Pass 1  IDiag  1:
 RMSU=  3.27D-08    CP:  6.59D-01  9.67D-01  9.04D-01  1.17D+00  1.53D+00
                    CP:  1.84D+00  1.59D+00  1.46D+00  1.23D+00  1.42D+00
                    CP:  1.35D+00  1.19D+00
 E= -700.812129080149     Delta-E=       -0.000000000040 Rises=F Damp=F
 DIIS: error= 8.07D-08 at cycle  13 NSaved=  13.
 NSaved=13 IEnMin=13 EnMin= -700.812129080149     IErMin=13 ErrMin= 8.07D-08
 ErrMax= 8.07D-08  0.00D+00 EMaxC= 1.00D-01 BMatC= 3.04D-12 BMatP= 1.65D-11
 IDIUse=1 WtCom= 1.00D+00 WtEn= 0.00D+00
 Coeff-Com: -0.192D-06-0.974D-06-0.359D-05 0.256D-04 0.116D-03-0.114D-03
 Coeff-Com: -0.930D-03 0.140D-02 0.108D-01-0.158D-01-0.133D+00 0.213D+00
 Coeff-Com:  0.924D+00
 Coeff:     -0.192D-06-0.974D-06-0.359D-05 0.256D-04 0.116D-03-0.114D-03
 Coeff:     -0.930D-03 0.140D-02 0.108D-01-0.158D-01-0.133D+00 0.213D+00
 Coeff:      0.924D+00
 Gap=     0.334 Goal=   None    Shift=    0.000
 RMSDP=2.11D-08 MaxDP=8.77D-07 DE=-4.02D-11 OVMax= 1.19D-06

 Cycle  14  Pass 1  IDiag  1:
 RMSU=  1.21D-08    CP:  6.59D-01  9.67D-01  9.04D-01  1.17D+00  1.53D+00
                    CP:  1.84D+00  1.59D+00  1.46D+00  1.23D+00  1.43D+00
                    CP:  1.37D+00  1.35D+00  1.07D+00
 E= -700.812129080150     Delta-E=       -0.000000000001 Rises=F Damp=F
 DIIS: error= 3.07D-08 at cycle  14 NSaved=  14.
 NSaved=14 IEnMin=14 EnMin= -700.812129080150     IErMin=14 ErrMin= 3.07D-08
 ErrMax= 3.07D-08  0.00D+00 EMaxC= 1.00D-01 BMatC= 2.86D-13 BMatP= 3.04D-12
 IDIUse=1 WtCom= 1.00D+00 WtEn= 0.00D+00
 Coeff-Com:  0.405D-06-0.233D-05-0.107D-04-0.140D-04 0.543D-04 0.245D-03
 Coeff-Com: -0.386D-03-0.132D-02 0.374D-02 0.117D-01-0.454D-01-0.690D-01
 Coeff-Com:  0.837D-01 0.102D+01
 Coeff:      0.405D-06-0.233D-05-0.107D-04-0.140D-04 0.543D-04 0.245D-03
 Coeff:     -0.386D-03-0.132D-02 0.374D-02 0.117D-01-0.454D-01-0.690D-01
 Coeff:      0.837D-01 0.102D+01
 Gap=     0.334 Goal=   None    Shift=    0.000
 RMSDP=7.79D-09 MaxDP=2.81D-07 DE=-1.36D-12 OVMax= 6.12D-07

 SCF Done:  E(RHF) =  -700.812129080     A.U. after   14 cycles
            NFock= 14  Conv=0.78D-08     -V/T= 2.0008
 KE= 7.002765666759D+02 PE=-2.514800012023D+03 EE= 6.776112753757D+02
 Leave Link  502 at Sun Jul 11 16:29:11 2021, MaxMem=   262144000 cpu:             197.6 elap:              49.4
 (Enter /prod/apps/gaussian/g16b1/l801.exe)
 ExpMin= 2.97D-02 ExpMax= 1.11D+05 ExpMxC= 1.07D+03 IAcc=3 IRadAn=         5 AccDes= 0.00D+00
 HarFok:  IExCor=  205 AccDes= 0.00D+00 IRadAn=         5 IDoV=-2 UseB2=F ITyADJ=14
 ICtDFT= 12500011 ScaDFX=  1.000000  1.000000  1.000000  1.000000
 Largest valence mixing into a core orbital is  3.19D-04
 Largest core mixing into a valence orbital is  8.79D-05
 Range of M.O.s used for correlation:    13   269
 NBasis=   269 NAE=    34 NBE=    34 NFC=    12 NFV=     0
 NROrb=    257 NOA=    22 NOB=    22 NVA=   235 NVB=   235

 **** Warning!!: The largest alpha MO coefficient is  0.66712399D+02

 Leave Link  801 at Sun Jul 11 16:29:11 2021, MaxMem=   262144000 cpu:               0.5 elap:               0.1
 (Enter /prod/apps/gaussian/g16b1/l906.exe)
 FulOut=F Deriv=F AODrv=F NAtomX=    17
   MMem=          42  MDisk=          22 MDiskD=          22
  W3Min=     1473450 MinDsk=     1955505 NBas6D=         285
 NBas2D=       41124    NTT=       40755    LW2=     2000000
    MDV=   261540373 MDiskM=       12648 NBas2p=       39963
 Fully direct method using O(OVN) memory.
 IMap=   1   2   3   4   5   6   7   8   9  10  11  12  13  14  15  16  17  18  19  20
 IMap=  21  22
 JobTyp=1 Pass  1:  I=   1 to  22 NPSUse=  4 ParTrn=T ParDer=T DoDerP=F.
 Spin components of T(2) and E(2):
     alpha-alpha T2 =       0.5954411637D-01 E2=     -0.1544614389D+00
     alpha-beta  T2 =       0.3178058835D+00 E2=     -0.8816324763D+00
     beta-beta   T2 =       0.5954411637D-01 E2=     -0.1544614389D+00
 The integrals were generated   1 times.
 ANorm=    0.1198705183D+01
 E2 =    -0.1190555354D+01 EUMP2 =    -0.70200268443431D+03
 Leave Link  906 at Sun Jul 11 16:29:30 2021, MaxMem=   262144000 cpu:              76.0 elap:              19.0
 (Enter /prod/apps/gaussian/g16b1/l601.exe)
 Copying SCF densities to generalized density rwf, IOpCl= 0 IROHF=0.

 **********************************************************************

            Population analysis using the SCF Density.

 **********************************************************************

 Orbital symmetries:
       Occupied  (A) (A) (A) (A) (A) (A) (A) (A) (A) (A) (A) (A)
                 (A) (A) (A) (A) (A) (A) (A) (A) (A) (A) (A) (A)
                 (A) (A) (A) (A) (A) (A) (A) (A) (A) (A)
       Virtual   (A) (A) (A) (A) (A) (A) (A) (A) (A) (A) (A) (A)
                 (A) (A) (A) (A) (A) (A) (A) (A) (A) (A) (A) (A)
                 (A) (A) (A) (A) (A) (A) (A) (A) (A) (A) (A) (A)
                 (A) (A) (A) (A) (A) (A) (A) (A) (A) (A) (A) (A)
                 (A) (A) (A) (A) (A) (A) (A) (A) (A) (A) (A) (A)
                 (A) (A) (A) (A) (A) (A) (A) (A) (A) (A) (A) (A)
                 (A) (A) (A) (A) (A) (A) (A) (A) (A) (A) (A) (A)
                 (A) (A) (A) (A) (A) (A) (A) (A) (A) (A) (A) (A)
                 (A) (A) (A) (A) (A) (A) (A) (A) (A) (A) (A) (A)
                 (A) (A) (A) (A) (A) (A) (A) (A) (A) (A) (A) (A)
                 (A) (A) (A) (A) (A) (A) (A) (A) (A) (A) (A) (A)
                 (A) (A) (A) (A) (A) (A) (A) (A) (A) (A) (A) (A)
                 (A) (A) (A) (A) (A) (A) (A) (A) (A) (A) (A) (A)
                 (A) (A) (A) (A) (A) (A) (A) (A) (A) (A) (A) (A)
                 (A) (A) (A) (A) (A) (A) (A) (A) (A) (A) (A) (A)
                 (A) (A) (A) (A) (A) (A) (A) (A) (A) (A) (A) (A)
                 (A) (A) (A) (A) (A) (A) (A) (A) (A) (A) (A) (A)
                 (A) (A) (A) (A) (A) (A) (A) (A) (A) (A) (A) (A)
                 (A) (A) (A) (A) (A) (A) (A) (A) (A) (A) (A) (A)
                 (A) (A) (A) (A) (A) (A) (A)
 The electronic state is 1-A.
 Alpha  occ. eigenvalues --  -92.11421 -15.90803 -15.70279 -11.48745 -11.44686
 Alpha  occ. eigenvalues --  -11.42610 -11.38577 -11.38428  -9.11623  -6.79770
 Alpha  occ. eigenvalues --   -6.79686  -6.79509  -1.51505  -1.40406  -1.24164
 Alpha  occ. eigenvalues --   -1.18134  -1.12612  -1.05385  -0.97301  -0.96396
 Alpha  occ. eigenvalues --   -0.91428  -0.86917  -0.84682  -0.80525  -0.79622
 Alpha  occ. eigenvalues --   -0.73538  -0.71961  -0.69512  -0.66561  -0.66049
 Alpha  occ. eigenvalues --   -0.61668  -0.54931  -0.50439  -0.45171
 Alpha virt. eigenvalues --   -0.11742  -0.07957  -0.07875  -0.06301  -0.03941
 Alpha virt. eigenvalues --   -0.03621  -0.03518  -0.02915  -0.02245  -0.02113
 Alpha virt. eigenvalues --   -0.01492  -0.01084   0.00775   0.01340   0.01447
 Alpha virt. eigenvalues --    0.02546   0.03176   0.03563   0.03800   0.04059
 Alpha virt. eigenvalues --    0.04826   0.04972   0.06037   0.06428   0.07027
 Alpha virt. eigenvalues --    0.07296   0.07417   0.08068   0.08490   0.09059
 Alpha virt. eigenvalues --    0.10165   0.10772   0.11177   0.11817   0.12386
 Alpha virt. eigenvalues --    0.12559   0.13018   0.13557   0.14581   0.15034
 Alpha virt. eigenvalues --    0.15947   0.16559   0.17747   0.18685   0.19417
 Alpha virt. eigenvalues --    0.20542   0.20666   0.22399   0.22878   0.24077
 Alpha virt. eigenvalues --    0.24601   0.25649   0.26132   0.28205   0.28399
 Alpha virt. eigenvalues --    0.28759   0.29706   0.30480   0.30924   0.31692
 Alpha virt. eigenvalues --    0.32161   0.33264   0.33445   0.33939   0.35108
 Alpha virt. eigenvalues --    0.35586   0.36046   0.37599   0.37922   0.38575
 Alpha virt. eigenvalues --    0.39435   0.39983   0.41215   0.41244   0.42433
 Alpha virt. eigenvalues --    0.44154   0.44502   0.45219   0.45583   0.46327
 Alpha virt. eigenvalues --    0.47232   0.47771   0.48431   0.49097   0.50625
 Alpha virt. eigenvalues --    0.51042   0.52761   0.53786   0.54746   0.56111
 Alpha virt. eigenvalues --    0.56955   0.57520   0.58217   0.58746   0.59239
 Alpha virt. eigenvalues --    0.59544   0.60440   0.61405   0.62920   0.63293
 Alpha virt. eigenvalues --    0.64531   0.65336   0.65873   0.67304   0.68990
 Alpha virt. eigenvalues --    0.69776   0.70363   0.71432   0.71968   0.73313
 Alpha virt. eigenvalues --    0.74102   0.75446   0.76032   0.77301   0.78049
 Alpha virt. eigenvalues --    0.79469   0.81075   0.82375   0.82603   0.84168
 Alpha virt. eigenvalues --    0.87472   0.88222   0.89259   0.90567   0.91095
 Alpha virt. eigenvalues --    0.92375   0.93665   0.97409   0.98542   0.99569
 Alpha virt. eigenvalues --    1.01548   1.02868   1.05062   1.06227   1.07823
 Alpha virt. eigenvalues --    1.10815   1.11704   1.12085   1.12807   1.13163
 Alpha virt. eigenvalues --    1.16957   1.18776   1.19604   1.20486   1.23516
 Alpha virt. eigenvalues --    1.25650   1.28339   1.30520   1.31621   1.36168
 Alpha virt. eigenvalues --    1.39044   1.42464   1.43750   1.44746   1.47159
 Alpha virt. eigenvalues --    1.50179   1.52257   1.52451   1.54848   1.56581
 Alpha virt. eigenvalues --    1.57888   1.61870   1.62937   1.63753   1.66182
 Alpha virt. eigenvalues --    1.66876   1.67927   1.69269   1.71556   1.72991
 Alpha virt. eigenvalues --    1.73231   1.77762   1.78182   1.80565   1.83480
 Alpha virt. eigenvalues --    1.85352   1.88769   1.89310   1.90342   1.90989
 Alpha virt. eigenvalues --    1.94602   1.97681   1.99172   2.00209   2.01224
 Alpha virt. eigenvalues --    2.03704   2.04219   2.04426   2.07387   2.08617
 Alpha virt. eigenvalues --    2.09307   2.11125   2.16004   2.17548   2.17602
 Alpha virt. eigenvalues --    2.20419   2.22722   2.28189   2.29667   2.30528
 Alpha virt. eigenvalues --    2.31280   2.32868   2.36660   2.37429   2.40349
 Alpha virt. eigenvalues --    2.44186   2.46355   2.48592   2.51423   2.52133
 Alpha virt. eigenvalues --    2.54287   2.56479   2.59936   2.61029   2.66353
 Alpha virt. eigenvalues --    2.68405   2.69047   2.74158   2.78373   2.79467
 Alpha virt. eigenvalues --    2.83162   2.83537   2.83681   2.88031   2.88845
 Alpha virt. eigenvalues --    2.97435   3.02130   3.05996   3.14409   3.25044
 Alpha virt. eigenvalues --    3.28093   3.34066   3.35320   3.47265   3.66606
          Condensed to atoms (all electrons):
               1          2          3          4          5          6
     1  N    6.656722   0.396673   0.443913  -0.149966  -0.126866  -0.135745
     2  H    0.396673   0.516296  -0.061711  -0.027723   0.018422  -0.023494
     3  H    0.443913  -0.061711   0.581802  -0.057251  -0.027205  -0.030590
     4  C   -0.149966  -0.027723  -0.057251   4.632348   0.296033   0.268099
     5  H   -0.126866   0.018422  -0.027205   0.296033   1.157783  -0.128350
     6  H   -0.135745  -0.023494  -0.030590   0.268099  -0.128350   1.246775
     7  C   -0.087481  -0.018432   0.033142   0.617263  -0.093740  -0.058798
     8  H   -0.019074   0.007003   0.000732  -0.078392   0.076348  -0.069047
     9  H   -0.010738  -0.011950  -0.001404  -0.096348  -0.042390   0.065457
    10  C    0.155142   0.004487  -0.007187  -0.337503  -0.033230  -0.042309
    11  N    0.005521  -0.000506   0.000028   0.037903   0.015938  -0.003318
    12  C    0.008891   0.001752  -0.000336  -0.056956  -0.001906  -0.007552
    13  H    0.000205   0.000103  -0.000109  -0.003421  -0.000628   0.000305
    14  C    0.005410  -0.000486   0.000337   0.013352  -0.002938   0.006405
    15  H    0.000047  -0.000089   0.000006  -0.000643   0.000310   0.000083
    16  S    0.002459  -0.001276  -0.000472   0.034625   0.011498   0.015179
    17  H    0.410724  -0.046336  -0.059693  -0.033962  -0.029135   0.020493
               7          8          9         10         11         12
     1  N   -0.087481  -0.019074  -0.010738   0.155142   0.005521   0.008891
     2  H   -0.018432   0.007003  -0.011950   0.004487  -0.000506   0.001752
     3  H    0.033142   0.000732  -0.001404  -0.007187   0.000028  -0.000336
     4  C    0.617263  -0.078392  -0.096348  -0.337503   0.037903  -0.056956
     5  H   -0.093740   0.076348  -0.042390  -0.033230   0.015938  -0.001906
     6  H   -0.058798  -0.069047   0.065457  -0.042309  -0.003318  -0.007552
     7  C    5.594803   0.092184   0.260076  -0.385945   0.016924  -0.095042
     8  H    0.092184   1.207337  -0.084592  -0.026683  -0.000293  -0.014280
     9  H    0.260076  -0.084592   0.979755  -0.044983  -0.002709  -0.002719
    10  C   -0.385945  -0.026683  -0.044983   6.431228   0.256733  -0.163119
    11  N    0.016924  -0.000293  -0.002709   0.256733   7.544646   0.182650
    12  C   -0.095042  -0.014280  -0.002719  -0.163119   0.182650   5.072276
    13  H    0.008864  -0.000796  -0.000427   0.122315  -0.141032   0.303075
    14  C   -0.095800   0.004387   0.001969  -0.152304  -0.046569   0.318482
    15  H    0.022610   0.001961   0.001126   0.050655  -0.007955  -0.037404
    16  S   -0.083429   0.004140   0.016639   0.263957  -0.104376  -0.292140
    17  H   -0.025541  -0.009704   0.010054   0.004978   0.001463  -0.000906
              13         14         15         16         17
     1  N    0.000205   0.005410   0.000047   0.002459   0.410724
     2  H    0.000103  -0.000486  -0.000089  -0.001276  -0.046336
     3  H   -0.000109   0.000337   0.000006  -0.000472  -0.059693
     4  C   -0.003421   0.013352  -0.000643   0.034625  -0.033962
     5  H   -0.000628  -0.002938   0.000310   0.011498  -0.029135
     6  H    0.000305   0.006405   0.000083   0.015179   0.020493
     7  C    0.008864  -0.095800   0.022610  -0.083429  -0.025541
     8  H   -0.000796   0.004387   0.001961   0.004140  -0.009704
     9  H   -0.000427   0.001969   0.001126   0.016639   0.010054
    10  C    0.122315  -0.152304   0.050655   0.263957   0.004978
    11  N   -0.141032  -0.046569  -0.007955  -0.104376   0.001463
    12  C    0.303075   0.318482  -0.037404  -0.292140  -0.000906
    13  H    1.181552  -0.193356  -0.033286  -0.011043  -0.000003
    14  C   -0.193356   5.339977   0.279690   0.283670   0.000562
    15  H   -0.033286   0.279690   1.187929  -0.120103   0.000006
    16  S   -0.011043   0.283670  -0.120103  15.602263   0.001295
    17  H   -0.000003   0.000562   0.000006   0.001295   0.503449
 Mulliken charges:
               1
     1  N   -0.555837
     2  H    0.247267
     3  H    0.185997
     4  C    0.942541
     5  H   -0.089945
     6  H   -0.123593
     7  C    0.298342
     8  H   -0.091231
     9  H   -0.036815
    10  C   -0.096234
    11  N   -0.755049
    12  C    0.785233
    13  H   -0.232317
    14  C    0.237213
    15  H   -0.344943
    16  S    0.377116
    17  H    0.252255
 Sum of Mulliken charges =   1.00000
 Mulliken charges with hydrogens summed into heavy atoms:
               1
     1  N    0.129682
     4  C    0.729003
     7  C    0.170296
    10  C   -0.096234
    11  N   -0.755049
    12  C    0.552915
    14  C   -0.107730
    16  S    0.377116
 Electronic spatial extent (au):  <R**2>=           1384.6558
 Charge=              1.0000 electrons
 Dipole moment (field-independent basis, Debye):
    X=            -13.0862    Y=             -1.0339    Z=             -1.0375  Tot=             13.1679
 Quadrupole moment (field-independent basis, Debye-Ang):
   XX=             12.9831   YY=            -52.5885   ZZ=            -52.5956
   XY=              0.7776   XZ=              0.0558   YZ=             -0.7393
 Traceless Quadrupole moment (field-independent basis, Debye-Ang):
   XX=             43.7168   YY=            -21.8549   ZZ=            -21.8619
   XY=              0.7776   XZ=              0.0558   YZ=             -0.7393
 Octapole moment (field-independent basis, Debye-Ang**2):
  XXX=           -197.5602  YYY=             -3.2708  ZZZ=             -1.6116  XYY=            -10.9359
  XXY=              2.6732  XXZ=            -19.2279  XZZ=            -22.9280  YZZ=             -0.2564
  YYZ=             -1.8077  XYZ=             -0.0657
 Hexadecapole moment (field-independent basis, Debye-Ang**3):
 XXXX=           -397.2013 YYYY=           -307.4777 ZZZZ=           -122.8651 XXXY=             -2.9485
 XXXZ=             19.3707 YYYX=             13.6009 YYYZ=             -5.6610 ZZZX=             12.9846
 ZZZY=              1.4306 XXYY=           -215.0013 XXZZ=           -215.1310 YYZZ=            -71.8152
 XXYZ=              2.1445 YYXZ=             -7.7267 ZZXY=             -3.1588
 N-N= 4.361000408917D+02 E-N=-2.514800011136D+03  KE= 7.002765666759D+02
 Leave Link  601 at Sun Jul 11 16:29:30 2021, MaxMem=   262144000 cpu:               0.2 elap:               0.1
 (Enter /prod/apps/gaussian/g16b1/l9999.exe)
 1\1\GINC-PIRINEUS37\SP\RMP2-FC\Aug-CC-pVDZ\C5H9N2S1(1+)\UBATOR02\11-Ju
 l-2021\0\\#p mp2/aug-cc-pVDZ scf=tight maxdisk=180GB geom=allcheck\\SE
 T_328_BBB87_conf1.geo_180_090 geometry\\1,1\N,0,-1.2690256988,1.891443
 1678,-1.9990328228\H,0,-2.143102853,2.1824759921,-1.5307583297\H,0,-1.
 4984352786,1.6905777924,-2.9860421171\C,0,-0.6570439536,0.6924103708,-
 1.3351062293\H,0,0.2557066099,0.4579477279,-1.8823880036\H,0,-1.364774
 4161,-0.1269386417,-1.4526723543\C,0,-0.3629315978,0.9803876458,0.1412
 29216\H,0,-1.2925482045,1.2125730556,0.6671985314\H,0,0.2968983606,1.8
 498558893,0.2232592546\C,0,0.3251764664,-0.1874888302,0.7918437155\N,0
 ,1.6113748575,-0.4045599201,0.7252268079\C,0,1.956322372,-1.5648666488
 ,1.3836168536\H,0,2.9954507876,-1.8657905892,1.416335979\C,0,0.9292324
 641,-2.251275116,1.9611544638\H,0,0.9648272446,-3.1699641733,2.5277694
 502\S,0,-0.5594319214,-1.4161826357,1.6800667003\H,0,-0.6246952389,2.7
 023949133,-1.9897011155\\Version=ES64L-G16RevB.01\State=1-A\HF=-700.81
 21291\MP2=-702.0026844\RMSD=7.792e-09\PG=C01 [X(C5H9N2S1)]\\@


 SIC AS THE CAWSE OF EWERY THING IS, SIC WILBE THE EFFECT.
 -- PROVERBS AND REASONS OF THE YEAR 1585
           AS REPRINTED IN PAISLEY MAGAZINE 1828.
 Job cpu time:       0 days  0 hours  4 minutes 39.9 seconds.
 Elapsed time:       0 days  0 hours  1 minutes 10.2 seconds.
 File lengths (MBytes):  RWF=     43 Int=      0 D2E=      0 Chk=      8 Scr=      1
 Normal termination of Gaussian 16 at Sun Jul 11 16:29:30 2021.
