 Entering Gaussian System, Link 0=g16
 Initial command:
 /prod/apps/gaussian/g16b1/l1.exe "/tmp/ubator02/1834607/Gau-12484.inp" -scrdir="/tmp/ubator02/1834607/"
 Entering Link 1 = /prod/apps/gaussian/g16b1/l1.exe PID=     12485.
  
 Copyright (c) 1988-2017, Gaussian, Inc.  All Rights Reserved.
  
 This is part of the Gaussian(R) 16 program.  It is based on
 the Gaussian(R) 09 system (copyright 2009, Gaussian, Inc.),
 the Gaussian(R) 03 system (copyright 2003, Gaussian, Inc.),
 the Gaussian(R) 98 system (copyright 1998, Gaussian, Inc.),
 the Gaussian(R) 94 system (copyright 1995, Gaussian, Inc.),
 the Gaussian 92(TM) system (copyright 1992, Gaussian, Inc.),
 the Gaussian 90(TM) system (copyright 1990, Gaussian, Inc.),
 the Gaussian 88(TM) system (copyright 1988, Gaussian, Inc.),
 the Gaussian 86(TM) system (copyright 1986, Carnegie Mellon
 University), and the Gaussian 82(TM) system (copyright 1983,
 Carnegie Mellon University). Gaussian is a federally registered
 trademark of Gaussian, Inc.
  
 This software contains proprietary and confidential information,
 including trade secrets, belonging to Gaussian, Inc.
  
 This software is provided under written license and may be
 used, copied, transmitted, or stored only in accord with that
 written license.
  
 The following legend is applicable only to US Government
 contracts under FAR:
  
                    RESTRICTED RIGHTS LEGEND
  
 Use, reproduction and disclosure by the US Government is
 subject to restrictions as set forth in subparagraphs (a)
 and (c) of the Commercial Computer Software - Restricted
 Rights clause in FAR 52.227-19.
  
 Gaussian, Inc.
 340 Quinnipiac St., Bldg. 40, Wallingford CT 06492
  
  
 ---------------------------------------------------------------
 Warning -- This program may not be used in any manner that
 competes with the business of Gaussian, Inc. or will provide
 assistance to any competitor of Gaussian, Inc.  The licensee
 of this program is prohibited from giving any competitor of
 Gaussian, Inc. access to this program.  By using this program,
 the user acknowledges that Gaussian, Inc. is engaged in the
 business of creating and licensing software in the field of
 computational chemistry and represents and warrants to the
 licensee that it is not a competitor of Gaussian, Inc. and that
 it will not use this program in any manner prohibited above.
 ---------------------------------------------------------------
  

 Cite this work as:
 Gaussian 16, Revision B.01,
 M. J. Frisch, G. W. Trucks, H. B. Schlegel, G. E. Scuseria, 
 M. A. Robb, J. R. Cheeseman, G. Scalmani, V. Barone, 
 G. A. Petersson, H. Nakatsuji, X. Li, M. Caricato, A. V. Marenich, 
 J. Bloino, B. G. Janesko, R. Gomperts, B. Mennucci, H. P. Hratchian, 
 J. V. Ortiz, A. F. Izmaylov, J. L. Sonnenberg, D. Williams-Young, 
 F. Ding, F. Lipparini, F. Egidi, J. Goings, B. Peng, A. Petrone, 
 T. Henderson, D. Ranasinghe, V. G. Zakrzewski, J. Gao, N. Rega, 
 G. Zheng, W. Liang, M. Hada, M. Ehara, K. Toyota, R. Fukuda, 
 J. Hasegawa, M. Ishida, T. Nakajima, Y. Honda, O. Kitao, H. Nakai, 
 T. Vreven, K. Throssell, J. A. Montgomery, Jr., J. E. Peralta, 
 F. Ogliaro, M. J. Bearpark, J. J. Heyd, E. N. Brothers, K. N. Kudin, 
 V. N. Staroverov, T. A. Keith, R. Kobayashi, J. Normand, 
 K. Raghavachari, A. P. Rendell, J. C. Burant, S. S. Iyengar, 
 J. Tomasi, M. Cossi, J. M. Millam, M. Klene, C. Adamo, R. Cammi, 
 J. W. Ochterski, R. L. Martin, K. Morokuma, O. Farkas, 
 J. B. Foresman, and D. J. Fox, Gaussian, Inc., Wallingford CT, 2016.
 
 ******************************************
 Gaussian 16:  ES64L-G16RevB.01 20-Dec-2017
                11-Jul-2021 
 ******************************************
 %mem=800MB
 %nproc=4
 Will use up to    4 processors via shared memory.
 %chk=SET_328_BBB87_conf1.geo_075_240.chk
 -----------------------------------------------------------
 #p b3lyp/6-31G(d) opt freq scrf=(iefpcm,read,solvent=water)
 -----------------------------------------------------------
 1/18=20,19=15,26=3,38=1,40=2/1,3;
 2/9=110,12=2,17=6,18=5,40=1/2;
 3/5=1,6=6,7=1,11=2,25=1,30=1,70=2203,71=1,72=1,74=-5/1,2,3;
 4//1;
 5/5=2,38=5,53=1/2;
 6/7=2,8=2,9=2,10=2,28=1/1;
 7//1,2,3,16;
 1/18=20,19=15,26=3/3(2);
 2/9=110/2;
 99//99;
 2/9=110/2;
 3/5=1,6=6,7=1,11=2,25=1,30=1,70=2205,71=1,72=1,74=-5/1,2,3;
 4/5=5,16=3,69=1/1;
 5/5=2,38=5,53=1/2;
 7//1,2,3,16;
 1/18=20,19=15,26=3/3(-5);
 2/9=110/2;
 6/7=2,8=2,9=2,10=2,19=2,28=1/1;
 99/9=1/99;
 Leave Link    1 at Sun Jul 11 16:21:08 2021, MaxMem=   104857600 cpu:               0.1 elap:               0.0
 (Enter /prod/apps/gaussian/g16b1/l101.exe)
 ----------------------------------------
 SET_328_BBB87_conf1.geo_075_240 geometry
 ----------------------------------------
 Symbolic Z-matrix:
 Charge =  1 Multiplicity = 1
 N                     1.301     2.008    -0.479 
 H                     1.662     1.208    -0.001 
 H                     1.428     2.821     0.089 
 C                    -0.109     1.818    -0.74 
 H                    -0.416     2.524    -1.516 
 H                    -0.653     2.109     0.163 
 C                    -0.367     0.389    -1.231 
 H                     0.215     0.192    -2.135 
 H                    -1.386     0.322    -1.617 
 C                    -0.276    -0.577    -0.111 
 N                     0.595    -1.594    -0.072 
 C                     0.438    -2.411     0.994 
 H                     1.154    -3.198     1.193 
 C                    -0.687    -2.123     1.713 
 H                    -1.119    -2.659     2.549 
 S                    -1.588    -0.82      1.047 
 H                     1.787     2.127    -1.345 
 
 ITRead=  0  0  0  0  0  0  0  0  0  0  0  0  0  0  0  0  0
 MicOpt= -1 -1 -1 -1 -1 -1 -1 -1 -1 -1 -1 -1 -1 -1 -1 -1 -1
 NAtoms=     17 NQM=       17 NQMF=       0 NMMI=      0 NMMIF=      0
                NMic=       0 NMicF=      0.
                    Isotopes and Nuclear Properties:
 (Nuclear quadrupole moments (NQMom) in fm**2, nuclear magnetic moments (NMagM)
  in nuclear magnetons)

  Atom         1           2           3           4           5           6           7           8           9          10
 IAtWgt=          14           1           1          12           1           1          12           1           1          12
 AtmWgt=  14.0030740   1.0078250   1.0078250  12.0000000   1.0078250   1.0078250  12.0000000   1.0078250   1.0078250  12.0000000
 NucSpn=           2           1           1           0           1           1           0           1           1           0
 AtZEff=  -0.0000000  -0.0000000  -0.0000000  -0.0000000  -0.0000000  -0.0000000  -0.0000000  -0.0000000  -0.0000000  -0.0000000
 NQMom=    2.0440000   0.0000000   0.0000000   0.0000000   0.0000000   0.0000000   0.0000000   0.0000000   0.0000000   0.0000000
 NMagM=    0.4037610   2.7928460   2.7928460   0.0000000   2.7928460   2.7928460   0.0000000   2.7928460   2.7928460   0.0000000
 AtZNuc=   7.0000000   1.0000000   1.0000000   6.0000000   1.0000000   1.0000000   6.0000000   1.0000000   1.0000000   6.0000000

  Atom        11          12          13          14          15          16          17
 IAtWgt=          14          12           1          12           1          32           1
 AtmWgt=  14.0030740  12.0000000   1.0078250  12.0000000   1.0078250  31.9720718   1.0078250
 NucSpn=           2           0           1           0           1           0           1
 AtZEff=  -0.0000000  -0.0000000  -0.0000000  -0.0000000  -0.0000000  -0.0000000  -0.0000000
 NQMom=    2.0440000   0.0000000   0.0000000   0.0000000   0.0000000   0.0000000   0.0000000
 NMagM=    0.4037610   0.0000000   2.7928460   0.0000000   2.7928460   0.0000000   2.7928460
 AtZNuc=   7.0000000   6.0000000   1.0000000   6.0000000   1.0000000  16.0000000   1.0000000
 Leave Link  101 at Sun Jul 11 16:21:08 2021, MaxMem=   104857600 cpu:               0.5 elap:               0.1
 (Enter /prod/apps/gaussian/g16b1/l103.exe)

 GradGradGradGradGradGradGradGradGradGradGradGradGradGradGradGradGradGrad
 Berny optimization.
 Initialization pass.
                           ----------------------------
                           !    Initial Parameters    !
                           ! (Angstroms and Degrees)  !
 --------------------------                            --------------------------
 ! Name  Definition              Value          Derivative Info.                !
 --------------------------------------------------------------------------------
 ! R1    R(1,2)                  0.9994         estimate D2E/DX2                !
 ! R2    R(1,3)                  0.9999         estimate D2E/DX2                !
 ! R3    R(1,4)                  1.4465         estimate D2E/DX2                !
 ! R4    R(1,17)                 1.0002         estimate D2E/DX2                !
 ! R5    R(4,5)                  1.0931         estimate D2E/DX2                !
 ! R6    R(4,6)                  1.0936         estimate D2E/DX2                !
 ! R7    R(4,7)                  1.5329         estimate D2E/DX2                !
 ! R8    R(7,8)                  1.093          estimate D2E/DX2                !
 ! R9    R(7,9)                  1.0917         estimate D2E/DX2                !
 ! R10   R(7,10)                 1.4818         estimate D2E/DX2                !
 ! R11   R(10,11)                1.3396         estimate D2E/DX2                !
 ! R12   R(10,16)                1.7667         estimate D2E/DX2                !
 ! R13   R(11,12)                1.3522         estimate D2E/DX2                !
 ! R14   R(12,13)                1.0824         estimate D2E/DX2                !
 ! R15   R(12,14)                1.3658         estimate D2E/DX2                !
 ! R16   R(14,15)                1.083          estimate D2E/DX2                !
 ! R17   R(14,16)                1.7185         estimate D2E/DX2                !
 ! A1    A(2,1,3)              109.4689         estimate D2E/DX2                !
 ! A2    A(2,1,4)              109.4668         estimate D2E/DX2                !
 ! A3    A(2,1,17)             109.5026         estimate D2E/DX2                !
 ! A4    A(3,1,4)              109.4583         estimate D2E/DX2                !
 ! A5    A(3,1,17)             109.4761         estimate D2E/DX2                !
 ! A6    A(4,1,17)             109.4547         estimate D2E/DX2                !
 ! A7    A(1,4,5)              108.4832         estimate D2E/DX2                !
 ! A8    A(1,4,6)              107.5142         estimate D2E/DX2                !
 ! A9    A(1,4,7)              110.14           estimate D2E/DX2                !
 ! A10   A(5,4,6)              105.9384         estimate D2E/DX2                !
 ! A11   A(5,4,7)              109.1135         estimate D2E/DX2                !
 ! A12   A(6,4,7)              115.3923         estimate D2E/DX2                !
 ! A13   A(4,7,8)              110.0789         estimate D2E/DX2                !
 ! A14   A(4,7,9)              109.1212         estimate D2E/DX2                !
 ! A15   A(4,7,10)             110.8109         estimate D2E/DX2                !
 ! A16   A(8,7,9)              101.1577         estimate D2E/DX2                !
 ! A17   A(8,7,10)             118.3534         estimate D2E/DX2                !
 ! A18   A(9,7,10)             106.5319         estimate D2E/DX2                !
 ! A19   A(7,10,11)            123.8383         estimate D2E/DX2                !
 ! A20   A(7,10,16)            122.6467         estimate D2E/DX2                !
 ! A21   A(11,10,16)           111.0602         estimate D2E/DX2                !
 ! A22   A(10,11,12)           113.9639         estimate D2E/DX2                !
 ! A23   A(11,12,13)           120.4925         estimate D2E/DX2                !
 ! A24   A(11,12,14)           112.5335         estimate D2E/DX2                !
 ! A25   A(13,12,14)           126.9682         estimate D2E/DX2                !
 ! A26   A(12,14,15)           129.0922         estimate D2E/DX2                !
 ! A27   A(12,14,16)           112.8124         estimate D2E/DX2                !
 ! A28   A(15,14,16)           117.7298         estimate D2E/DX2                !
 ! A29   A(10,16,14)            88.221          estimate D2E/DX2                !
 ! D1    D(2,1,4,5)           -162.3997         estimate D2E/DX2                !
 ! D2    D(2,1,4,6)             83.4519         estimate D2E/DX2                !
 ! D3    D(2,1,4,7)            -43.0377         estimate D2E/DX2                !
 ! D4    D(3,1,4,5)             77.6138         estimate D2E/DX2                !
 ! D5    D(3,1,4,6)            -36.5346         estimate D2E/DX2                !
 ! D6    D(3,1,4,7)           -163.0242         estimate D2E/DX2                !
 ! D7    D(17,1,4,5)           -42.3742         estimate D2E/DX2                !
 ! D8    D(17,1,4,6)          -156.5225         estimate D2E/DX2                !
 ! D9    D(17,1,4,7)            76.9878         estimate D2E/DX2                !
 ! D10   D(1,4,7,8)            -58.2255         estimate D2E/DX2                !
 ! D11   D(1,4,7,9)           -168.3946         estimate D2E/DX2                !
 ! D12   D(1,4,7,10)            74.6075         estimate D2E/DX2                !
 ! D13   D(5,4,7,8)             60.7521         estimate D2E/DX2                !
 ! D14   D(5,4,7,9)            -49.417          estimate D2E/DX2                !
 ! D15   D(5,4,7,10)          -166.4149         estimate D2E/DX2                !
 ! D16   D(6,4,7,8)            179.8432         estimate D2E/DX2                !
 ! D17   D(6,4,7,9)             69.6741         estimate D2E/DX2                !
 ! D18   D(6,4,7,10)           -47.3237         estimate D2E/DX2                !
 ! D19   D(4,7,10,11)         -120.2508         estimate D2E/DX2                !
 ! D20   D(4,7,10,16)           79.1323         estimate D2E/DX2                !
 ! D21   D(8,7,10,11)            8.2447         estimate D2E/DX2                !
 ! D22   D(8,7,10,16)         -152.3723         estimate D2E/DX2                !
 ! D23   D(9,7,10,11)          121.1711         estimate D2E/DX2                !
 ! D24   D(9,7,10,16)          -39.4459         estimate D2E/DX2                !
 ! D25   D(7,10,11,12)        -175.2488         estimate D2E/DX2                !
 ! D26   D(16,10,11,12)        -12.6734         estimate D2E/DX2                !
 ! D27   D(7,10,16,14)         173.4714         estimate D2E/DX2                !
 ! D28   D(11,10,16,14)         10.6527         estimate D2E/DX2                !
 ! D29   D(10,11,12,13)       -172.8836         estimate D2E/DX2                !
 ! D30   D(10,11,12,14)          7.9322         estimate D2E/DX2                !
 ! D31   D(11,12,14,15)        173.4928         estimate D2E/DX2                !
 ! D32   D(11,12,14,16)          0.6912         estimate D2E/DX2                !
 ! D33   D(13,12,14,15)         -5.6274         estimate D2E/DX2                !
 ! D34   D(13,12,14,16)       -178.429          estimate D2E/DX2                !
 ! D35   D(12,14,16,10)         -6.3611         estimate D2E/DX2                !
 ! D36   D(15,14,16,10)        179.9469         estimate D2E/DX2                !
 --------------------------------------------------------------------------------
 Trust Radius=3.00D-01 FncErr=1.00D-07 GrdErr=1.00D-06 EigMax=2.50D+02 EigMin=1.00D-04
 Number of steps in this run=     92 maximum allowed number of steps=    102.
 GradGradGradGradGradGradGradGradGradGradGradGradGradGradGradGradGradGrad

 Leave Link  103 at Sun Jul 11 16:21:08 2021, MaxMem=   104857600 cpu:               0.1 elap:               0.0
 (Enter /prod/apps/gaussian/g16b1/l202.exe)
                          Input orientation:                          
 ---------------------------------------------------------------------
 Center     Atomic      Atomic             Coordinates (Angstroms)
 Number     Number       Type             X           Y           Z
 ---------------------------------------------------------------------
      1          7           0        1.301000    2.008000   -0.479000
      2          1           0        1.662000    1.208000   -0.001000
      3          1           0        1.428000    2.821000    0.089000
      4          6           0       -0.109000    1.818000   -0.740000
      5          1           0       -0.416000    2.524000   -1.516000
      6          1           0       -0.653000    2.109000    0.163000
      7          6           0       -0.367000    0.389000   -1.231000
      8          1           0        0.215000    0.192000   -2.135000
      9          1           0       -1.386000    0.322000   -1.617000
     10          6           0       -0.276000   -0.577000   -0.111000
     11          7           0        0.595000   -1.594000   -0.072000
     12          6           0        0.438000   -2.411000    0.994000
     13          1           0        1.154000   -3.198000    1.193000
     14          6           0       -0.687000   -2.123000    1.713000
     15          1           0       -1.119000   -2.659000    2.549000
     16         16           0       -1.588000   -0.820000    1.047000
     17          1           0        1.787000    2.127000   -1.345000
 ---------------------------------------------------------------------
                    Distance matrix (angstroms):
                    1          2          3          4          5
     1  N    0.000000
     2  H    0.999402   0.000000
     3  H    0.999861   1.632368   0.000000
     4  C    1.446486   2.013619   2.013857   0.000000
     5  H    2.071162   2.888800   2.462635   1.093097   0.000000
     6  H    2.059243   2.489563   2.200677   1.093630   1.745690
     7  C    2.443131   2.510080   3.298340   1.532869   2.154496
     8  H    2.686929   2.771285   3.650916   2.166766   2.493902
     9  H    3.370105   3.561847   4.132074   2.153572   2.408299
    10  C    3.050341   2.637076   3.806576   2.481845   3.407319
    11  N    3.693032   2.999122   4.495780   3.547335   4.479417
    12  C    4.737305   3.947830   5.401199   4.603304   5.602110
    13  H    5.469884   4.593097   6.125541   5.521948   6.522642
    14  C    5.081552   4.421669   5.617271   4.677903   5.665200
    15  H    6.066801   5.402791   6.524508   5.646340   6.624343
    16  S    4.321178   3.971598   4.823992   3.512813   4.373201
    17  H    1.000156   1.632949   1.633056   2.014031   2.245008
                    6          7          8          9         10
     6  H    0.000000
     7  C    2.232360   0.000000
     8  H    3.115946   1.093046   0.000000
     9  H    2.626606   1.091717   1.687728   0.000000
    10  C    2.726133   1.481836   2.220139   2.075653   0.000000
    11  N    3.914708   2.490184   2.755025   3.159500   1.339571
    12  C    4.723478   3.665876   4.076270   4.196854   2.257073
    13  H    5.700035   4.588658   4.842459   5.170890   3.258060
    14  C    4.507048   3.883256   4.580386   4.189932   2.426111
    15  H    5.352007   4.913676   5.643369   5.129640   3.481519
    16  S    3.199175   2.853385   3.794743   2.905489   1.766736
    17  H    2.868447   2.770082   2.615245   3.660593   3.618058
                   11         12         13         14         15
    11  N    0.000000
    12  C    1.352218   0.000000
    13  H    2.117905   1.082417   0.000000
    14  C    2.260440   1.365844   2.194381   0.000000
    15  H    3.307818   2.214448   2.701071   1.082966   0.000000
    16  S    2.572300   2.576580   3.632460   1.718478   2.420307
    17  H    4.109408   5.280546   5.932770   5.790901   6.820108
                   16         17
    16  S    0.000000
    17  H    5.079084   0.000000
 Stoichiometry    C5H9N2S(1+)
 Framework group  C1[X(C5H9N2S)]
 Deg. of freedom    45
 Full point group                 C1      NOp   1
 Largest Abelian subgroup         C1      NOp   1
 Largest concise Abelian subgroup C1      NOp   1
                         Standard orientation:                         
 ---------------------------------------------------------------------
 Center     Atomic      Atomic             Coordinates (Angstroms)
 Number     Number       Type             X           Y           Z
 ---------------------------------------------------------------------
      1          7           0        2.691499    0.624621   -0.764912
      2          1           0        1.892258    1.186594   -0.975162
      3          1           0        3.143632    0.356765   -1.615531
      4          6           0        2.272813   -0.559920   -0.048054
      5          1           0        3.147165   -0.995006    0.442934
      6          1           0        1.947579   -1.295398   -0.789216
      7          6           0        1.231054   -0.192959    1.014849
      8          1           0        1.646096    0.542381    1.708942
      9          1           0        1.080066   -1.047289    1.677548
     10          6           0       -0.081514    0.092451    0.389113
     11          7           0       -0.719804    1.265274    0.496461
     12          6           0       -1.948780    1.275342   -0.067464
     13          1           0       -2.510446    2.197462   -0.143968
     14          6           0       -2.347394    0.034485   -0.476009
     15          1           0       -3.306605   -0.279884   -0.868314
     16         16           0       -1.182955   -1.183738   -0.139588
     17          1           0        3.328597    1.148522   -0.199274
 ---------------------------------------------------------------------
 Rotational constants (GHZ):           3.4000933           1.1367020           0.9853749
 Leave Link  202 at Sun Jul 11 16:21:08 2021, MaxMem=   104857600 cpu:               0.0 elap:               0.0
 (Enter /prod/apps/gaussian/g16b1/l301.exe)
 Standard basis: 6-31G(d) (6D, 7F)
 Ernie: Thresh=  0.10000D-02 Tol=  0.10000D-05 Strict=F.
 There are   142 symmetry adapted cartesian basis functions of A   symmetry.
 There are   142 symmetry adapted basis functions of A   symmetry.
   142 basis functions,   284 primitive gaussians,   142 cartesian basis functions
    34 alpha electrons       34 beta electrons
       nuclear repulsion energy       446.2341064857 Hartrees.
 IExCor=  402 DFT=T Ex+Corr=B3LYP ExCW=0 ScaHFX=  0.200000
 ScaDFX=  0.800000  0.720000  1.000000  0.810000 ScalE2=  1.000000  1.000000
 IRadAn=      5 IRanWt=     -1 IRanGd=            0 ICorTp=0 IEmpDi=  4
 NAtoms=   17 NActive=   17 NUniq=   17 SFac= 1.00D+00 NAtFMM=   60 NAOKFM=F Big=F
 Integral buffers will be    131072 words long.
 Raffenetti 2 integral format.
 Two-electron integral symmetry is turned on.
 Using the following non-standard input for PCM:
 MSTModel=DFT cav MSTCharged
 --- end of non-standard input.
 MST model for solvation energy: B3LYP parametrization.
 MST cavity parameters:
 ISph   IAn     Re0     Alpha   Atom Type   QCorr
 ------------------------------------------------
   1      7     1.70     1.15      NH         T
   2      1     0.90     1.15      NH         T
   3      1     0.90     1.15      NH         T
   4      6     1.50     1.25      CH2        F
   5      1     1.20     1.25      CH2        F
   6      1     1.20     1.25      CH2        F
   7      6     1.50     1.25      CH2        F
   8      1     1.20     1.25      CH2        F
   9      1     1.20     1.25      CH2        F
  10      6     1.50     1.25      C          F
  11      7     1.40     1.25      N          F
  12      6     1.50     1.25      CH         F
  13      1     1.20     1.25      CH         F
  14      6     1.50     1.25      CH         F
  15      1     1.20     1.25      CH         F
  16     16     1.75     1.25      S          F
  17      1     0.90     1.15      NH         T
 ------------------------------------------------------------------------------
 Polarizable Continuum Model (PCM)
 =================================
 Model                : PCM.
 Atomic radii         : MST.
 Polarization charges : Total charges.
 Charge compensation  : None.
 Solution method      : On-the-fly selection.
 Cavity type          : Scaled VdW (van der Waals Surface) (Alpha=1.250).
 Cavity algorithm     : GePol (No added spheres)
                        Default sphere list used, NSphG=   17.
                        Lebedev-Laikov grids with approx.  5.0 points / Ang**2.
                        Smoothing algorithm: York/Karplus (Gamma=1.0000).
                        Polarization charges: spherical gaussians, with
                                              point-specific exponents (IZeta= 3).
                        Self-potential: point-specific (ISelfS= 7).
                        Self-field    : sphere-specific E.n sum rule (ISelfD= 2).
 1st derivatives      : Analytical E(r).r(x)/FMM algorithm (CHGder, D1EAlg=3).
                        Cavity 1st derivative terms included.
 Solvent              : Water, Eps=  78.355300 Eps(inf)=   1.777849
 ------------------------------------------------------------------------------
 Spheres list:
 ISph  on   Nord     Re0    Alpha      Xe            Ye            Ze
    1   N      1    1.7000  1.150      2.691499      0.624621     -0.764912
    2   H      2    0.9000  1.150      1.892258      1.186594     -0.975162
    3   H      3    0.9000  1.150      3.143632      0.356765     -1.615531
    4   C      4    1.5000  1.250      2.272813     -0.559920     -0.048054
    5   H      5    1.2000  1.250      3.147165     -0.995006      0.442934
    6   H      6    1.2000  1.250      1.947579     -1.295398     -0.789216
    7   C      7    1.5000  1.250      1.231054     -0.192959      1.014849
    8   H      8    1.2000  1.250      1.646096      0.542381      1.708942
    9   H      9    1.2000  1.250      1.080066     -1.047289      1.677548
   10   C     10    1.5000  1.250     -0.081514      0.092451      0.389113
   11   N     11    1.4000  1.250     -0.719804      1.265274      0.496461
   12   C     12    1.5000  1.250     -1.948780      1.275342     -0.067464
   13   H     13    1.2000  1.250     -2.510446      2.197462     -0.143968
   14   C     14    1.5000  1.250     -2.347394      0.034485     -0.476009
   15   H     15    1.2000  1.250     -3.306605     -0.279884     -0.868314
   16   S     16    1.7500  1.250     -1.182955     -1.183738     -0.139588
   17   H     17    0.9000  1.150      3.328597      1.148522     -0.199274
 ------------------------------------------------------------------------------
 GePol: Number of generator spheres                  =      17
 GePol: Total number of spheres                      =      17
 GePol: Number of exposed spheres                    =      17 (100.00%)
 GePol: Number of points                             =    1294
 GePol: Average weight of points                     =       0.14
 GePol: Minimum weight of points                     =   0.43D-09
 GePol: Maximum weight of points                     =    0.22001
 GePol: Number of points with low weight             =      72
 GePol: Fraction of low-weight points (<1% of avg)   =       5.56%
 GePol: Cavity surface area                          =    177.484 Ang**2
 GePol: Cavity volume                                =    158.475 Ang**3
 PCM non-electrostatic energy =         0.0002513903 Hartrees.
 Nuclear repulsion after PCM non-electrostatic terms =      446.2343578760 Hartrees.
 Leave Link  301 at Sun Jul 11 16:21:08 2021, MaxMem=   104857600 cpu:               0.3 elap:               0.1
 (Enter /prod/apps/gaussian/g16b1/l302.exe)
 NPDir=0 NMtPBC=     1 NCelOv=     1 NCel=       1 NClECP=     1 NCelD=      1
         NCelK=      1 NCelE2=     1 NClLst=     1 CellRange=     0.0.
 One-electron integrals computed using PRISM.
 One-electron integral symmetry used in STVInt
 NBasis=   142 RedAO= T EigKep=  2.35D-03  NBF=   142
 NBsUse=   142 1.00D-06 EigRej= -1.00D+00 NBFU=   142
 Precomputing XC quadrature grid using
 IXCGrd= 4 IRadAn=           5 IRanWt=          -1 IRanGd=           0 AccXCQ= 0.00D+00.
 Generated NRdTot=       0 NPtTot=           0 NUsed=           0 NTot=          32
 NSgBfM=   142   142   142   142   142 MxSgAt=    17 MxSgA2=    17.
 Leave Link  302 at Sun Jul 11 16:21:09 2021, MaxMem=   104857600 cpu:               1.1 elap:               0.3
 (Enter /prod/apps/gaussian/g16b1/l303.exe)
 DipDrv:  MaxL=1.
 Leave Link  303 at Sun Jul 11 16:21:09 2021, MaxMem=   104857600 cpu:               0.1 elap:               0.0
 (Enter /prod/apps/gaussian/g16b1/l401.exe)
 ExpMin= 1.17D-01 ExpMax= 2.19D+04 ExpMxC= 3.30D+03 IAcc=3 IRadAn=         5 AccDes= 0.00D+00
 Harris functional with IExCor=  402 and IRadAn=       5 diagonalized for initial guess.
 HarFok:  IExCor=  402 AccDes= 0.00D+00 IRadAn=         5 IDoV= 1 UseB2=F ITyADJ=14
 ICtDFT=  3500011 ScaDFX=  1.000000  1.000000  1.000000  1.000000
 FoFCou: FMM=F IPFlag=           0 FMFlag=      100000 FMFlg1=           0
         NFxFlg=           0 DoJE=T BraDBF=F KetDBF=T FulRan=T
         wScrn=  0.000000 ICntrl=       500 IOpCl=  0 I1Cent=   200000004 NGrid=           0
         NMat0=    1 NMatS0=      1 NMatT0=    0 NMatD0=    1 NMtDS0=    0 NMtDT0=    0
 Petite list used in FoFCou.
 Harris En= -703.369048909478    
 JPrj=0 DoOrth=F DoCkMO=F.
 Leave Link  401 at Sun Jul 11 16:21:10 2021, MaxMem=   104857600 cpu:               3.0 elap:               0.8
 (Enter /prod/apps/gaussian/g16b1/l502.exe)
 Keep R1 ints in memory in canonical form, NReq=55421297.
 FoFCou: FMM=F IPFlag=           0 FMFlag=           0 FMFlg1=           0
         NFxFlg=           0 DoJE=F BraDBF=F KetDBF=F FulRan=T
         wScrn=  0.000000 ICntrl=       600 IOpCl=  0 I1Cent=           0 NGrid=           0
         NMat0=    1 NMatS0=  10153 NMatT0=    0 NMatD0=    1 NMtDS0=    0 NMtDT0=    0
 Symmetry not used in FoFCou.
 Two-electron integral symmetry not used.
 Closed shell SCF:
 Using DIIS extrapolation, IDIIS=  1040.
 NGot=   104857600 LenX=    53267901 LenY=    53247296
 Requested convergence on RMS density matrix=1.00D-08 within 128 cycles.
 Requested convergence on MAX density matrix=1.00D-06.
 Requested convergence on             energy=1.00D-06.
 No special actions if energy rises.

 Cycle   1  Pass 1  IDiag  1:
 Inv3:  Mode=1 IEnd=     5023308.
 Iteration    1 A*A^-1 deviation from unit magnitude is 3.33D-15 for    379.
 Iteration    1 A*A^-1 deviation from orthogonality  is 1.28D-15 for    601    389.
 Iteration    1 A^-1*A deviation from unit magnitude is 3.33D-15 for    379.
 Iteration    1 A^-1*A deviation from orthogonality  is 6.96D-13 for    901    891.
 E= -703.287586885407    
 DIIS: error= 2.35D-02 at cycle   1 NSaved=   1.
 NSaved= 1 IEnMin= 1 EnMin= -703.287586885407     IErMin= 1 ErrMin= 2.35D-02
 ErrMax= 2.35D-02  0.00D+00 EMaxC= 1.00D-01 BMatC= 1.95D-01 BMatP= 1.95D-01
 IDIUse=3 WtCom= 7.65D-01 WtEn= 2.35D-01
 Coeff-Com:  0.100D+01
 Coeff-En:   0.100D+01
 Coeff:      0.100D+01
 Gap=     0.238 Goal=   None    Shift=    0.000
 GapD=    0.238 DampG=1.000 DampE=0.500 DampFc=0.5000 IDamp=-1.
 Damping current iteration by 5.00D-01
 RMSDP=8.05D-03 MaxDP=2.29D-01              OVMax= 2.86D-01

 Cycle   2  Pass 1  IDiag  1:
 E= -703.354599624207     Delta-E=       -0.067012738800 Rises=F Damp=T
 DIIS: error= 9.47D-03 at cycle   2 NSaved=   2.
 NSaved= 2 IEnMin= 2 EnMin= -703.354599624207     IErMin= 2 ErrMin= 9.47D-03
 ErrMax= 9.47D-03  0.00D+00 EMaxC= 1.00D-01 BMatC= 2.09D-02 BMatP= 1.95D-01
 IDIUse=3 WtCom= 9.05D-01 WtEn= 9.47D-02
 Coeff-Com:  0.159D+00 0.841D+00
 Coeff-En:   0.294D+00 0.706D+00
 Coeff:      0.172D+00 0.828D+00
 Gap=     0.241 Goal=   None    Shift=    0.000
 RMSDP=2.29D-03 MaxDP=7.43D-02 DE=-6.70D-02 OVMax= 2.26D-01

 Cycle   3  Pass 1  IDiag  1:
 E= -703.475598945414     Delta-E=       -0.120999321207 Rises=F Damp=F
 DIIS: error= 7.72D-03 at cycle   3 NSaved=   3.
 NSaved= 3 IEnMin= 3 EnMin= -703.475598945414     IErMin= 3 ErrMin= 7.72D-03
 ErrMax= 7.72D-03  0.00D+00 EMaxC= 1.00D-01 BMatC= 1.40D-02 BMatP= 2.09D-02
 IDIUse=3 WtCom= 9.23D-01 WtEn= 7.72D-02
 Coeff-Com:  0.360D-01 0.441D+00 0.523D+00
 Coeff-En:   0.000D+00 0.000D+00 0.100D+01
 Coeff:      0.332D-01 0.407D+00 0.559D+00
 Gap=     0.203 Goal=   None    Shift=    0.000
 RMSDP=1.08D-03 MaxDP=3.44D-02 DE=-1.21D-01 OVMax= 4.94D-02

 Cycle   4  Pass 1  IDiag  1:
 E= -703.485581559469     Delta-E=       -0.009982614056 Rises=F Damp=F
 DIIS: error= 3.69D-03 at cycle   4 NSaved=   4.
 NSaved= 4 IEnMin= 4 EnMin= -703.485581559469     IErMin= 4 ErrMin= 3.69D-03
 ErrMax= 3.69D-03  0.00D+00 EMaxC= 1.00D-01 BMatC= 3.74D-03 BMatP= 1.40D-02
 IDIUse=3 WtCom= 9.63D-01 WtEn= 3.69D-02
 Coeff-Com: -0.857D-02 0.802D-01 0.348D+00 0.580D+00
 Coeff-En:   0.000D+00 0.000D+00 0.231D+00 0.769D+00
 Coeff:     -0.826D-02 0.772D-01 0.344D+00 0.587D+00
 Gap=     0.204 Goal=   None    Shift=    0.000
 RMSDP=4.23D-04 MaxDP=1.27D-02 DE=-9.98D-03 OVMax= 2.17D-02

 Cycle   5  Pass 1  IDiag  1:
 E= -703.488886396568     Delta-E=       -0.003304837098 Rises=F Damp=F
 DIIS: error= 5.84D-04 at cycle   5 NSaved=   5.
 NSaved= 5 IEnMin= 5 EnMin= -703.488886396568     IErMin= 5 ErrMin= 5.84D-04
 ErrMax= 5.84D-04  0.00D+00 EMaxC= 1.00D-01 BMatC= 1.27D-04 BMatP= 3.74D-03
 IDIUse=3 WtCom= 9.94D-01 WtEn= 5.84D-03
 Coeff-Com: -0.397D-02 0.119D-01 0.130D+00 0.279D+00 0.583D+00
 Coeff-En:   0.000D+00 0.000D+00 0.000D+00 0.000D+00 0.100D+01
 Coeff:     -0.395D-02 0.118D-01 0.129D+00 0.277D+00 0.586D+00
 Gap=     0.204 Goal=   None    Shift=    0.000
 RMSDP=1.17D-04 MaxDP=4.87D-03 DE=-3.30D-03 OVMax= 5.56D-03

 Cycle   6  Pass 1  IDiag  1:
 E= -703.489005025396     Delta-E=       -0.000118628828 Rises=F Damp=F
 DIIS: error= 2.21D-04 at cycle   6 NSaved=   6.
 NSaved= 6 IEnMin= 6 EnMin= -703.489005025396     IErMin= 6 ErrMin= 2.21D-04
 ErrMax= 2.21D-04  0.00D+00 EMaxC= 1.00D-01 BMatC= 1.63D-05 BMatP= 1.27D-04
 IDIUse=3 WtCom= 9.98D-01 WtEn= 2.21D-03
 Coeff-Com: -0.134D-02-0.691D-03 0.434D-01 0.107D+00 0.321D+00 0.530D+00
 Coeff-En:   0.000D+00 0.000D+00 0.000D+00 0.000D+00 0.272D-01 0.973D+00
 Coeff:     -0.133D-02-0.690D-03 0.433D-01 0.107D+00 0.320D+00 0.531D+00
 Gap=     0.204 Goal=   None    Shift=    0.000
 RMSDP=3.45D-05 MaxDP=1.08D-03 DE=-1.19D-04 OVMax= 2.43D-03

 Cycle   7  Pass 1  IDiag  1:
 E= -703.489020475358     Delta-E=       -0.000015449962 Rises=F Damp=F
 DIIS: error= 6.66D-05 at cycle   7 NSaved=   7.
 NSaved= 7 IEnMin= 7 EnMin= -703.489020475358     IErMin= 7 ErrMin= 6.66D-05
 ErrMax= 6.66D-05  0.00D+00 EMaxC= 1.00D-01 BMatC= 1.50D-06 BMatP= 1.63D-05
 IDIUse=1 WtCom= 1.00D+00 WtEn= 0.00D+00
 Coeff-Com: -0.386D-03-0.128D-02 0.141D-01 0.371D-01 0.122D+00 0.294D+00
 Coeff-Com:  0.535D+00
 Coeff:     -0.386D-03-0.128D-02 0.141D-01 0.371D-01 0.122D+00 0.294D+00
 Coeff:      0.535D+00
 Gap=     0.204 Goal=   None    Shift=    0.000
 RMSDP=1.11D-05 MaxDP=3.42D-04 DE=-1.54D-05 OVMax= 6.22D-04

 Cycle   8  Pass 1  IDiag  1:
 E= -703.489022011206     Delta-E=       -0.000001535848 Rises=F Damp=F
 DIIS: error= 1.79D-05 at cycle   8 NSaved=   8.
 NSaved= 8 IEnMin= 8 EnMin= -703.489022011206     IErMin= 8 ErrMin= 1.79D-05
 ErrMax= 1.79D-05  0.00D+00 EMaxC= 1.00D-01 BMatC= 1.24D-07 BMatP= 1.50D-06
 IDIUse=1 WtCom= 1.00D+00 WtEn= 0.00D+00
 Coeff-Com:  0.843D-04-0.670D-03-0.440D-03-0.536D-03 0.423D-03 0.523D-01
 Coeff-Com:  0.251D+00 0.698D+00
 Coeff:      0.843D-04-0.670D-03-0.440D-03-0.536D-03 0.423D-03 0.523D-01
 Coeff:      0.251D+00 0.698D+00
 Gap=     0.204 Goal=   None    Shift=    0.000
 RMSDP=3.14D-06 MaxDP=8.89D-05 DE=-1.54D-06 OVMax= 1.84D-04

 Cycle   9  Pass 1  IDiag  1:
 E= -703.489022141539     Delta-E=       -0.000000130333 Rises=F Damp=F
 DIIS: error= 5.45D-06 at cycle   9 NSaved=   9.
 NSaved= 9 IEnMin= 9 EnMin= -703.489022141539     IErMin= 9 ErrMin= 5.45D-06
 ErrMax= 5.45D-06  0.00D+00 EMaxC= 1.00D-01 BMatC= 8.88D-09 BMatP= 1.24D-07
 IDIUse=1 WtCom= 1.00D+00 WtEn= 0.00D+00
 Coeff-Com:  0.751D-04-0.217D-03-0.105D-02-0.268D-02-0.834D-02 0.406D-02
 Coeff-Com:  0.741D-01 0.315D+00 0.619D+00
 Coeff:      0.751D-04-0.217D-03-0.105D-02-0.268D-02-0.834D-02 0.406D-02
 Coeff:      0.741D-01 0.315D+00 0.619D+00
 Gap=     0.204 Goal=   None    Shift=    0.000
 RMSDP=1.01D-06 MaxDP=4.14D-05 DE=-1.30D-07 OVMax= 4.01D-05

 Cycle  10  Pass 1  IDiag  1:
 E= -703.489022151377     Delta-E=       -0.000000009838 Rises=F Damp=F
 DIIS: error= 1.26D-06 at cycle  10 NSaved=  10.
 NSaved=10 IEnMin=10 EnMin= -703.489022151377     IErMin=10 ErrMin= 1.26D-06
 ErrMax= 1.26D-06  0.00D+00 EMaxC= 1.00D-01 BMatC= 5.30D-10 BMatP= 8.88D-09
 IDIUse=1 WtCom= 1.00D+00 WtEn= 0.00D+00
 Coeff-Com:  0.231D-04-0.347D-04-0.357D-03-0.983D-03-0.336D-02-0.240D-02
 Coeff-Com:  0.869D-02 0.698D-01 0.243D+00 0.685D+00
 Coeff:      0.231D-04-0.347D-04-0.357D-03-0.983D-03-0.336D-02-0.240D-02
 Coeff:      0.869D-02 0.698D-01 0.243D+00 0.685D+00
 Gap=     0.204 Goal=   None    Shift=    0.000
 RMSDP=2.25D-07 MaxDP=7.03D-06 DE=-9.84D-09 OVMax= 9.31D-06

 Cycle  11  Pass 1  IDiag  1:
 E= -703.489022151869     Delta-E=       -0.000000000492 Rises=F Damp=F
 DIIS: error= 6.21D-07 at cycle  11 NSaved=  11.
 NSaved=11 IEnMin=11 EnMin= -703.489022151869     IErMin=11 ErrMin= 6.21D-07
 ErrMax= 6.21D-07  0.00D+00 EMaxC= 1.00D-01 BMatC= 9.72D-11 BMatP= 5.30D-10
 IDIUse=1 WtCom= 1.00D+00 WtEn= 0.00D+00
 Coeff-Com:  0.341D-05 0.417D-05-0.658D-04-0.206D-03-0.797D-03-0.163D-02
 Coeff-Com: -0.392D-02 0.110D-02 0.546D-01 0.346D+00 0.605D+00
 Coeff:      0.341D-05 0.417D-05-0.658D-04-0.206D-03-0.797D-03-0.163D-02
 Coeff:     -0.392D-02 0.110D-02 0.546D-01 0.346D+00 0.605D+00
 Gap=     0.204 Goal=   None    Shift=    0.000
 RMSDP=8.09D-08 MaxDP=2.76D-06 DE=-4.92D-10 OVMax= 4.58D-06

 Cycle  12  Pass 1  IDiag  1:
 E= -703.489022151968     Delta-E=       -0.000000000099 Rises=F Damp=F
 DIIS: error= 7.56D-08 at cycle  12 NSaved=  12.
 NSaved=12 IEnMin=12 EnMin= -703.489022151968     IErMin=12 ErrMin= 7.56D-08
 ErrMax= 7.56D-08  0.00D+00 EMaxC= 1.00D-01 BMatC= 2.88D-12 BMatP= 9.72D-11
 IDIUse=1 WtCom= 1.00D+00 WtEn= 0.00D+00
 Coeff-Com: -0.795D-06 0.407D-05 0.123D-04 0.251D-04 0.443D-04-0.209D-03
 Coeff-Com: -0.177D-02-0.504D-02-0.488D-02 0.436D-01 0.187D+00 0.781D+00
 Coeff:     -0.795D-06 0.407D-05 0.123D-04 0.251D-04 0.443D-04-0.209D-03
 Coeff:     -0.177D-02-0.504D-02-0.488D-02 0.436D-01 0.187D+00 0.781D+00
 Gap=     0.204 Goal=   None    Shift=    0.000
 RMSDP=1.74D-08 MaxDP=3.97D-07 DE=-9.94D-11 OVMax= 6.89D-07

 Cycle  13  Pass 1  IDiag  1:
 E= -703.489022151970     Delta-E=       -0.000000000002 Rises=F Damp=F
 DIIS: error= 1.46D-08 at cycle  13 NSaved=  13.
 NSaved=13 IEnMin=13 EnMin= -703.489022151970     IErMin=13 ErrMin= 1.46D-08
 ErrMax= 1.46D-08  0.00D+00 EMaxC= 1.00D-01 BMatC= 8.43D-14 BMatP= 2.88D-12
 IDIUse=1 WtCom= 1.00D+00 WtEn= 0.00D+00
 Coeff-Com: -0.311D-06 0.728D-06 0.558D-05 0.147D-04 0.362D-04 0.119D-04
 Coeff-Com: -0.315D-03-0.139D-02-0.367D-02-0.263D-02 0.256D-01 0.184D+00
 Coeff-Com:  0.799D+00
 Coeff:     -0.311D-06 0.728D-06 0.558D-05 0.147D-04 0.362D-04 0.119D-04
 Coeff:     -0.315D-03-0.139D-02-0.367D-02-0.263D-02 0.256D-01 0.184D+00
 Coeff:      0.799D+00
 Gap=     0.204 Goal=   None    Shift=    0.000
 RMSDP=3.16D-09 MaxDP=5.85D-08 DE=-1.59D-12 OVMax= 1.39D-07

 Error on total polarization charges =  0.01348
 SCF Done:  E(RB3LYP) =  -703.489022152     A.U. after   13 cycles
            NFock= 13  Conv=0.32D-08     -V/T= 2.0059
 KE= 6.993709510873D+02 PE=-2.534670009544D+03 EE= 6.855756784283D+02
 Leave Link  502 at Sun Jul 11 16:21:24 2021, MaxMem=   104857600 cpu:              54.8 elap:              14.3
 (Enter /prod/apps/gaussian/g16b1/l601.exe)
 Copying SCF densities to generalized density rwf, IOpCl= 0 IROHF=0.

 **********************************************************************

            Population analysis using the SCF Density.

 **********************************************************************

 Orbital symmetries:
       Occupied  (A) (A) (A) (A) (A) (A) (A) (A) (A) (A) (A) (A)
                 (A) (A) (A) (A) (A) (A) (A) (A) (A) (A) (A) (A)
                 (A) (A) (A) (A) (A) (A) (A) (A) (A) (A)
       Virtual   (A) (A) (A) (A) (A) (A) (A) (A) (A) (A) (A) (A)
                 (A) (A) (A) (A) (A) (A) (A) (A) (A) (A) (A) (A)
                 (A) (A) (A) (A) (A) (A) (A) (A) (A) (A) (A) (A)
                 (A) (A) (A) (A) (A) (A) (A) (A) (A) (A) (A) (A)
                 (A) (A) (A) (A) (A) (A) (A) (A) (A) (A) (A) (A)
                 (A) (A) (A) (A) (A) (A) (A) (A) (A) (A) (A) (A)
                 (A) (A) (A) (A) (A) (A) (A) (A) (A) (A) (A) (A)
                 (A) (A) (A) (A) (A) (A) (A) (A) (A) (A) (A) (A)
                 (A) (A) (A) (A) (A) (A) (A) (A) (A) (A) (A) (A)
 The electronic state is 1-A.
 Alpha  occ. eigenvalues --  -88.92439 -14.44930 -14.34524 -10.26564 -10.25404
 Alpha  occ. eigenvalues --  -10.22423 -10.22351 -10.21913  -7.98581  -5.94949
 Alpha  occ. eigenvalues --   -5.94616  -5.94312  -1.02423  -0.96746  -0.81457
 Alpha  occ. eigenvalues --   -0.80222  -0.73702  -0.67157  -0.60345  -0.59575
 Alpha  occ. eigenvalues --   -0.59354  -0.55227  -0.51379  -0.50233  -0.46072
 Alpha  occ. eigenvalues --   -0.44330  -0.41915  -0.39826  -0.38744  -0.38127
 Alpha  occ. eigenvalues --   -0.37519  -0.29537  -0.27724  -0.24770
 Alpha virt. eigenvalues --   -0.04352   0.00991   0.04255   0.06068   0.08496
 Alpha virt. eigenvalues --    0.10549   0.11854   0.12688   0.13933   0.15222
 Alpha virt. eigenvalues --    0.15636   0.16906   0.17725   0.18733   0.19423
 Alpha virt. eigenvalues --    0.23421   0.25320   0.28821   0.32074   0.36236
 Alpha virt. eigenvalues --    0.37597   0.41459   0.42838   0.49553   0.51152
 Alpha virt. eigenvalues --    0.51432   0.52628   0.53795   0.55669   0.57694
 Alpha virt. eigenvalues --    0.60743   0.62175   0.62576   0.64433   0.68749
 Alpha virt. eigenvalues --    0.70746   0.72925   0.74861   0.76050   0.79373
 Alpha virt. eigenvalues --    0.80655   0.82156   0.84073   0.84282   0.85665
 Alpha virt. eigenvalues --    0.86341   0.86914   0.87943   0.89280   0.92308
 Alpha virt. eigenvalues --    0.93137   0.94494   0.95766   0.97827   1.00201
 Alpha virt. eigenvalues --    1.01963   1.03109   1.05527   1.08003   1.17986
 Alpha virt. eigenvalues --    1.27323   1.29027   1.29919   1.42056   1.43196
 Alpha virt. eigenvalues --    1.47094   1.50335   1.55921   1.56468   1.63591
 Alpha virt. eigenvalues --    1.68547   1.76980   1.79849   1.82890   1.85004
 Alpha virt. eigenvalues --    1.92944   1.94074   1.97760   1.99842   2.03088
 Alpha virt. eigenvalues --    2.09900   2.10746   2.16330   2.19520   2.23660
 Alpha virt. eigenvalues --    2.26395   2.27545   2.32940   2.34968   2.39353
 Alpha virt. eigenvalues --    2.42215   2.46937   2.54015   2.55372   2.58254
 Alpha virt. eigenvalues --    2.63023   2.68320   2.75635   2.95519   3.04587
 Alpha virt. eigenvalues --    3.77461   3.91998   3.97876   4.09181   4.18677
 Alpha virt. eigenvalues --    4.32382   4.36411   4.47897
          Condensed to atoms (all electrons):
               1          2          3          4          5          6
     1  N    6.682520   0.296484   0.307255   0.238943  -0.034307  -0.038816
     2  H    0.296484   0.281419  -0.010568  -0.028116   0.004162  -0.000832
     3  H    0.307255  -0.010568   0.264728  -0.018282  -0.000776  -0.004149
     4  C    0.238943  -0.028116  -0.018282   5.028677   0.379853   0.388484
     5  H   -0.034307   0.004162  -0.000776   0.379853   0.492705  -0.027193
     6  H   -0.038816  -0.000832  -0.004149   0.388484  -0.027193   0.481655
     7  C   -0.057573  -0.007863   0.003944   0.353588  -0.030005  -0.029862
     8  H   -0.003123   0.000595   0.000026  -0.033337  -0.002135   0.003390
     9  H    0.003778   0.000243  -0.000113  -0.030425  -0.002542  -0.001033
    10  C   -0.003249   0.012908  -0.000166  -0.053950   0.004634  -0.003801
    11  N   -0.000977   0.004987  -0.000006   0.000078  -0.000051   0.000090
    12  C    0.000016  -0.000004  -0.000000  -0.000196   0.000002  -0.000003
    13  H    0.000001  -0.000017   0.000000   0.000004  -0.000000  -0.000000
    14  C   -0.000011  -0.000116   0.000001   0.000151  -0.000001  -0.000088
    15  H    0.000000  -0.000001   0.000000   0.000000  -0.000000   0.000002
    16  S    0.000451   0.000435  -0.000027  -0.000713  -0.000225   0.004112
    17  H    0.305184  -0.010300  -0.009539  -0.020207  -0.005394   0.003758
               7          8          9         10         11         12
     1  N   -0.057573  -0.003123   0.003778  -0.003249  -0.000977   0.000016
     2  H   -0.007863   0.000595   0.000243   0.012908   0.004987  -0.000004
     3  H    0.003944   0.000026  -0.000113  -0.000166  -0.000006  -0.000000
     4  C    0.353588  -0.033337  -0.030425  -0.053950   0.000078  -0.000196
     5  H   -0.030005  -0.002135  -0.002542   0.004634  -0.000051   0.000002
     6  H   -0.029862   0.003390  -0.001033  -0.003801   0.000090  -0.000003
     7  C    5.118511   0.371600   0.373457   0.350606  -0.052237   0.006367
     8  H    0.371600   0.497465  -0.028576  -0.027088   0.001052   0.000164
     9  H    0.373457  -0.028576   0.504592  -0.033976   0.001631  -0.000138
    10  C    0.350606  -0.027088  -0.033976   5.050421   0.475515  -0.095864
    11  N   -0.052237   0.001052   0.001631   0.475515   6.788265   0.436143
    12  C    0.006367   0.000164  -0.000138  -0.095864   0.436143   4.736348
    13  H   -0.000182  -0.000009   0.000003   0.006224  -0.041705   0.376477
    14  C    0.002693  -0.000047   0.000162  -0.047058  -0.069651   0.574902
    15  H   -0.000073   0.000001  -0.000003   0.002854   0.005194  -0.016582
    16  S   -0.058511   0.003915  -0.001476   0.288398  -0.096716  -0.074247
    17  H   -0.000222   0.002279  -0.000071  -0.000176   0.000039  -0.000000
              13         14         15         16         17
     1  N    0.000001  -0.000011   0.000000   0.000451   0.305184
     2  H   -0.000017  -0.000116  -0.000001   0.000435  -0.010300
     3  H    0.000000   0.000001   0.000000  -0.000027  -0.009539
     4  C    0.000004   0.000151   0.000000  -0.000713  -0.020207
     5  H   -0.000000  -0.000001  -0.000000  -0.000225  -0.005394
     6  H   -0.000000  -0.000088   0.000002   0.004112   0.003758
     7  C   -0.000182   0.002693  -0.000073  -0.058511  -0.000222
     8  H   -0.000009  -0.000047   0.000001   0.003915   0.002279
     9  H    0.000003   0.000162  -0.000003  -0.001476  -0.000071
    10  C    0.006224  -0.047058   0.002854   0.288398  -0.000176
    11  N   -0.041705  -0.069651   0.005194  -0.096716   0.000039
    12  C    0.376477   0.574902  -0.016582  -0.074247  -0.000000
    13  H    0.522878  -0.049526  -0.000815   0.003963   0.000000
    14  C   -0.049526   5.269107   0.348270   0.332630  -0.000000
    15  H   -0.000815   0.348270   0.487012  -0.034034   0.000000
    16  S    0.003963   0.332630  -0.034034  15.357432   0.000011
    17  H    0.000000  -0.000000   0.000000   0.000011   0.270200
 Mulliken charges:
               1
     1  N   -0.696575
     2  H    0.456585
     3  H    0.467674
     4  C   -0.204553
     5  H    0.221271
     6  H    0.224287
     7  C   -0.344239
     8  H    0.213828
     9  H    0.214485
    10  C    0.073768
    11  N   -0.451651
    12  C    0.056615
    13  H    0.182705
    14  C   -0.361417
    15  H    0.208175
    16  S    0.274602
    17  H    0.464439
 Sum of Mulliken charges =   1.00000
 Mulliken charges with hydrogens summed into heavy atoms:
               1
     1  N    0.692123
     4  C    0.241005
     7  C    0.084075
    10  C    0.073768
    11  N   -0.451651
    12  C    0.239320
    14  C   -0.153243
    16  S    0.274602
 Electronic spatial extent (au):  <R**2>=           1213.1323
 Charge=              1.0000 electrons
 Dipole moment (field-independent basis, Debye):
    X=             11.7412    Y=              0.8608    Z=             -3.5682  Tot=             12.3016
 Quadrupole moment (field-independent basis, Debye-Ang):
   XX=             -7.8880   YY=            -49.8867   ZZ=            -47.9346
   XY=              5.5842   XZ=             -5.5234   YZ=             -3.9147
 Traceless Quadrupole moment (field-independent basis, Debye-Ang):
   XX=             27.3485   YY=            -14.6503   ZZ=            -12.6982
   XY=              5.5842   XZ=             -5.5234   YZ=             -3.9147
 Octapole moment (field-independent basis, Debye-Ang**2):
  XXX=            108.8172  YYY=              4.1481  ZZZ=             -8.7550  XYY=             12.6927
  XXY=             24.9805  XXZ=            -33.4876  XZZ=             25.6751  YZZ=              0.5466
  YYZ=             -6.0654  XYZ=             -4.9550
 Hexadecapole moment (field-independent basis, Debye-Ang**3):
 XXXX=           -628.3357 YYYY=           -319.9599 ZZZZ=           -147.0987 XXXY=             72.3837
 XXXZ=            -61.0693 YYYX=              5.2049 YYYZ=            -12.1323 ZZZX=            -31.8139
 ZZZY=             -8.0323 XXYY=           -179.2346 XXZZ=           -156.2606 YYZZ=            -81.6189
 XXYZ=            -10.5158 YYXZ=             -4.2012 ZZXY=             11.0013
 N-N= 4.462343578760D+02 E-N=-2.534670008453D+03  KE= 6.993709510873D+02
 No NMR shielding tensors so no spin-rotation constants.
 Leave Link  601 at Sun Jul 11 16:21:24 2021, MaxMem=   104857600 cpu:               0.4 elap:               0.1
 (Enter /prod/apps/gaussian/g16b1/l701.exe)
 ... and contract with generalized density number  0.
 Compute integral first derivatives.
 D1PCM: PCM CHGder 1st derivatives, ID1Alg=3 FixD1E=F DoIter=F DoCFld=F I1PDM=0.
 GePol: Maximum number of non-zero 1st derivatives   =     285
 Leave Link  701 at Sun Jul 11 16:21:25 2021, MaxMem=   104857600 cpu:               3.1 elap:               0.8
 (Enter /prod/apps/gaussian/g16b1/l702.exe)
 L702 exits ... SP integral derivatives will be done elsewhere.
 Leave Link  702 at Sun Jul 11 16:21:25 2021, MaxMem=   104857600 cpu:               0.1 elap:               0.0
 (Enter /prod/apps/gaussian/g16b1/l703.exe)
 Integral derivatives from FoFJK, PRISM(SPDF).
 Compute integral first derivatives, UseDBF=F ICtDFT=           0.
 Calling FoFJK, ICntrl=      2127 FMM=F ISym2X=0 I1Cent= 0 IOpClX= 0 NMat=1 NMatS=1 NMatT=0.
 FoFJK:  IHMeth= 1 ICntrl=    2127 DoSepK=F KAlg= 0 I1Cent=           0 FoldK=F
 IRaf=         0 NMat=       1 IRICut=       1 DoRegI=T DoRafI=F ISym2E= 0 IDoP0=0 IntGTp=1.
 FoFCou: FMM=F IPFlag=           0 FMFlag=      100000 FMFlg1=         800
         NFxFlg=           0 DoJE=F BraDBF=F KetDBF=F FulRan=T
         wScrn=  0.000000 ICntrl=      2127 IOpCl=  0 I1Cent=           0 NGrid=           0
         NMat0=    1 NMatS0=      1 NMatT0=    0 NMatD0=    1 NMtDS0=    0 NMtDT0=    0
 Symmetry not used in FoFCou.
 Leave Link  703 at Sun Jul 11 16:21:27 2021, MaxMem=   104857600 cpu:              10.2 elap:               2.6
 (Enter /prod/apps/gaussian/g16b1/l716.exe)
 Dipole        = 4.61934514D+00 3.38646936D-01-1.40384310D+00
 ***** Axes restored to original set *****
 -------------------------------------------------------------------
 Center     Atomic                   Forces (Hartrees/Bohr)
 Number     Number              X              Y              Z
 -------------------------------------------------------------------
      1        7          -0.010378239   -0.002544661   -0.000346476
      2        1           0.016945490   -0.019364682    0.015299653
      3        1           0.010975650    0.025035965    0.016704779
      4        6          -0.038162370    0.005712682   -0.016613099
      5        1           0.003532565    0.000539136    0.001195593
      6        1          -0.000675263   -0.008262644   -0.000910580
      7        6          -0.020080764    0.015599002    0.000149463
      8        1           0.011161188   -0.007905344    0.009302430
      9        1          -0.004907561    0.007312726    0.001105642
     10        6           0.013062785   -0.059270548   -0.011172149
     11        7           0.010485717    0.044039194   -0.013226006
     12        6          -0.016134636    0.003586200    0.004349262
     13        1          -0.002035788   -0.000300252    0.000198161
     14        6          -0.012595473   -0.018105345    0.015651882
     15        1           0.004211453    0.000464668    0.001026125
     16       16           0.013042499    0.010066883    0.001510734
     17        1           0.021552747    0.003397018   -0.024225415
 -------------------------------------------------------------------
 Cartesian Forces:  Max     0.059270548 RMS     0.016149314
 Leave Link  716 at Sun Jul 11 16:21:28 2021, MaxMem=   104857600 cpu:               0.1 elap:               0.0
 (Enter /prod/apps/gaussian/g16b1/l103.exe)

 GradGradGradGradGradGradGradGradGradGradGradGradGradGradGradGradGradGrad
 Berny optimization.
 FormGI is forming the generalized inverse of G from B-inverse, IUseBI=4.
 Internal  Forces:  Max     0.040284873 RMS     0.010194582
 Search for a local minimum.
 Step number   1 out of a maximum of   92
 All quantities printed in internal units (Hartrees-Bohrs-Radians)
 RMS Force = .10195D-01 SwitMx=.10000D-02 MixMth= 1
 Mixed Optimization -- RFO/linear search
 Second derivative matrix not updated -- first step.
 ITU=  0
     Eigenvalues ---    0.00331   0.01006   0.01077   0.01500   0.01693
     Eigenvalues ---    0.02229   0.02407   0.02483   0.03929   0.03930
     Eigenvalues ---    0.05008   0.05602   0.06269   0.06270   0.08237
     Eigenvalues ---    0.09325   0.12012   0.12917   0.15898   0.15999
     Eigenvalues ---    0.16000   0.16000   0.16000   0.21687   0.21805
     Eigenvalues ---    0.22349   0.24119   0.24460   0.28387   0.29160
     Eigenvalues ---    0.32968   0.34360   0.34397   0.34457   0.34463
     Eigenvalues ---    0.34615   0.35638   0.35704   0.38709   0.47661
     Eigenvalues ---    0.47713   0.47794   0.48842   0.52562   0.55586
 RFO step:  Lambda=-3.10263678D-02 EMin= 3.31159586D-03
 Linear search not attempted -- first point.
 Iteration  1 RMS(Cart)=  0.05980249 RMS(Int)=  0.00264155
 Iteration  2 RMS(Cart)=  0.00291928 RMS(Int)=  0.00154962
 Iteration  3 RMS(Cart)=  0.00000553 RMS(Int)=  0.00154962
 Iteration  4 RMS(Cart)=  0.00000001 RMS(Int)=  0.00154962
 ITry= 1 IFail=0 DXMaxC= 1.70D-01 DCOld= 1.00D+10 DXMaxT= 3.00D-01 DXLimC= 3.00D+00 Rises=F
 Variable       Old X    -DE/DX   Delta X   Delta X   Delta X     New X
                                 (Linear)    (Quad)   (Total)
    R1        1.88860   0.02893   0.00000   0.05685   0.05685   1.94545
    R2        1.88946   0.03124   0.00000   0.06148   0.06148   1.95094
    R3        2.73346   0.04028   0.00000   0.09635   0.09635   2.82981
    R4        1.89002   0.03185   0.00000   0.06275   0.06275   1.95277
    R5        2.06565  -0.00149   0.00000  -0.00397  -0.00397   2.06168
    R6        2.06666  -0.00261   0.00000  -0.00696  -0.00696   2.05970
    R7        2.89670   0.00199   0.00000   0.00618   0.00618   2.90288
    R8        2.06556  -0.00033   0.00000  -0.00088  -0.00088   2.06468
    R9        2.06305   0.00374   0.00000   0.00993   0.00993   2.07297
   R10        2.80026   0.01210   0.00000   0.03229   0.03229   2.83255
   R11        2.53142  -0.02879   0.00000  -0.04991  -0.05025   2.48117
   R12        3.33865   0.00178   0.00000   0.00189   0.00170   3.34035
   R13        2.55532   0.02062   0.00000   0.03615   0.03615   2.59147
   R14        2.04547  -0.00109   0.00000  -0.00280  -0.00280   2.04267
   R15        2.58107   0.00117   0.00000   0.00482   0.00509   2.58616
   R16        2.04651  -0.00112   0.00000  -0.00289  -0.00289   2.04362
   R17        3.24745  -0.00049   0.00000   0.00114   0.00137   3.24883
    A1        1.91059  -0.00693   0.00000  -0.03626  -0.03689   1.87370
    A2        1.91056   0.00739   0.00000   0.03908   0.03838   1.94894
    A3        1.91118  -0.00669   0.00000  -0.03431  -0.03497   1.87621
    A4        1.91041   0.00646   0.00000   0.03347   0.03287   1.94328
    A5        1.91072  -0.00656   0.00000  -0.03509  -0.03559   1.87513
    A6        1.91034   0.00633   0.00000   0.03315   0.03253   1.94288
    A7        1.89339  -0.00366   0.00000  -0.01512  -0.01529   1.87810
    A8        1.87648   0.00149   0.00000   0.01056   0.01063   1.88711
    A9        1.92231   0.00469   0.00000   0.01647   0.01645   1.93875
   A10        1.84897   0.00251   0.00000   0.01934   0.01950   1.86847
   A11        1.90439   0.00147   0.00000   0.01559   0.01569   1.92008
   A12        2.01398  -0.00664   0.00000  -0.04629  -0.04619   1.96779
   A13        1.92124  -0.00092   0.00000  -0.00977  -0.01018   1.91106
   A14        1.90452  -0.00965   0.00000  -0.03153  -0.03361   1.87091
   A15        1.93402   0.01627   0.00000   0.05772   0.05680   1.99081
   A16        1.76553   0.00717   0.00000   0.05545   0.05712   1.82265
   A17        2.06566  -0.01711   0.00000  -0.11815  -0.11718   1.94848
   A18        1.85933   0.00303   0.00000   0.05095   0.05142   1.91076
   A19        2.16139  -0.00115   0.00000   0.01179   0.00944   2.17082
   A20        2.14059  -0.00392   0.00000  -0.00012  -0.00328   2.13731
   A21        1.93837   0.00699   0.00000   0.03345   0.02714   1.96551
   A22        1.98904  -0.00935   0.00000  -0.03406  -0.03760   1.95144
   A23        2.10299  -0.00566   0.00000  -0.02579  -0.02509   2.07790
   A24        1.96408   0.01397   0.00000   0.06571   0.06389   2.02797
   A25        2.21601  -0.00829   0.00000  -0.03952  -0.03880   2.17721
   A26        2.25308   0.00638   0.00000   0.01850   0.01803   2.27111
   A27        1.96895  -0.01780   0.00000  -0.05661  -0.05915   1.90979
   A28        2.05477   0.01186   0.00000   0.04742   0.04702   2.10179
   A29        1.53975   0.00811   0.00000   0.03209   0.02939   1.56914
    D1       -2.83441  -0.00096   0.00000  -0.01809  -0.01806  -2.85247
    D2        1.45651  -0.00283   0.00000  -0.03849  -0.03848   1.41803
    D3       -0.75115   0.00137   0.00000   0.00140   0.00134  -0.74981
    D4        1.35462  -0.00096   0.00000  -0.01809  -0.01809   1.33653
    D5       -0.63765  -0.00283   0.00000  -0.03848  -0.03851  -0.67616
    D6       -2.84531   0.00137   0.00000   0.00140   0.00132  -2.84399
    D7       -0.73957  -0.00075   0.00000  -0.01588  -0.01580  -0.75537
    D8       -2.73183  -0.00262   0.00000  -0.03627  -0.03622  -2.76805
    D9        1.34369   0.00157   0.00000   0.00361   0.00361   1.34730
   D10       -1.01623   0.00462   0.00000   0.04215   0.04224  -0.97399
   D11       -2.93904   0.00163   0.00000  -0.00194  -0.00234  -2.94138
   D12        1.30215  -0.00572   0.00000  -0.07862  -0.07856   1.22359
   D13        1.06032   0.00386   0.00000   0.04306   0.04334   1.10366
   D14       -0.86249   0.00087   0.00000  -0.00103  -0.00124  -0.86373
   D15       -2.90449  -0.00648   0.00000  -0.07770  -0.07745  -2.98194
   D16        3.13886   0.00379   0.00000   0.04889   0.04904  -3.09529
   D17        1.21604   0.00080   0.00000   0.00479   0.00446   1.22050
   D18       -0.82596  -0.00655   0.00000  -0.07188  -0.07176  -0.89771
   D19       -2.09877   0.00465   0.00000   0.12747   0.12823  -1.97054
   D20        1.38112  -0.00401   0.00000  -0.05179  -0.05101   1.33011
   D21        0.14390   0.00378   0.00000   0.06237   0.06334   0.20724
   D22       -2.65940  -0.00488   0.00000  -0.11689  -0.11590  -2.77530
   D23        2.11483   0.00557   0.00000   0.10359   0.10182   2.21666
   D24       -0.68846  -0.00310   0.00000  -0.07568  -0.07742  -0.76588
   D25       -3.05867   0.00321   0.00000   0.02379   0.01942  -3.03925
   D26       -0.22119   0.00931   0.00000   0.17964   0.17825  -0.04294
   D27        3.02765   0.00113   0.00000   0.00423   0.00017   3.02782
   D28        0.18592  -0.00541   0.00000  -0.15178  -0.15761   0.02831
   D29       -3.01739  -0.00335   0.00000  -0.07018  -0.06947  -3.08686
   D30        0.13844  -0.00496   0.00000  -0.09811  -0.09798   0.04047
   D31        3.02802   0.00359   0.00000   0.06191   0.06128   3.08930
   D32        0.01206  -0.00135   0.00000  -0.03184  -0.03017  -0.01811
   D33       -0.09822   0.00181   0.00000   0.03157   0.03075  -0.06747
   D34       -3.11417  -0.00312   0.00000  -0.06218  -0.06070   3.10831
   D35       -0.11102   0.00593   0.00000   0.10855   0.10573  -0.00530
   D36        3.14067   0.00173   0.00000   0.02759   0.02594  -3.11658
         Item               Value     Threshold  Converged?
 Maximum Force            0.040285     0.000450     NO 
 RMS     Force            0.010195     0.000300     NO 
 Maximum Displacement     0.170340     0.001800     NO 
 RMS     Displacement     0.059635     0.001200     NO 
 Predicted change in Energy=-1.940143D-02
 Lowest energy point so far.  Saving SCF results.
 GradGradGradGradGradGradGradGradGradGradGradGradGradGradGradGradGradGrad

 Leave Link  103 at Sun Jul 11 16:21:28 2021, MaxMem=   104857600 cpu:               0.1 elap:               0.0
 (Enter /prod/apps/gaussian/g16b1/l202.exe)
                          Input orientation:                          
 ---------------------------------------------------------------------
 Center     Atomic      Atomic             Coordinates (Angstroms)
 Number     Number       Type             X           Y           Z
 ---------------------------------------------------------------------
      1          7           0        1.314787    2.028247   -0.473998
      2          1           0        1.696181    1.238761    0.065530
      3          1           0        1.470634    2.884552    0.081240
      4          6           0       -0.137745    1.836107   -0.783276
      5          1           0       -0.399127    2.529274   -1.584193
      6          1           0       -0.713076    2.130217    0.094491
      7          6           0       -0.422633    0.392314   -1.223754
      8          1           0        0.213738    0.138439   -2.074820
      9          1           0       -1.441860    0.371979   -1.628857
     10          6           0       -0.302144   -0.617673   -0.122764
     11          7           0        0.622594   -1.548154   -0.068182
     12          6           0        0.416855   -2.410155    0.978348
     13          1           0        1.139128   -3.192719    1.163652
     14          6           0       -0.705771   -2.191025    1.729736
     15          1           0       -1.104818   -2.749140    2.565664
     16         16           0       -1.542598   -0.818390    1.120427
     17          1           0        1.874853    2.113367   -1.338243
 ---------------------------------------------------------------------
                    Distance matrix (angstroms):
                    1          2          3          4          5
     1  N    0.000000
     2  H    1.029485   0.000000
     3  H    1.032393   1.661248   0.000000
     4  C    1.497471   2.107268   2.105589   0.000000
     5  H    2.102632   2.962655   2.529011   1.090995   0.000000
     6  H    2.108508   2.569057   2.310364   1.089946   1.753794
     7  C    2.501407   2.620705   3.390975   1.536138   2.167272
     8  H    2.710408   2.826560   3.710730   2.161875   2.516428
     9  H    3.417019   3.670090   4.209521   2.135274   2.396499
    10  C    3.120693   2.734064   3.930641   2.546437   3.471089
    11  N    3.665305   2.989543   4.515571   3.541567   4.468515
    12  C    4.755523   3.972971   5.472584   4.630512   5.624091
    13  H    5.474599   4.599369   6.181806   5.541663   6.531316
    14  C    5.171204   4.505817   5.763311   4.780761   5.775585
    15  H    6.157715   5.477191   6.674114   5.759785   6.751368
    16  S    4.337070   3.979242   4.885821   3.555847   4.453016
    17  H    1.033363   1.663562   1.665248   2.106042   2.324748
                    6          7          8          9         10
     6  H    0.000000
     7  C    2.200553   0.000000
     8  H    3.087406   1.092581   0.000000
     9  H    2.567578   1.096971   1.730441   0.000000
    10  C    2.786928   1.498923   2.156005   2.132295   0.000000
    11  N    3.916745   2.488627   2.652989   3.222513   1.312979
    12  C    4.761610   3.661670   3.982263   4.241770   2.223151
    13  H    5.736498   4.581623   4.737157   5.212166   3.219160
    14  C    4.620305   3.934070   4.554837   4.288469   2.463759
    15  H    5.483455   4.969285   5.622347   5.239178   3.523504
    16  S    3.230315   2.866236   3.769593   2.997614   1.767636
    17  H    2.958105   2.872903   2.683690   3.757322   3.698011
                   11         12         13         14         15
    11  N    0.000000
    12  C    1.371349   0.000000
    13  H    2.118683   1.080935   0.000000
    14  C    2.326015   1.368536   2.174279   0.000000
    15  H    3.370974   2.224854   2.682852   1.081437   0.000000
    16  S    2.575540   2.528509   3.582033   1.719205   2.451154
    17  H    4.072831   5.287212   5.912303   5.882169   6.911071
                   16         17
    16  S    0.000000
    17  H    5.130227   0.000000
 Stoichiometry    C5H9N2S(1+)
 Framework group  C1[X(C5H9N2S)]
 Deg. of freedom    45
 Full point group                 C1      NOp   1
 RotChk:  IX=0 Diff= 1.64D-02
 Largest Abelian subgroup         C1      NOp   1
 Largest concise Abelian subgroup C1      NOp   1
                         Standard orientation:                         
 ---------------------------------------------------------------------
 Center     Atomic      Atomic             Coordinates (Angstroms)
 Number     Number       Type             X           Y           Z
 ---------------------------------------------------------------------
      1          7           0        2.709996    0.625629   -0.790730
      2          1           0        1.893691    1.189442   -1.065686
      3          1           0        3.207830    0.362165   -1.655937
      4          6           0        2.307298   -0.583248   -0.004047
      5          1           0        3.198441   -0.961578    0.498944
      6          1           0        1.985358   -1.352624   -0.705757
      7          6           0        1.227478   -0.234267    1.031290
      8          1           0        1.586858    0.571745    1.675436
      9          1           0        1.130021   -1.097099    1.701641
     10          6           0       -0.109243    0.088947    0.435071
     11          7           0       -0.669451    1.275884    0.470607
     12          6           0       -1.943236    1.253468   -0.036904
     13          1           0       -2.495147    2.179920   -0.111089
     14          6           0       -2.414418    0.031065   -0.432642
     15          1           0       -3.385021   -0.250443   -0.817597
     16         16           0       -1.197061   -1.157771   -0.186930
     17          1           0        3.339859    1.236439   -0.244815
 ---------------------------------------------------------------------
 Rotational constants (GHZ):           3.4038941           1.1132255           0.9722289
 Leave Link  202 at Sun Jul 11 16:21:28 2021, MaxMem=   104857600 cpu:               0.0 elap:               0.0
 (Enter /prod/apps/gaussian/g16b1/l301.exe)
 Standard basis: 6-31G(d) (6D, 7F)
 Ernie: Thresh=  0.10000D-02 Tol=  0.10000D-05 Strict=F.
 There are   142 symmetry adapted cartesian basis functions of A   symmetry.
 There are   142 symmetry adapted basis functions of A   symmetry.
   142 basis functions,   284 primitive gaussians,   142 cartesian basis functions
    34 alpha electrons       34 beta electrons
       nuclear repulsion energy       443.3640745121 Hartrees.
 IExCor=  402 DFT=T Ex+Corr=B3LYP ExCW=0 ScaHFX=  0.200000
 ScaDFX=  0.800000  0.720000  1.000000  0.810000 ScalE2=  1.000000  1.000000
 IRadAn=      5 IRanWt=     -1 IRanGd=            0 ICorTp=0 IEmpDi=  4
 NAtoms=   17 NActive=   17 NUniq=   17 SFac= 1.00D+00 NAtFMM=   60 NAOKFM=F Big=F
 Integral buffers will be    131072 words long.
 Raffenetti 2 integral format.
 Two-electron integral symmetry is turned on.
 ------------------------------------------------------------------------------
 Polarizable Continuum Model (PCM)
 =================================
 Model                : PCM.
 Atomic radii         : MST.
 Polarization charges : Total charges.
 Charge compensation  : None.
 Solution method      : On-the-fly selection.
 Cavity type          : Scaled VdW (van der Waals Surface) (Alpha=1.250).
 Cavity algorithm     : GePol (No added spheres)
                        Default sphere list used, NSphG=   17.
                        Lebedev-Laikov grids with approx.  5.0 points / Ang**2.
                        Smoothing algorithm: York/Karplus (Gamma=1.0000).
                        Polarization charges: spherical gaussians, with
                                              point-specific exponents (IZeta= 3).
                        Self-potential: point-specific (ISelfS= 7).
                        Self-field    : sphere-specific E.n sum rule (ISelfD= 2).
 1st derivatives      : Analytical E(r).r(x)/FMM algorithm (CHGder, D1EAlg=3).
                        Cavity 1st derivative terms included.
 Solvent              : Water, Eps=  78.355300 Eps(inf)=   1.777849
 ------------------------------------------------------------------------------
 Spheres list:
 ISph  on   Nord     Re0    Alpha      Xe            Ye            Ze
    1   N      1    1.7000  1.150      2.709996      0.625629     -0.790730
    2   H      2    0.9000  1.150      1.893691      1.189442     -1.065686
    3   H      3    0.9000  1.150      3.207830      0.362165     -1.655937
    4   C      4    1.5000  1.250      2.307298     -0.583248     -0.004047
    5   H      5    1.2000  1.250      3.198441     -0.961578      0.498944
    6   H      6    1.2000  1.250      1.985358     -1.352624     -0.705757
    7   C      7    1.5000  1.250      1.227478     -0.234267      1.031290
    8   H      8    1.2000  1.250      1.586858      0.571745      1.675436
    9   H      9    1.2000  1.250      1.130021     -1.097099      1.701641
   10   C     10    1.5000  1.250     -0.109243      0.088947      0.435071
   11   N     11    1.4000  1.250     -0.669451      1.275884      0.470607
   12   C     12    1.5000  1.250     -1.943236      1.253468     -0.036904
   13   H     13    1.2000  1.250     -2.495147      2.179920     -0.111089
   14   C     14    1.5000  1.250     -2.414418      0.031065     -0.432642
   15   H     15    1.2000  1.250     -3.385021     -0.250443     -0.817597
   16   S     16    1.7500  1.250     -1.197061     -1.157771     -0.186930
   17   H     17    0.9000  1.150      3.339859      1.236439     -0.244815
 ------------------------------------------------------------------------------
 GePol: Number of generator spheres                  =      17
 GePol: Total number of spheres                      =      17
 GePol: Number of exposed spheres                    =      17 (100.00%)
 GePol: Number of points                             =    1312
 GePol: Average weight of points                     =       0.14
 GePol: Minimum weight of points                     =   0.16D-09
 GePol: Maximum weight of points                     =    0.22001
 GePol: Number of points with low weight             =      81
 GePol: Fraction of low-weight points (<1% of avg)   =       6.17%
 GePol: Cavity surface area                          =    179.186 Ang**2
 GePol: Cavity volume                                =    159.787 Ang**3
 PCM non-electrostatic energy =         0.0002830423 Hartrees.
 Nuclear repulsion after PCM non-electrostatic terms =      443.3643575544 Hartrees.
 Leave Link  301 at Sun Jul 11 16:21:28 2021, MaxMem=   104857600 cpu:               0.4 elap:               0.1
 (Enter /prod/apps/gaussian/g16b1/l302.exe)
 NPDir=0 NMtPBC=     1 NCelOv=     1 NCel=       1 NClECP=     1 NCelD=      1
         NCelK=      1 NCelE2=     1 NClLst=     1 CellRange=     0.0.
 One-electron integrals computed using PRISM.
 One-electron integral symmetry used in STVInt
 NBasis=   142 RedAO= T EigKep=  2.40D-03  NBF=   142
 NBsUse=   142 1.00D-06 EigRej= -1.00D+00 NBFU=   142
 Precomputing XC quadrature grid using
 IXCGrd= 4 IRadAn=           5 IRanWt=          -1 IRanGd=           0 AccXCQ= 0.00D+00.
 Generated NRdTot=       0 NPtTot=           0 NUsed=           0 NTot=          32
 NSgBfM=   142   142   142   142   142 MxSgAt=    17 MxSgA2=    17.
 Leave Link  302 at Sun Jul 11 16:21:28 2021, MaxMem=   104857600 cpu:               0.7 elap:               0.2
 (Enter /prod/apps/gaussian/g16b1/l303.exe)
 DipDrv:  MaxL=1.
 Leave Link  303 at Sun Jul 11 16:21:28 2021, MaxMem=   104857600 cpu:               0.1 elap:               0.0
 (Enter /prod/apps/gaussian/g16b1/l401.exe)
 Initial guess from the checkpoint file:  "SET_328_BBB87_conf1.geo_075_240.chk"
 B after Tr=     0.000000   -0.000000   -0.000000
         Rot=    0.999991   -0.003615   -0.000487    0.002035 Ang=  -0.48 deg.
 Guess basis will be translated and rotated to current coordinates.
 JPrj=2 DoOrth=T DoCkMO=T.
 Generating alternative initial guess.
 ExpMin= 1.17D-01 ExpMax= 2.19D+04 ExpMxC= 3.30D+03 IAcc=3 IRadAn=         5 AccDes= 0.00D+00
 Harris functional with IExCor=  402 and IRadAn=       5 diagonalized for initial guess.
 HarFok:  IExCor=  402 AccDes= 0.00D+00 IRadAn=         5 IDoV= 1 UseB2=F ITyADJ=14
 ICtDFT=  3500011 ScaDFX=  1.000000  1.000000  1.000000  1.000000
 FoFCou: FMM=F IPFlag=           0 FMFlag=      100000 FMFlg1=           0
         NFxFlg=           0 DoJE=T BraDBF=F KetDBF=T FulRan=T
         wScrn=  0.000000 ICntrl=       500 IOpCl=  0 I1Cent=   200000004 NGrid=           0
         NMat0=    1 NMatS0=      1 NMatT0=    0 NMatD0=    1 NMtDS0=    0 NMtDT0=    0
 Petite list used in FoFCou.
 Harris En= -703.380226670782    
 Leave Link  401 at Sun Jul 11 16:21:29 2021, MaxMem=   104857600 cpu:               3.0 elap:               0.8
 (Enter /prod/apps/gaussian/g16b1/l502.exe)
 Keep R1 ints in memory in canonical form, NReq=55421297.
 FoFCou: FMM=F IPFlag=           0 FMFlag=           0 FMFlg1=           0
         NFxFlg=           0 DoJE=F BraDBF=F KetDBF=F FulRan=T
         wScrn=  0.000000 ICntrl=       600 IOpCl=  0 I1Cent=           0 NGrid=           0
         NMat0=    1 NMatS0=  10153 NMatT0=    0 NMatD0=    1 NMtDS0=    0 NMtDT0=    0
 Symmetry not used in FoFCou.
 Two-electron integral symmetry not used.
 Closed shell SCF:
 Using DIIS extrapolation, IDIIS=  1040.
 NGot=   104857600 LenX=    53267901 LenY=    53247296
 Requested convergence on RMS density matrix=1.00D-08 within 128 cycles.
 Requested convergence on MAX density matrix=1.00D-06.
 Requested convergence on             energy=1.00D-06.
 No special actions if energy rises.

 Cycle   1  Pass 1  IDiag  1:
 Inv3:  Mode=1 IEnd=     5164032.
 Iteration    1 A*A^-1 deviation from unit magnitude is 2.66D-15 for    256.
 Iteration    1 A*A^-1 deviation from orthogonality  is 1.80D-15 for    607    369.
 Iteration    1 A^-1*A deviation from unit magnitude is 2.89D-15 for    101.
 Iteration    1 A^-1*A deviation from orthogonality  is 5.94D-15 for    632    603.
 E= -703.493831077019    
 DIIS: error= 5.20D-03 at cycle   1 NSaved=   1.
 NSaved= 1 IEnMin= 1 EnMin= -703.493831077019     IErMin= 1 ErrMin= 5.20D-03
 ErrMax= 5.20D-03  0.00D+00 EMaxC= 1.00D-01 BMatC= 7.05D-03 BMatP= 7.05D-03
 IDIUse=3 WtCom= 9.48D-01 WtEn= 5.20D-02
 Coeff-Com:  0.100D+01
 Coeff-En:   0.100D+01
 Coeff:      0.100D+01
 Gap=     1.593 Goal=   None    Shift=    0.000
 GapD=    1.593 DampG=2.000 DampE=1.000 DampFc=2.0000 IDamp=-1.
 RMSDP=1.13D-03 MaxDP=1.49D-02              OVMax= 2.95D-02

 Cycle   2  Pass 1  IDiag  1:
 E= -703.505485588746     Delta-E=       -0.011654511727 Rises=F Damp=F
 DIIS: error= 2.95D-03 at cycle   2 NSaved=   2.
 NSaved= 2 IEnMin= 2 EnMin= -703.505485588746     IErMin= 2 ErrMin= 2.95D-03
 ErrMax= 2.95D-03  0.00D+00 EMaxC= 1.00D-01 BMatC= 1.21D-03 BMatP= 7.05D-03
 IDIUse=3 WtCom= 9.71D-01 WtEn= 2.95D-02
 Coeff-Com:  0.178D+00 0.822D+00
 Coeff-En:   0.000D+00 0.100D+01
 Coeff:      0.172D+00 0.828D+00
 Gap=     0.213 Goal=   None    Shift=    0.000
 RMSDP=3.21D-04 MaxDP=1.37D-02 DE=-1.17D-02 OVMax= 1.32D-02

 Cycle   3  Pass 1  IDiag  1:
 E= -703.505708151734     Delta-E=       -0.000222562988 Rises=F Damp=F
 DIIS: error= 2.88D-03 at cycle   3 NSaved=   3.
 NSaved= 3 IEnMin= 3 EnMin= -703.505708151734     IErMin= 3 ErrMin= 2.88D-03
 ErrMax= 2.88D-03  0.00D+00 EMaxC= 1.00D-01 BMatC= 1.04D-03 BMatP= 1.21D-03
 IDIUse=3 WtCom= 9.71D-01 WtEn= 2.88D-02
 Coeff-Com: -0.407D-01 0.488D+00 0.552D+00
 Coeff-En:   0.000D+00 0.445D+00 0.555D+00
 Coeff:     -0.395D-01 0.487D+00 0.553D+00
 Gap=     0.212 Goal=   None    Shift=    0.000
 RMSDP=1.58D-04 MaxDP=6.94D-03 DE=-2.23D-04 OVMax= 6.55D-03

 Cycle   4  Pass 1  IDiag  1:
 E= -703.506553805972     Delta-E=       -0.000845654238 Rises=F Damp=F
 DIIS: error= 1.91D-04 at cycle   4 NSaved=   4.
 NSaved= 4 IEnMin= 4 EnMin= -703.506553805972     IErMin= 4 ErrMin= 1.91D-04
 ErrMax= 1.91D-04  0.00D+00 EMaxC= 1.00D-01 BMatC= 1.16D-05 BMatP= 1.04D-03
 IDIUse=3 WtCom= 9.98D-01 WtEn= 1.91D-03
 Coeff-Com: -0.208D-01 0.209D+00 0.251D+00 0.561D+00
 Coeff-En:   0.000D+00 0.000D+00 0.000D+00 0.100D+01
 Coeff:     -0.208D-01 0.208D+00 0.251D+00 0.562D+00
 Gap=     0.212 Goal=   None    Shift=    0.000
 RMSDP=2.98D-05 MaxDP=1.11D-03 DE=-8.46D-04 OVMax= 1.72D-03

 Cycle   5  Pass 1  IDiag  1:
 E= -703.506561508149     Delta-E=       -0.000007702177 Rises=F Damp=F
 DIIS: error= 1.05D-04 at cycle   5 NSaved=   5.
 NSaved= 5 IEnMin= 5 EnMin= -703.506561508149     IErMin= 5 ErrMin= 1.05D-04
 ErrMax= 1.05D-04  0.00D+00 EMaxC= 1.00D-01 BMatC= 3.12D-06 BMatP= 1.16D-05
 IDIUse=3 WtCom= 9.99D-01 WtEn= 1.05D-03
 Coeff-Com: -0.561D-02 0.475D-01 0.623D-01 0.349D+00 0.547D+00
 Coeff-En:   0.000D+00 0.000D+00 0.000D+00 0.224D+00 0.776D+00
 Coeff:     -0.561D-02 0.475D-01 0.622D-01 0.349D+00 0.547D+00
 Gap=     0.212 Goal=   None    Shift=    0.000
 RMSDP=1.27D-05 MaxDP=3.76D-04 DE=-7.70D-06 OVMax= 5.73D-04

 Cycle   6  Pass 1  IDiag  1:
 E= -703.506564258498     Delta-E=       -0.000002750350 Rises=F Damp=F
 DIIS: error= 2.44D-05 at cycle   6 NSaved=   6.
 NSaved= 6 IEnMin= 6 EnMin= -703.506564258498     IErMin= 6 ErrMin= 2.44D-05
 ErrMax= 2.44D-05  0.00D+00 EMaxC= 1.00D-01 BMatC= 1.46D-07 BMatP= 3.12D-06
 IDIUse=1 WtCom= 1.00D+00 WtEn= 0.00D+00
 Coeff-Com: -0.602D-03 0.851D-03 0.354D-02 0.103D+00 0.253D+00 0.640D+00
 Coeff:     -0.602D-03 0.851D-03 0.354D-02 0.103D+00 0.253D+00 0.640D+00
 Gap=     0.212 Goal=   None    Shift=    0.000
 RMSDP=3.25D-06 MaxDP=6.14D-05 DE=-2.75D-06 OVMax= 1.28D-04

 Cycle   7  Pass 1  IDiag  1:
 E= -703.506564393646     Delta-E=       -0.000000135147 Rises=F Damp=F
 DIIS: error= 6.50D-06 at cycle   7 NSaved=   7.
 NSaved= 7 IEnMin= 7 EnMin= -703.506564393646     IErMin= 7 ErrMin= 6.50D-06
 ErrMax= 6.50D-06  0.00D+00 EMaxC= 1.00D-01 BMatC= 1.63D-08 BMatP= 1.46D-07
 IDIUse=1 WtCom= 1.00D+00 WtEn= 0.00D+00
 Coeff-Com:  0.396D-03-0.574D-02-0.608D-02 0.119D-01 0.676D-01 0.315D+00
 Coeff-Com:  0.617D+00
 Coeff:      0.396D-03-0.574D-02-0.608D-02 0.119D-01 0.676D-01 0.315D+00
 Coeff:      0.617D+00
 Gap=     0.212 Goal=   None    Shift=    0.000
 RMSDP=1.06D-06 MaxDP=2.10D-05 DE=-1.35D-07 OVMax= 5.35D-05

 Cycle   8  Pass 1  IDiag  1:
 E= -703.506564410329     Delta-E=       -0.000000016684 Rises=F Damp=F
 DIIS: error= 1.69D-06 at cycle   8 NSaved=   8.
 NSaved= 8 IEnMin= 8 EnMin= -703.506564410329     IErMin= 8 ErrMin= 1.69D-06
 ErrMax= 1.69D-06  0.00D+00 EMaxC= 1.00D-01 BMatC= 7.32D-10 BMatP= 1.63D-08
 IDIUse=1 WtCom= 1.00D+00 WtEn= 0.00D+00
 Coeff-Com:  0.177D-03-0.225D-02-0.246D-02-0.614D-03 0.142D-01 0.880D-01
 Coeff-Com:  0.250D+00 0.653D+00
 Coeff:      0.177D-03-0.225D-02-0.246D-02-0.614D-03 0.142D-01 0.880D-01
 Coeff:      0.250D+00 0.653D+00
 Gap=     0.212 Goal=   None    Shift=    0.000
 RMSDP=3.04D-07 MaxDP=6.88D-06 DE=-1.67D-08 OVMax= 1.37D-05

 Cycle   9  Pass 1  IDiag  1:
 E= -703.506564410936     Delta-E=       -0.000000000607 Rises=F Damp=F
 DIIS: error= 7.95D-07 at cycle   9 NSaved=   9.
[...]
                    CP:  1.96D+00  1.59D+00  1.47D+00  1.22D+00  1.30D+00
                    CP:  1.28D+00
 E= -700.831732159245     Delta-E=       -0.000000001280 Rises=F Damp=F
 DIIS: error= 3.16D-07 at cycle  12 NSaved=  12.
 NSaved=12 IEnMin=12 EnMin= -700.831732159245     IErMin=12 ErrMin= 3.16D-07
 ErrMax= 3.16D-07  0.00D+00 EMaxC= 1.00D-01 BMatC= 6.05D-11 BMatP= 3.73D-10
 IDIUse=1 WtCom= 1.00D+00 WtEn= 0.00D+00
 Coeff-Com: -0.649D-05 0.305D-04 0.151D-03 0.292D-03-0.453D-03-0.393D-02
 Coeff-Com:  0.373D-02 0.202D-01-0.546D-02-0.142D+00-0.104D+00 0.123D+01
 Coeff:     -0.649D-05 0.305D-04 0.151D-03 0.292D-03-0.453D-03-0.393D-02
 Coeff:      0.373D-02 0.202D-01-0.546D-02-0.142D+00-0.104D+00 0.123D+01
 Gap=     0.369 Goal=   None    Shift=    0.000
 RMSDP=1.41D-07 MaxDP=5.37D-06 DE=-1.28D-09 OVMax= 6.89D-06

 Cycle  13  Pass 1  IDiag  1:
 RMSU=  5.91D-08    CP:  7.01D-01  9.68D-01  9.10D-01  1.21D+00  1.59D+00
                    CP:  1.96D+00  1.59D+00  1.47D+00  1.22D+00  1.33D+00
                    CP:  1.44D+00  1.37D+00
 E= -700.831732159469     Delta-E=       -0.000000000224 Rises=F Damp=F
 DIIS: error= 1.50D-07 at cycle  13 NSaved=  13.
 NSaved=13 IEnMin=13 EnMin= -700.831732159469     IErMin=13 ErrMin= 1.50D-07
 ErrMax= 1.50D-07  0.00D+00 EMaxC= 1.00D-01 BMatC= 8.10D-12 BMatP= 6.05D-11
 IDIUse=1 WtCom= 1.00D+00 WtEn= 0.00D+00
 Coeff-Com:  0.814D-07-0.367D-05-0.155D-04 0.201D-04 0.221D-03 0.691D-04
 Coeff-Com: -0.161D-02-0.199D-03 0.176D-01 0.106D-01-0.116D+00-0.149D+00
 Coeff-Com:  0.124D+01
 Coeff:      0.814D-07-0.367D-05-0.155D-04 0.201D-04 0.221D-03 0.691D-04
 Coeff:     -0.161D-02-0.199D-03 0.176D-01 0.106D-01-0.116D+00-0.149D+00
 Coeff:      0.124D+01
 Gap=     0.369 Goal=   None    Shift=    0.000
 RMSDP=4.98D-08 MaxDP=1.53D-06 DE=-2.24D-10 OVMax= 3.40D-06

 Cycle  14  Pass 1  IDiag  1:
 RMSU=  2.27D-08    CP:  7.01D-01  9.68D-01  9.10D-01  1.21D+00  1.59D+00
                    CP:  1.96D+00  1.59D+00  1.47D+00  1.22D+00  1.34D+00
                    CP:  1.47D+00  1.56D+00  1.39D+00
 E= -700.831732159505     Delta-E=       -0.000000000036 Rises=F Damp=F
 DIIS: error= 7.37D-08 at cycle  14 NSaved=  14.
 NSaved=14 IEnMin=14 EnMin= -700.831732159505     IErMin=14 ErrMin= 7.37D-08
 ErrMax= 7.37D-08  0.00D+00 EMaxC= 1.00D-01 BMatC= 1.29D-12 BMatP= 8.10D-12
 IDIUse=1 WtCom= 1.00D+00 WtEn= 0.00D+00
 Coeff-Com:  0.100D-05-0.442D-05-0.242D-04-0.499D-04 0.356D-04 0.720D-03
 Coeff-Com: -0.436D-03-0.390D-02 0.995D-03 0.191D-01 0.330D-01-0.187D+00
 Coeff-Com: -0.167D+00 0.130D+01
 Coeff:      0.100D-05-0.442D-05-0.242D-04-0.499D-04 0.356D-04 0.720D-03
 Coeff:     -0.436D-03-0.390D-02 0.995D-03 0.191D-01 0.330D-01-0.187D+00
 Coeff:     -0.167D+00 0.130D+01
 Gap=     0.369 Goal=   None    Shift=    0.000
 RMSDP=2.36D-08 MaxDP=7.54D-07 DE=-3.59D-11 OVMax= 1.87D-06

 Cycle  15  Pass 1  IDiag  1:
 RMSU=  8.79D-09    CP:  7.01D-01  9.68D-01  9.10D-01  1.21D+00  1.59D+00
                    CP:  1.96D+00  1.59D+00  1.47D+00  1.22D+00  1.34D+00
                    CP:  1.48D+00  1.62D+00  1.57D+00  1.62D+00
 E= -700.831732159504     Delta-E=        0.000000000000 Rises=F Damp=F
 DIIS: error= 2.21D-08 at cycle  15 NSaved=  15.
 NSaved=15 IEnMin=14 EnMin= -700.831732159505     IErMin=15 ErrMin= 2.21D-08
 ErrMax= 2.21D-08  0.00D+00 EMaxC= 1.00D-01 BMatC= 1.92D-13 BMatP= 1.29D-12
 IDIUse=1 WtCom= 1.00D+00 WtEn= 0.00D+00
 Coeff-Com:  0.172D-07 0.461D-06 0.136D-05-0.648D-05-0.322D-04 0.266D-04
 Coeff-Com:  0.246D-03-0.257D-03-0.197D-02-0.162D-02 0.189D-01 0.150D-01
 Coeff-Com: -0.204D+00 0.667D-01 0.111D+01
 Coeff:      0.172D-07 0.461D-06 0.136D-05-0.648D-05-0.322D-04 0.266D-04
 Coeff:      0.246D-03-0.257D-03-0.197D-02-0.162D-02 0.189D-01 0.150D-01
 Coeff:     -0.204D+00 0.667D-01 0.111D+01
 Gap=     0.369 Goal=   None    Shift=    0.000
 RMSDP=8.23D-09 MaxDP=2.86D-07 DE= 2.27D-13 OVMax= 6.22D-07

 SCF Done:  E(RHF) =  -700.831732160     A.U. after   15 cycles
            NFock= 15  Conv=0.82D-08     -V/T= 2.0007
 KE= 7.003328127451D+02 PE=-2.536014294853D+03 EE= 6.879037973301D+02
 Leave Link  502 at Sun Jul 11 16:30:15 2021, MaxMem=   262144000 cpu:             215.4 elap:              53.9
 (Enter /prod/apps/gaussian/g16b1/l801.exe)
 ExpMin= 2.97D-02 ExpMax= 1.11D+05 ExpMxC= 1.07D+03 IAcc=3 IRadAn=         5 AccDes= 0.00D+00
 HarFok:  IExCor=  205 AccDes= 0.00D+00 IRadAn=         5 IDoV=-2 UseB2=F ITyADJ=14
 ICtDFT= 12500011 ScaDFX=  1.000000  1.000000  1.000000  1.000000
 Largest valence mixing into a core orbital is  3.20D-04
 Largest core mixing into a valence orbital is  8.80D-05
 Range of M.O.s used for correlation:    13   269
 NBasis=   269 NAE=    34 NBE=    34 NFC=    12 NFV=     0
 NROrb=    257 NOA=    22 NOB=    22 NVA=   235 NVB=   235

 **** Warning!!: The largest alpha MO coefficient is  0.49482834D+02

 Leave Link  801 at Sun Jul 11 16:30:16 2021, MaxMem=   262144000 cpu:               0.5 elap:               0.1
 (Enter /prod/apps/gaussian/g16b1/l906.exe)
 FulOut=F Deriv=F AODrv=F NAtomX=    17
   MMem=          42  MDisk=          22 MDiskD=          22
  W3Min=     1473450 MinDsk=     1955505 NBas6D=         285
 NBas2D=       41124    NTT=       40755    LW2=     2000000
    MDV=   261532111 MDiskM=       12647 NBas2p=       40543
 Fully direct method using O(OVN) memory.
 IMap=   1   2   3   4   5   6   7   8   9  10  11  12  13  14  15  16  17  18  19  20
 IMap=  21  22
 JobTyp=1 Pass  1:  I=   1 to  22 NPSUse=  4 ParTrn=T ParDer=T DoDerP=F.
 Spin components of T(2) and E(2):
     alpha-alpha T2 =       0.5954217202D-01 E2=     -0.1552727068D+00
     alpha-beta  T2 =       0.3169480756D+00 E2=     -0.8829422048D+00
     beta-beta   T2 =       0.5954217202D-01 E2=     -0.1552727068D+00
 The integrals were generated   1 times.
 ANorm=    0.1198345701D+01
 E2 =    -0.1193487618D+01 EUMP2 =    -0.70202521977781D+03
 Leave Link  906 at Sun Jul 11 16:30:34 2021, MaxMem=   262144000 cpu:              73.1 elap:              18.3
 (Enter /prod/apps/gaussian/g16b1/l601.exe)
 Copying SCF densities to generalized density rwf, IOpCl= 0 IROHF=0.

 **********************************************************************

            Population analysis using the SCF Density.

 **********************************************************************

 Orbital symmetries:
       Occupied  (A) (A) (A) (A) (A) (A) (A) (A) (A) (A) (A) (A)
                 (A) (A) (A) (A) (A) (A) (A) (A) (A) (A) (A) (A)
                 (A) (A) (A) (A) (A) (A) (A) (A) (A) (A)
       Virtual   (A) (A) (A) (A) (A) (A) (A) (A) (A) (A) (A) (A)
                 (A) (A) (A) (A) (A) (A) (A) (A) (A) (A) (A) (A)
                 (A) (A) (A) (A) (A) (A) (A) (A) (A) (A) (A) (A)
                 (A) (A) (A) (A) (A) (A) (A) (A) (A) (A) (A) (A)
                 (A) (A) (A) (A) (A) (A) (A) (A) (A) (A) (A) (A)
                 (A) (A) (A) (A) (A) (A) (A) (A) (A) (A) (A) (A)
                 (A) (A) (A) (A) (A) (A) (A) (A) (A) (A) (A) (A)
                 (A) (A) (A) (A) (A) (A) (A) (A) (A) (A) (A) (A)
                 (A) (A) (A) (A) (A) (A) (A) (A) (A) (A) (A) (A)
                 (A) (A) (A) (A) (A) (A) (A) (A) (A) (A) (A) (A)
                 (A) (A) (A) (A) (A) (A) (A) (A) (A) (A) (A) (A)
                 (A) (A) (A) (A) (A) (A) (A) (A) (A) (A) (A) (A)
                 (A) (A) (A) (A) (A) (A) (A) (A) (A) (A) (A) (A)
                 (A) (A) (A) (A) (A) (A) (A) (A) (A) (A) (A) (A)
                 (A) (A) (A) (A) (A) (A) (A) (A) (A) (A) (A) (A)
                 (A) (A) (A) (A) (A) (A) (A) (A) (A) (A) (A) (A)
                 (A) (A) (A) (A) (A) (A) (A) (A) (A) (A) (A) (A)
                 (A) (A) (A) (A) (A) (A) (A) (A) (A) (A) (A) (A)
                 (A) (A) (A) (A) (A) (A) (A) (A) (A) (A) (A) (A)
                 (A) (A) (A) (A) (A) (A) (A)
 The electronic state is 1-A.
 Alpha  occ. eigenvalues --  -92.13132 -15.87165 -15.72923 -11.47922 -11.46945
 Alpha  occ. eigenvalues --  -11.42761 -11.40636 -11.40182  -9.13314  -6.81453
 Alpha  occ. eigenvalues --   -6.81363  -6.81190  -1.48899  -1.42822  -1.24134
 Alpha  occ. eigenvalues --   -1.20089  -1.13776  -1.05265  -0.95596  -0.94351
 Alpha  occ. eigenvalues --   -0.92905  -0.87875  -0.83719  -0.82043  -0.77802
 Alpha  occ. eigenvalues --   -0.74818  -0.73129  -0.70138  -0.68542  -0.67815
 Alpha  occ. eigenvalues --   -0.63426  -0.58011  -0.52672  -0.46879
 Alpha virt. eigenvalues --   -0.09970  -0.07225  -0.06841  -0.05751  -0.04030
 Alpha virt. eigenvalues --   -0.03791  -0.03588  -0.03378  -0.02623  -0.01609
 Alpha virt. eigenvalues --   -0.01328  -0.00050   0.00031   0.01144   0.01672
 Alpha virt. eigenvalues --    0.02215   0.03001   0.03233   0.03653   0.03941
 Alpha virt. eigenvalues --    0.04537   0.05045   0.05642   0.05815   0.06201
 Alpha virt. eigenvalues --    0.07030   0.07786   0.07874   0.08124   0.09433
 Alpha virt. eigenvalues --    0.09973   0.10483   0.10599   0.11192   0.11956
 Alpha virt. eigenvalues --    0.12219   0.12938   0.13865   0.14079   0.15786
 Alpha virt. eigenvalues --    0.16127   0.16399   0.18731   0.19458   0.20494
 Alpha virt. eigenvalues --    0.20752   0.21751   0.22301   0.22546   0.23741
 Alpha virt. eigenvalues --    0.23983   0.24459   0.25596   0.27621   0.28517
 Alpha virt. eigenvalues --    0.28804   0.30203   0.30966   0.31693   0.32654
 Alpha virt. eigenvalues --    0.32921   0.33549   0.33851   0.34296   0.34717
 Alpha virt. eigenvalues --    0.35282   0.36091   0.37148   0.37460   0.38796
 Alpha virt. eigenvalues --    0.40119   0.40977   0.41405   0.42052   0.42601
 Alpha virt. eigenvalues --    0.43362   0.44319   0.45110   0.46516   0.47134
 Alpha virt. eigenvalues --    0.47243   0.48322   0.50110   0.50824   0.51384
 Alpha virt. eigenvalues --    0.52337   0.53161   0.54569   0.54684   0.55326
 Alpha virt. eigenvalues --    0.56229   0.57126   0.57201   0.58240   0.59375
 Alpha virt. eigenvalues --    0.61024   0.61717   0.62318   0.63363   0.64376
 Alpha virt. eigenvalues --    0.64804   0.65117   0.66585   0.68145   0.68402
 Alpha virt. eigenvalues --    0.69043   0.69901   0.71322   0.72078   0.74520
 Alpha virt. eigenvalues --    0.74767   0.75131   0.76918   0.78394   0.79517
 Alpha virt. eigenvalues --    0.79633   0.80188   0.82456   0.83229   0.86495
 Alpha virt. eigenvalues --    0.87098   0.87526   0.88725   0.90082   0.92001
 Alpha virt. eigenvalues --    0.92582   0.96429   0.97177   0.98624   1.00822
 Alpha virt. eigenvalues --    1.01644   1.03374   1.03606   1.04368   1.08203
 Alpha virt. eigenvalues --    1.09815   1.10067   1.10705   1.13109   1.14868
 Alpha virt. eigenvalues --    1.16440   1.17252   1.19763   1.23776   1.24133
 Alpha virt. eigenvalues --    1.26398   1.28646   1.30505   1.31077   1.37361
 Alpha virt. eigenvalues --    1.40369   1.41774   1.43545   1.45342   1.46490
 Alpha virt. eigenvalues --    1.48738   1.51670   1.54092   1.55545   1.57308
 Alpha virt. eigenvalues --    1.59386   1.60331   1.62533   1.63381   1.65779
 Alpha virt. eigenvalues --    1.67254   1.67992   1.71021   1.71224   1.74744
 Alpha virt. eigenvalues --    1.76186   1.76504   1.77478   1.81088   1.83842
 Alpha virt. eigenvalues --    1.86391   1.88138   1.91099   1.92892   1.93392
 Alpha virt. eigenvalues --    1.94354   1.97625   1.98873   2.00398   2.03539
 Alpha virt. eigenvalues --    2.04150   2.04407   2.07579   2.09629   2.12637
 Alpha virt. eigenvalues --    2.13313   2.15121   2.18250   2.19289   2.20868
 Alpha virt. eigenvalues --    2.24057   2.27738   2.29606   2.30698   2.32939
 Alpha virt. eigenvalues --    2.34168   2.35689   2.36583   2.38843   2.42459
 Alpha virt. eigenvalues --    2.45204   2.46352   2.48352   2.52149   2.54927
 Alpha virt. eigenvalues --    2.56730   2.59317   2.61772   2.66829   2.69744
 Alpha virt. eigenvalues --    2.72243   2.73785   2.75307   2.79037   2.81217
 Alpha virt. eigenvalues --    2.83327   2.84001   2.87859   2.92102   2.96263
 Alpha virt. eigenvalues --    2.99676   3.04394   3.07503   3.16263   3.29442
 Alpha virt. eigenvalues --    3.34857   3.35743   3.39026   3.57694   3.71127
          Condensed to atoms (all electrons):
               1          2          3          4          5          6
     1  N    6.467143   0.392899   0.434626  -0.020214  -0.099728  -0.065681
     2  H    0.392899   0.474597  -0.072505  -0.047981   0.018273  -0.006607
     3  H    0.434626  -0.072505   0.602853  -0.055945  -0.004745  -0.037483
     4  C   -0.020214  -0.047981  -0.055945   4.603384   0.311051   0.211476
     5  H   -0.099728   0.018273  -0.004745   0.311051   1.169316  -0.211297
     6  H   -0.065681  -0.006607  -0.037483   0.211476  -0.211297   1.252689
     7  C   -0.120339  -0.010894   0.036777   0.599598   0.034061  -0.107961
     8  H    0.019226   0.005221  -0.004510  -0.191528  -0.057221   0.077570
     9  H    0.018499  -0.002556   0.000526   0.042765  -0.043994  -0.049600
    10  C    0.123384  -0.021501  -0.014560  -0.379643   0.015362   0.091677
    11  N   -0.097650   0.061317   0.001040   0.063606   0.004732  -0.027118
    12  C   -0.003113  -0.002149  -0.000645  -0.076891   0.001943  -0.026552
    13  H    0.007113  -0.014749   0.000779  -0.004435  -0.000321  -0.000111
    14  C    0.000450  -0.000071   0.000403   0.015113   0.001080   0.004866
    15  H   -0.000296   0.001941  -0.000070   0.002415   0.000270  -0.000165
    16  S   -0.024620   0.003307  -0.000496   0.026036  -0.002974   0.016682
    17  H    0.359398  -0.031113  -0.064703  -0.008359  -0.034850   0.022378
               7          8          9         10         11         12
     1  N   -0.120339   0.019226   0.018499   0.123384  -0.097650  -0.003113
     2  H   -0.010894   0.005221  -0.002556  -0.021501   0.061317  -0.002149
     3  H    0.036777  -0.004510   0.000526  -0.014560   0.001040  -0.000645
     4  C    0.599598  -0.191528   0.042765  -0.379643   0.063606  -0.076891
     5  H    0.034061  -0.057221  -0.043994   0.015362   0.004732   0.001943
     6  H   -0.107961   0.077570  -0.049600   0.091677  -0.027118  -0.026552
     7  C    5.489938   0.256289   0.067207  -0.314704   0.084088  -0.219948
     8  H    0.256289   0.985120  -0.139791   0.046426  -0.049467  -0.035232
     9  H    0.067207  -0.139791   1.093480  -0.011165   0.029229   0.013760
    10  C   -0.314704   0.046426  -0.011165   6.309566   0.376152  -0.250985
    11  N    0.084088  -0.049467   0.029229   0.376152   7.518652   0.147561
    12  C   -0.219948  -0.035232   0.013760  -0.250985   0.147561   5.639730
    13  H   -0.010827  -0.000947   0.000553   0.090002  -0.195381   0.278659
    14  C   -0.009529   0.009298  -0.005252  -0.076760  -0.118633   0.189590
    15  H    0.026025   0.000889   0.001384   0.030580   0.012531  -0.010924
    16  S    0.073710   0.044835  -0.062940   0.095113  -0.128513  -0.321327
    17  H   -0.039222   0.004817   0.004682   0.014715  -0.013387  -0.001607
              13         14         15         16         17
     1  N    0.007113   0.000450  -0.000296  -0.024620   0.359398
     2  H   -0.014749  -0.000071   0.001941   0.003307  -0.031113
     3  H    0.000779   0.000403  -0.000070  -0.000496  -0.064703
     4  C   -0.004435   0.015113   0.002415   0.026036  -0.008359
     5  H   -0.000321   0.001080   0.000270  -0.002974  -0.034850
     6  H   -0.000111   0.004866  -0.000165   0.016682   0.022378
     7  C   -0.010827  -0.009529   0.026025   0.073710  -0.039222
     8  H   -0.000947   0.009298   0.000889   0.044835   0.004817
     9  H    0.000553  -0.005252   0.001384  -0.062940   0.004682
    10  C    0.090002  -0.076760   0.030580   0.095113   0.014715
    11  N   -0.195381  -0.118633   0.012531  -0.128513  -0.013387
    12  C    0.278659   0.189590  -0.010924  -0.321327  -0.001607
    13  H    1.271055  -0.123103  -0.038671  -0.000357   0.001249
    14  C   -0.123103   5.422056   0.269435   0.288243  -0.000475
    15  H   -0.038671   0.269435   1.160460  -0.124958  -0.000171
    16  S   -0.000357   0.288243  -0.124958  15.734658  -0.000525
    17  H    0.001249  -0.000475  -0.000171  -0.000525   0.541029
 Mulliken charges:
               1
     1  N   -0.391098
     2  H    0.252570
     3  H    0.178657
     4  C    0.909551
     5  H   -0.100956
     6  H   -0.144762
     7  C    0.165731
     8  H    0.029005
     9  H    0.043214
    10  C   -0.123658
    11  N   -0.668758
    12  C    0.678130
    13  H   -0.260507
    14  C    0.133287
    15  H   -0.330675
    16  S    0.384124
    17  H    0.246144
 Sum of Mulliken charges =   1.00000
 Mulliken charges with hydrogens summed into heavy atoms:
               1
     1  N    0.286274
     4  C    0.663832
     7  C    0.237951
    10  C   -0.123658
    11  N   -0.668758
    12  C    0.417622
    14  C   -0.197387
    16  S    0.384124
 Electronic spatial extent (au):  <R**2>=           1220.0319
 Charge=              1.0000 electrons
 Dipole moment (field-independent basis, Debye):
    X=              8.5730    Y=              1.4274    Z=              0.2261  Tot=              8.6940
 Quadrupole moment (field-independent basis, Debye-Ang):
   XX=            -11.6125   YY=            -44.4568   ZZ=            -53.2083
   XY=              3.0132   XZ=              1.6862   YZ=              0.0025
 Traceless Quadrupole moment (field-independent basis, Debye-Ang):
   XX=             24.8134   YY=             -8.0309   ZZ=            -16.7825
   XY=              3.0132   XZ=              1.6862   YZ=              0.0025
 Octapole moment (field-independent basis, Debye-Ang**2):
  XXX=             83.3934  YYY=             10.8788  ZZZ=              2.3882  XYY=             14.8664
  XXY=             29.4569  XXZ=              0.2993  XZZ=             19.0184  YZZ=             -0.0540
  YYZ=             -0.9851  XYZ=              1.4271
 Hexadecapole moment (field-independent basis, Debye-Ang**3):
 XXXX=           -672.5597 YYYY=           -340.9914 ZZZZ=            -84.5495 XXXY=             71.6728
 XXXZ=             16.9794 YYYX=              2.8118 YYYZ=             -0.1020 ZZZX=              6.0262
 ZZZY=              1.3113 XXYY=           -195.0156 XXZZ=           -185.1874 YYZZ=            -82.6403
 XXYZ=              0.1234 YYXZ=             -0.7561 ZZXY=              9.6937
 N-N= 4.469459526181D+02 E-N=-2.536014296463D+03  KE= 7.003328127451D+02
 Leave Link  601 at Sun Jul 11 16:30:34 2021, MaxMem=   262144000 cpu:               0.2 elap:               0.1
 (Enter /prod/apps/gaussian/g16b1/l9999.exe)
 1\1\GINC-PIRINEUS37\SP\RMP2-FC\Aug-CC-pVDZ\C5H9N2S1(1+)\UBATOR02\11-Ju
 l-2021\0\\#p mp2/aug-cc-pVDZ scf=tight maxdisk=180GB geom=allcheck\\SE
 T_328_BBB87_conf1.geo_075_240 geometry\\1,1\N,0,1.4523468556,1.6661735
 468,-0.6281692182\H,0,1.6307107084,0.8532478732,-0.0040738082\H,0,1.92
 40381433,2.5026026108,-0.2530157793\C,0,-0.0308737145,1.8653296604,-0.
 7250122173\H,0,-0.2123662701,2.6469182223,-1.460293643\H,0,-0.36483591
 09,2.209136489,0.2534165814\C,0,-0.725215461,0.5654931701,-1.125685978
 9\H,0,-0.3597629985,0.2379197665,-2.1061138498\H,0,-1.7900925731,0.776
 2648505,-1.2479263697\C,0,-0.5239432653,-0.5349483392,-0.1203643899\N,
 0,0.5818364663,-0.6958517055,0.5620952473\C,0,0.5123740137,-1.79061067
 46,1.3967437743\H,0,1.3610786903,-2.0350968323,2.0205387993\C,0,-0.658
 9372418,-2.485054771,1.3550670624\H,0,-0.9434172729,-3.3664796649,1.90
 96468063\S,0,-1.7420679218,-1.7385466068,0.2245406008\H,0,1.8681277522
 ,1.4595024049,-1.5503936175\\Version=ES64L-G16RevB.01\State=1-A\HF=-70
 0.8317322\MP2=-702.0252198\RMSD=8.228e-09\PG=C01 [X(C5H9N2S1)]\\@


 A SUCCESSFUL PURSUIT OF SCIENCE MAKES A MAN THE
 BENEFACTOR OF ALL MANKIND OF EVERY AGE.
   --  JOSEPH PRIESTLEY, "EXPERIMENTS AND
 OBSERVATIONS ON DIFFERENT KINDS OF AIR", 1774
 Job cpu time:       0 days  0 hours  4 minutes 54.8 seconds.
 Elapsed time:       0 days  0 hours  1 minutes 13.9 seconds.
 File lengths (MBytes):  RWF=     43 Int=      0 D2E=      0 Chk=      8 Scr=      1
 Normal termination of Gaussian 16 at Sun Jul 11 16:30:34 2021.
