 Entering Gaussian System, Link 0=g16
 Initial command:
 /prod/apps/gaussian/g16b1/l1.exe "/tmp/ubator02/1834573/Gau-99317.inp" -scrdir="/tmp/ubator02/1834573/"
 Entering Link 1 = /prod/apps/gaussian/g16b1/l1.exe PID=     99318.
  
 Copyright (c) 1988-2017, Gaussian, Inc.  All Rights Reserved.
  
 This is part of the Gaussian(R) 16 program.  It is based on
 the Gaussian(R) 09 system (copyright 2009, Gaussian, Inc.),
 the Gaussian(R) 03 system (copyright 2003, Gaussian, Inc.),
 the Gaussian(R) 98 system (copyright 1998, Gaussian, Inc.),
 the Gaussian(R) 94 system (copyright 1995, Gaussian, Inc.),
 the Gaussian 92(TM) system (copyright 1992, Gaussian, Inc.),
 the Gaussian 90(TM) system (copyright 1990, Gaussian, Inc.),
 the Gaussian 88(TM) system (copyright 1988, Gaussian, Inc.),
 the Gaussian 86(TM) system (copyright 1986, Carnegie Mellon
 University), and the Gaussian 82(TM) system (copyright 1983,
 Carnegie Mellon University). Gaussian is a federally registered
 trademark of Gaussian, Inc.
  
 This software contains proprietary and confidential information,
 including trade secrets, belonging to Gaussian, Inc.
  
 This software is provided under written license and may be
 used, copied, transmitted, or stored only in accord with that
 written license.
  
 The following legend is applicable only to US Government
 contracts under FAR:
  
                    RESTRICTED RIGHTS LEGEND
  
 Use, reproduction and disclosure by the US Government is
 subject to restrictions as set forth in subparagraphs (a)
 and (c) of the Commercial Computer Software - Restricted
 Rights clause in FAR 52.227-19.
  
 Gaussian, Inc.
 340 Quinnipiac St., Bldg. 40, Wallingford CT 06492
  
  
 ---------------------------------------------------------------
 Warning -- This program may not be used in any manner that
 competes with the business of Gaussian, Inc. or will provide
 assistance to any competitor of Gaussian, Inc.  The licensee
 of this program is prohibited from giving any competitor of
 Gaussian, Inc. access to this program.  By using this program,
 the user acknowledges that Gaussian, Inc. is engaged in the
 business of creating and licensing software in the field of
 computational chemistry and represents and warrants to the
 licensee that it is not a competitor of Gaussian, Inc. and that
 it will not use this program in any manner prohibited above.
 ---------------------------------------------------------------
  

 Cite this work as:
 Gaussian 16, Revision B.01,
 M. J. Frisch, G. W. Trucks, H. B. Schlegel, G. E. Scuseria, 
 M. A. Robb, J. R. Cheeseman, G. Scalmani, V. Barone, 
 G. A. Petersson, H. Nakatsuji, X. Li, M. Caricato, A. V. Marenich, 
 J. Bloino, B. G. Janesko, R. Gomperts, B. Mennucci, H. P. Hratchian, 
 J. V. Ortiz, A. F. Izmaylov, J. L. Sonnenberg, D. Williams-Young, 
 F. Ding, F. Lipparini, F. Egidi, J. Goings, B. Peng, A. Petrone, 
 T. Henderson, D. Ranasinghe, V. G. Zakrzewski, J. Gao, N. Rega, 
 G. Zheng, W. Liang, M. Hada, M. Ehara, K. Toyota, R. Fukuda, 
 J. Hasegawa, M. Ishida, T. Nakajima, Y. Honda, O. Kitao, H. Nakai, 
 T. Vreven, K. Throssell, J. A. Montgomery, Jr., J. E. Peralta, 
 F. Ogliaro, M. J. Bearpark, J. J. Heyd, E. N. Brothers, K. N. Kudin, 
 V. N. Staroverov, T. A. Keith, R. Kobayashi, J. Normand, 
 K. Raghavachari, A. P. Rendell, J. C. Burant, S. S. Iyengar, 
 J. Tomasi, M. Cossi, J. M. Millam, M. Klene, C. Adamo, R. Cammi, 
 J. W. Ochterski, R. L. Martin, K. Morokuma, O. Farkas, 
 J. B. Foresman, and D. J. Fox, Gaussian, Inc., Wallingford CT, 2016.
 
 ******************************************
 Gaussian 16:  ES64L-G16RevB.01 20-Dec-2017
                11-Jul-2021 
 ******************************************
 %mem=800MB
 %nproc=4
 Will use up to    4 processors via shared memory.
 %chk=SET_328_BBB299_conf1.geo_180_000.chk
 -----------------------------------------------------------
 #p b3lyp/6-31G(d) opt freq scrf=(iefpcm,read,solvent=water)
 -----------------------------------------------------------
 1/18=20,19=15,26=3,38=1,40=2/1,3;
 2/9=110,12=2,17=6,18=5,40=1/2;
 3/5=1,6=6,7=1,11=2,25=1,30=1,70=2203,71=1,72=1,74=-5/1,2,3;
 4//1;
 5/5=2,38=5,53=1/2;
 6/7=2,8=2,9=2,10=2,28=1/1;
 7//1,2,3,16;
 1/18=20,19=15,26=3/3(2);
 2/9=110/2;
 99//99;
 2/9=110/2;
 3/5=1,6=6,7=1,11=2,25=1,30=1,70=2205,71=1,72=1,74=-5/1,2,3;
 4/5=5,16=3,69=1/1;
 5/5=2,38=5,53=1/2;
 7//1,2,3,16;
 1/18=20,19=15,26=3/3(-5);
 2/9=110/2;
 6/7=2,8=2,9=2,10=2,19=2,28=1/1;
 99/9=1/99;
 Leave Link    1 at Sun Jul 11 16:10:17 2021, MaxMem=   104857600 cpu:               0.1 elap:               0.0
 (Enter /prod/apps/gaussian/g16b1/l101.exe)
 -----------------------------------------
 SET_328_BBB299_conf1.geo_180_000 geometry
 -----------------------------------------
 Symbolic Z-matrix:
 Charge = -1 Multiplicity = 1
 O                    -1.161    -0.887    -2.407 
 C                    -1.43     -0.752    -1.192 
 O                    -2.47     -1.164    -0.746 
 C                    -0.344    -0.137    -0.357 
 C                    -0.528     0.063     0.999 
 O                    -1.637    -0.419     1.596 
 H                    -2.17     -0.869     0.917 
 C                     0.446     0.632     1.8 
 H                     0.293     0.83      2.858 
 C                     1.746     0.844     1.248 
 H                     2.617     1.135     1.83 
 C                     1.94      0.632    -0.163 
 H                     2.877     0.74     -0.702 
 C                     0.848     0.303    -0.933 
 H                     0.983     0.278    -2.011 
 
 ITRead=  0  0  0  0  0  0  0  0  0  0  0  0  0  0  0
 MicOpt= -1 -1 -1 -1 -1 -1 -1 -1 -1 -1 -1 -1 -1 -1 -1
 NAtoms=     15 NQM=       15 NQMF=       0 NMMI=      0 NMMIF=      0
                NMic=       0 NMicF=      0.
                    Isotopes and Nuclear Properties:
 (Nuclear quadrupole moments (NQMom) in fm**2, nuclear magnetic moments (NMagM)
  in nuclear magnetons)

  Atom         1           2           3           4           5           6           7           8           9          10
 IAtWgt=          16          12          16          12          12          16           1          12           1          12
 AtmWgt=  15.9949146  12.0000000  15.9949146  12.0000000  12.0000000  15.9949146   1.0078250  12.0000000   1.0078250  12.0000000
 NucSpn=           0           0           0           0           0           0           1           0           1           0
 AtZEff=  -0.0000000  -0.0000000  -0.0000000  -0.0000000  -0.0000000  -0.0000000  -0.0000000  -0.0000000  -0.0000000  -0.0000000
 NQMom=    0.0000000   0.0000000   0.0000000   0.0000000   0.0000000   0.0000000   0.0000000   0.0000000   0.0000000   0.0000000
 NMagM=    0.0000000   0.0000000   0.0000000   0.0000000   0.0000000   0.0000000   2.7928460   0.0000000   2.7928460   0.0000000
 AtZNuc=   8.0000000   6.0000000   8.0000000   6.0000000   6.0000000   8.0000000   1.0000000   6.0000000   1.0000000   6.0000000

  Atom        11          12          13          14          15
 IAtWgt=           1          12           1          12           1
 AtmWgt=   1.0078250  12.0000000   1.0078250  12.0000000   1.0078250
 NucSpn=           1           0           1           0           1
 AtZEff=  -0.0000000  -0.0000000  -0.0000000  -0.0000000  -0.0000000
 NQMom=    0.0000000   0.0000000   0.0000000   0.0000000   0.0000000
 NMagM=    2.7928460   0.0000000   2.7928460   0.0000000   2.7928460
 AtZNuc=   1.0000000   6.0000000   1.0000000   6.0000000   1.0000000
 Leave Link  101 at Sun Jul 11 16:10:17 2021, MaxMem=   104857600 cpu:               0.4 elap:               0.1
 (Enter /prod/apps/gaussian/g16b1/l103.exe)

 GradGradGradGradGradGradGradGradGradGradGradGradGradGradGradGradGradGrad
 Berny optimization.
 Initialization pass.
                           ----------------------------
                           !    Initial Parameters    !
                           ! (Angstroms and Degrees)  !
 --------------------------                            --------------------------
 ! Name  Definition              Value          Derivative Info.                !
 --------------------------------------------------------------------------------
 ! R1    R(1,2)                  1.2517         estimate D2E/DX2                !
 ! R2    R(2,3)                  1.2043         estimate D2E/DX2                !
 ! R3    R(2,4)                  1.5016         estimate D2E/DX2                !
 ! R4    R(4,5)                  1.383          estimate D2E/DX2                !
 ! R5    R(4,14)                 1.3951         estimate D2E/DX2                !
 ! R6    R(5,6)                  1.3486         estimate D2E/DX2                !
 ! R7    R(5,8)                  1.3835         estimate D2E/DX2                !
 ! R8    R(6,7)                  0.9735         estimate D2E/DX2                !
 ! R9    R(8,9)                  1.0872         estimate D2E/DX2                !
 ! R10   R(8,10)                 1.4282         estimate D2E/DX2                !
 ! R11   R(10,11)                1.0872         estimate D2E/DX2                !
 ! R12   R(10,12)                1.44           estimate D2E/DX2                !
 ! R13   R(12,13)                1.0863         estimate D2E/DX2                !
 ! R14   R(12,14)                1.3761         estimate D2E/DX2                !
 ! R15   R(14,15)                1.0867         estimate D2E/DX2                !
 ! A1    A(1,2,3)              120.5424         estimate D2E/DX2                !
 ! A2    A(1,2,4)              115.3726         estimate D2E/DX2                !
 ! A3    A(3,2,4)              123.9693         estimate D2E/DX2                !
 ! A4    A(2,4,5)              120.5462         estimate D2E/DX2                !
 ! A5    A(2,4,14)             121.1666         estimate D2E/DX2                !
 ! A6    A(5,4,14)             118.2226         estimate D2E/DX2                !
 ! A7    A(4,5,6)              119.4581         estimate D2E/DX2                !
 ! A8    A(4,5,8)              122.2418         estimate D2E/DX2                !
 ! A9    A(6,5,8)              118.0114         estimate D2E/DX2                !
 ! A10   A(5,6,7)              107.8608         estimate D2E/DX2                !
 ! A11   A(5,8,9)              122.6329         estimate D2E/DX2                !
 ! A12   A(5,8,10)             118.5622         estimate D2E/DX2                !
 ! A13   A(9,8,10)             118.5027         estimate D2E/DX2                !
 ! A14   A(8,10,11)            124.1985         estimate D2E/DX2                !
 ! A15   A(8,10,12)            118.6538         estimate D2E/DX2                !
 ! A16   A(11,10,12)           117.1303         estimate D2E/DX2                !
 ! A17   A(10,12,13)           125.9971         estimate D2E/DX2                !
 ! A18   A(10,12,14)           118.463          estimate D2E/DX2                !
 ! A19   A(13,12,14)           115.5056         estimate D2E/DX2                !
 ! A20   A(4,14,12)            121.4945         estimate D2E/DX2                !
 ! A21   A(4,14,15)            120.5614         estimate D2E/DX2                !
 ! A22   A(12,14,15)           117.5158         estimate D2E/DX2                !
 ! D1    D(1,2,4,5)            179.931          estimate D2E/DX2                !
 ! D2    D(1,2,4,14)             2.9072         estimate D2E/DX2                !
 ! D3    D(3,2,4,5)             -3.9723         estimate D2E/DX2                !
 ! D4    D(3,2,4,14)           179.0038         estimate D2E/DX2                !
 ! D5    D(2,4,5,6)              6.6019         estimate D2E/DX2                !
 ! D6    D(2,4,5,8)           -179.6955         estimate D2E/DX2                !
 ! D7    D(14,4,5,6)          -176.2882         estimate D2E/DX2                !
 ! D8    D(14,4,5,8)            -2.5856         estimate D2E/DX2                !
 ! D9    D(2,4,14,12)         -167.6096         estimate D2E/DX2                !
 ! D10   D(2,4,14,15)            4.692          estimate D2E/DX2                !
 ! D11   D(5,4,14,12)           15.2993         estimate D2E/DX2                !
 ! D12   D(5,4,14,15)         -172.3991         estimate D2E/DX2                !
 ! D13   D(4,5,6,7)              0.1696         estimate D2E/DX2                !
 ! D14   D(8,5,6,7)           -173.7982         estimate D2E/DX2                !
 ! D15   D(4,5,8,9)            177.3942         estimate D2E/DX2                !
 ! D16   D(4,5,8,10)            -9.0189         estimate D2E/DX2                !
 ! D17   D(6,5,8,9)             -8.8163         estimate D2E/DX2                !
 ! D18   D(6,5,8,10)           164.7706         estimate D2E/DX2                !
 ! D19   D(5,8,10,11)         -169.9496         estimate D2E/DX2                !
 ! D20   D(5,8,10,12)            8.4901         estimate D2E/DX2                !
 ! D21   D(9,8,10,11)            3.9058         estimate D2E/DX2                !
 ! D22   D(9,8,10,12)         -177.6545         estimate D2E/DX2                !
 ! D23   D(8,10,12,13)        -178.8193         estimate D2E/DX2                !
 ! D24   D(8,10,12,14)           3.4156         estimate D2E/DX2                !
 ! D25   D(11,10,12,13)         -0.2694         estimate D2E/DX2                !
 ! D26   D(11,10,12,14)       -178.0345         estimate D2E/DX2                !
 ! D27   D(10,12,14,4)         -15.5358         estimate D2E/DX2                !
 ! D28   D(10,12,14,15)        171.9373         estimate D2E/DX2                !
 ! D29   D(13,12,14,4)         166.4675         estimate D2E/DX2                !
 ! D30   D(13,12,14,15)         -6.0594         estimate D2E/DX2                !
 --------------------------------------------------------------------------------
 Trust Radius=3.00D-01 FncErr=1.00D-07 GrdErr=1.00D-06 EigMax=2.50D+02 EigMin=1.00D-04
 Number of steps in this run=     77 maximum allowed number of steps=    100.
 GradGradGradGradGradGradGradGradGradGradGradGradGradGradGradGradGradGrad

 Leave Link  103 at Sun Jul 11 16:10:17 2021, MaxMem=   104857600 cpu:               0.1 elap:               0.0
 (Enter /prod/apps/gaussian/g16b1/l202.exe)
                          Input orientation:                          
 ---------------------------------------------------------------------
 Center     Atomic      Atomic             Coordinates (Angstroms)
 Number     Number       Type             X           Y           Z
 ---------------------------------------------------------------------
      1          8           0       -1.161000   -0.887000   -2.407000
      2          6           0       -1.430000   -0.752000   -1.192000
      3          8           0       -2.470000   -1.164000   -0.746000
      4          6           0       -0.344000   -0.137000   -0.357000
      5          6           0       -0.528000    0.063000    0.999000
      6          8           0       -1.637000   -0.419000    1.596000
      7          1           0       -2.170000   -0.869000    0.917000
      8          6           0        0.446000    0.632000    1.800000
      9          1           0        0.293000    0.830000    2.858000
     10          6           0        1.746000    0.844000    1.248000
     11          1           0        2.617000    1.135000    1.830000
     12          6           0        1.940000    0.632000   -0.163000
     13          1           0        2.877000    0.740000   -0.702000
     14          6           0        0.848000    0.303000   -0.933000
     15          1           0        0.983000    0.278000   -2.011000
 ---------------------------------------------------------------------
                    Distance matrix (angstroms):
                    1          2          3          4          5
     1  O    0.000000
     2  C    1.251723   0.000000
     3  O    2.132869   1.204267   0.000000
     4  C    2.330770   1.501614   2.392891   0.000000
     5  C    3.592217   2.505656   2.884773   1.382965   0.000000
     6  O    4.058277   2.815436   2.594972   2.359149   1.348560
     7  H    3.473814   2.238118   1.715399   2.343753   1.889844
     8  C    4.752753   3.793006   4.267410   2.422418   1.383488
     9  H    5.725594   4.676960   4.959740   3.417175   2.172144
    10  C    4.980566   4.311356   5.077672   2.811847   2.417238
    11  H    6.026105   5.391796   6.148068   3.894673   3.425021
    12  C    4.118143   3.785657   4.797250   2.417779   2.786580
    13  H    4.675425   4.584366   5.676052   3.356039   3.865974
    14  C    2.761314   2.523765   3.632655   1.395077   2.384030
    15  H    2.471999   2.748496   3.950038   2.160757   3.374825
                    6          7          8          9         10
     6  O    0.000000
     7  H    0.973463   0.000000
     8  C    2.342030   3.142634   0.000000
     9  H    2.622507   3.566574   1.087188   0.000000
    10  C    3.627804   4.287072   1.428162   2.168757   0.000000
    11  H    4.534996   5.269246   2.228710   2.559450   1.087219
    12  C    4.122331   4.506828   2.466861   3.446484   1.439966
    13  H    5.196179   5.539156   3.490190   4.399859   2.256652
    14  C    3.618335   3.728861   2.781930   3.867484   2.419886
    15  H    4.512279   4.453111   3.864894   4.948532   3.394644
                   11         12         13         14         15
    11  H    0.000000
    12  C    2.164113   0.000000
    13  H    2.575781   1.086349   0.000000
    14  C    3.384635   1.376083   2.088342   0.000000
    15  H    4.261184   2.110988   2.348225   1.086708   0.000000
 Stoichiometry    C7H5O3(1-)
 Framework group  C1[X(C7H5O3)]
 Deg. of freedom    39
 Full point group                 C1      NOp   1
 Largest Abelian subgroup         C1      NOp   1
 Largest concise Abelian subgroup C1      NOp   1
                         Standard orientation:                         
 ---------------------------------------------------------------------
 Center     Atomic      Atomic             Coordinates (Angstroms)
 Number     Number       Type             X           Y           Z
 ---------------------------------------------------------------------
      1          8           0       -2.206336   -1.476992    0.007256
      2          6           0       -1.718899   -0.324307   -0.015848
      3          8           0       -2.432035    0.643297    0.057901
      4          6           0       -0.219031   -0.260514   -0.050111
      5          6           0        0.432116    0.959225   -0.079024
      6          8           0       -0.281326    2.095306    0.058580
      7          1           0       -1.216819    1.849055    0.167410
      8          6           0        1.811486    1.058805   -0.117237
      9          1           0        2.328847    2.012827   -0.181711
     10          6           0        2.587040   -0.125803    0.069494
     11          1           0        3.664676   -0.134342    0.213274
     12          6           0        1.909874   -1.396139    0.104067
     13          1           0        2.377226   -2.364865    0.256732
     14          6           0        0.551684   -1.421523   -0.115657
     15          1           0        0.078027   -2.394024   -0.219709
 ---------------------------------------------------------------------
 Rotational constants (GHZ):           2.4537395           1.2448662           0.8284484
 Leave Link  202 at Sun Jul 11 16:10:17 2021, MaxMem=   104857600 cpu:               0.0 elap:               0.0
 (Enter /prod/apps/gaussian/g16b1/l301.exe)
 Standard basis: 6-31G(d) (6D, 7F)
 Ernie: Thresh=  0.10000D-02 Tol=  0.10000D-05 Strict=F.
 There are   160 symmetry adapted cartesian basis functions of A   symmetry.
 There are   160 symmetry adapted basis functions of A   symmetry.
   160 basis functions,   300 primitive gaussians,   160 cartesian basis functions
    36 alpha electrons       36 beta electrons
       nuclear repulsion energy       492.5615940169 Hartrees.
 IExCor=  402 DFT=T Ex+Corr=B3LYP ExCW=0 ScaHFX=  0.200000
 ScaDFX=  0.800000  0.720000  1.000000  0.810000 ScalE2=  1.000000  1.000000
 IRadAn=      5 IRanWt=     -1 IRanGd=            0 ICorTp=0 IEmpDi=  4
 NAtoms=   15 NActive=   15 NUniq=   15 SFac= 1.00D+00 NAtFMM=   60 NAOKFM=F Big=F
 Integral buffers will be    131072 words long.
 Raffenetti 2 integral format.
 Two-electron integral symmetry is turned on.
 Using the following non-standard input for PCM:
 MSTModel=DFT cav MSTCharged
 --- end of non-standard input.
 MST model for solvation energy: B3LYP parametrization.
 MST cavity parameters:
 ISph   IAn     Re0     Alpha   Atom Type   QCorr
 ------------------------------------------------
   1      8     1.40     1.15      O          T
   2      6     1.50     1.15      C          T
   3      8     1.40     1.15      O          T
   4      6     1.50     1.25      C          F
   5      6     1.50     1.25      C          F
   6      8     1.45     1.25      OH         F
   7      1     0.90     1.25      OH         F
   8      6     1.50     1.25      CH         F
   9      1     1.20     1.25      CH         F
  10      6     1.50     1.25      CH         F
  11      1     1.20     1.25      CH         F
  12      6     1.50     1.25      CH         F
  13      1     1.20     1.25      CH         F
  14      6     1.50     1.25      CH         F
  15      1     1.20     1.25      CH         F
 ------------------------------------------------------------------------------
 Polarizable Continuum Model (PCM)
 =================================
 Model                : PCM.
 Atomic radii         : MST.
 Polarization charges : Total charges.
 Charge compensation  : None.
 Solution method      : On-the-fly selection.
 Cavity type          : Scaled VdW (van der Waals Surface) (Alpha=1.250).
 Cavity algorithm     : GePol (No added spheres)
                        Default sphere list used, NSphG=   15.
                        Lebedev-Laikov grids with approx.  5.0 points / Ang**2.
                        Smoothing algorithm: York/Karplus (Gamma=1.0000).
                        Polarization charges: spherical gaussians, with
                                              point-specific exponents (IZeta= 3).
                        Self-potential: point-specific (ISelfS= 7).
                        Self-field    : sphere-specific E.n sum rule (ISelfD= 2).
 1st derivatives      : Analytical E(r).r(x)/FMM algorithm (CHGder, D1EAlg=3).
                        Cavity 1st derivative terms included.
 Solvent              : Water, Eps=  78.355300 Eps(inf)=   1.777849
 ------------------------------------------------------------------------------
 Spheres list:
 ISph  on   Nord     Re0    Alpha      Xe            Ye            Ze
    1   O      1    1.4000  1.150     -2.206336     -1.476992      0.007256
    2   C      2    1.5000  1.150     -1.718899     -0.324307     -0.015848
    3   O      3    1.4000  1.150     -2.432035      0.643297      0.057901
    4   C      4    1.5000  1.250     -0.219031     -0.260514     -0.050111
    5   C      5    1.5000  1.250      0.432116      0.959225     -0.079024
    6   O      6    1.4500  1.250     -0.281326      2.095306      0.058580
    7   H      7    0.9000  1.250     -1.216819      1.849055      0.167410
    8   C      8    1.5000  1.250      1.811486      1.058805     -0.117237
    9   H      9    1.2000  1.250      2.328847      2.012827     -0.181711
   10   C     10    1.5000  1.250      2.587040     -0.125803      0.069494
   11   H     11    1.2000  1.250      3.664676     -0.134342      0.213274
   12   C     12    1.5000  1.250      1.909874     -1.396139      0.104067
   13   H     13    1.2000  1.250      2.377226     -2.364865      0.256732
   14   C     14    1.5000  1.250      0.551684     -1.421523     -0.115657
   15   H     15    1.2000  1.250      0.078027     -2.394024     -0.219709
 ------------------------------------------------------------------------------
 GePol: Number of generator spheres                  =      15
 GePol: Total number of spheres                      =      15
 GePol: Number of exposed spheres                    =      15 (100.00%)
 GePol: Number of points                             =    1290
 GePol: Average weight of points                     =       0.13
 GePol: Minimum weight of points                     =   0.80D-11
 GePol: Maximum weight of points                     =    0.21416
 GePol: Number of points with low weight             =      69
 GePol: Fraction of low-weight points (<1% of avg)   =       5.35%
 GePol: Cavity surface area                          =    163.625 Ang**2
 GePol: Cavity volume                                =    143.713 Ang**3
 PCM non-electrostatic energy =         0.0014440489 Hartrees.
 Nuclear repulsion after PCM non-electrostatic terms =      492.5630380658 Hartrees.
 Leave Link  301 at Sun Jul 11 16:10:17 2021, MaxMem=   104857600 cpu:               0.4 elap:               0.1
 (Enter /prod/apps/gaussian/g16b1/l302.exe)
 NPDir=0 NMtPBC=     1 NCelOv=     1 NCel=       1 NClECP=     1 NCelD=      1
         NCelK=      1 NCelE2=     1 NClLst=     1 CellRange=     0.0.
 One-electron integrals computed using PRISM.
 One-electron integral symmetry used in STVInt
 NBasis=   160 RedAO= T EigKep=  5.05D-04  NBF=   160
 NBsUse=   160 1.00D-06 EigRej= -1.00D+00 NBFU=   160
 Precomputing XC quadrature grid using
 IXCGrd= 4 IRadAn=           5 IRanWt=          -1 IRanGd=           0 AccXCQ= 0.00D+00.
 Generated NRdTot=       0 NPtTot=           0 NUsed=           0 NTot=          32
 NSgBfM=   160   160   160   160   160 MxSgAt=    15 MxSgA2=    15.
 Leave Link  302 at Sun Jul 11 16:10:17 2021, MaxMem=   104857600 cpu:               0.8 elap:               0.2
 (Enter /prod/apps/gaussian/g16b1/l303.exe)
 DipDrv:  MaxL=1.
 Leave Link  303 at Sun Jul 11 16:10:17 2021, MaxMem=   104857600 cpu:               0.1 elap:               0.0
 (Enter /prod/apps/gaussian/g16b1/l401.exe)
 ExpMin= 1.61D-01 ExpMax= 5.48D+03 ExpMxC= 8.25D+02 IAcc=3 IRadAn=         5 AccDes= 0.00D+00
 Harris functional with IExCor=  402 and IRadAn=       5 diagonalized for initial guess.
 HarFok:  IExCor=  402 AccDes= 0.00D+00 IRadAn=         5 IDoV= 1 UseB2=F ITyADJ=14
 ICtDFT=  3500011 ScaDFX=  1.000000  1.000000  1.000000  1.000000
 FoFCou: FMM=F IPFlag=           0 FMFlag=      100000 FMFlg1=           0
         NFxFlg=           0 DoJE=T BraDBF=F KetDBF=T FulRan=T
         wScrn=  0.000000 ICntrl=       500 IOpCl=  0 I1Cent=   200000004 NGrid=           0
         NMat0=    1 NMatS0=      1 NMatT0=    0 NMatD0=    1 NMtDS0=    0 NMtDT0=    0
 Petite list used in FoFCou.
 Harris En= -495.673083803465    
 JPrj=0 DoOrth=F DoCkMO=F.
 Leave Link  401 at Sun Jul 11 16:10:18 2021, MaxMem=   104857600 cpu:               3.5 elap:               0.9
 (Enter /prod/apps/gaussian/g16b1/l502.exe)
 Keep R1 ints in memory in canonical form, NReq=86910067.
 FoFCou: FMM=F IPFlag=           0 FMFlag=           0 FMFlg1=           0
         NFxFlg=           0 DoJE=F BraDBF=F KetDBF=F FulRan=T
         wScrn=  0.000000 ICntrl=       600 IOpCl=  0 I1Cent=           0 NGrid=           0
         NMat0=    1 NMatS0=  12880 NMatT0=    0 NMatD0=    1 NMtDS0=    0 NMtDT0=    0
 Symmetry not used in FoFCou.
 Two-electron integral symmetry not used.
 Closed shell SCF:
 Using DIIS extrapolation, IDIIS=  1040.
 NGot=   104857600 LenX=    21850029 LenY=    21823988
 Requested convergence on RMS density matrix=1.00D-08 within 128 cycles.
 Requested convergence on MAX density matrix=1.00D-06.
 Requested convergence on             energy=1.00D-06.
 No special actions if energy rises.

 Cycle   1  Pass 1  IDiag  1:
 Inv3:  Mode=1 IEnd=     4992300.
 Iteration    1 A*A^-1 deviation from unit magnitude is 3.11D-15 for    756.
 Iteration    1 A*A^-1 deviation from orthogonality  is 3.08D-15 for    770    204.
 Iteration    1 A^-1*A deviation from unit magnitude is 3.55D-15 for    756.
 Iteration    1 A^-1*A deviation from orthogonality  is 9.85D-15 for    849    776.
 E= -495.290286772992    
 DIIS: error= 4.23D-02 at cycle   1 NSaved=   1.
 NSaved= 1 IEnMin= 1 EnMin= -495.290286772992     IErMin= 1 ErrMin= 4.23D-02
 ErrMax= 4.23D-02  0.00D+00 EMaxC= 1.00D-01 BMatC= 3.36D-01 BMatP= 3.36D-01
 IDIUse=3 WtCom= 5.77D-01 WtEn= 4.23D-01
 Coeff-Com:  0.100D+01
 Coeff-En:   0.100D+01
 Coeff:      0.100D+01
 Gap=     0.194 Goal=   None    Shift=    0.000
 GapD=    0.194 DampG=1.000 DampE=0.500 DampFc=0.5000 IDamp=-1.
 Damping current iteration by 5.00D-01
 RMSDP=8.89D-03 MaxDP=2.05D-01              OVMax= 1.83D-01

 Cycle   2  Pass 1  IDiag  1:
 E= -495.411586887271     Delta-E=       -0.121300114279 Rises=F Damp=T
 DIIS: error= 8.53D-03 at cycle   2 NSaved=   2.
 NSaved= 2 IEnMin= 2 EnMin= -495.411586887271     IErMin= 2 ErrMin= 8.53D-03
 ErrMax= 8.53D-03  0.00D+00 EMaxC= 1.00D-01 BMatC= 2.12D-02 BMatP= 3.36D-01
 IDIUse=3 WtCom= 9.15D-01 WtEn= 8.53D-02
 Coeff-Com:  0.102D+00 0.898D+00
 Coeff-En:   0.138D+00 0.862D+00
 Coeff:      0.105D+00 0.895D+00
 Gap=     0.212 Goal=   None    Shift=    0.000
 RMSDP=1.94D-03 MaxDP=5.67D-02 DE=-1.21D-01 OVMax= 1.18D-01

 Cycle   3  Pass 1  IDiag  1:
 E= -495.559554628524     Delta-E=       -0.147967741253 Rises=F Damp=F
 DIIS: error= 8.65D-03 at cycle   3 NSaved=   3.
 NSaved= 3 IEnMin= 3 EnMin= -495.559554628524     IErMin= 2 ErrMin= 8.53D-03
 ErrMax= 8.65D-03  0.00D+00 EMaxC= 1.00D-01 BMatC= 1.46D-02 BMatP= 2.12D-02
 IDIUse=3 WtCom= 9.13D-01 WtEn= 8.65D-02
 Coeff-Com:  0.820D-02 0.447D+00 0.545D+00
 Coeff-En:   0.000D+00 0.000D+00 0.100D+01
 Coeff:      0.749D-02 0.408D+00 0.584D+00
 Gap=     0.196 Goal=   None    Shift=    0.000
 RMSDP=1.07D-03 MaxDP=2.92D-02 DE=-1.48D-01 OVMax= 3.58D-02

 Cycle   4  Pass 1  IDiag  1:
 E= -495.570070653378     Delta-E=       -0.010516024853 Rises=F Damp=F
 DIIS: error= 3.28D-03 at cycle   4 NSaved=   4.
 NSaved= 4 IEnMin= 4 EnMin= -495.570070653378     IErMin= 4 ErrMin= 3.28D-03
 ErrMax= 3.28D-03  0.00D+00 EMaxC= 1.00D-01 BMatC= 2.62D-03 BMatP= 1.46D-02
 IDIUse=3 WtCom= 9.67D-01 WtEn= 3.28D-02
 Coeff-Com: -0.124D-02 0.888D-01 0.316D+00 0.597D+00
 Coeff-En:   0.000D+00 0.000D+00 0.140D+00 0.860D+00
 Coeff:     -0.120D-02 0.858D-01 0.310D+00 0.605D+00
 Gap=     0.197 Goal=   None    Shift=    0.000
 RMSDP=4.09D-04 MaxDP=1.21D-02 DE=-1.05D-02 OVMax= 1.74D-02

 Cycle   5  Pass 1  IDiag  1:
 E= -495.571932133481     Delta-E=       -0.001861480103 Rises=F Damp=F
 DIIS: error= 1.65D-03 at cycle   5 NSaved=   5.
 NSaved= 5 IEnMin= 5 EnMin= -495.571932133481     IErMin= 5 ErrMin= 1.65D-03
 ErrMax= 1.65D-03  0.00D+00 EMaxC= 1.00D-01 BMatC= 4.19D-04 BMatP= 2.62D-03
 IDIUse=3 WtCom= 9.83D-01 WtEn= 1.65D-02
 Coeff-Com: -0.661D-03 0.124D-01 0.145D+00 0.388D+00 0.455D+00
 Coeff-En:   0.000D+00 0.000D+00 0.000D+00 0.772D-01 0.923D+00
 Coeff:     -0.650D-03 0.122D-01 0.143D+00 0.383D+00 0.463D+00
 Gap=     0.194 Goal=   None    Shift=    0.000
 RMSDP=1.33D-04 MaxDP=4.65D-03 DE=-1.86D-03 OVMax= 5.57D-03

 Cycle   6  Pass 1  IDiag  1:
 E= -495.572242761775     Delta-E=       -0.000310628294 Rises=F Damp=F
 DIIS: error= 2.39D-04 at cycle   6 NSaved=   6.
 NSaved= 6 IEnMin= 6 EnMin= -495.572242761775     IErMin= 6 ErrMin= 2.39D-04
 ErrMax= 2.39D-04  0.00D+00 EMaxC= 1.00D-01 BMatC= 1.41D-05 BMatP= 4.19D-04
 IDIUse=3 WtCom= 9.98D-01 WtEn= 2.39D-03
 Coeff-Com: -0.236D-03 0.647D-03 0.492D-01 0.146D+00 0.233D+00 0.571D+00
 Coeff-En:   0.000D+00 0.000D+00 0.000D+00 0.000D+00 0.000D+00 0.100D+01
 Coeff:     -0.235D-03 0.645D-03 0.491D-01 0.146D+00 0.233D+00 0.572D+00
 Gap=     0.194 Goal=   None    Shift=    0.000
 RMSDP=2.78D-05 MaxDP=7.80D-04 DE=-3.11D-04 OVMax= 1.11D-03

 Cycle   7  Pass 1  IDiag  1:
 E= -495.572252693002     Delta-E=       -0.000009931227 Rises=F Damp=F
 DIIS: error= 6.13D-05 at cycle   7 NSaved=   7.
 NSaved= 7 IEnMin= 7 EnMin= -495.572252693002     IErMin= 7 ErrMin= 6.13D-05
 ErrMax= 6.13D-05  0.00D+00 EMaxC= 1.00D-01 BMatC= 1.39D-06 BMatP= 1.41D-05
 IDIUse=1 WtCom= 1.00D+00 WtEn= 0.00D+00
 Coeff-Com: -0.757D-04-0.593D-03 0.167D-01 0.525D-01 0.955D-01 0.317D+00
 Coeff-Com:  0.519D+00
 Coeff:     -0.757D-04-0.593D-03 0.167D-01 0.525D-01 0.955D-01 0.317D+00
 Coeff:      0.519D+00
 Gap=     0.194 Goal=   None    Shift=    0.000
 RMSDP=8.09D-06 MaxDP=2.57D-04 DE=-9.93D-06 OVMax= 3.77D-04

 Cycle   8  Pass 1  IDiag  1:
 E= -495.572253973019     Delta-E=       -0.000001280017 Rises=F Damp=F
 DIIS: error= 1.42D-05 at cycle   8 NSaved=   8.
 NSaved= 8 IEnMin= 8 EnMin= -495.572253973019     IErMin= 8 ErrMin= 1.42D-05
 ErrMax= 1.42D-05  0.00D+00 EMaxC= 1.00D-01 BMatC= 5.83D-08 BMatP= 1.39D-06
 IDIUse=1 WtCom= 1.00D+00 WtEn= 0.00D+00
 Coeff-Com: -0.160D-04-0.332D-03 0.405D-02 0.134D-01 0.272D-01 0.103D+00
 Coeff-Com:  0.239D+00 0.614D+00
 Coeff:     -0.160D-04-0.332D-03 0.405D-02 0.134D-01 0.272D-01 0.103D+00
 Coeff:      0.239D+00 0.614D+00
 Gap=     0.194 Goal=   None    Shift=    0.000
 RMSDP=2.17D-06 MaxDP=6.37D-05 DE=-1.28D-06 OVMax= 9.61D-05

 Cycle   9  Pass 1  IDiag  1:
 E= -495.572254027802     Delta-E=       -0.000000054783 Rises=F Damp=F
 DIIS: error= 4.11D-06 at cycle   9 NSaved=   9.
 NSaved= 9 IEnMin= 9 EnMin= -495.572254027802     IErMin= 9 ErrMin= 4.11D-06
 ErrMax= 4.11D-06  0.00D+00 EMaxC= 1.00D-01 BMatC= 6.44D-09 BMatP= 5.83D-08
 IDIUse=1 WtCom= 1.00D+00 WtEn= 0.00D+00
 Coeff-Com:  0.220D-05-0.837D-04-0.204D-03-0.405D-03 0.506D-03 0.703D-02
 Coeff-Com:  0.451D-01 0.289D+00 0.659D+00
 Coeff:      0.220D-05-0.837D-04-0.204D-03-0.405D-03 0.506D-03 0.703D-02
 Coeff:      0.451D-01 0.289D+00 0.659D+00
 Gap=     0.194 Goal=   None    Shift=    0.000
 RMSDP=5.50D-07 MaxDP=1.66D-05 DE=-5.48D-08 OVMax= 2.66D-05

 Cycle  10  Pass 1  IDiag  1:
 E= -495.572254034196     Delta-E=       -0.000000006394 Rises=F Damp=F
 DIIS: error= 9.43D-07 at cycle  10 NSaved=  10.
 NSaved=10 IEnMin=10 EnMin= -495.572254034196     IErMin=10 ErrMin= 9.43D-07
 ErrMax= 9.43D-07  0.00D+00 EMaxC= 1.00D-01 BMatC= 2.87D-10 BMatP= 6.44D-09
 IDIUse=1 WtCom= 1.00D+00 WtEn= 0.00D+00
 Coeff-Com:  0.653D-06-0.188D-04-0.249D-03-0.722D-03-0.946D-03-0.127D-02
 Coeff-Com:  0.975D-02 0.953D-01 0.280D+00 0.619D+00
 Coeff:      0.653D-06-0.188D-04-0.249D-03-0.722D-03-0.946D-03-0.127D-02
 Coeff:      0.975D-02 0.953D-01 0.280D+00 0.619D+00
 Gap=     0.194 Goal=   None    Shift=    0.000
 RMSDP=1.34D-07 MaxDP=3.43D-06 DE=-6.39D-09 OVMax= 4.08D-06

 Cycle  11  Pass 1  IDiag  1:
 E= -495.572254034433     Delta-E=       -0.000000000237 Rises=F Damp=F
 DIIS: error= 3.46D-07 at cycle  11 NSaved=  11.
 NSaved=11 IEnMin=11 EnMin= -495.572254034433     IErMin=11 ErrMin= 3.46D-07
 ErrMax= 3.46D-07  0.00D+00 EMaxC= 1.00D-01 BMatC= 3.87D-11 BMatP= 2.87D-10
 IDIUse=1 WtCom= 1.00D+00 WtEn= 0.00D+00
 Coeff-Com: -0.765D-07 0.182D-06-0.922D-04-0.282D-03-0.496D-03-0.124D-02
 Coeff-Com:  0.166D-03 0.131D-01 0.598D-01 0.304D+00 0.625D+00
 Coeff:     -0.765D-07 0.182D-06-0.922D-04-0.282D-03-0.496D-03-0.124D-02
 Coeff:      0.166D-03 0.131D-01 0.598D-01 0.304D+00 0.625D+00
 Gap=     0.194 Goal=   None    Shift=    0.000
 RMSDP=4.41D-08 MaxDP=9.67D-07 DE=-2.37D-10 OVMax= 1.63D-06

 Cycle  12  Pass 1  IDiag  1:
 E= -495.572254034470     Delta-E=       -0.000000000037 Rises=F Damp=F
 DIIS: error= 6.18D-08 at cycle  12 NSaved=  12.
 NSaved=12 IEnMin=12 EnMin= -495.572254034470     IErMin=12 ErrMin= 6.18D-08
 ErrMax= 6.18D-08  0.00D+00 EMaxC= 1.00D-01 BMatC= 1.37D-12 BMatP= 3.87D-11
 IDIUse=1 WtCom= 1.00D+00 WtEn= 0.00D+00
 Coeff-Com: -0.165D-06 0.147D-05-0.232D-04-0.730D-04-0.159D-03-0.461D-03
 Coeff-Com: -0.524D-03-0.840D-03 0.589D-02 0.814D-01 0.233D+00 0.682D+00
 Coeff:     -0.165D-06 0.147D-05-0.232D-04-0.730D-04-0.159D-03-0.461D-03
 Coeff:     -0.524D-03-0.840D-03 0.589D-02 0.814D-01 0.233D+00 0.682D+00
 Gap=     0.194 Goal=   None    Shift=    0.000
 RMSDP=1.14D-08 MaxDP=2.76D-07 DE=-3.68D-11 OVMax= 4.88D-07

 Cycle  13  Pass 1  IDiag  1:
 E= -495.572254034475     Delta-E=       -0.000000000005 Rises=F Damp=F
 DIIS: error= 4.68D-08 at cycle  13 NSaved=  13.
 NSaved=13 IEnMin=13 EnMin= -495.572254034475     IErMin=13 ErrMin= 4.68D-08
 ErrMax= 4.68D-08  0.00D+00 EMaxC= 1.00D-01 BMatC= 4.35D-13 BMatP= 1.37D-12
 IDIUse=1 WtCom= 1.00D+00 WtEn= 0.00D+00
 Coeff-Com: -0.750D-07 0.621D-06-0.307D-06-0.105D-05-0.214D-04-0.772D-04
 Coeff-Com: -0.227D-03-0.201D-02-0.413D-02 0.870D-02 0.554D-01 0.397D+00
 Coeff-Com:  0.545D+00
 Coeff:     -0.750D-07 0.621D-06-0.307D-06-0.105D-05-0.214D-04-0.772D-04
 Coeff:     -0.227D-03-0.201D-02-0.413D-02 0.870D-02 0.554D-01 0.397D+00
 Coeff:      0.545D+00
 Gap=     0.194 Goal=   None    Shift=    0.000
 RMSDP=4.66D-09 MaxDP=1.56D-07 DE=-5.00D-12 OVMax= 3.50D-07

 Error on total polarization charges =  0.01913
 SCF Done:  E(RB3LYP) =  -495.572254034     A.U. after   13 cycles
            NFock= 13  Conv=0.47D-08     -V/T= 2.0081
 KE= 4.915884563282D+02 PE=-2.157392198167D+03 EE= 6.776684497385D+02
 Leave Link  502 at Sun Jul 11 16:10:37 2021, MaxMem=   104857600 cpu:              68.3 elap:              18.8
 (Enter /prod/apps/gaussian/g16b1/l601.exe)
 Copying SCF densities to generalized density rwf, IOpCl= 0 IROHF=0.

 **********************************************************************

            Population analysis using the SCF Density.

 **********************************************************************

 Orbital symmetries:
       Occupied  (A) (A) (A) (A) (A) (A) (A) (A) (A) (A) (A) (A)
                 (A) (A) (A) (A) (A) (A) (A) (A) (A) (A) (A) (A)
                 (A) (A) (A) (A) (A) (A) (A) (A) (A) (A) (A) (A)
       Virtual   (A) (A) (A) (A) (A) (A) (A) (A) (A) (A) (A) (A)
                 (A) (A) (A) (A) (A) (A) (A) (A) (A) (A) (A) (A)
                 (A) (A) (A) (A) (A) (A) (A) (A) (A) (A) (A) (A)
                 (A) (A) (A) (A) (A) (A) (A) (A) (A) (A) (A) (A)
                 (A) (A) (A) (A) (A) (A) (A) (A) (A) (A) (A) (A)
                 (A) (A) (A) (A) (A) (A) (A) (A) (A) (A) (A) (A)
                 (A) (A) (A) (A) (A) (A) (A) (A) (A) (A) (A) (A)
                 (A) (A) (A) (A) (A) (A) (A) (A) (A) (A) (A) (A)
                 (A) (A) (A) (A) (A) (A) (A) (A) (A) (A) (A) (A)
                 (A) (A) (A) (A) (A) (A) (A) (A) (A) (A) (A) (A)
                 (A) (A) (A) (A)
 The electronic state is 1-A.
 Alpha  occ. eigenvalues --  -19.14649 -19.08670 -19.05872 -10.25618 -10.23733
 Alpha  occ. eigenvalues --  -10.19673 -10.18276 -10.17879 -10.17762 -10.17134
 Alpha  occ. eigenvalues --   -1.05328  -1.03052  -0.92536  -0.83952  -0.74192
 Alpha  occ. eigenvalues --   -0.72955  -0.62556  -0.58689  -0.54667  -0.50672
 Alpha  occ. eigenvalues --   -0.47546  -0.44932  -0.42717  -0.42477  -0.41863
 Alpha  occ. eigenvalues --   -0.39266  -0.38106  -0.37222  -0.36125  -0.33441
 Alpha  occ. eigenvalues --   -0.31855  -0.24810  -0.24144  -0.23480  -0.21397
 Alpha  occ. eigenvalues --   -0.21149
 Alpha virt. eigenvalues --   -0.01710   0.01965   0.09792   0.11303   0.15126
 Alpha virt. eigenvalues --    0.17383   0.18073   0.19641   0.20550   0.25974
 Alpha virt. eigenvalues --    0.28043   0.31168   0.33457   0.34442   0.36875
 Alpha virt. eigenvalues --    0.41990   0.42743   0.48863   0.51680   0.54607
 Alpha virt. eigenvalues --    0.55982   0.56771   0.58383   0.59667   0.60327
 Alpha virt. eigenvalues --    0.62048   0.62826   0.63218   0.64593   0.67041
 Alpha virt. eigenvalues --    0.67225   0.69675   0.70688   0.72925   0.77277
 Alpha virt. eigenvalues --    0.79820   0.83349   0.84010   0.85683   0.89274
 Alpha virt. eigenvalues --    0.90831   0.91682   0.94022   0.94962   0.96516
 Alpha virt. eigenvalues --    0.99159   1.01746   1.03684   1.05018   1.07330
 Alpha virt. eigenvalues --    1.08000   1.09489   1.15421   1.18540   1.22494
 Alpha virt. eigenvalues --    1.24735   1.25431   1.31628   1.32409   1.36230
 Alpha virt. eigenvalues --    1.38894   1.41784   1.44639   1.46422   1.49383
 Alpha virt. eigenvalues --    1.52576   1.52937   1.60592   1.69739   1.72679
 Alpha virt. eigenvalues --    1.72810   1.77169   1.77439   1.78900   1.82007
 Alpha virt. eigenvalues --    1.85724   1.87631   1.89638   1.91336   1.93218
 Alpha virt. eigenvalues --    1.95355   1.96642   2.01076   2.04168   2.07493
 Alpha virt. eigenvalues --    2.08448   2.11989   2.12265   2.14829   2.17926
 Alpha virt. eigenvalues --    2.24560   2.27768   2.31872   2.35115   2.37606
 Alpha virt. eigenvalues --    2.46823   2.51453   2.54097   2.60565   2.61792
 Alpha virt. eigenvalues --    2.63196   2.64051   2.70133   2.71334   2.77453
 Alpha virt. eigenvalues --    2.79978   2.86337   2.88460   2.95563   2.97655
 Alpha virt. eigenvalues --    3.04608   3.17805   3.29630   3.46410   3.92787
 Alpha virt. eigenvalues --    4.01251   4.08262   4.13730   4.19871   4.30844
 Alpha virt. eigenvalues --    4.42425   4.46148   4.60256   4.75231
          Condensed to atoms (all electrons):
               1          2          3          4          5          6
     1  O    8.385344   0.558145  -0.125540  -0.161091   0.003453  -0.000051
     2  C    0.558145   4.346645   0.470308   0.225070  -0.033609  -0.011916
     3  O   -0.125540   0.470308   8.354784  -0.127622  -0.001740  -0.040903
     4  C   -0.161091   0.225070  -0.127622   5.444645   0.410425  -0.059692
     5  C    0.003453  -0.033609  -0.001740   0.410425   4.662924   0.321991
     6  O   -0.000051  -0.011916  -0.040903  -0.059692   0.321991   8.346824
     7  H    0.001653   0.002285   0.090557  -0.015748  -0.023991   0.194497
     8  C   -0.000112   0.005012   0.000310  -0.052986   0.496467  -0.067288
     9  H    0.000001  -0.000014   0.000009   0.006886  -0.037890  -0.000233
    10  C   -0.000015  -0.000244  -0.000016  -0.040756  -0.012252   0.002769
    11  H    0.000000   0.000004  -0.000000   0.000533   0.003544  -0.000050
    12  C    0.001396   0.006295  -0.000031  -0.028938  -0.040961   0.000145
    13  H   -0.000005  -0.000106   0.000001   0.004442   0.000620   0.000002
    14  C    0.007098  -0.041922   0.005762   0.441305  -0.040773   0.006489
    15  H    0.020418  -0.004147   0.000379  -0.050431   0.004743  -0.000050
               7          8          9         10         11         12
     1  O    0.001653  -0.000112   0.000001  -0.000015   0.000000   0.001396
     2  C    0.002285   0.005012  -0.000014  -0.000244   0.000004   0.006295
     3  O    0.090557   0.000310   0.000009  -0.000016  -0.000000  -0.000031
     4  C   -0.015748  -0.052986   0.006886  -0.040756   0.000533  -0.028938
     5  C   -0.023991   0.496467  -0.037890  -0.012252   0.003544  -0.040961
     6  O    0.194497  -0.067288  -0.000233   0.002769  -0.000050   0.000145
     7  H    0.320408   0.005788  -0.000020  -0.000148   0.000003  -0.000041
     8  C    0.005788   5.055139   0.350403   0.520857  -0.036256  -0.036123
     9  H   -0.000020   0.350403   0.581787  -0.042645  -0.004626   0.004475
    10  C   -0.000148   0.520857  -0.042645   4.940856   0.360762   0.503482
    11  H    0.000003  -0.036256  -0.004626   0.360762   0.566799  -0.041528
    12  C   -0.000041  -0.036123   0.004475   0.503482  -0.041528   5.000483
    13  H    0.000000   0.003577  -0.000113  -0.039259  -0.003639   0.361324
    14  C   -0.000835  -0.040289  -0.000020  -0.028591   0.004265   0.478861
    15  H   -0.000049   0.000358   0.000017   0.005729  -0.000197  -0.043197
              13         14         15
     1  O   -0.000005   0.007098   0.020418
     2  C   -0.000106  -0.041922  -0.004147
     3  O    0.000001   0.005762   0.000379
     4  C    0.004442   0.441305  -0.050431
     5  C    0.000620  -0.040773   0.004743
     6  O    0.000002   0.006489  -0.000050
     7  H    0.000000  -0.000835  -0.000049
     8  C    0.003577  -0.040289   0.000358
     9  H   -0.000113  -0.000020   0.000017
    10  C   -0.039259  -0.028591   0.005729
    11  H   -0.003639   0.004265  -0.000197
    12  C    0.361324   0.478861  -0.043197
    13  H    0.580897  -0.040407  -0.007306
    14  C   -0.040407   5.111956   0.346983
    15  H   -0.007306   0.346983   0.593547
 Mulliken charges:
               1
     1  O   -0.690693
     2  C    0.478193
     3  O   -0.626256
     4  C    0.003958
     5  C    0.287047
     6  O   -0.692532
     7  H    0.425642
     8  C   -0.204856
     9  H    0.141985
    10  C   -0.170528
    11  H    0.150389
    12  C   -0.165643
    13  H    0.139973
    14  C   -0.209881
    15  H    0.133203
 Sum of Mulliken charges =  -1.00000
 Mulliken charges with hydrogens summed into heavy atoms:
               1
     1  O   -0.690693
     2  C    0.478193
     3  O   -0.626256
     4  C    0.003958
     5  C    0.287047
     6  O   -0.266890
     8  C   -0.062872
    10  C   -0.020139
    12  C   -0.025670
    14  C   -0.076678
 Electronic spatial extent (au):  <R**2>=           1325.0343
 Charge=             -1.0000 electrons
 Dipole moment (field-independent basis, Debye):
    X=              9.9101    Y=              1.0533    Z=              0.0090  Tot=              9.9659
 Quadrupole moment (field-independent basis, Debye-Ang):
   XX=            -80.1295   YY=            -67.3367   ZZ=            -58.9964
   XY=             -6.9390   XZ=              0.7804   YZ=             -0.1725
 Traceless Quadrupole moment (field-independent basis, Debye-Ang):
   XX=            -11.3086   YY=              1.4842   ZZ=              9.8245
   XY=             -6.9390   XZ=              0.7804   YZ=             -0.1725
 Octapole moment (field-independent basis, Debye-Ang**2):
  XXX=             67.8163  YYY=             -0.2930  ZZZ=              0.9103  XYY=             16.5418
  XXY=             18.8751  XXZ=              1.7244  XZZ=            -10.3494  YZZ=              3.1452
  YYZ=              0.2821  XYZ=             -1.8764
 Hexadecapole moment (field-independent basis, Debye-Ang**3):
 XXXX=          -1190.0483 YYYY=           -588.3782 ZZZZ=            -58.3080 XXXY=            -29.7988
 XXXZ=             10.8941 YYYX=            -33.4363 YYYZ=             -0.2445 ZZZX=             -0.3603
 ZZZY=              0.9246 XXYY=           -295.6295 XXZZ=           -196.3483 YYZZ=           -107.2308
 XXYZ=             -3.0365 YYXZ=             -0.2492 ZZXY=              0.7876
 N-N= 4.925630380658D+02 E-N=-2.157392198709D+03  KE= 4.915884563282D+02
 No NMR shielding tensors so no spin-rotation constants.
 Leave Link  601 at Sun Jul 11 16:10:37 2021, MaxMem=   104857600 cpu:               0.4 elap:               0.1
 (Enter /prod/apps/gaussian/g16b1/l701.exe)
 ... and contract with generalized density number  0.
 Compute integral first derivatives.
 D1PCM: PCM CHGder 1st derivatives, ID1Alg=3 FixD1E=F DoIter=F DoCFld=F I1PDM=0.
 GePol: Maximum number of non-zero 1st derivatives   =     226
 Leave Link  701 at Sun Jul 11 16:10:38 2021, MaxMem=   104857600 cpu:               3.6 elap:               0.9
 (Enter /prod/apps/gaussian/g16b1/l702.exe)
 L702 exits ... SP integral derivatives will be done elsewhere.
 Leave Link  702 at Sun Jul 11 16:10:38 2021, MaxMem=   104857600 cpu:               0.1 elap:               0.0
 (Enter /prod/apps/gaussian/g16b1/l703.exe)
 Integral derivatives from FoFJK, PRISM(SPDF).
 Compute integral first derivatives, UseDBF=F ICtDFT=           0.
 Calling FoFJK, ICntrl=      2127 FMM=F ISym2X=0 I1Cent= 0 IOpClX= 0 NMat=1 NMatS=1 NMatT=0.
 FoFJK:  IHMeth= 1 ICntrl=    2127 DoSepK=F KAlg= 0 I1Cent=           0 FoldK=F
 IRaf=         0 NMat=       1 IRICut=       1 DoRegI=T DoRafI=F ISym2E= 0 IDoP0=0 IntGTp=1.
 FoFCou: FMM=F IPFlag=           0 FMFlag=      100000 FMFlg1=         800
         NFxFlg=           0 DoJE=F BraDBF=F KetDBF=F FulRan=T
         wScrn=  0.000000 ICntrl=      2127 IOpCl=  0 I1Cent=           0 NGrid=           0
         NMat0=    1 NMatS0=      1 NMatT0=    0 NMatD0=    1 NMtDS0=    0 NMtDT0=    0
 Symmetry not used in FoFCou.
 Leave Link  703 at Sun Jul 11 16:10:42 2021, MaxMem=   104857600 cpu:              17.7 elap:               4.5
 (Enter /prod/apps/gaussian/g16b1/l716.exe)
 Dipole        = 3.89891786D+00 4.14401039D-01 3.54580174D-03
 ***** Axes restored to original set *****
 -------------------------------------------------------------------
 Center     Atomic                   Forces (Hartrees/Bohr)
 Number     Number              X              Y              Z
 -------------------------------------------------------------------
      1        8           0.015270779    0.005102365   -0.031136209
      2        6           0.072015975    0.016850663   -0.054506129
      3        8          -0.086307753   -0.026620217    0.066507301
      4        6          -0.004322324    0.012703130   -0.011104455
      5        6          -0.011747323   -0.014233678    0.012726250
      6        8           0.001144497    0.011591224    0.028726506
      7        1          -0.012307635   -0.006021414   -0.017484188
      8        6           0.050817920    0.011504282    0.001878493
      9        1          -0.003990234   -0.003980882   -0.001950644
     10        6          -0.012398516   -0.008524060   -0.026907944
     11        1          -0.006592614    0.001849957    0.005501196
     12        6          -0.003069012    0.013124035    0.027315782
     13        1           0.003865488    0.006507976    0.010219024
     14        6           0.002399650   -0.014096809   -0.011144603
     15        1          -0.004778900   -0.005756573    0.001359620
 -------------------------------------------------------------------
 Cartesian Forces:  Max     0.086307753 RMS     0.025720070
 Leave Link  716 at Sun Jul 11 16:10:43 2021, MaxMem=   104857600 cpu:               0.2 elap:               0.1
 (Enter /prod/apps/gaussian/g16b1/l103.exe)

 GradGradGradGradGradGradGradGradGradGradGradGradGradGradGradGradGradGrad
 Berny optimization.
 FormGI is forming the generalized inverse of G from B-inverse, IUseBI=4.
 Internal  Forces:  Max     0.108269521 RMS     0.017459272
 Search for a local minimum.
 Step number   1 out of a maximum of   77
 All quantities printed in internal units (Hartrees-Bohrs-Radians)
 RMS Force = .17459D-01 SwitMx=.10000D-02 MixMth= 1
 Mixed Optimization -- RFO/linear search
 Second derivative matrix not updated -- first step.
 ITU=  0
     Eigenvalues ---    0.00745   0.00773   0.01642   0.01704   0.01867
     Eigenvalues ---    0.01928   0.02058   0.02257   0.02299   0.02323
     Eigenvalues ---    0.02346   0.02372   0.15871   0.15901   0.15989
     Eigenvalues ---    0.15995   0.16000   0.21744   0.22466   0.24260
     Eigenvalues ---    0.24863   0.24970   0.25000   0.25000   0.32209
     Eigenvalues ---    0.35136   0.35140   0.35196   0.35238   0.38034
     Eigenvalues ---    0.39706   0.44726   0.45843   0.48127   0.49217
     Eigenvalues ---    0.52676   0.55329   0.82603   1.02708
 RFO step:  Lambda=-3.94872627D-02 EMin= 7.44591255D-03
 Linear search not attempted -- first point.
 Iteration  1 RMS(Cart)=  0.07321646 RMS(Int)=  0.00366011
 Iteration  2 RMS(Cart)=  0.00445109 RMS(Int)=  0.00078066
 Iteration  3 RMS(Cart)=  0.00001472 RMS(Int)=  0.00078056
 Iteration  4 RMS(Cart)=  0.00000001 RMS(Int)=  0.00078056
 ITry= 1 IFail=0 DXMaxC= 2.17D-01 DCOld= 1.00D+10 DXMaxT= 3.00D-01 DXLimC= 3.00D+00 Rises=F
 Variable       Old X    -DE/DX   Delta X   Delta X   Delta X     New X
                                 (Linear)    (Quad)   (Total)
    R1        2.36541   0.03296   0.00000   0.03808   0.03808   2.40349
    R2        2.27574   0.10827   0.00000   0.10151   0.10151   2.37725
    R3        2.83764   0.01184   0.00000   0.03275   0.03275   2.87039
    R4        2.61342   0.02778   0.00000   0.05652   0.05668   2.67011
    R5        2.63631   0.00418   0.00000   0.01209   0.01188   2.64819
    R6        2.54841   0.01217   0.00000   0.02053   0.02053   2.56894
    R7        2.61441   0.01776   0.00000   0.03390   0.03426   2.64868
    R8        1.83958   0.02173   0.00000   0.03837   0.03837   1.87795
    R9        2.05449  -0.00206   0.00000  -0.00527  -0.00527   2.04922
   R10        2.69884  -0.02791   0.00000  -0.06620  -0.06600   2.63283
   R11        2.05455  -0.00184   0.00000  -0.00471  -0.00471   2.04983
   R12        2.72114  -0.02714   0.00000  -0.06670  -0.06686   2.65428
   R13        2.05290  -0.00109   0.00000  -0.00279  -0.00279   2.05011
   R14        2.60042   0.01845   0.00000   0.03472   0.03436   2.63478
   R15        2.05358  -0.00181   0.00000  -0.00463  -0.00463   2.04895
    A1        2.10386   0.03091   0.00000   0.10889   0.10657   2.21043
    A2        2.01363   0.00481   0.00000   0.01871   0.01639   2.03002
    A3        2.16367  -0.03544   0.00000  -0.12034  -0.12266   2.04102
    A4        2.10393   0.00612   0.00000   0.01349   0.01384   2.11776
    A5        2.11476   0.00142   0.00000  -0.00248  -0.00212   2.11264
    A6        2.06337  -0.00747   0.00000  -0.00983  -0.01084   2.05253
    A7        2.08494   0.01309   0.00000   0.04245   0.04206   2.12700
    A8        2.13352  -0.01022   0.00000  -0.02498  -0.02591   2.10761
    A9        2.05969  -0.00254   0.00000  -0.01152  -0.01195   2.04774
   A10        1.88253  -0.00412   0.00000  -0.02064  -0.02064   1.86189
   A11        2.14035  -0.00928   0.00000  -0.03779  -0.03832   2.10203
   A12        2.06930   0.00802   0.00000   0.02715   0.02633   2.09563
   A13        2.06826   0.00164   0.00000   0.01685   0.01636   2.08462
   A14        2.16767  -0.01266   0.00000  -0.05239  -0.05202   2.11565
   A15        2.07090   0.00841   0.00000   0.02014   0.01934   2.09024
   A16        2.04431   0.00428   0.00000   0.03252   0.03288   2.07719
   A17        2.19906  -0.01482   0.00000  -0.06956  -0.06895   2.13011
   A18        2.06757   0.00505   0.00000   0.01646   0.01507   2.08264
   A19        2.01595   0.00979   0.00000   0.05372   0.05435   2.07030
   A20        2.12048  -0.00168   0.00000   0.00552   0.00322   2.12370
   A21        2.10419  -0.00530   0.00000  -0.03029  -0.03038   2.07381
   A22        2.05104   0.00754   0.00000   0.03326   0.03322   2.08426
    D1        3.14039  -0.00325   0.00000  -0.07265  -0.07252   3.06787
    D2        0.05074  -0.00487   0.00000  -0.09962  -0.09962  -0.04888
    D3       -0.06933   0.00275   0.00000   0.05436   0.05436  -0.01497
    D4        3.12421   0.00113   0.00000   0.02739   0.02726  -3.13172
    D5        0.11523  -0.00441   0.00000  -0.06686  -0.06707   0.04816
    D6       -3.13628  -0.00104   0.00000  -0.00284  -0.00219  -3.13846
    D7       -3.07681  -0.00259   0.00000  -0.04048  -0.04063  -3.11744
    D8       -0.04513   0.00078   0.00000   0.02354   0.02425  -0.02088
    D9       -2.92534  -0.00669   0.00000  -0.09128  -0.09037  -3.01571
   D10        0.08189  -0.00119   0.00000  -0.01286  -0.01347   0.06842
   D11        0.26702  -0.00866   0.00000  -0.11832  -0.11720   0.14982
   D12       -3.00893  -0.00316   0.00000  -0.03989  -0.04031  -3.04924
   D13        0.00296  -0.00221   0.00000  -0.02610  -0.02538  -0.02242
   D14       -3.03335  -0.00490   0.00000  -0.08639  -0.08711  -3.12046
   D15        3.09611  -0.00047   0.00000  -0.00739  -0.00648   3.08964
   D16       -0.15741   0.00368   0.00000   0.05947   0.05958  -0.09783
   D17       -0.15387   0.00381   0.00000   0.05902   0.05887  -0.09500
   D18        2.87579   0.00795   0.00000   0.12587   0.12492   3.00071
   D19       -2.96618  -0.00380   0.00000  -0.06868  -0.06948  -3.03566
   D20        0.14818  -0.00262   0.00000  -0.05634  -0.05748   0.09070
   D21        0.06817  -0.00057   0.00000  -0.00823  -0.00766   0.06051
   D22       -3.10066   0.00062   0.00000   0.00411   0.00434  -3.09632
   D23       -3.12099  -0.00051   0.00000  -0.00298  -0.00357  -3.12456
   D24        0.05961  -0.00150   0.00000  -0.02458  -0.02476   0.03485
   D25       -0.00470   0.00032   0.00000   0.00717   0.00684   0.00214
   D26       -3.10729  -0.00068   0.00000  -0.01443  -0.01435  -3.12164
   D27       -0.27115   0.00607   0.00000   0.11156   0.11272  -0.15843
   D28        3.00087   0.00166   0.00000   0.04007   0.04009   3.04096
   D29        2.90541   0.00571   0.00000   0.09486   0.09496   3.00036
   D30       -0.10576   0.00130   0.00000   0.02338   0.02233  -0.08343
         Item               Value     Threshold  Converged?
 Maximum Force            0.108270     0.000450     NO 
 RMS     Force            0.017459     0.000300     NO 
 Maximum Displacement     0.217166     0.001800     NO 
 RMS     Displacement     0.072977     0.001200     NO 
 Predicted change in Energy=-2.348259D-02
 Lowest energy point so far.  Saving SCF results.
 GradGradGradGradGradGradGradGradGradGradGradGradGradGradGradGradGradGrad

 Leave Link  103 at Sun Jul 11 16:10:43 2021, MaxMem=   104857600 cpu:               0.1 elap:               0.1
 (Enter /prod/apps/gaussian/g16b1/l202.exe)
                          Input orientation:                          
 ---------------------------------------------------------------------
 Center     Atomic      Atomic             Coordinates (Angstroms)
 Number     Number       Type             X           Y           Z
 ---------------------------------------------------------------------
      1          8           0       -1.194761   -0.842736   -2.497802
      2          6           0       -1.426540   -0.791778   -1.248264
      3          8           0       -2.488350   -1.134064   -0.666948
      4          6           0       -0.335728   -0.181039   -0.385519
      5          6           0       -0.516961    0.009167    1.002803
      6          8           0       -1.647952   -0.393215    1.640756
      7          1           0       -2.242631   -0.784587    0.947388
      8          6           0        0.496486    0.577373    1.786767
      9          1           0        0.334320    0.765276    2.842379
     10          6           0        1.740969    0.854706    1.225113
     11          1           0        2.567934    1.202760    1.834714
     12          6           0        1.942153    0.665570   -0.152060
     13          1           0        2.899848    0.854919   -0.625257
     14          6           0        0.877273    0.241420   -0.945852
     15          1           0        1.003940    0.185227   -2.021220
 ---------------------------------------------------------------------
                    Distance matrix (angstroms):
                    1          2          3          4          5
     1  O    0.000000
     2  C    1.271874   0.000000
     3  O    2.260591   1.257985   0.000000
     4  C    2.374346   1.518947   2.370915   0.000000
     5  C    3.665976   2.556589   2.825140   1.412961   0.000000
     6  O    4.187494   2.924775   2.565272   2.423373   1.359425
     7  H    3.601492   2.342423   1.669908   2.403578   1.900277
     8  C    4.820224   3.844999   4.225989   2.446752   1.401619
     9  H    5.782847   4.717882   4.887774   3.429840   2.163429
    10  C    5.035862   4.342996   5.042047   2.824814   2.421282
    11  H    6.092013   5.425750   6.106150   3.908400   3.410765
    12  C    4.197346   3.830616   4.809693   2.441309   2.794962
    13  H    4.811890   4.670909   5.743733   3.405824   3.878203
    14  C    2.806647   2.542933   3.646528   1.401363   2.407298
    15  H    2.473484   2.731160   3.971230   2.145782   3.389521
                    6          7          8          9         10
     6  O    0.000000
     7  H    0.993767   0.000000
     8  C    2.358384   3.172106   0.000000
     9  H    2.591410   3.554398   1.084399   0.000000
    10  C    3.635224   4.316652   1.393236   2.145276   0.000000
    11  H    4.512034   5.280003   2.164325   2.489138   1.084724
    12  C    4.150189   4.563349   2.420079   3.400255   1.404583
    13  H    5.232126   5.621947   3.416290   4.314449   2.183316
    14  C    3.670158   3.790891   2.779401   3.862631   2.415611
    15  H    4.558201   4.504819   3.861613   4.943627   3.395599
                   11         12         13         14         15
    11  H    0.000000
    12  C    2.151151   0.000000
    13  H    2.506515   1.084873   0.000000
    14  C    3.393237   1.394265   2.137749   0.000000
    15  H    4.283653   2.145864   2.447789   1.084260   0.000000
 Stoichiometry    C7H5O3(1-)
 Framework group  C1[X(C7H5O3)]
 Deg. of freedom    39
 Full point group                 C1      NOp   1
 RotChk:  IX=2 Diff= 1.67D-02
 Largest Abelian subgroup         C1      NOp   1
 Largest concise Abelian subgroup C1      NOp   1
                         Standard orientation:                         
 ---------------------------------------------------------------------
 Center     Atomic      Atomic             Coordinates (Angstroms)
 Number     Number       Type             X           Y           Z
 ---------------------------------------------------------------------
      1          8           0       -2.268390   -1.518712   -0.037406
      2          6           0       -1.759595   -0.354695    0.024695
      3          8           0       -2.383647    0.737363    0.046913
      4          6           0       -0.242920   -0.280030   -0.011709
      5          6           0        0.431310    0.961410   -0.038167
      6          8           0       -0.237954    2.143087    0.023164
      7          1           0       -1.205794    1.921008    0.062414
      8          6           0        1.831367    1.016068   -0.075420
      9          1           0        2.342258    1.970107   -0.144133
     10          6           0        2.578798   -0.154890    0.030921
     11          1           0        3.660807   -0.126684    0.102255
     12          6           0        1.925965   -1.398064    0.065294
     13          1           0        2.470124   -2.331498    0.162970
     14          6           0        0.537222   -1.443528   -0.050037
     15          1           0        0.039648   -2.404452   -0.118339
 ---------------------------------------------------------------------
 Rotational constants (GHZ):           2.3735463           1.2359756           0.8136131
 Leave Link  202 at Sun Jul 11 16:10:43 2021, MaxMem=   104857600 cpu:               0.1 elap:               0.0
 (Enter /prod/apps/gaussian/g16b1/l301.exe)
 Standard basis: 6-31G(d) (6D, 7F)
 Ernie: Thresh=  0.10000D-02 Tol=  0.10000D-05 Strict=F.
 There are   160 symmetry adapted cartesian basis functions of A   symmetry.
 There are   160 symmetry adapted basis functions of A   symmetry.
   160 basis functions,   300 primitive gaussians,   160 cartesian basis functions
    36 alpha electrons       36 beta electrons
       nuclear repulsion energy       488.1016784701 Hartrees.
 IExCor=  402 DFT=T Ex+Corr=B3LYP ExCW=0 ScaHFX=  0.200000
 ScaDFX=  0.800000  0.720000  1.000000  0.810000 ScalE2=  1.000000  1.000000
 IRadAn=      5 IRanWt=     -1 IRanGd=            0 ICorTp=0 IEmpDi=  4
 NAtoms=   15 NActive=   15 NUniq=   15 SFac= 1.00D+00 NAtFMM=   60 NAOKFM=F Big=F
 Integral buffers will be    131072 words long.
 Raffenetti 2 integral format.
 Two-electron integral symmetry is turned on.
 ------------------------------------------------------------------------------
 Polarizable Continuum Model (PCM)
 =================================
 Model                : PCM.
 Atomic radii         : MST.
 Polarization charges : Total charges.
 Charge compensation  : None.
 Solution method      : On-the-fly selection.
 Cavity type          : Scaled VdW (van der Waals Surface) (Alpha=1.250).
 Cavity algorithm     : GePol (No added spheres)
                        Default sphere list used, NSphG=   15.
                        Lebedev-Laikov grids with approx.  5.0 points / Ang**2.
                        Smoothing algorithm: York/Karplus (Gamma=1.0000).
                        Polarization charges: spherical gaussians, with
                                              point-specific exponents (IZeta= 3).
                        Self-potential: point-specific (ISelfS= 7).
                        Self-field    : sphere-specific E.n sum rule (ISelfD= 2).
 1st derivatives      : Analytical E(r).r(x)/FMM algorithm (CHGder, D1EAlg=3).
                        Cavity 1st derivative terms included.
 Solvent              : Water, Eps=  78.355300 Eps(inf)=   1.777849
 ------------------------------------------------------------------------------
 Spheres list:
 ISph  on   Nord     Re0    Alpha      Xe            Ye            Ze
    1   O      1    1.4000  1.150     -2.268390     -1.518712     -0.037406
    2   C      2    1.5000  1.150     -1.759595     -0.354695      0.024695
    3   O      3    1.4000  1.150     -2.383647      0.737363      0.046913
    4   C      4    1.5000  1.250     -0.242920     -0.280030     -0.011709
    5   C      5    1.5000  1.250      0.431310      0.961410     -0.038167
    6   O      6    1.4500  1.250     -0.237954      2.143087      0.023164
    7   H      7    0.9000  1.250     -1.205794      1.921008      0.062414
    8   C      8    1.5000  1.250      1.831367      1.016068     -0.075420
    9   H      9    1.2000  1.250      2.342258      1.970107     -0.144133
   10   C     10    1.5000  1.250      2.578798     -0.154890      0.030921
   11   H     11    1.2000  1.250      3.660807     -0.126684      0.102255
   12   C     12    1.5000  1.250      1.925965     -1.398064      0.065294
   13   H     13    1.2000  1.250      2.470124     -2.331498      0.162970
   14   C     14    1.5000  1.250      0.537222     -1.443528     -0.050037
   15   H     15    1.2000  1.250      0.039648     -2.404452     -0.118339
 ------------------------------------------------------------------------------
 GePol: Number of generator spheres                  =      15
 GePol: Total number of spheres                      =      15
 GePol: Number of exposed spheres                    =      15 (100.00%)
 GePol: Number of points                             =    1279
 GePol: Average weight of points                     =       0.13
 GePol: Minimum weight of points                     =   0.14D-09
 GePol: Maximum weight of points                     =    0.21416
 GePol: Number of points with low weight             =      69
 GePol: Fraction of low-weight points (<1% of avg)   =       5.39%
 GePol: Cavity surface area                          =    164.739 Ang**2
 GePol: Cavity volume                                =    144.702 Ang**3
 PCM non-electrostatic energy =         0.0014932230 Hartrees.
 Nuclear repulsion after PCM non-electrostatic terms =      488.1031716931 Hartrees.
 Leave Link  301 at Sun Jul 11 16:10:43 2021, MaxMem=   104857600 cpu:               0.3 elap:               0.1
 (Enter /prod/apps/gaussian/g16b1/l302.exe)
 NPDir=0 NMtPBC=     1 NCelOv=     1 NCel=       1 NClECP=     1 NCelD=      1
         NCelK=      1 NCelE2=     1 NClLst=     1 CellRange=     0.0.
 One-electron integrals computed using PRISM.
 One-electron integral symmetry used in STVInt
 NBasis=   160 RedAO= T EigKep=  4.53D-04  NBF=   160
 NBsUse=   160 1.00D-06 EigRej= -1.00D+00 NBFU=   160
 Precomputing XC quadrature grid using
 IXCGrd= 4 IRadAn=           5 IRanWt=          -1 IRanGd=           0 AccXCQ= 0.00D+00.
 Generated NRdTot=       0 NPtTot=           0 NUsed=           0 NTot=          32
 NSgBfM=   160   160   160   160   160 MxSgAt=    15 MxSgA2=    15.
 Leave Link  302 at Sun Jul 11 16:10:43 2021, MaxMem=   104857600 cpu:               0.7 elap:               0.2
 (Enter /prod/apps/gaussian/g16b1/l303.exe)
 DipDrv:  MaxL=1.
 Leave Link  303 at Sun Jul 11 16:10:43 2021, MaxMem=   104857600 cpu:               0.1 elap:               0.1
 (Enter /prod/apps/gaussian/g16b1/l401.exe)
 Initial guess from the checkpoint file:  "SET_328_BBB299_conf1.geo_180_000.chk"
 B after Tr=    -0.000000   -0.000000    0.000000
         Rot=    0.999983    0.000994   -0.000329    0.005768 Ang=   0.67 deg.
 Guess basis will be translated and rotated to current coordinates.
 JPrj=2 DoOrth=T DoCkMO=T.
 Generating alternative initial guess.
 ExpMin= 1.61D-01 ExpMax= 5.48D+03 ExpMxC= 8.25D+02 IAcc=3 IRadAn=         5 AccDes= 0.00D+00
 Harris functional with IExCor=  402 and IRadAn=       5 diagonalized for initial guess.
 HarFok:  IExCor=  402 AccDes= 0.00D+00 IRadAn=         5 IDoV= 1 UseB2=F ITyADJ=14
 ICtDFT=  3500011 ScaDFX=  1.000000  1.000000  1.000000  1.000000
 FoFCou: FMM=F IPFlag=           0 FMFlag=      100000 FMFlg1=           0
         NFxFlg=           0 DoJE=T BraDBF=F KetDBF=T FulRan=T
         wScrn=  0.000000 ICntrl=       500 IOpCl=  0 I1Cent=   200000004 NGrid=           0
         NMat0=    1 NMatS0=      1 NMatT0=    0 NMatD0=    1 NMtDS0=    0 NMtDT0=    0
 Petite list used in FoFCou.
 Harris En= -495.686047646144    
 Leave Link  401 at Sun Jul 11 16:10:44 2021, MaxMem=   104857600 cpu:               3.7 elap:               0.9
 (Enter /prod/apps/gaussian/g16b1/l502.exe)
 Keep R1 ints in memory in canonical form, NReq=86910067.
 FoFCou: FMM=F IPFlag=           0 FMFlag=           0 FMFlg1=           0
         NFxFlg=           0 DoJE=F BraDBF=F KetDBF=F FulRan=T
         wScrn=  0.000000 ICntrl=       600 IOpCl=  0 I1Cent=           0 NGrid=           0
         NMat0=    1 NMatS0=  12880 NMatT0=    0 NMatD0=    1 NMtDS0=    0 NMtDT0=    0
 Symmetry not used in FoFCou.
 Two-electron integral symmetry not used.
 Closed shell SCF:
 Using DIIS extrapolation, IDIIS=  1040.
 NGot=   104857600 LenX=    21850029 LenY=    21823988
 Requested convergence on RMS density matrix=1.00D-08 within 128 cycles.
 Requested convergence on MAX density matrix=1.00D-06.
 Requested convergence on             energy=1.00D-06.
 No special actions if energy rises.

 Cycle   1  Pass 1  IDiag  1:
 Inv3:  Mode=1 IEnd=     4907523.
 Iteration    1 A*A^-1 deviation from unit magnitude is 3.11D-15 for    186.
 Iteration    1 A*A^-1 deviation from orthogonality  is 2.04D-15 for    927    263.
 Iteration    1 A^-1*A deviation from unit magnitude is 2.78D-15 for    730.
 Iteration    1 A^-1*A deviation from orthogonality  is 1.67D-15 for    579    421.
 E= -495.573589258936    
 DIIS: error= 3.62D-03 at cycle   1 NSaved=   1.
 NSaved= 1 IEnMin= 1 EnMin= -495.573589258936     IErMin= 1 ErrMin= 3.62D-03
 ErrMax= 3.62D-03  0.00D+00 EMaxC= 1.00D-01 BMatC= 1.15D-02 BMatP= 1.15D-02
 IDIUse=3 WtCom= 9.64D-01 WtEn= 3.62D-02
 Coeff-Com:  0.100D+01
 Coeff-En:   0.100D+01
 Coeff:      0.100D+01
 Gap=     1.857 Goal=   None    Shift=    0.000
 GapD=    1.857 DampG=2.000 DampE=1.000 DampFc=2.0000 IDamp=-1.
 RMSDP=1.79D-03 MaxDP=3.28D-02              OVMax= 3.74D-02

 Cycle   2  Pass 1  IDiag  1:
 E= -495.592487922161     Delta-E=       -0.018898663226 Rises=F Damp=F
 DIIS: error= 1.83D-03 at cycle   2 NSaved=   2.
 NSaved= 2 IEnMin= 2 EnMin= -495.592487922161     IErMin= 2 ErrMin= 1.83D-03
 ErrMax= 1.83D-03  0.00D+00 EMaxC= 1.00D-01 BMatC= 1.06D-03 BMatP= 1.15D-02
 IDIUse=3 WtCom= 9.82D-01 WtEn= 1.83D-02
 Coeff-Com:  0.835D-01 0.916D+00
 Coeff-En:   0.000D+00 0.100D+01
 Coeff:      0.820D-01 0.918D+00
 Gap=     0.198 Goal=   None    Shift=    0.000
 RMSDP=4.56D-04 MaxDP=9.56D-03 DE=-1.89D-02 OVMax= 2.35D-02

 Cycle   3  Pass 1  IDiag  1:
 E= -495.591657762004     Delta-E=        0.000830160158 Rises=F Damp=F
 DIIS: error= 2.93D-03 at cycle   3 NSaved=   3.
 NSaved= 3 IEnMin= 2 EnMin= -495.592487922161     IErMin= 2 ErrMin= 1.83D-03
 ErrMax= 2.93D-03  0.00D+00 EMaxC= 1.00D-01 BMatC= 2.10D-03 BMatP= 1.06D-03
 IDIUse=3 WtCom= 1.56D-01 WtEn= 8.44D-01
 Coeff-Com: -0.338D-01 0.603D+00 0.431D+00
 Coeff-En:   0.000D+00 0.628D+00 0.372D+00
 Coeff:     -0.527D-02 0.624D+00 0.382D+00
 Gap=     0.196 Goal=   None    Shift=    0.000
 RMSDP=2.75D-04 MaxDP=7.43D-03 DE= 8.30D-04 OVMax= 1.41D-02

 Cycle   4  Pass 1  IDiag  1:
 E= -495.593520497900     Delta-E=       -0.001862735896 Rises=F Damp=F
 DIIS: error= 3.99D-04 at cycle   4 NSaved=   4.
 NSaved= 4 IEnMin= 4 EnMin= -495.593520497900     IErMin= 4 ErrMin= 3.99D-04
 ErrMax= 3.99D-04  0.00D+00 EMaxC= 1.00D-01 BMatC= 3.15D-05 BMatP= 1.06D-03
 IDIUse=3 WtCom= 9.96D-01 WtEn= 3.99D-03
 Coeff-Com: -0.202D-01 0.248D+00 0.169D+00 0.603D+00
 Coeff-En:   0.000D+00 0.000D+00 0.000D+00 0.100D+01
 Coeff:     -0.201D-01 0.247D+00 0.168D+00 0.605D+00
 Gap=     0.196 Goal=   None    Shift=    0.000
 RMSDP=5.10D-05 MaxDP=1.36D-03 DE=-1.86D-03 OVMax= 2.09D-03

 Cycle   5  Pass 1  IDiag  1:
 E= -495.593540085692     Delta-E=       -0.000019587792 Rises=F Damp=F
 DIIS: error= 2.10D-04 at cycle   5 NSaved=   5.
 NSaved= 5 IEnMin= 5 EnMin= -495.593540085692     IErMin= 5 ErrMin= 2.10D-04
 ErrMax= 2.10D-04  0.00D+00 EMaxC= 1.00D-01 BMatC= 9.79D-06 BMatP= 3.15D-05
 IDIUse=3 WtCom= 9.98D-01 WtEn= 2.10D-03
 Coeff-Com: -0.776D-02 0.730D-01 0.511D-01 0.367D+00 0.517D+00
 Coeff-En:   0.000D+00 0.000D+00 0.000D+00 0.225D+00 0.775D+00
 Coeff:     -0.774D-02 0.729D-01 0.510D-01 0.367D+00 0.517D+00
 Gap=     0.196 Goal=   None    Shift=    0.000
 RMSDP=2.14D-05 MaxDP=4.72D-04 DE=-1.96D-05 OVMax= 9.83D-04

 Cycle   6  Pass 1  IDiag  1:
 E= -495.593548083965     Delta-E=       -0.000007998274 Rises=F Damp=F
 DIIS: error= 4.73D-05 at cycle   6 NSaved=   6.
 NSaved= 6 IEnMin= 6 EnMin= -495.593548083965     IErMin= 6 ErrMin= 4.73D-05
 ErrMax= 4.73D-05  0.00D+00 EMaxC= 1.00D-01 BMatC= 5.62D-07 BMatP= 9.79D-06
 IDIUse=1 WtCom= 1.00D+00 WtEn= 0.00D+00
 Coeff-Com: -0.162D-02 0.966D-02 0.861D-02 0.117D+00 0.255D+00 0.611D+00
 Coeff:     -0.162D-02 0.966D-02 0.861D-02 0.117D+00 0.255D+00 0.611D+00
 Gap=     0.196 Goal=   None    Shift=    0.000
 RMSDP=5.81D-06 MaxDP=1.75D-04 DE=-8.00D-06 OVMax= 2.14D-04

 Cycle   7  Pass 1  IDiag  1:
 E= -495.593548533839     Delta-E=       -0.000000449874 Rises=F Damp=F
 DIIS: error= 1.32D-05 at cycle   7 NSaved=   7.
 NSaved= 7 IEnMin= 7 EnMin= -495.593548533839     IErMin= 7 ErrMin= 1.32D-05
 ErrMax= 1.32D-05  0.00D+00 EMaxC= 1.00D-01 BMatC= 5.60D-08 BMatP= 5.62D-07
 IDIUse=1 WtCom= 1.00D+00 WtEn= 0.00D+00
 Coeff-Com:  0.120D-03-0.446D-02-0.215D-02 0.111D-01 0.581D-01 0.292D+00
 Coeff-Com:  0.645D+00
 Coeff:      0.120D-03-0.446D-02-0.215D-02 0.111D-01 0.581D-01 0.292D+00
 Coeff:      0.645D+00
 Gap=     0.196 Goal=   None    Shift=    0.000
 RMSDP=1.82D-06 MaxDP=4.34D-05 DE=-4.50D-07 OVMax= 7.16D-05

 Cycle   8  Pass 1  IDiag  1:
 E= -495.593548577338     Delta-E=       -0.000000043499 Rises=F Damp=F
 DIIS: error= 8.78D-06 at cycle   8 NSaved=   8.
 NSaved= 8 IEnMin= 8 EnMin= -495.593548577338     IErMin= 8 ErrMin= 8.78D-06
 ErrMax= 8.78D-06  0.00D+00 EMaxC= 1.00D-01 BMatC= 7.95D-09 BMatP= 5.60D-08
 IDIUse=1 WtCom= 1.00D+00 WtEn= 0.00D+00
 Coeff-Com:  0.204D-03-0.329D-02-0.201D-02-0.439D-02 0.723D-02 0.102D+00
 Coeff-Com:  0.351D+00 0.550D+00
 Coeff:      0.204D-03-0.329D-02-0.201D-02-0.439D-02 0.723D-02 0.102D+00
 Coeff:      0.351D+00 0.550D+00
 Gap=     0.196 Goal=   None    Shift=    0.000
 RMSDP=5.60D-07 MaxDP=1.81D-05 DE=-4.35D-08 OVMax= 2.09D-05

 Cycle   9  Pass 1  IDiag  1:
 E= -495.593548584297     Delta-E=       -0.000000006959 Rises=F Damp=F
 DIIS: error= 1.56D-06 at cycle   9 NSaved=   9.
 NSaved= 9 IEnMin= 9 EnMin= -495.593548584297     IErMin= 9 ErrMin= 1.56D-06
 ErrMax= 1.56D-06  0.00D+00 EMaxC= 1.00D-01 BMatC= 3.68D-10 BMatP= 7.95D-09
 IDIUse=1 WtCom= 1.00D+00 WtEn= 0.00D+00
 Coeff-Com:  0.735D-04-0.950D-03-0.687D-03-0.266D-02-0.224D-02 0.177D-01
 Coeff-Com:  0.887D-01 0.225D+00 0.675D+00
 Coeff:      0.735D-04-0.950D-03-0.687D-03-0.266D-02-0.224D-02 0.177D-01
 Coeff:      0.887D-01 0.225D+00 0.675D+00
 Gap=     0.196 Goal=   None    Shift=    0.000
 RMSDP=1.51D-07 MaxDP=3.37D-06 DE=-6.96D-09 OVMax= 5.65D-06

 Cycle  10  Pass 1  IDiag  1:
 E= -495.593548584587     Delta-E=       -0.000000000290 Rises=F Damp=F
 DIIS: error= 4.15D-07 at cycle  10 NSaved=  10.
 NSaved=10 IEnMin=10 EnMin= -495.593548584587     IErMin=10 ErrMin= 4.15D-07
 ErrMax= 4.15D-07  0.00D+00 EMaxC= 1.00D-01 BMatC= 6.64D-11 BMatP= 3.68D-10
 IDIUse=1 WtCom= 1.00D+00 WtEn= 0.00D+00
 Coeff-Com:  0.743D-05 0.695D-05-0.588D-04-0.673D-03-0.219D-02-0.546D-02
 Coeff-Com: -0.518D-02 0.391D-01 0.342D+00 0.633D+00
 Coeff:      0.743D-05 0.695D-05-0.588D-04-0.673D-03-0.219D-02-0.546D-02
 Coeff:     -0.518D-02 0.391D-01 0.342D+00 0.633D+00
 Gap=     0.196 Goal=   None    Shift=    0.000
 RMSDP=5.94D-08 MaxDP=1.32D-06 DE=-2.90D-10 OVMax= 3.14D-06

 Cycle  11  Pass 1  IDiag  1:
 E= -495.593548584644     Delta-E=       -0.000000000057 Rises=F Damp=F
 DIIS: error= 1.07D-07 at cycle  11 NSaved=  11.
 NSaved=11 IEnMin=11 EnMin= -495.593548584644     IErMin=11 ErrMin= 1.07D-07
 ErrMax= 1.07D-07  0.00D+00 EMaxC= 1.00D-01 BMatC= 4.54D-12 BMatP= 6.64D-11
 IDIUse=1 WtCom= 1.00D+00 WtEn= 0.00D+00
 Coeff-Com: -0.113D-05 0.639D-04 0.195D-04-0.148D-03-0.843D-03-0.367D-02
 Coeff-Com: -0.833D-02 0.219D-02 0.107D+00 0.292D+00 0.611D+00
 Coeff:     -0.113D-05 0.639D-04 0.195D-04-0.148D-03-0.843D-03-0.367D-02
 Coeff:     -0.833D-02 0.219D-02 0.107D+00 0.292D+00 0.611D+00
 Gap=     0.196 Goal=   None    Shift=    0.000
 RMSDP=1.79D-08 MaxDP=4.35D-07 DE=-5.72D-11 OVMax= 8.30D-07

 Cycle  12  Pass 1  IDiag  1:
 E= -495.593548584644     Delta-E=        0.000000000000 Rises=F Damp=F
 DIIS: error= 4.13D-08 at cycle  12 NSaved=  12.
 NSaved=12 IEnMin=11 EnMin= -495.593548584644     IErMin=12 ErrMin= 4.13D-08
 ErrMax= 4.13D-08  0.00D+00 EMaxC= 1.00D-01 BMatC= 5.14D-13 BMatP= 4.54D-12
 IDIUse=1 WtCom= 1.00D+00 WtEn= 0.00D+00
 Coeff-Com: -0.148D-05 0.294D-04 0.177D-04 0.857D-05-0.134D-03-0.111D-02
 Coeff-Com: -0.328D-02-0.364D-02 0.108D-01 0.620D-01 0.291D+00 0.644D+00
 Coeff:     -0.148D-05 0.294D-04 0.177D-04 0.857D-05-0.134D-03-0.111D-02
 Coeff:     -0.328D-02-0.364D-02 0.108D-01 0.620D-01 0.291D+00 0.644D+00
 Gap=     0.196 Goal=   None    Shift=    0.000
 RMSDP=6.06D-09 MaxDP=1.61D-07 DE= 0.00D+00 OVMax= 3.43D-07

 Error on total polarization charges =  0.01929
 SCF Done:  E(RB3LYP) =  -495.593548585     A.U. after   12 cycles
            NFock= 12  Conv=0.61D-08     -V/T= 2.0090
 KE= 4.911961455729D+02 PE=-2.148123993252D+03 EE= 6.732311274009D+02
 Leave Link  502 at Sun Jul 11 16:11:02 2021, MaxMem=   104857600 cpu:              65.5 elap:              17.9
 (Enter /prod/apps/gaussian/g16b1/l701.exe)
 ... and contract with generalized density number  0.
 Compute integral first derivatives.
 D1PCM: PCM CHGder 1st derivatives, ID1Alg=3 FixD1E=F DoIter=F DoCFld=F I1PDM=0.
 GePol: Maximum number of non-zero 1st derivatives   =     216
 Leave Link  701 at Sun Jul 11 16:11:03 2021, MaxMem=   104857600 cpu:               3.8 elap:               1.0
 (Enter /prod/apps/gaussian/g16b1/l702.exe)
 L702 exits ... SP integral derivatives will be done elsewhere.
 Leave Link  702 at Sun Jul 11 16:11:03 2021, MaxMem=   104857600 cpu:               0.1 elap:               0.0
 (Enter /prod/apps/gaussian/g16b1/l703.exe)
 Integral derivatives from FoFJK, PRISM(SPDF).
 Compute integral first derivatives, UseDBF=F ICtDFT=           0.
 Calling FoFJK, ICntrl=      2127 FMM=F ISym2X=0 I1Cent= 0 IOpClX= 0 NMat=1 NMatS=1 NMatT=0.
 FoFJK:  IHMeth= 1 ICntrl=    2127 DoSepK=F KAlg= 0 I1Cent=           0 FoldK=F
 IRaf=         0 NMat=       1 IRICut=       1 DoRegI=T DoRafI=F ISym2E= 0 IDoP0=0 IntGTp=1.
 FoFCou: FMM=F IPFlag=           0 FMFlag=      100000 FMFlg1=         800
         NFxFlg=           0 DoJE=F BraDBF=F KetDBF=F FulRan=T
         wScrn=  0.000000 ICntrl=      2127 IOpCl=  0 I1Cent=           0 NGrid=           0
         NMat0=    1 NMatS0=      1 NMatT0=    0 NMatD0=    1 NMtDS0=    0 NMtDT0=    0
 Symmetry not used in FoFCou.
 Leave Link  703 at Sun Jul 11 16:11:07 2021, MaxMem=   104857600 cpu:              17.0 elap:               4.3
 (Enter /prod/apps/gaussian/g16b1/l716.exe)
 Dipole        = 3.78901772D+00 2.86499611D-01 3.10178122D-02
 ***** Axes restored to original set *****
 -------------------------------------------------------------------
 Center     Atomic                   Forces (Hartrees/Bohr)
 Number     Number              X              Y              Z
 -------------------------------------------------------------------
      1        8          -0.007895058   -0.004999871    0.015035806
      2        6           0.024671792    0.018989387   -0.023072372
      3        8          -0.018551425   -0.010865909    0.004346404
[...]
                    CP:  1.98D+00  1.51D+00  1.32D+00
 E= -492.711573610900     Delta-E=       -0.000000000031 Rises=F Damp=F
 DIIS: error= 6.12D-08 at cycle  14 NSaved=  14.
 NSaved=14 IEnMin=14 EnMin= -492.711573610900     IErMin=14 ErrMin= 6.12D-08
 ErrMax= 6.12D-08  0.00D+00 EMaxC= 1.00D-01 BMatC= 1.38D-12 BMatP= 1.07D-11
 IDIUse=1 WtCom= 1.00D+00 WtEn= 0.00D+00
 Coeff-Com:  0.471D-06-0.248D-05-0.212D-04-0.205D-04 0.112D-03 0.421D-03
 Coeff-Com: -0.381D-03-0.390D-02 0.967D-03 0.255D-01-0.137D-01-0.123D+00
 Coeff-Com:  0.152D+00 0.961D+00
 Coeff:      0.471D-06-0.248D-05-0.212D-04-0.205D-04 0.112D-03 0.421D-03
 Coeff:     -0.381D-03-0.390D-02 0.967D-03 0.255D-01-0.137D-01-0.123D+00
 Coeff:      0.152D+00 0.961D+00
 Gap=     0.289 Goal=   None    Shift=    0.000
 RMSDP=3.39D-08 MaxDP=8.47D-07 DE=-3.13D-11 OVMax= 8.17D-07

 Cycle  15  Pass 1  IDiag  1:
 RMSU=  2.16D-08    CP:  4.61D-01  9.01D-01  8.10D-01  1.10D+00  1.01D+00
                    CP:  1.44D+00  1.26D+00  1.96D+00  1.92D+00  1.64D+00
                    CP:  1.98D+00  1.52D+00  1.39D+00  1.17D+00
 E= -492.711573610906     Delta-E=       -0.000000000006 Rises=F Damp=F
 DIIS: error= 2.07D-08 at cycle  15 NSaved=  15.
 NSaved=15 IEnMin=15 EnMin= -492.711573610906     IErMin=15 ErrMin= 2.07D-08
 ErrMax= 2.07D-08  0.00D+00 EMaxC= 1.00D-01 BMatC= 2.93D-13 BMatP= 1.38D-12
 IDIUse=1 WtCom= 1.00D+00 WtEn= 0.00D+00
 Coeff-Com:  0.371D-06-0.113D-05-0.922D-05-0.186D-04-0.179D-04 0.345D-03
 Coeff-Com:  0.507D-03-0.165D-02-0.390D-02 0.503D-02 0.212D-01-0.112D-01
 Coeff-Com: -0.206D+00 0.130D+00 0.107D+01
 Coeff:      0.371D-06-0.113D-05-0.922D-05-0.186D-04-0.179D-04 0.345D-03
 Coeff:      0.507D-03-0.165D-02-0.390D-02 0.503D-02 0.212D-01-0.112D-01
 Coeff:     -0.206D+00 0.130D+00 0.107D+01
 Gap=     0.289 Goal=   None    Shift=    0.000
 RMSDP=1.89D-08 MaxDP=5.83D-07 DE=-6.14D-12 OVMax= 4.79D-07

 Cycle  16  Pass 1  IDiag  1:
 RMSU=  6.27D-09    CP:  4.61D-01  9.01D-01  8.10D-01  1.10D+00  1.01D+00
                    CP:  1.44D+00  1.26D+00  1.96D+00  1.92D+00  1.64D+00
                    CP:  1.98D+00  1.52D+00  1.42D+00  1.35D+00  1.32D+00
 E= -492.711573610905     Delta-E=        0.000000000001 Rises=F Damp=F
 DIIS: error= 6.70D-09 at cycle  16 NSaved=  16.
 NSaved=16 IEnMin=15 EnMin= -492.711573610906     IErMin=16 ErrMin= 6.70D-09
 ErrMax= 6.70D-09  0.00D+00 EMaxC= 1.00D-01 BMatC= 2.88D-14 BMatP= 2.93D-13
 IDIUse=1 WtCom= 1.00D+00 WtEn= 0.00D+00
 Coeff-Com: -0.664D-07 0.351D-06 0.268D-05 0.344D-05-0.167D-04-0.530D-04
 Coeff-Com: -0.171D-04 0.542D-03-0.172D-03-0.289D-02-0.352D-03 0.146D-01
 Coeff-Com: -0.512D-02-0.110D+00-0.905D-01 0.119D+01
 Coeff:     -0.664D-07 0.351D-06 0.268D-05 0.344D-05-0.167D-04-0.530D-04
 Coeff:     -0.171D-04 0.542D-03-0.172D-03-0.289D-02-0.352D-03 0.146D-01
 Coeff:     -0.512D-02-0.110D+00-0.905D-01 0.119D+01
 Gap=     0.289 Goal=   None    Shift=    0.000
 RMSDP=8.38D-09 MaxDP=2.79D-07 DE= 1.02D-12 OVMax= 1.77D-07

 SCF Done:  E(RHF) =  -492.711573611     A.U. after   16 cycles
            NFock= 16  Conv=0.84D-08     -V/T= 2.0013
 KE= 4.920750390692D+02 PE=-2.146761521676D+03 EE= 6.734687456936D+02
 Leave Link  502 at Sun Jul 11 16:18:38 2021, MaxMem=   262144000 cpu:             288.5 elap:              72.2
 (Enter /prod/apps/gaussian/g16b1/l801.exe)
 ExpMin= 2.97D-02 ExpMax= 1.17D+04 ExpMxC= 4.01D+02 IAcc=3 IRadAn=         5 AccDes= 0.00D+00
 HarFok:  IExCor=  205 AccDes= 0.00D+00 IRadAn=         5 IDoV=-2 UseB2=F ITyADJ=14
 ICtDFT= 12500011 ScaDFX=  1.000000  1.000000  1.000000  1.000000
 Largest valence mixing into a core orbital is  1.18D-04
 Largest core mixing into a valence orbital is  4.39D-05
 Range of M.O.s used for correlation:    11   275
 NBasis=   275 NAE=    36 NBE=    36 NFC=    10 NFV=     0
 NROrb=    265 NOA=    26 NOB=    26 NVA=   239 NVB=   239

 **** Warning!!: The largest alpha MO coefficient is  0.14196706D+03

 Leave Link  801 at Sun Jul 11 16:18:38 2021, MaxMem=   262144000 cpu:               0.9 elap:               0.3
 (Enter /prod/apps/gaussian/g16b1/l906.exe)
 FulOut=F Deriv=F AODrv=F NAtomX=    15
   MMem=          33  MDisk=          26 MDiskD=          26
  W3Min=     1833130 MinDsk=     2275006 NBas6D=         295
 NBas2D=       44080    NTT=       43660    LW2=     2000000
    MDV=   261548259 MDiskM=       12219 NBas2p=       43203
 Fully direct method using O(OVN) memory.
 IMap=   1   2   3   4   5   6   7   8   9  10  11  12  13  14  15  16  17  18  19  20
 IMap=  21  22  23  24  25  26
 JobTyp=1 Pass  1:  I=   1 to  26 NPSUse=  4 ParTrn=T ParDer=T DoDerP=F.
 Spin components of T(2) and E(2):
     alpha-alpha T2 =       0.7623675648D-01 E2=     -0.2141884876D+00
     alpha-beta  T2 =       0.3749728495D+00 E2=     -0.1116012520D+01
     beta-beta   T2 =       0.7623675648D-01 E2=     -0.2141884876D+00
 The integrals were generated   1 times.
 ANorm=    0.1235899010D+01
 E2 =    -0.1544389495D+01 EUMP2 =    -0.49425596310571D+03
 Leave Link  906 at Sun Jul 11 16:19:25 2021, MaxMem=   262144000 cpu:             187.9 elap:              47.0
 (Enter /prod/apps/gaussian/g16b1/l601.exe)
 Copying SCF densities to generalized density rwf, IOpCl= 0 IROHF=0.

 **********************************************************************

            Population analysis using the SCF Density.

 **********************************************************************

 Orbital symmetries:
       Occupied  (A) (A) (A) (A) (A) (A) (A) (A) (A) (A) (A) (A)
                 (A) (A) (A) (A) (A) (A) (A) (A) (A) (A) (A) (A)
                 (A) (A) (A) (A) (A) (A) (A) (A) (A) (A) (A) (A)
       Virtual   (A) (A) (A) (A) (A) (A) (A) (A) (A) (A) (A) (A)
                 (A) (A) (A) (A) (A) (A) (A) (A) (A) (A) (A) (A)
                 (A) (A) (A) (A) (A) (A) (A) (A) (A) (A) (A) (A)
                 (A) (A) (A) (A) (A) (A) (A) (A) (A) (A) (A) (A)
                 (A) (A) (A) (A) (A) (A) (A) (A) (A) (A) (A) (A)
                 (A) (A) (A) (A) (A) (A) (A) (A) (A) (A) (A) (A)
                 (A) (A) (A) (A) (A) (A) (A) (A) (A) (A) (A) (A)
                 (A) (A) (A) (A) (A) (A) (A) (A) (A) (A) (A) (A)
                 (A) (A) (A) (A) (A) (A) (A) (A) (A) (A) (A) (A)
                 (A) (A) (A) (A) (A) (A) (A) (A) (A) (A) (A) (A)
                 (A) (A) (A) (A) (A) (A) (A) (A) (A) (A) (A) (A)
                 (A) (A) (A) (A) (A) (A) (A) (A) (A) (A) (A) (A)
                 (A) (A) (A) (A) (A) (A) (A) (A) (A) (A) (A) (A)
                 (A) (A) (A) (A) (A) (A) (A) (A) (A) (A) (A) (A)
                 (A) (A) (A) (A) (A) (A) (A) (A) (A) (A) (A) (A)
                 (A) (A) (A) (A) (A) (A) (A) (A) (A) (A) (A) (A)
                 (A) (A) (A) (A) (A) (A) (A) (A) (A) (A) (A) (A)
                 (A) (A) (A) (A) (A) (A) (A) (A) (A) (A) (A) (A)
                 (A) (A) (A) (A) (A) (A) (A) (A) (A) (A) (A) (A)
                 (A) (A) (A) (A) (A) (A) (A) (A) (A) (A) (A)
 The electronic state is 1-A.
 Alpha  occ. eigenvalues --  -20.43022 -20.34539 -20.33598 -11.18668 -11.17704
 Alpha  occ. eigenvalues --  -11.13004 -11.11514 -11.10832 -11.10785 -11.09660
 Alpha  occ. eigenvalues --   -1.25120  -1.20541  -1.10457  -1.01642  -0.89453
 Alpha  occ. eigenvalues --   -0.87252  -0.72525  -0.68788  -0.61714  -0.56585
 Alpha  occ. eigenvalues --   -0.54580  -0.50964  -0.47497  -0.46554  -0.44434
 Alpha  occ. eigenvalues --   -0.43367  -0.41985  -0.40138  -0.38786  -0.36132
 Alpha  occ. eigenvalues --   -0.34441  -0.24966  -0.24386  -0.23233  -0.20934
 Alpha  occ. eigenvalues --   -0.17649
 Alpha virt. eigenvalues --    0.11255   0.12191   0.13362   0.15388   0.16509
 Alpha virt. eigenvalues --    0.20745   0.20876   0.21581   0.21900   0.22810
 Alpha virt. eigenvalues --    0.23174   0.23218   0.23519   0.24012   0.25216
 Alpha virt. eigenvalues --    0.25628   0.26385   0.26464   0.27424   0.27623
 Alpha virt. eigenvalues --    0.28375   0.29424   0.29928   0.30445   0.31319
 Alpha virt. eigenvalues --    0.32456   0.33560   0.33641   0.35100   0.37676
 Alpha virt. eigenvalues --    0.38966   0.39732   0.41076   0.41660   0.41898
 Alpha virt. eigenvalues --    0.41970   0.43289   0.43401   0.43778   0.45514
 Alpha virt. eigenvalues --    0.46280   0.46486   0.48032   0.48614   0.48738
 Alpha virt. eigenvalues --    0.49402   0.49528   0.50329   0.51758   0.52262
 Alpha virt. eigenvalues --    0.52572   0.54274   0.54757   0.55374   0.56407
 Alpha virt. eigenvalues --    0.57802   0.59826   0.60589   0.60869   0.63425
 Alpha virt. eigenvalues --    0.63737   0.64609   0.66680   0.66781   0.68507
 Alpha virt. eigenvalues --    0.70210   0.71555   0.71572   0.72417   0.73580
 Alpha virt. eigenvalues --    0.73904   0.75066   0.75578   0.78382   0.78482
 Alpha virt. eigenvalues --    0.79883   0.80349   0.80662   0.81530   0.81901
 Alpha virt. eigenvalues --    0.82820   0.83953   0.85248   0.85773   0.86845
 Alpha virt. eigenvalues --    0.87974   0.88820   0.90675   0.91067   0.92328
 Alpha virt. eigenvalues --    0.94995   0.97402   0.97862   0.98884   0.99336
 Alpha virt. eigenvalues --    1.01801   1.02245   1.03289   1.04176   1.04280
 Alpha virt. eigenvalues --    1.05694   1.07127   1.07844   1.08261   1.08601
 Alpha virt. eigenvalues --    1.09839   1.10305   1.12114   1.13777   1.14588
 Alpha virt. eigenvalues --    1.15121   1.17806   1.19058   1.19755   1.19835
 Alpha virt. eigenvalues --    1.21752   1.22844   1.24794   1.26738   1.29536
 Alpha virt. eigenvalues --    1.30181   1.32802   1.34815   1.39709   1.39804
 Alpha virt. eigenvalues --    1.40001   1.43844   1.47417   1.49436   1.52008
 Alpha virt. eigenvalues --    1.55326   1.55703   1.56298   1.57001   1.59286
 Alpha virt. eigenvalues --    1.61399   1.63800   1.64434   1.64448   1.66738
 Alpha virt. eigenvalues --    1.67572   1.69637   1.69868   1.69979   1.72280
 Alpha virt. eigenvalues --    1.73913   1.74998   1.77372   1.79618   1.81489
 Alpha virt. eigenvalues --    1.82830   1.83325   1.83970   1.85620   1.86410
 Alpha virt. eigenvalues --    1.87988   1.88198   1.92005   1.95212   1.96947
 Alpha virt. eigenvalues --    1.96970   1.98768   2.00474   2.03559   2.05008
 Alpha virt. eigenvalues --    2.05752   2.05923   2.07461   2.07799   2.10148
 Alpha virt. eigenvalues --    2.11626   2.13242   2.13376   2.16372   2.16585
 Alpha virt. eigenvalues --    2.18974   2.22926   2.25237   2.25464   2.26370
 Alpha virt. eigenvalues --    2.29894   2.30867   2.34597   2.35275   2.36932
 Alpha virt. eigenvalues --    2.39435   2.39616   2.44162   2.44826   2.46737
 Alpha virt. eigenvalues --    2.47125   2.49240   2.49277   2.52218   2.55121
 Alpha virt. eigenvalues --    2.55164   2.57600   2.59954   2.70570   2.74910
 Alpha virt. eigenvalues --    2.76189   2.77625   2.83614   2.85689   2.92902
 Alpha virt. eigenvalues --    2.93248   2.96753   3.01128   3.09556   3.10311
 Alpha virt. eigenvalues --    3.14196   3.21422   3.25500   3.30645   3.36206
 Alpha virt. eigenvalues --    3.37051   3.41795   3.43554   3.54298   3.60444
 Alpha virt. eigenvalues --    3.71515   3.79241   3.90784   3.93720   3.94687
 Alpha virt. eigenvalues --    3.95913   3.96581   4.01966   4.04562   4.04833
 Alpha virt. eigenvalues --    4.06696   4.12607   4.14815   4.20902   4.28423
 Alpha virt. eigenvalues --    4.35150   4.43963   4.64869   4.82096
          Condensed to atoms (all electrons):
               1          2          3          4          5          6
     1  O    8.934456   0.230212  -0.121396   0.064330  -0.027106  -0.007214
     2  C    0.230212   7.316365   0.189604  -0.741169  -0.702573   0.024161
     3  O   -0.121396   0.189604   9.139297   0.094813   0.042620  -0.083245
     4  C    0.064330  -0.741169   0.094813  10.780229  -2.399823   0.250011
     5  C   -0.027106  -0.702573   0.042620  -2.399823  13.110809  -0.513098
     6  O   -0.007214   0.024161  -0.083245   0.250011  -0.513098   9.199965
     7  H    0.006643  -0.065670   0.016888  -0.064493   0.013955   0.301214
     8  C   -0.012472  -0.358066  -0.092534   0.731295  -3.360011  -0.040388
     9  H    0.000325   0.009129   0.003566  -0.109757   0.986924  -0.070632
    10  C   -0.007444   0.224298  -0.011701  -2.249117   1.831994  -0.132455
    11  H    0.000251  -0.009645  -0.000291   0.056889  -0.177142  -0.004256
    12  C   -0.110149  -0.292700  -0.021018   1.124085  -2.699047   0.071023
    13  H    0.000614   0.014240   0.000481  -0.089465   0.072680   0.002023
    14  C    0.043395  -0.747858  -0.078310  -2.819492  -0.283395   0.030359
    15  H   -0.030384   0.064625   0.004080   0.498885  -0.048613  -0.000627
               7          8          9         10         11         12
     1  O    0.006643  -0.012472   0.000325  -0.007444   0.000251  -0.110149
     2  C   -0.065670  -0.358066   0.009129   0.224298  -0.009645  -0.292700
     3  O    0.016888  -0.092534   0.003566  -0.011701  -0.000291  -0.021018
     4  C   -0.064493   0.731295  -0.109757  -2.249117   0.056889   1.124085
     5  C    0.013955  -3.360011   0.986924   1.831994  -0.177142  -2.699047
     6  O    0.301214  -0.040388  -0.070632  -0.132455  -0.004256   0.071023
     7  H    0.487179   0.022610  -0.002127   0.006758  -0.000234  -0.011634
     8  C    0.022610  12.610171  -1.236175  -2.779339   0.445499   2.933480
     9  H   -0.002127  -1.236175   1.793661   0.329675  -0.078979  -0.263291
    10  C    0.006758  -2.779339   0.329675   9.075885  -0.653066  -2.467337
    11  H   -0.000234   0.445499  -0.078979  -0.653066   1.682368   0.415229
    12  C   -0.011634   2.933480  -0.263291  -2.467337   0.415229  10.685072
    13  H    0.000015  -0.187590  -0.014755   0.321153  -0.065059  -0.795584
    14  C    0.000620  -3.588296   0.167673   2.220009  -0.139295  -3.299876
    15  H   -0.002263   0.109543   0.008506  -0.162579  -0.009947   0.291980
              13         14         15
     1  O    0.000614   0.043395  -0.030384
     2  C    0.014240  -0.747858   0.064625
     3  O    0.000481  -0.078310   0.004080
     4  C   -0.089465  -2.819492   0.498885
     5  C    0.072680  -0.283395  -0.048613
     6  O    0.002023   0.030359  -0.000627
     7  H    0.000015   0.000620  -0.002263
     8  C   -0.187590  -3.588296   0.109543
     9  H   -0.014755   0.167673   0.008506
    10  C    0.321153   2.220009  -0.162579
    11  H   -0.065059  -0.139295  -0.009947
    12  C   -0.795584  -3.299876   0.291980
    13  H    1.702710   0.586635  -0.085317
    14  C    0.586635  14.498870  -0.851295
    15  H   -0.085317  -0.851295   1.806558
 Mulliken charges:
               1
     1  O   -0.964060
     2  C    0.845048
     3  O   -1.082855
     4  C    0.872779
     5  C    0.151825
     6  O   -1.026842
     7  H    0.290539
     8  C    0.802274
     9  H   -0.523742
    10  C    0.453266
    11  H   -0.462321
    12  C    0.439767
    13  H   -0.462780
    14  C    0.260254
    15  H   -0.593151
 Sum of Mulliken charges =  -1.00000
 Mulliken charges with hydrogens summed into heavy atoms:
               1
     1  O   -0.964060
     2  C    0.845048
     3  O   -1.082855
     4  C    0.872779
     5  C    0.151825
     6  O   -0.736303
     8  C    0.278532
    10  C   -0.009055
    12  C   -0.023014
    14  C   -0.332897
 Electronic spatial extent (au):  <R**2>=           1355.0584
 Charge=             -1.0000 electrons
 Dipole moment (field-independent basis, Debye):
    X=              8.1267    Y=              0.2007    Z=             -0.0002  Tot=              8.1291
 Quadrupole moment (field-independent basis, Debye-Ang):
   XX=            -86.6365   YY=            -72.4229   ZZ=            -63.3565
   XY=             -4.7380   XZ=              0.0017   YZ=              0.0023
 Traceless Quadrupole moment (field-independent basis, Debye-Ang):
   XX=            -12.4978   YY=              1.7157   ZZ=             10.7821
   XY=             -4.7380   XZ=              0.0017   YZ=              0.0023
 Octapole moment (field-independent basis, Debye-Ang**2):
  XXX=             57.7069  YYY=             -1.4406  ZZZ=              0.0006  XYY=             14.0948
  XXY=             19.1116  XXZ=              0.0002  XZZ=            -12.4732  YZZ=              3.8698
  YYZ=             -0.0020  XYZ=             -0.0035
 Hexadecapole moment (field-independent basis, Debye-Ang**3):
 XXXX=          -1317.7991 YYYY=           -652.5722 ZZZZ=            -73.6207 XXXY=            -24.1348
 XXXZ=              0.0146 YYYX=            -27.7256 YYYZ=              0.0057 ZZZX=             -0.0003
 ZZZY=             -0.0023 XXYY=           -329.8332 XXZZ=           -221.1738 YYZZ=           -122.6332
 XXYZ=              0.0094 YYXZ=              0.0068 ZZXY=              3.1178
 N-N= 4.885061633025D+02 E-N=-2.146761521839D+03  KE= 4.920750390692D+02
 Leave Link  601 at Sun Jul 11 16:19:25 2021, MaxMem=   262144000 cpu:               0.3 elap:               0.1
 (Enter /prod/apps/gaussian/g16b1/l9999.exe)
 1\1\GINC-PIRINEUS38\SP\RMP2-FC\Aug-CC-pVDZ\C7H5O3(1-)\UBATOR02\11-Jul-
 2021\0\\#p mp2/aug-cc-pVDZ scf=tight maxdisk=180GB geom=allcheck\\SET_
 328_BBB299_conf1.geo_180_000 geometry\\-1,1\O,0,-1.2132942946,-0.88680
 95166,-2.4744626012\C,0,-1.4230879671,-0.7562067478,-1.2455617615\O,0,
 -2.5200892149,-1.0735776519,-0.6568740711\C,0,-0.3248064787,-0.1881753
 714,-0.3742597063\C,0,-0.5071985613,-0.0192574752,1.019854293\O,0,-1.6
 64745436,-0.3566351508,1.6270040294\H,0,-2.2467758241,-0.7083648542,0.
 8684641988\C,0,0.5323309701,0.5107315394,1.8013802226\H,0,0.3696103926
 ,0.6310240565,2.8675027985\C,0,1.7397141327,0.870275628,1.2114914908\H
 ,0,2.5340321698,1.2786642563,1.8290345865\C,0,1.9344840895,0.708843349
 ,-0.1661620004\H,0,2.8768716223,0.9897568919,-0.6244874856\C,0,0.90228
 78774,0.1832604494,-0.9382936617\H,0,1.0206665223,0.0454705973,-2.0076
 303316\\Version=ES64L-G16RevB.01\State=1-A\HF=-492.7115736\MP2=-494.25
 59631\RMSD=8.379e-09\PG=C01 [X(C7H5O3)]\\@


 "THE ACADEMIC HIERARCHY"


 THE PRESIDENT:
   LEAPS TALL BUILDINGS IN A SINGLE BOUND,
     IS MORE POWERFUL THAN A LOCOMOTIVE,
       IS FASTER THAN A SPEEDING BULLET,
         WALKS ON WATER,
           GIVES POLICY TO GOD.

 THE VICE PRESIDENT FOR ACADEMIC AFFAIRS:
   LEAPS SHORT BUILDINGS IN A SINGLE BOUND,
     IS MORE POWERFUL THAN A SWITCH ENGINE,
       IS JUST AS FAST AS A SPEEDING BULLET,
         WALKS ON WATER IF SEA IS CALM,
           TALKS WITH GOD.

 PROFESSOR:
   LEAPS SHORT BUILDINGS WITH A RUNNING START AND FAVORABLE WINDS,
     IS ALMOST AS POWERFUL AS A SWITCH ENGINE,
       CAN FIRE A SPEEDING BULLET,
         WALKS ON WATER IN AN INDOOR SWIMMING POOL,
          TALKS WITH GOD IF SPECIAL REQUEST IS APPROVED.

 ASSOCIATE PROFESSOR:
   BARELY CLEARS A QUONSET HUT,
     LOSES TUG OF WAR WITH LOCOMOTIVE,
       MISFIRES FREQUENTLY,
         SWIMS WELL,
           IS OCCASIONALLY ADDRESSED BY GOD.

 ASSISTANT PROFESSOR:
   MAKES HIGH MARKS ON WALLS WHEN TRYING TO LEAP TALL BUILDINGS,
     IS RUN OVER BY LOCOMOTIVES,
       CAN SOMETIMES HANDLE A GUN WITHOUT INFLICTING SELF INJURY,
         DOG PADDLES,
           TALKS TO ANIMALS.

 GRADUATE STUDENT:
   RUNS INTO BUILDINGS,
     RECOGNIZES LOCOMOTIVES TWO OUT OF THREE TIMES,
       IS NOT ISSUED AMMUNITION,
         CAN STAY AFLOAT WITH A LIFE JACKET,
           TALKS TO WALLS.

 UNDERGRADUATE AND WORK STUDY STUDENT:
   FALLS OVER DOORSTEP WHEN TRYING TO ENTER BUILDINGS,
     SAYS, "LOOK AT THE CHOO-CHOO,"
       WETS HIMSELF WITH A WATER PISTOL,
        PLAYS IN MUD PUDDLES,
          MUMBLES TO HIMSELF.

 DEPARTMENT SECRETARY:
   LIFTS TALL BUILDINGS AND WALKS UNDER THEM,
     KICKS LOCOMOTIVES OFF THE TRACKS,
       CATCHES SPEEDING BULLETS IN HER TEETH AND EATS THEM,
         FREEZES WATER WITH A SINGLE GLANCE,
           IS GOD.
 Job cpu time:       0 days  0 hours  8 minutes  3.9 seconds.
 Elapsed time:       0 days  0 hours  2 minutes  1.3 seconds.
 File lengths (MBytes):  RWF=     44 Int=      0 D2E=      0 Chk=      8 Scr=      1
 Normal termination of Gaussian 16 at Sun Jul 11 16:19:25 2021.
