 Entering Gaussian System, Link 0=g16
 Initial command:
 /prod/apps/gaussian/g16b1/l1.exe "/tmp/ubator02/1834609/Gau-90058.inp" -scrdir="/tmp/ubator02/1834609/"
 Entering Link 1 = /prod/apps/gaussian/g16b1/l1.exe PID=     90059.
  
 Copyright (c) 1988-2017, Gaussian, Inc.  All Rights Reserved.
  
 This is part of the Gaussian(R) 16 program.  It is based on
 the Gaussian(R) 09 system (copyright 2009, Gaussian, Inc.),
 the Gaussian(R) 03 system (copyright 2003, Gaussian, Inc.),
 the Gaussian(R) 98 system (copyright 1998, Gaussian, Inc.),
 the Gaussian(R) 94 system (copyright 1995, Gaussian, Inc.),
 the Gaussian 92(TM) system (copyright 1992, Gaussian, Inc.),
 the Gaussian 90(TM) system (copyright 1990, Gaussian, Inc.),
 the Gaussian 88(TM) system (copyright 1988, Gaussian, Inc.),
 the Gaussian 86(TM) system (copyright 1986, Carnegie Mellon
 University), and the Gaussian 82(TM) system (copyright 1983,
 Carnegie Mellon University). Gaussian is a federally registered
 trademark of Gaussian, Inc.
  
 This software contains proprietary and confidential information,
 including trade secrets, belonging to Gaussian, Inc.
  
 This software is provided under written license and may be
 used, copied, transmitted, or stored only in accord with that
 written license.
  
 The following legend is applicable only to US Government
 contracts under FAR:
  
                    RESTRICTED RIGHTS LEGEND
  
 Use, reproduction and disclosure by the US Government is
 subject to restrictions as set forth in subparagraphs (a)
 and (c) of the Commercial Computer Software - Restricted
 Rights clause in FAR 52.227-19.
  
 Gaussian, Inc.
 340 Quinnipiac St., Bldg. 40, Wallingford CT 06492
  
  
 ---------------------------------------------------------------
 Warning -- This program may not be used in any manner that
 competes with the business of Gaussian, Inc. or will provide
 assistance to any competitor of Gaussian, Inc.  The licensee
 of this program is prohibited from giving any competitor of
 Gaussian, Inc. access to this program.  By using this program,
 the user acknowledges that Gaussian, Inc. is engaged in the
 business of creating and licensing software in the field of
 computational chemistry and represents and warrants to the
 licensee that it is not a competitor of Gaussian, Inc. and that
 it will not use this program in any manner prohibited above.
 ---------------------------------------------------------------
  

 Cite this work as:
 Gaussian 16, Revision B.01,
 M. J. Frisch, G. W. Trucks, H. B. Schlegel, G. E. Scuseria, 
 M. A. Robb, J. R. Cheeseman, G. Scalmani, V. Barone, 
 G. A. Petersson, H. Nakatsuji, X. Li, M. Caricato, A. V. Marenich, 
 J. Bloino, B. G. Janesko, R. Gomperts, B. Mennucci, H. P. Hratchian, 
 J. V. Ortiz, A. F. Izmaylov, J. L. Sonnenberg, D. Williams-Young, 
 F. Ding, F. Lipparini, F. Egidi, J. Goings, B. Peng, A. Petrone, 
 T. Henderson, D. Ranasinghe, V. G. Zakrzewski, J. Gao, N. Rega, 
 G. Zheng, W. Liang, M. Hada, M. Ehara, K. Toyota, R. Fukuda, 
 J. Hasegawa, M. Ishida, T. Nakajima, Y. Honda, O. Kitao, H. Nakai, 
 T. Vreven, K. Throssell, J. A. Montgomery, Jr., J. E. Peralta, 
 F. Ogliaro, M. J. Bearpark, J. J. Heyd, E. N. Brothers, K. N. Kudin, 
 V. N. Staroverov, T. A. Keith, R. Kobayashi, J. Normand, 
 K. Raghavachari, A. P. Rendell, J. C. Burant, S. S. Iyengar, 
 J. Tomasi, M. Cossi, J. M. Millam, M. Klene, C. Adamo, R. Cammi, 
 J. W. Ochterski, R. L. Martin, K. Morokuma, O. Farkas, 
 J. B. Foresman, and D. J. Fox, Gaussian, Inc., Wallingford CT, 2016.
 
 ******************************************
 Gaussian 16:  ES64L-G16RevB.01 20-Dec-2017
                11-Jul-2021 
 ******************************************
 %mem=800MB
 %nproc=4
 Will use up to    4 processors via shared memory.
 %chk=SET_328_BBB87_conf1.geo_180_270.chk
 -----------------------------------------------------------
 #p b3lyp/6-31G(d) opt freq scrf=(iefpcm,read,solvent=water)
 -----------------------------------------------------------
 1/18=20,19=15,26=3,38=1,40=2/1,3;
 2/9=110,12=2,17=6,18=5,40=1/2;
 3/5=1,6=6,7=1,11=2,25=1,30=1,70=2203,71=1,72=1,74=-5/1,2,3;
 4//1;
 5/5=2,38=5,53=1/2;
 6/7=2,8=2,9=2,10=2,28=1/1;
 7//1,2,3,16;
 1/18=20,19=15,26=3/3(2);
 2/9=110/2;
 99//99;
 2/9=110/2;
 3/5=1,6=6,7=1,11=2,25=1,30=1,70=2205,71=1,72=1,74=-5/1,2,3;
 4/5=5,16=3,69=1/1;
 5/5=2,38=5,53=1/2;
 7//1,2,3,16;
 1/18=20,19=15,26=3/3(-5);
 2/9=110/2;
 6/7=2,8=2,9=2,10=2,19=2,28=1/1;
 99/9=1/99;
 Leave Link    1 at Sun Jul 11 16:21:10 2021, MaxMem=   104857600 cpu:               0.1 elap:               0.0
 (Enter /prod/apps/gaussian/g16b1/l101.exe)
 ----------------------------------------
 SET_328_BBB87_conf1.geo_180_270 geometry
 ----------------------------------------
 Symbolic Z-matrix:
 Charge =  1 Multiplicity = 1
 N                     0.957     2.645    -0.449 
 H                     0.079     3.075    -0.238 
 H                     1.308     3.01     -1.311 
 C                     0.777     1.214    -0.568 
 H                     1.753     0.729    -0.649 
 H                     0.14      1.027    -1.436 
 C                     0.045     0.912     0.682 
 H                    -0.934     1.388     0.774 
 H                     0.702     1.197     1.506 
 C                    -0.196    -0.531     0.672 
 N                    -1.376    -0.917     0.072 
 C                    -1.43     -2.292    -0.039 
 H                    -2.345    -2.726    -0.423 
 C                    -0.227    -2.891     0.264 
 H                    -0.015    -3.951     0.334 
 S                     0.918    -1.801     1.001 
 H                     1.608     2.839     0.285 
 
 ITRead=  0  0  0  0  0  0  0  0  0  0  0  0  0  0  0  0  0
 MicOpt= -1 -1 -1 -1 -1 -1 -1 -1 -1 -1 -1 -1 -1 -1 -1 -1 -1
 NAtoms=     17 NQM=       17 NQMF=       0 NMMI=      0 NMMIF=      0
                NMic=       0 NMicF=      0.
                    Isotopes and Nuclear Properties:
 (Nuclear quadrupole moments (NQMom) in fm**2, nuclear magnetic moments (NMagM)
  in nuclear magnetons)

  Atom         1           2           3           4           5           6           7           8           9          10
 IAtWgt=          14           1           1          12           1           1          12           1           1          12
 AtmWgt=  14.0030740   1.0078250   1.0078250  12.0000000   1.0078250   1.0078250  12.0000000   1.0078250   1.0078250  12.0000000
 NucSpn=           2           1           1           0           1           1           0           1           1           0
 AtZEff=  -0.0000000  -0.0000000  -0.0000000  -0.0000000  -0.0000000  -0.0000000  -0.0000000  -0.0000000  -0.0000000  -0.0000000
 NQMom=    2.0440000   0.0000000   0.0000000   0.0000000   0.0000000   0.0000000   0.0000000   0.0000000   0.0000000   0.0000000
 NMagM=    0.4037610   2.7928460   2.7928460   0.0000000   2.7928460   2.7928460   0.0000000   2.7928460   2.7928460   0.0000000
 AtZNuc=   7.0000000   1.0000000   1.0000000   6.0000000   1.0000000   1.0000000   6.0000000   1.0000000   1.0000000   6.0000000

  Atom        11          12          13          14          15          16          17
 IAtWgt=          14          12           1          12           1          32           1
 AtmWgt=  14.0030740  12.0000000   1.0078250  12.0000000   1.0078250  31.9720718   1.0078250
 NucSpn=           2           0           1           0           1           0           1
 AtZEff=  -0.0000000  -0.0000000  -0.0000000  -0.0000000  -0.0000000  -0.0000000  -0.0000000
 NQMom=    2.0440000   0.0000000   0.0000000   0.0000000   0.0000000   0.0000000   0.0000000
 NMagM=    0.4037610   0.0000000   2.7928460   0.0000000   2.7928460   0.0000000   2.7928460
 AtZNuc=   7.0000000   6.0000000   1.0000000   6.0000000   1.0000000  16.0000000   1.0000000
 Leave Link  101 at Sun Jul 11 16:21:11 2021, MaxMem=   104857600 cpu:               0.4 elap:               0.1
 (Enter /prod/apps/gaussian/g16b1/l103.exe)

 GradGradGradGradGradGradGradGradGradGradGradGradGradGradGradGradGradGrad
 Berny optimization.
 Initialization pass.
                           ----------------------------
                           !    Initial Parameters    !
                           ! (Angstroms and Degrees)  !
 --------------------------                            --------------------------
 ! Name  Definition              Value          Derivative Info.                !
 --------------------------------------------------------------------------------
 ! R1    R(1,2)                  1.0002         estimate D2E/DX2                !
 ! R2    R(1,3)                  0.9997         estimate D2E/DX2                !
 ! R3    R(1,4)                  1.4472         estimate D2E/DX2                !
 ! R4    R(1,17)                 1.0001         estimate D2E/DX2                !
 ! R5    R(4,5)                  1.0929         estimate D2E/DX2                !
 ! R6    R(4,6)                  1.0928         estimate D2E/DX2                !
 ! R7    R(4,7)                  1.4797         estimate D2E/DX2                !
 ! R8    R(7,8)                  1.0925         estimate D2E/DX2                !
 ! R9    R(7,9)                  1.0917         estimate D2E/DX2                !
 ! R10   R(7,10)                 1.463          estimate D2E/DX2                !
 ! R11   R(10,11)                1.3789         estimate D2E/DX2                !
 ! R12   R(10,16)                1.7211         estimate D2E/DX2                !
 ! R13   R(11,12)                1.3805         estimate D2E/DX2                !
 ! R14   R(12,13)                1.0831         estimate D2E/DX2                !
 ! R15   R(12,14)                1.3776         estimate D2E/DX2                !
 ! R16   R(14,15)                1.0833         estimate D2E/DX2                !
 ! R17   R(14,16)                1.7442         estimate D2E/DX2                !
 ! A1    A(2,1,3)              109.4599         estimate D2E/DX2                !
 ! A2    A(2,1,4)              109.4684         estimate D2E/DX2                !
 ! A3    A(2,1,17)             109.4632         estimate D2E/DX2                !
 ! A4    A(3,1,4)              109.4986         estimate D2E/DX2                !
 ! A5    A(3,1,17)             109.4785         estimate D2E/DX2                !
 ! A6    A(4,1,17)             109.4587         estimate D2E/DX2                !
 ! A7    A(1,4,5)              109.5021         estimate D2E/DX2                !
 ! A8    A(1,4,6)              107.8803         estimate D2E/DX2                !
 ! A9    A(1,4,7)              101.1793         estimate D2E/DX2                !
 ! A10   A(5,4,6)              112.6915         estimate D2E/DX2                !
 ! A11   A(5,4,7)              114.4456         estimate D2E/DX2                !
 ! A12   A(6,4,7)              110.3473         estimate D2E/DX2                !
 ! A13   A(4,7,8)              115.184          estimate D2E/DX2                !
 ! A14   A(4,7,9)              106.6555         estimate D2E/DX2                !
 ! A15   A(4,7,10)             106.0823         estimate D2E/DX2                !
 ! A16   A(8,7,9)              111.2226         estimate D2E/DX2                !
 ! A17   A(8,7,10)             106.4218         estimate D2E/DX2                !
 ! A18   A(9,7,10)             111.2093         estimate D2E/DX2                !
 ! A19   A(7,10,11)            114.8371         estimate D2E/DX2                !
 ! A20   A(7,10,16)            128.3073         estimate D2E/DX2                !
 ! A21   A(11,10,16)           115.5            estimate D2E/DX2                !
 ! A22   A(10,11,12)           110.3203         estimate D2E/DX2                !
 ! A23   A(11,12,13)           117.4298         estimate D2E/DX2                !
 ! A24   A(11,12,14)           112.4097         estimate D2E/DX2                !
 ! A25   A(13,12,14)           129.9028         estimate D2E/DX2                !
 ! A26   A(12,14,15)           127.6321         estimate D2E/DX2                !
 ! A27   A(12,14,16)           113.2324         estimate D2E/DX2                !
 ! A28   A(15,14,16)           117.1119         estimate D2E/DX2                !
 ! A29   A(10,16,14)            87.4473         estimate D2E/DX2                !
 ! D1    D(2,1,4,5)           -171.5818         estimate D2E/DX2                !
 ! D2    D(2,1,4,6)             65.4432         estimate D2E/DX2                !
 ! D3    D(2,1,4,7)            -50.4172         estimate D2E/DX2                !
 ! D4    D(3,1,4,5)             68.417          estimate D2E/DX2                !
 ! D5    D(3,1,4,6)            -54.558          estimate D2E/DX2                !
 ! D6    D(3,1,4,7)           -170.4184         estimate D2E/DX2                !
 ! D7    D(17,1,4,5)           -51.6011         estimate D2E/DX2                !
 ! D8    D(17,1,4,6)          -174.5761         estimate D2E/DX2                !
 ! D9    D(17,1,4,7)            69.5635         estimate D2E/DX2                !
 ! D10   D(1,4,7,8)             62.5817         estimate D2E/DX2                !
 ! D11   D(1,4,7,9)            -61.3502         estimate D2E/DX2                !
 ! D12   D(1,4,7,10)          -179.9866         estimate D2E/DX2                !
 ! D13   D(5,4,7,8)           -179.7956         estimate D2E/DX2                !
 ! D14   D(5,4,7,9)             56.2724         estimate D2E/DX2                !
 ! D15   D(5,4,7,10)           -62.364          estimate D2E/DX2                !
 ! D16   D(6,4,7,8)            -51.4402         estimate D2E/DX2                !
 ! D17   D(6,4,7,9)           -175.3722         estimate D2E/DX2                !
 ! D18   D(6,4,7,10)            65.9915         estimate D2E/DX2                !
 ! D19   D(4,7,10,11)          -89.7719         estimate D2E/DX2                !
 ! D20   D(4,7,10,16)           76.2018         estimate D2E/DX2                !
 ! D21   D(8,7,10,11)           33.3665         estimate D2E/DX2                !
 ! D22   D(8,7,10,16)         -160.6599         estimate D2E/DX2                !
 ! D23   D(9,7,10,11)          154.6437         estimate D2E/DX2                !
 ! D24   D(9,7,10,16)          -39.3827         estimate D2E/DX2                !
 ! D25   D(7,10,11,12)         172.3691         estimate D2E/DX2                !
 ! D26   D(16,10,11,12)          4.5332         estimate D2E/DX2                !
 ! D27   D(7,10,16,14)        -164.3897         estimate D2E/DX2                !
 ! D28   D(11,10,16,14)          1.5059         estimate D2E/DX2                !
 ! D29   D(10,11,12,13)        175.206          estimate D2E/DX2                !
 ! D30   D(10,11,12,14)        -10.0457         estimate D2E/DX2                !
 ! D31   D(11,12,14,15)        174.6806         estimate D2E/DX2                !
 ! D32   D(11,12,14,16)         11.5046         estimate D2E/DX2                !
 ! D33   D(13,12,14,15)        -11.3985         estimate D2E/DX2                !
 ! D34   D(13,12,14,16)       -174.5745         estimate D2E/DX2                !
 ! D35   D(12,14,16,10)         -7.3052         estimate D2E/DX2                !
 ! D36   D(15,14,16,10)       -172.3828         estimate D2E/DX2                !
 --------------------------------------------------------------------------------
 Trust Radius=3.00D-01 FncErr=1.00D-07 GrdErr=1.00D-06 EigMax=2.50D+02 EigMin=1.00D-04
 Number of steps in this run=     92 maximum allowed number of steps=    102.
 GradGradGradGradGradGradGradGradGradGradGradGradGradGradGradGradGradGrad

 Leave Link  103 at Sun Jul 11 16:21:11 2021, MaxMem=   104857600 cpu:               0.1 elap:               0.0
 (Enter /prod/apps/gaussian/g16b1/l202.exe)
                          Input orientation:                          
 ---------------------------------------------------------------------
 Center     Atomic      Atomic             Coordinates (Angstroms)
 Number     Number       Type             X           Y           Z
 ---------------------------------------------------------------------
      1          7           0        0.957000    2.645000   -0.449000
      2          1           0        0.079000    3.075000   -0.238000
      3          1           0        1.308000    3.010000   -1.311000
      4          6           0        0.777000    1.214000   -0.568000
      5          1           0        1.753000    0.729000   -0.649000
      6          1           0        0.140000    1.027000   -1.436000
      7          6           0        0.045000    0.912000    0.682000
      8          1           0       -0.934000    1.388000    0.774000
      9          1           0        0.702000    1.197000    1.506000
     10          6           0       -0.196000   -0.531000    0.672000
     11          7           0       -1.376000   -0.917000    0.072000
     12          6           0       -1.430000   -2.292000   -0.039000
     13          1           0       -2.345000   -2.726000   -0.423000
     14          6           0       -0.227000   -2.891000    0.264000
     15          1           0       -0.015000   -3.951000    0.334000
     16         16           0        0.918000   -1.801000    1.001000
     17          1           0        1.608000    2.839000    0.285000
 ---------------------------------------------------------------------
                    Distance matrix (angstroms):
                    1          2          3          4          5
     1  N    0.000000
     2  H    1.000152   0.000000
     3  H    0.999735   1.632787   0.000000
     4  C    1.447177   2.014801   2.014851   0.000000
     5  H    2.084388   2.911170   2.416450   1.092869   0.000000
     6  H    2.063875   2.373442   2.304808   1.092777   1.819325
     7  C    2.261458   2.350771   3.157344   1.479705   2.173089
     8  H    2.579081   2.212754   3.464776   2.181458   3.111138
     9  H    2.446171   2.637527   3.404364   2.075425   2.442877
    10  C    3.559919   3.729204   4.328162   2.351458   2.670439
    11  N    4.289776   4.260186   4.953572   3.096154   3.608296
    12  C    5.499076   5.578653   6.101298   4.176449   4.430579
    13  H    6.304881   6.289801   6.858181   5.029066   5.364858
    14  C    5.705920   5.994897   6.297511   4.307118   4.225916
    15  H    6.713054   7.049872   7.274055   5.302650   5.098481
    16  S    4.676637   5.100433   5.351931   3.401745   3.133788
    17  H    1.000096   1.633115   1.632929   2.014645   2.312030
                    6          7          8          9         10
     6  H    0.000000
     7  C    2.123246   0.000000
     8  H    2.483525   1.092466   0.000000
     9  H    3.000018   1.091719   1.802443   0.000000
    10  C    2.642711   1.463021   2.058545   2.118477   0.000000
    11  N    2.889889   2.395116   2.449733   3.292937   1.378911
    12  C    3.928393   3.600150   3.801235   4.370992   2.264817
    13  H    4.613719   4.490898   4.510956   5.328713   3.261173
    14  C    4.286655   3.835560   4.366897   4.372339   2.395209
    15  H    5.285585   4.875805   5.435355   5.328187   3.441425
    16  S    3.813376   2.867797   3.694747   3.047898   1.721086
    17  H    2.898311   2.512749   2.967539   2.237821   3.842016
                   11         12         13         14         15
    11  N    0.000000
    12  C    1.380530   0.000000
    13  H    2.111035   1.083068   0.000000
    14  C    2.292104   1.377614   2.232738   0.000000
    15  H    3.335584   2.212156   2.739083   1.083256   0.000000
    16  S    2.628104   2.614533   3.678392   1.744217   2.436776
    17  H    4.801787   5.971732   6.862703   6.016691   6.981449
                   16         17
    16  S    0.000000
    17  H    4.745351   0.000000
 Stoichiometry    C5H9N2S(1+)
 Framework group  C1[X(C5H9N2S)]
 Deg. of freedom    45
 Full point group                 C1      NOp   1
 Largest Abelian subgroup         C1      NOp   1
 Largest concise Abelian subgroup C1      NOp   1
                         Standard orientation:                         
 ---------------------------------------------------------------------
 Center     Atomic      Atomic             Coordinates (Angstroms)
 Number     Number       Type             X           Y           Z
 ---------------------------------------------------------------------
      1          7           0        3.287184    0.010021   -0.220486
      2          1           0        3.459015    0.802936    0.364378
      3          1           0        3.853798    0.072894   -1.041745
      4          6           0        1.890432   -0.017070   -0.598204
      5          1           0        1.668942   -0.957171   -1.109588
      6          1           0        1.694524    0.858495   -1.222037
      7          6           0        1.233965    0.132699    0.719426
      8          1           0        1.444410    1.069933    1.239798
      9          1           0        1.535415   -0.728473    1.318892
     10          6           0       -0.205612    0.118449    0.458956
     11          7           0       -0.762470    1.356229    0.215635
     12          6           0       -2.076905    1.220412   -0.183958
     13          1           0       -2.650463    2.127570   -0.329323
     14          6           0       -2.413397   -0.089463   -0.446297
     15          1           0       -3.390712   -0.483860   -0.696800
     16         16           0       -1.210793   -1.230580    0.095816
     17          1           0        3.513859   -0.826959    0.277786
 ---------------------------------------------------------------------
 Rotational constants (GHZ):           3.9682216           1.0475262           0.9040403
 Leave Link  202 at Sun Jul 11 16:21:11 2021, MaxMem=   104857600 cpu:               0.0 elap:               0.0
 (Enter /prod/apps/gaussian/g16b1/l301.exe)
 Standard basis: 6-31G(d) (6D, 7F)
 Ernie: Thresh=  0.10000D-02 Tol=  0.10000D-05 Strict=F.
 There are   142 symmetry adapted cartesian basis functions of A   symmetry.
 There are   142 symmetry adapted basis functions of A   symmetry.
   142 basis functions,   284 primitive gaussians,   142 cartesian basis functions
    34 alpha electrons       34 beta electrons
       nuclear repulsion energy       445.3516581711 Hartrees.
 IExCor=  402 DFT=T Ex+Corr=B3LYP ExCW=0 ScaHFX=  0.200000
 ScaDFX=  0.800000  0.720000  1.000000  0.810000 ScalE2=  1.000000  1.000000
 IRadAn=      5 IRanWt=     -1 IRanGd=            0 ICorTp=0 IEmpDi=  4
 NAtoms=   17 NActive=   17 NUniq=   17 SFac= 1.00D+00 NAtFMM=   60 NAOKFM=F Big=F
 Integral buffers will be    131072 words long.
 Raffenetti 2 integral format.
 Two-electron integral symmetry is turned on.
 Using the following non-standard input for PCM:
 MSTModel=DFT cav MSTCharged
 --- end of non-standard input.
 MST model for solvation energy: B3LYP parametrization.
 MST cavity parameters:
 ISph   IAn     Re0     Alpha   Atom Type   QCorr
 ------------------------------------------------
   1      7     1.70     1.15      NH         T
   2      1     0.90     1.15      NH         T
   3      1     0.90     1.15      NH         T
   4      6     1.50     1.25      CH2        F
   5      1     1.20     1.25      CH2        F
   6      1     1.20     1.25      CH2        F
   7      6     1.50     1.25      CH2        F
   8      1     1.20     1.25      CH2        F
   9      1     1.20     1.25      CH2        F
  10      6     1.50     1.25      C          F
  11      7     1.40     1.25      N          F
  12      6     1.50     1.25      CH         F
  13      1     1.20     1.25      CH         F
  14      6     1.50     1.25      CH         F
  15      1     1.20     1.25      CH         F
  16     16     1.75     1.25      S          F
  17      1     0.90     1.15      NH         T
 ------------------------------------------------------------------------------
 Polarizable Continuum Model (PCM)
 =================================
 Model                : PCM.
 Atomic radii         : MST.
 Polarization charges : Total charges.
 Charge compensation  : None.
 Solution method      : On-the-fly selection.
 Cavity type          : Scaled VdW (van der Waals Surface) (Alpha=1.250).
 Cavity algorithm     : GePol (No added spheres)
                        Default sphere list used, NSphG=   17.
                        Lebedev-Laikov grids with approx.  5.0 points / Ang**2.
                        Smoothing algorithm: York/Karplus (Gamma=1.0000).
                        Polarization charges: spherical gaussians, with
                                              point-specific exponents (IZeta= 3).
                        Self-potential: point-specific (ISelfS= 7).
                        Self-field    : sphere-specific E.n sum rule (ISelfD= 2).
 1st derivatives      : Analytical E(r).r(x)/FMM algorithm (CHGder, D1EAlg=3).
                        Cavity 1st derivative terms included.
 Solvent              : Water, Eps=  78.355300 Eps(inf)=   1.777849
 ------------------------------------------------------------------------------
 Spheres list:
 ISph  on   Nord     Re0    Alpha      Xe            Ye            Ze
    1   N      1    1.7000  1.150      3.287184      0.010021     -0.220486
    2   H      2    0.9000  1.150      3.459015      0.802936      0.364378
    3   H      3    0.9000  1.150      3.853798      0.072894     -1.041745
    4   C      4    1.5000  1.250      1.890432     -0.017070     -0.598204
    5   H      5    1.2000  1.250      1.668942     -0.957171     -1.109588
    6   H      6    1.2000  1.250      1.694524      0.858495     -1.222037
    7   C      7    1.5000  1.250      1.233965      0.132699      0.719426
    8   H      8    1.2000  1.250      1.444410      1.069933      1.239798
    9   H      9    1.2000  1.250      1.535415     -0.728473      1.318892
   10   C     10    1.5000  1.250     -0.205612      0.118449      0.458956
   11   N     11    1.4000  1.250     -0.762470      1.356229      0.215635
   12   C     12    1.5000  1.250     -2.076905      1.220412     -0.183958
   13   H     13    1.2000  1.250     -2.650463      2.127570     -0.329323
   14   C     14    1.5000  1.250     -2.413397     -0.089463     -0.446297
   15   H     15    1.2000  1.250     -3.390712     -0.483860     -0.696800
   16   S     16    1.7500  1.250     -1.210793     -1.230580      0.095816
   17   H     17    0.9000  1.150      3.513859     -0.826959      0.277786
 ------------------------------------------------------------------------------
 GePol: Number of generator spheres                  =      17
 GePol: Total number of spheres                      =      17
 GePol: Number of exposed spheres                    =      17 (100.00%)
 GePol: Number of points                             =    1282
 GePol: Average weight of points                     =       0.14
 GePol: Minimum weight of points                     =   0.38D-08
 GePol: Maximum weight of points                     =    0.22001
 GePol: Number of points with low weight             =      64
 GePol: Fraction of low-weight points (<1% of avg)   =       4.99%
 GePol: Cavity surface area                          =    174.719 Ang**2
 GePol: Cavity volume                                =    157.418 Ang**3
 PCM non-electrostatic energy =         0.0002789524 Hartrees.
 Nuclear repulsion after PCM non-electrostatic terms =      445.3519371235 Hartrees.
 Leave Link  301 at Sun Jul 11 16:21:11 2021, MaxMem=   104857600 cpu:               0.3 elap:               0.1
 (Enter /prod/apps/gaussian/g16b1/l302.exe)
 NPDir=0 NMtPBC=     1 NCelOv=     1 NCel=       1 NClECP=     1 NCelD=      1
         NCelK=      1 NCelE2=     1 NClLst=     1 CellRange=     0.0.
 One-electron integrals computed using PRISM.
 One-electron integral symmetry used in STVInt
 NBasis=   142 RedAO= T EigKep=  2.62D-03  NBF=   142
 NBsUse=   142 1.00D-06 EigRej= -1.00D+00 NBFU=   142
 Precomputing XC quadrature grid using
 IXCGrd= 4 IRadAn=           5 IRanWt=          -1 IRanGd=           0 AccXCQ= 0.00D+00.
 Generated NRdTot=       0 NPtTot=           0 NUsed=           0 NTot=          32
 NSgBfM=   142   142   142   142   142 MxSgAt=    17 MxSgA2=    17.
 Leave Link  302 at Sun Jul 11 16:21:11 2021, MaxMem=   104857600 cpu:               0.7 elap:               0.2
 (Enter /prod/apps/gaussian/g16b1/l303.exe)
 DipDrv:  MaxL=1.
 Leave Link  303 at Sun Jul 11 16:21:11 2021, MaxMem=   104857600 cpu:               0.1 elap:               0.0
 (Enter /prod/apps/gaussian/g16b1/l401.exe)
 ExpMin= 1.17D-01 ExpMax= 2.19D+04 ExpMxC= 3.30D+03 IAcc=3 IRadAn=         5 AccDes= 0.00D+00
 Harris functional with IExCor=  402 and IRadAn=       5 diagonalized for initial guess.
 HarFok:  IExCor=  402 AccDes= 0.00D+00 IRadAn=         5 IDoV= 1 UseB2=F ITyADJ=14
 ICtDFT=  3500011 ScaDFX=  1.000000  1.000000  1.000000  1.000000
 FoFCou: FMM=F IPFlag=           0 FMFlag=      100000 FMFlg1=           0
         NFxFlg=           0 DoJE=T BraDBF=F KetDBF=T FulRan=T
         wScrn=  0.000000 ICntrl=       500 IOpCl=  0 I1Cent=   200000004 NGrid=           0
         NMat0=    1 NMatS0=      1 NMatT0=    0 NMatD0=    1 NMtDS0=    0 NMtDT0=    0
 Petite list used in FoFCou.
 Harris En= -703.355585638616    
 JPrj=0 DoOrth=F DoCkMO=F.
 Leave Link  401 at Sun Jul 11 16:21:12 2021, MaxMem=   104857600 cpu:               2.5 elap:               0.7
 (Enter /prod/apps/gaussian/g16b1/l502.exe)
 Keep R1 ints in memory in canonical form, NReq=55421297.
 FoFCou: FMM=F IPFlag=           0 FMFlag=           0 FMFlg1=           0
         NFxFlg=           0 DoJE=F BraDBF=F KetDBF=F FulRan=T
         wScrn=  0.000000 ICntrl=       600 IOpCl=  0 I1Cent=           0 NGrid=           0
         NMat0=    1 NMatS0=  10153 NMatT0=    0 NMatD0=    1 NMtDS0=    0 NMtDT0=    0
 Symmetry not used in FoFCou.
 Two-electron integral symmetry not used.
 Closed shell SCF:
 Using DIIS extrapolation, IDIIS=  1040.
 NGot=   104857600 LenX=    53267901 LenY=    53247296
 Requested convergence on RMS density matrix=1.00D-08 within 128 cycles.
 Requested convergence on MAX density matrix=1.00D-06.
 Requested convergence on             energy=1.00D-06.
 No special actions if energy rises.

 Cycle   1  Pass 1  IDiag  1:
 Inv3:  Mode=1 IEnd=     4930572.
 Iteration    1 A*A^-1 deviation from unit magnitude is 3.33D-15 for    366.
 Iteration    1 A*A^-1 deviation from orthogonality  is 1.88D-15 for   1035     11.
 Iteration    1 A^-1*A deviation from unit magnitude is 3.33D-15 for    366.
 Iteration    1 A^-1*A deviation from orthogonality  is 2.22D-15 for   1114    441.
 E= -703.273017209987    
 DIIS: error= 2.41D-02 at cycle   1 NSaved=   1.
 NSaved= 1 IEnMin= 1 EnMin= -703.273017209987     IErMin= 1 ErrMin= 2.41D-02
 ErrMax= 2.41D-02  0.00D+00 EMaxC= 1.00D-01 BMatC= 1.97D-01 BMatP= 1.97D-01
 IDIUse=3 WtCom= 7.59D-01 WtEn= 2.41D-01
 Coeff-Com:  0.100D+01
 Coeff-En:   0.100D+01
 Coeff:      0.100D+01
 Gap=     0.235 Goal=   None    Shift=    0.000
 GapD=    0.235 DampG=1.000 DampE=0.500 DampFc=0.5000 IDamp=-1.
 Damping current iteration by 5.00D-01
 RMSDP=7.95D-03 MaxDP=2.41D-01              OVMax= 2.59D-01

 Cycle   2  Pass 1  IDiag  1:
 E= -703.344417368152     Delta-E=       -0.071400158165 Rises=F Damp=T
 DIIS: error= 8.27D-03 at cycle   2 NSaved=   2.
 NSaved= 2 IEnMin= 2 EnMin= -703.344417368152     IErMin= 2 ErrMin= 8.27D-03
 ErrMax= 8.27D-03  0.00D+00 EMaxC= 1.00D-01 BMatC= 1.89D-02 BMatP= 1.97D-01
 IDIUse=3 WtCom= 9.17D-01 WtEn= 8.27D-02
 Coeff-Com:  0.149D+00 0.851D+00
 Coeff-En:   0.278D+00 0.722D+00
 Coeff:      0.159D+00 0.841D+00
 Gap=     0.238 Goal=   None    Shift=    0.000
 RMSDP=2.17D-03 MaxDP=7.50D-02 DE=-7.14D-02 OVMax= 2.34D-01

 Cycle   3  Pass 1  IDiag  1:
 E= -703.464838346284     Delta-E=       -0.120420978132 Rises=F Damp=F
 DIIS: error= 6.61D-03 at cycle   3 NSaved=   3.
 NSaved= 3 IEnMin= 3 EnMin= -703.464838346284     IErMin= 3 ErrMin= 6.61D-03
 ErrMax= 6.61D-03  0.00D+00 EMaxC= 1.00D-01 BMatC= 1.26D-02 BMatP= 1.89D-02
 IDIUse=3 WtCom= 9.34D-01 WtEn= 6.61D-02
 Coeff-Com:  0.363D-01 0.440D+00 0.524D+00
 Coeff-En:   0.000D+00 0.000D+00 0.100D+01
 Coeff:      0.339D-01 0.411D+00 0.556D+00
 Gap=     0.203 Goal=   None    Shift=    0.000
 RMSDP=1.05D-03 MaxDP=3.82D-02 DE=-1.20D-01 OVMax= 5.32D-02

 Cycle   4  Pass 1  IDiag  1:
 E= -703.473186941394     Delta-E=       -0.008348595110 Rises=F Damp=F
 DIIS: error= 4.12D-03 at cycle   4 NSaved=   4.
 NSaved= 4 IEnMin= 4 EnMin= -703.473186941394     IErMin= 4 ErrMin= 4.12D-03
 ErrMax= 4.12D-03  0.00D+00 EMaxC= 1.00D-01 BMatC= 3.99D-03 BMatP= 1.26D-02
 IDIUse=3 WtCom= 9.59D-01 WtEn= 4.12D-02
 Coeff-Com: -0.880D-02 0.710D-01 0.364D+00 0.573D+00
 Coeff-En:   0.000D+00 0.000D+00 0.268D+00 0.732D+00
 Coeff:     -0.844D-02 0.680D-01 0.360D+00 0.580D+00
 Gap=     0.203 Goal=   None    Shift=    0.000
 RMSDP=4.24D-04 MaxDP=1.37D-02 DE=-8.35D-03 OVMax= 2.30D-02

 Cycle   5  Pass 1  IDiag  1:
 E= -703.476711324333     Delta-E=       -0.003524382939 Rises=F Damp=F
 DIIS: error= 5.66D-04 at cycle   5 NSaved=   5.
 NSaved= 5 IEnMin= 5 EnMin= -703.476711324333     IErMin= 5 ErrMin= 5.66D-04
 ErrMax= 5.66D-04  0.00D+00 EMaxC= 1.00D-01 BMatC= 1.09D-04 BMatP= 3.99D-03
 IDIUse=3 WtCom= 9.94D-01 WtEn= 5.66D-03
 Coeff-Com: -0.387D-02 0.101D-01 0.142D+00 0.275D+00 0.577D+00
 Coeff-En:   0.000D+00 0.000D+00 0.000D+00 0.000D+00 0.100D+01
 Coeff:     -0.385D-02 0.999D-02 0.141D+00 0.273D+00 0.579D+00
 Gap=     0.204 Goal=   None    Shift=    0.000
 RMSDP=1.05D-04 MaxDP=4.55D-03 DE=-3.52D-03 OVMax= 4.37D-03

 Cycle   6  Pass 1  IDiag  1:
 E= -703.476813028577     Delta-E=       -0.000101704244 Rises=F Damp=F
 DIIS: error= 2.28D-04 at cycle   6 NSaved=   6.
 NSaved= 6 IEnMin= 6 EnMin= -703.476813028577     IErMin= 6 ErrMin= 2.28D-04
 ErrMax= 2.28D-04  0.00D+00 EMaxC= 1.00D-01 BMatC= 1.22D-05 BMatP= 1.09D-04
 IDIUse=3 WtCom= 9.98D-01 WtEn= 2.28D-03
 Coeff-Com: -0.120D-02-0.641D-03 0.477D-01 0.103D+00 0.306D+00 0.545D+00
 Coeff-En:   0.000D+00 0.000D+00 0.000D+00 0.000D+00 0.000D+00 0.100D+01
 Coeff:     -0.120D-02-0.640D-03 0.476D-01 0.103D+00 0.305D+00 0.546D+00
 Gap=     0.204 Goal=   None    Shift=    0.000
 RMSDP=3.02D-05 MaxDP=9.92D-04 DE=-1.02D-04 OVMax= 1.95D-03

 Cycle   7  Pass 1  IDiag  1:
 E= -703.476824227387     Delta-E=       -0.000011198810 Rises=F Damp=F
 DIIS: error= 7.27D-05 at cycle   7 NSaved=   7.
 NSaved= 7 IEnMin= 7 EnMin= -703.476824227387     IErMin= 7 ErrMin= 7.27D-05
 ErrMax= 7.27D-05  0.00D+00 EMaxC= 1.00D-01 BMatC= 1.23D-06 BMatP= 1.22D-05
 IDIUse=1 WtCom= 1.00D+00 WtEn= 0.00D+00
 Coeff-Com: -0.307D-03-0.119D-02 0.145D-01 0.334D-01 0.108D+00 0.297D+00
 Coeff-Com:  0.549D+00
 Coeff:     -0.307D-03-0.119D-02 0.145D-01 0.334D-01 0.108D+00 0.297D+00
 Coeff:      0.549D+00
 Gap=     0.204 Goal=   None    Shift=    0.000
 RMSDP=1.03D-05 MaxDP=3.26D-04 DE=-1.12D-05 OVMax= 6.50D-04

 Cycle   8  Pass 1  IDiag  1:
 E= -703.476825443899     Delta-E=       -0.000001216512 Rises=F Damp=F
 DIIS: error= 2.18D-05 at cycle   8 NSaved=   8.
 NSaved= 8 IEnMin= 8 EnMin= -703.476825443899     IErMin= 8 ErrMin= 2.18D-05
 ErrMax= 2.18D-05  0.00D+00 EMaxC= 1.00D-01 BMatC= 1.43D-07 BMatP= 1.23D-06
 IDIUse=1 WtCom= 1.00D+00 WtEn= 0.00D+00
 Coeff-Com:  0.652D-04-0.659D-03-0.593D-04 0.693D-03 0.284D-02 0.687D-01
 Coeff-Com:  0.291D+00 0.637D+00
 Coeff:      0.652D-04-0.659D-03-0.593D-04 0.693D-03 0.284D-02 0.687D-01
 Coeff:      0.291D+00 0.637D+00
 Gap=     0.204 Goal=   None    Shift=    0.000
 RMSDP=3.14D-06 MaxDP=1.04D-04 DE=-1.22D-06 OVMax= 2.00D-04

 Cycle   9  Pass 1  IDiag  1:
 E= -703.476825592920     Delta-E=       -0.000000149021 Rises=F Damp=F
 DIIS: error= 4.53D-06 at cycle   9 NSaved=   9.
 NSaved= 9 IEnMin= 9 EnMin= -703.476825592920     IErMin= 9 ErrMin= 4.53D-06
 ErrMax= 4.53D-06  0.00D+00 EMaxC= 1.00D-01 BMatC= 8.04D-09 BMatP= 1.43D-07
 IDIUse=1 WtCom= 1.00D+00 WtEn= 0.00D+00
 Coeff-Com:  0.655D-04-0.211D-03-0.102D-02-0.214D-02-0.736D-02 0.885D-02
 Coeff-Com:  0.851D-01 0.282D+00 0.635D+00
 Coeff:      0.655D-04-0.211D-03-0.102D-02-0.214D-02-0.736D-02 0.885D-02
 Coeff:      0.851D-01 0.282D+00 0.635D+00
 Gap=     0.204 Goal=   None    Shift=    0.000
 RMSDP=9.70D-07 MaxDP=4.13D-05 DE=-1.49D-07 OVMax= 4.18D-05

 Cycle  10  Pass 1  IDiag  1:
 E= -703.476825601654     Delta-E=       -0.000000008734 Rises=F Damp=F
 DIIS: error= 1.31D-06 at cycle  10 NSaved=  10.
 NSaved=10 IEnMin=10 EnMin= -703.476825601654     IErMin=10 ErrMin= 1.31D-06
 ErrMax= 1.31D-06  0.00D+00 EMaxC= 1.00D-01 BMatC= 6.81D-10 BMatP= 8.04D-09
 IDIUse=1 WtCom= 1.00D+00 WtEn= 0.00D+00
 Coeff-Com:  0.238D-04-0.394D-04-0.418D-03-0.959D-03-0.357D-02-0.185D-02
 Coeff-Com:  0.115D-01 0.699D-01 0.280D+00 0.646D+00
 Coeff:      0.238D-04-0.394D-04-0.418D-03-0.959D-03-0.357D-02-0.185D-02
 Coeff:      0.115D-01 0.699D-01 0.280D+00 0.646D+00
 Gap=     0.204 Goal=   None    Shift=    0.000
 RMSDP=2.28D-07 MaxDP=7.91D-06 DE=-8.73D-09 OVMax= 9.75D-06

 Cycle  11  Pass 1  IDiag  1:
 E= -703.476825602285     Delta-E=       -0.000000000631 Rises=F Damp=F
 DIIS: error= 5.91D-07 at cycle  11 NSaved=  11.
 NSaved=11 IEnMin=11 EnMin= -703.476825602285     IErMin=11 ErrMin= 5.91D-07
 ErrMax= 5.91D-07  0.00D+00 EMaxC= 1.00D-01 BMatC= 9.22D-11 BMatP= 6.81D-10
 IDIUse=1 WtCom= 1.00D+00 WtEn= 0.00D+00
 Coeff-Com:  0.471D-05 0.117D-05-0.954D-04-0.243D-03-0.989D-03-0.176D-02
 Coeff-Com: -0.352D-02 0.501D-02 0.703D-01 0.320D+00 0.611D+00
 Coeff:      0.471D-05 0.117D-05-0.954D-04-0.243D-03-0.989D-03-0.176D-02
 Coeff:     -0.352D-02 0.501D-02 0.703D-01 0.320D+00 0.611D+00
 Gap=     0.204 Goal=   None    Shift=    0.000
 RMSDP=8.20D-08 MaxDP=2.76D-06 DE=-6.31D-10 OVMax= 4.44D-06

 Cycle  12  Pass 1  IDiag  1:
 E= -703.476825602382     Delta-E=       -0.000000000098 Rises=F Damp=F
 DIIS: error= 9.22D-08 at cycle  12 NSaved=  12.
 NSaved=12 IEnMin=12 EnMin= -703.476825602382     IErMin=12 ErrMin= 9.22D-08
 ErrMax= 9.22D-08  0.00D+00 EMaxC= 1.00D-01 BMatC= 3.18D-12 BMatP= 9.22D-11
 IDIUse=1 WtCom= 1.00D+00 WtEn= 0.00D+00
 Coeff-Com: -0.603D-06 0.390D-05 0.110D-04 0.186D-04 0.274D-04-0.286D-03
 Coeff-Com: -0.208D-02-0.465D-02-0.434D-02 0.407D-01 0.196D+00 0.775D+00
 Coeff:     -0.603D-06 0.390D-05 0.110D-04 0.186D-04 0.274D-04-0.286D-03
 Coeff:     -0.208D-02-0.465D-02-0.434D-02 0.407D-01 0.196D+00 0.775D+00
 Gap=     0.204 Goal=   None    Shift=    0.000
 RMSDP=1.74D-08 MaxDP=3.30D-07 DE=-9.75D-11 OVMax= 7.09D-07

 Cycle  13  Pass 1  IDiag  1:
 E= -703.476825602387     Delta-E=       -0.000000000004 Rises=F Damp=F
 DIIS: error= 2.97D-08 at cycle  13 NSaved=  13.
 NSaved=13 IEnMin=13 EnMin= -703.476825602387     IErMin=13 ErrMin= 2.97D-08
 ErrMax= 2.97D-08  0.00D+00 EMaxC= 1.00D-01 BMatC= 2.11D-13 BMatP= 3.18D-12
 IDIUse=1 WtCom= 1.00D+00 WtEn= 0.00D+00
 Coeff-Com: -0.413D-06 0.143D-05 0.820D-05 0.176D-04 0.447D-04-0.529D-04
 Coeff-Com: -0.754D-03-0.220D-02-0.456D-02 0.551D-02 0.602D-01 0.305D+00
 Coeff-Com:  0.637D+00
 Coeff:     -0.413D-06 0.143D-05 0.820D-05 0.176D-04 0.447D-04-0.529D-04
 Coeff:     -0.754D-03-0.220D-02-0.456D-02 0.551D-02 0.602D-01 0.305D+00
 Coeff:      0.637D+00
 Gap=     0.204 Goal=   None    Shift=    0.000
 RMSDP=3.56D-09 MaxDP=1.21D-07 DE=-4.32D-12 OVMax= 1.62D-07

 Error on total polarization charges =  0.01352
 SCF Done:  E(RB3LYP) =  -703.476825602     A.U. after   13 cycles
            NFock= 13  Conv=0.36D-08     -V/T= 2.0058
 KE= 6.994255600475D+02 PE=-2.533241112955D+03 EE= 6.849867901816D+02
 Leave Link  502 at Sun Jul 11 16:21:24 2021, MaxMem=   104857600 cpu:              46.3 elap:              12.2
 (Enter /prod/apps/gaussian/g16b1/l601.exe)
 Copying SCF densities to generalized density rwf, IOpCl= 0 IROHF=0.

 **********************************************************************

            Population analysis using the SCF Density.

 **********************************************************************

 Orbital symmetries:
       Occupied  (A) (A) (A) (A) (A) (A) (A) (A) (A) (A) (A) (A)
                 (A) (A) (A) (A) (A) (A) (A) (A) (A) (A) (A) (A)
                 (A) (A) (A) (A) (A) (A) (A) (A) (A) (A)
       Virtual   (A) (A) (A) (A) (A) (A) (A) (A) (A) (A) (A) (A)
                 (A) (A) (A) (A) (A) (A) (A) (A) (A) (A) (A) (A)
                 (A) (A) (A) (A) (A) (A) (A) (A) (A) (A) (A) (A)
                 (A) (A) (A) (A) (A) (A) (A) (A) (A) (A) (A) (A)
                 (A) (A) (A) (A) (A) (A) (A) (A) (A) (A) (A) (A)
                 (A) (A) (A) (A) (A) (A) (A) (A) (A) (A) (A) (A)
                 (A) (A) (A) (A) (A) (A) (A) (A) (A) (A) (A) (A)
                 (A) (A) (A) (A) (A) (A) (A) (A) (A) (A) (A) (A)
                 (A) (A) (A) (A) (A) (A) (A) (A) (A) (A) (A) (A)
 The electronic state is 1-A.
 Alpha  occ. eigenvalues --  -88.93058 -14.44698 -14.34330 -10.26207 -10.25259
 Alpha  occ. eigenvalues --  -10.22620 -10.22334 -10.21196  -7.99159  -5.95530
 Alpha  occ. eigenvalues --   -5.95191  -5.94899  -1.02695  -0.95513  -0.82359
 Alpha  occ. eigenvalues --   -0.80300  -0.73187  -0.66966  -0.60720  -0.60326
 Alpha  occ. eigenvalues --   -0.58491  -0.54070  -0.51622  -0.49346  -0.47487
 Alpha  occ. eigenvalues --   -0.43454  -0.41748  -0.39663  -0.38887  -0.38273
 Alpha  occ. eigenvalues --   -0.37519  -0.29187  -0.28392  -0.24429
 Alpha virt. eigenvalues --   -0.04017   0.00737   0.03591   0.05373   0.09297
 Alpha virt. eigenvalues --    0.10548   0.11495   0.12093   0.12858   0.15119
 Alpha virt. eigenvalues --    0.16208   0.16738   0.18165   0.19446   0.21477
 Alpha virt. eigenvalues --    0.23495   0.24486   0.29646   0.30962   0.36091
 Alpha virt. eigenvalues --    0.37824   0.41008   0.41673   0.48765   0.50032
 Alpha virt. eigenvalues --    0.52978   0.54533   0.55076   0.55714   0.58343
 Alpha virt. eigenvalues --    0.60259   0.62348   0.63222   0.65496   0.68150
 Alpha virt. eigenvalues --    0.70280   0.72108   0.75032   0.78539   0.79289
 Alpha virt. eigenvalues --    0.81167   0.83109   0.83540   0.84692   0.85526
 Alpha virt. eigenvalues --    0.85896   0.86902   0.87619   0.88340   0.90575
 Alpha virt. eigenvalues --    0.91275   0.94363   0.96918   0.97898   0.99863
 Alpha virt. eigenvalues --    1.01462   1.04223   1.07037   1.16451   1.17213
 Alpha virt. eigenvalues --    1.28525   1.29736   1.32468   1.40194   1.43991
 Alpha virt. eigenvalues --    1.48337   1.52850   1.55011   1.61422   1.63290
 Alpha virt. eigenvalues --    1.75122   1.75462   1.80631   1.83637   1.88842
 Alpha virt. eigenvalues --    1.95542   1.96654   1.99404   2.01440   2.03817
 Alpha virt. eigenvalues --    2.05963   2.15534   2.17836   2.18959   2.23795
 Alpha virt. eigenvalues --    2.26769   2.28597   2.29829   2.35049   2.38770
 Alpha virt. eigenvalues --    2.42286   2.47403   2.49850   2.51570   2.55477
 Alpha virt. eigenvalues --    2.66324   2.69998   2.80858   2.94727   2.97897
 Alpha virt. eigenvalues --    3.79671   3.91842   3.92258   4.09959   4.20440
 Alpha virt. eigenvalues --    4.32447   4.34921   4.49888
          Condensed to atoms (all electrons):
               1          2          3          4          5          6
     1  N    6.718502   0.305885   0.302592   0.221176  -0.030915  -0.033579
     2  H    0.305885   0.273566  -0.010523  -0.022984   0.003630  -0.002289
     3  H    0.302592  -0.010523   0.269845  -0.017631  -0.001468  -0.002893
     4  C    0.221176  -0.022984  -0.017631   5.044363   0.386998   0.383282
     5  H   -0.030915   0.003630  -0.001468   0.386998   0.465348  -0.021984
     6  H   -0.033579  -0.002289  -0.002893   0.383282  -0.021984   0.481404
     7  C   -0.081497  -0.002597   0.005951   0.366143  -0.033926  -0.042343
     8  H   -0.004530   0.005437   0.000009  -0.030740   0.003462  -0.003290
     9  H   -0.002721  -0.000909   0.000045  -0.049054  -0.004282   0.005393
    10  C    0.006956   0.000162  -0.000241  -0.067760  -0.000347  -0.000231
    11  N    0.000148  -0.000023  -0.000001  -0.009128   0.000042   0.006890
    12  C   -0.000006   0.000000  -0.000000   0.000596  -0.000032  -0.000262
    13  H   -0.000000  -0.000000   0.000000   0.000003  -0.000000   0.000001
    14  C    0.000000  -0.000000   0.000000  -0.000134  -0.000182  -0.000025
    15  H    0.000000   0.000000   0.000000   0.000000   0.000003  -0.000002
    16  S   -0.000200  -0.000006   0.000008  -0.004159   0.004509   0.000801
    17  H    0.304294  -0.011112  -0.009486  -0.020027  -0.003615   0.003677
               7          8          9         10         11         12
     1  N   -0.081497  -0.004530  -0.002721   0.006956   0.000148  -0.000006
     2  H   -0.002597   0.005437  -0.000909   0.000162  -0.000023   0.000000
     3  H    0.005951   0.000009   0.000045  -0.000241  -0.000001  -0.000000
     4  C    0.366143  -0.030740  -0.049054  -0.067760  -0.009128   0.000596
     5  H   -0.033926   0.003462  -0.004282  -0.000347   0.000042  -0.000032
     6  H   -0.042343  -0.003290   0.005393  -0.000231   0.006890  -0.000262
     7  C    5.170049   0.366942   0.366575   0.348022  -0.067426   0.008006
     8  H    0.366942   0.490522  -0.023063  -0.027922   0.003909   0.000079
     9  H    0.366575  -0.023063   0.524322  -0.023794   0.003330  -0.000264
    10  C    0.348022  -0.027922  -0.023794   5.073202   0.458739  -0.086778
    11  N   -0.067426   0.003909   0.003330   0.458739   6.841881   0.408335
    12  C    0.008006   0.000079  -0.000264  -0.086778   0.408335   4.756712
    13  H   -0.000241  -0.000026   0.000003   0.006923  -0.043249   0.374002
    14  C    0.003609   0.000026   0.000080  -0.054608  -0.066989   0.573358
    15  H   -0.000123   0.000002  -0.000000   0.002766   0.005049  -0.019043
    16  S   -0.059243   0.004749   0.000997   0.305360  -0.082632  -0.071115
    17  H   -0.002323  -0.000340   0.005086  -0.000034  -0.000001  -0.000000
              13         14         15         16         17
     1  N   -0.000000   0.000000   0.000000  -0.000200   0.304294
     2  H   -0.000000  -0.000000   0.000000  -0.000006  -0.011112
     3  H    0.000000   0.000000   0.000000   0.000008  -0.009486
     4  C    0.000003  -0.000134   0.000000  -0.004159  -0.020027
     5  H   -0.000000  -0.000182   0.000003   0.004509  -0.003615
     6  H    0.000001  -0.000025  -0.000002   0.000801   0.003677
     7  C   -0.000241   0.003609  -0.000123  -0.059243  -0.002323
     8  H   -0.000026   0.000026   0.000002   0.004749  -0.000340
     9  H    0.000003   0.000080  -0.000000   0.000997   0.005086
    10  C    0.006923  -0.054608   0.002766   0.305360  -0.000034
    11  N   -0.043249  -0.066989   0.005049  -0.082632  -0.000001
    12  C    0.374002   0.573358  -0.019043  -0.071115  -0.000000
    13  H    0.521987  -0.045685  -0.000620   0.003988   0.000000
    14  C   -0.045685   5.292408   0.346354   0.320513  -0.000000
    15  H   -0.000620   0.346354   0.500524  -0.034587   0.000000
    16  S    0.003988   0.320513  -0.034587  15.308805   0.000027
    17  H    0.000000  -0.000000   0.000000   0.000027   0.271199
 Mulliken charges:
               1
     1  N   -0.706105
     2  H    0.461764
     3  H    0.463794
     4  C   -0.180944
     5  H    0.232758
     6  H    0.225450
     7  C   -0.345579
     8  H    0.214774
     9  H    0.198256
    10  C    0.059586
    11  N   -0.458875
    12  C    0.056411
    13  H    0.182916
    14  C   -0.368724
    15  H    0.199677
    16  S    0.302185
    17  H    0.462656
 Sum of Mulliken charges =   1.00000
 Mulliken charges with hydrogens summed into heavy atoms:
               1
     1  N    0.682109
     4  C    0.277264
     7  C    0.067451
    10  C    0.059586
    11  N   -0.458875
    12  C    0.239327
    14  C   -0.169047
    16  S    0.302185
 Electronic spatial extent (au):  <R**2>=           1267.5643
 Charge=              1.0000 electrons
 Dipole moment (field-independent basis, Debye):
    X=             14.2690    Y=             -1.8514    Z=             -1.2557  Tot=             14.4433
 Quadrupole moment (field-independent basis, Debye-Ang):
   XX=              6.3632   YY=            -51.3717   ZZ=            -51.1550
   XY=             -0.3191   XZ=             -0.9875   YZ=             -0.7704
 Traceless Quadrupole moment (field-independent basis, Debye-Ang):
   XX=             38.4177   YY=            -19.3172   ZZ=            -19.1005
   XY=             -0.3191   XZ=             -0.9875   YZ=             -0.7704
 Octapole moment (field-independent basis, Debye-Ang**2):
  XXX=            180.3428  YYY=             -5.4102  ZZZ=             -2.4479  XYY=             11.3879
  XXY=              2.3178  XXZ=            -18.7651  XZZ=             21.0667  YZZ=             -0.8446
  YYZ=             -1.9392  XYZ=              0.2034
 Hexadecapole moment (field-independent basis, Debye-Ang**3):
 XXXX=           -438.1595 YYYY=           -309.6799 ZZZZ=           -128.0918 XXXY=              0.1629
 XXXZ=            -32.5345 YYYX=            -10.0414 YYYZ=             -4.3767 ZZZX=            -14.9662
 ZZZY=              0.0169 XXYY=           -192.4384 XXZZ=           -185.4757 YYZZ=            -72.1283
 XXYZ=              0.4657 YYXZ=              6.6123 ZZXY=              2.9940
 N-N= 4.453519371235D+02 E-N=-2.533241109080D+03  KE= 6.994255600475D+02
 No NMR shielding tensors so no spin-rotation constants.
 Leave Link  601 at Sun Jul 11 16:21:24 2021, MaxMem=   104857600 cpu:               0.3 elap:               0.1
 (Enter /prod/apps/gaussian/g16b1/l701.exe)
 ... and contract with generalized density number  0.
 Compute integral first derivatives.
 D1PCM: PCM CHGder 1st derivatives, ID1Alg=3 FixD1E=F DoIter=F DoCFld=F I1PDM=0.
 GePol: Maximum number of non-zero 1st derivatives   =     284
 Leave Link  701 at Sun Jul 11 16:21:25 2021, MaxMem=   104857600 cpu:               2.7 elap:               0.7
 (Enter /prod/apps/gaussian/g16b1/l702.exe)
 L702 exits ... SP integral derivatives will be done elsewhere.
 Leave Link  702 at Sun Jul 11 16:21:25 2021, MaxMem=   104857600 cpu:               0.1 elap:               0.0
 (Enter /prod/apps/gaussian/g16b1/l703.exe)
 Integral derivatives from FoFJK, PRISM(SPDF).
 Compute integral first derivatives, UseDBF=F ICtDFT=           0.
 Calling FoFJK, ICntrl=      2127 FMM=F ISym2X=0 I1Cent= 0 IOpClX= 0 NMat=1 NMatS=1 NMatT=0.
 FoFJK:  IHMeth= 1 ICntrl=    2127 DoSepK=F KAlg= 0 I1Cent=           0 FoldK=F
 IRaf=         0 NMat=       1 IRICut=       1 DoRegI=T DoRafI=F ISym2E= 0 IDoP0=0 IntGTp=1.
 FoFCou: FMM=F IPFlag=           0 FMFlag=      100000 FMFlg1=         800
         NFxFlg=           0 DoJE=F BraDBF=F KetDBF=F FulRan=T
         wScrn=  0.000000 ICntrl=      2127 IOpCl=  0 I1Cent=           0 NGrid=           0
         NMat0=    1 NMatS0=      1 NMatT0=    0 NMatD0=    1 NMtDS0=    0 NMtDT0=    0
 Symmetry not used in FoFCou.
 Leave Link  703 at Sun Jul 11 16:21:27 2021, MaxMem=   104857600 cpu:              10.8 elap:               2.7
 (Enter /prod/apps/gaussian/g16b1/l716.exe)
 Dipole        = 5.61386992D+00-7.28410887D-01-4.94017404D-01
 ***** Axes restored to original set *****
 -------------------------------------------------------------------
 Center     Atomic                   Forces (Hartrees/Bohr)
 Number     Number              X              Y              Z
 -------------------------------------------------------------------
      1        7           0.014509005    0.000790060   -0.019172148
      2        1          -0.021850814    0.018613946    0.004050000
      3        1           0.011827772    0.019681487   -0.022851545
      4        6          -0.011156292    0.001044487   -0.013629655
      5        1          -0.004680017    0.000628799   -0.000834121
      6        1           0.006416638   -0.002382183   -0.001115568
      7        6           0.009206872   -0.025652198    0.029874125
      8        1           0.004426195    0.005021390   -0.003156567
      9        1          -0.004472261    0.002140427    0.007277265
     10        6          -0.067854739   -0.020403607   -0.027487806
     11        7           0.037684070    0.003991893    0.034278292
     12        6           0.029211474    0.019134397   -0.004182076
     13        1           0.004251250   -0.006096257   -0.000461663
     14        6          -0.010456169   -0.025149723    0.014338485
     15        1          -0.000846337   -0.000200983   -0.003110184
     16       16          -0.012876922   -0.003013789   -0.011887650
     17        1           0.016660275    0.011851853    0.018070817
 -------------------------------------------------------------------
 Cartesian Forces:  Max     0.067854739 RMS     0.017886733
 Leave Link  716 at Sun Jul 11 16:21:27 2021, MaxMem=   104857600 cpu:               0.1 elap:               0.0
 (Enter /prod/apps/gaussian/g16b1/l103.exe)

 GradGradGradGradGradGradGradGradGradGradGradGradGradGradGradGradGradGrad
 Berny optimization.
 FormGI is forming the generalized inverse of G from B-inverse, IUseBI=4.
 Internal  Forces:  Max     0.051352378 RMS     0.015368100
 Search for a local minimum.
 Step number   1 out of a maximum of   92
 All quantities printed in internal units (Hartrees-Bohrs-Radians)
 RMS Force = .15368D-01 SwitMx=.10000D-02 MixMth= 1
 Mixed Optimization -- RFO/linear search
 Second derivative matrix not updated -- first step.
 ITU=  0
     Eigenvalues ---    0.01034   0.01068   0.01255   0.01548   0.01628
     Eigenvalues ---    0.02102   0.02175   0.02305   0.05262   0.05315
     Eigenvalues ---    0.05793   0.06001   0.06259   0.06263   0.06937
     Eigenvalues ---    0.08749   0.10796   0.12173   0.15459   0.15934
     Eigenvalues ---    0.16000   0.16000   0.16000   0.21866   0.21930
     Eigenvalues ---    0.22387   0.24404   0.24606   0.30460   0.32529
     Eigenvalues ---    0.34483   0.34494   0.34529   0.34603   0.34615
     Eigenvalues ---    0.35604   0.35626   0.36589   0.38617   0.45886
     Eigenvalues ---    0.47268   0.47662   0.47671   0.47735   0.49294
 RFO step:  Lambda=-5.77528230D-02 EMin= 1.03440649D-02
 Linear search not attempted -- first point.
 Maximum step size (   0.300) exceeded in Quadratic search.
    -- Step size scaled by   0.764
 Iteration  1 RMS(Cart)=  0.11440693 RMS(Int)=  0.00253817
 Iteration  2 RMS(Cart)=  0.00272884 RMS(Int)=  0.00065893
 Iteration  3 RMS(Cart)=  0.00001361 RMS(Int)=  0.00065890
 Iteration  4 RMS(Cart)=  0.00000001 RMS(Int)=  0.00065890
 ITry= 1 IFail=0 DXMaxC= 4.15D-01 DCOld= 1.00D+10 DXMaxT= 3.00D-01 DXLimC= 3.00D+00 Rises=F
 Variable       Old X    -DE/DX   Delta X   Delta X   Delta X     New X
                                 (Linear)    (Quad)   (Total)
    R1        1.89001   0.02804   0.00000   0.04009   0.04009   1.93011
    R2        1.88923   0.03105   0.00000   0.04434   0.04434   1.93357
    R3        2.73477   0.05135   0.00000   0.08840   0.08840   2.82317
    R4        1.88991   0.02640   0.00000   0.03775   0.03775   1.92765
    R5        2.06522  -0.00440   0.00000  -0.00835  -0.00835   2.05687
    R6        2.06505  -0.00244   0.00000  -0.00463  -0.00463   2.06042
    R7        2.79624   0.04606   0.00000   0.08718   0.08718   2.88341
    R8        2.06446  -0.00205   0.00000  -0.00388  -0.00388   2.06058
    R9        2.06305   0.00336   0.00000   0.00636   0.00636   2.06941
   R10        2.76471   0.03473   0.00000   0.06264   0.06264   2.82735
   R11        2.60576  -0.04985   0.00000  -0.07130  -0.07131   2.53445
   R12        3.25238   0.00950   0.00000   0.01734   0.01733   3.26971
   R13        2.60882   0.00516   0.00000   0.00642   0.00644   2.61526
   R14        2.04670  -0.00099   0.00000  -0.00182  -0.00182   2.04488
   R15        2.60331  -0.01581   0.00000  -0.02048  -0.02049   2.58283
   R16        2.04706  -0.00017   0.00000  -0.00031  -0.00031   2.04674
   R17        3.29609  -0.01108   0.00000  -0.01997  -0.01996   3.27614
    A1        1.91044  -0.00799   0.00000  -0.02820  -0.02858   1.88186
    A2        1.91058   0.00638   0.00000   0.02257   0.02224   1.93283
    A3        1.91049  -0.00600   0.00000  -0.02058  -0.02083   1.88966
    A4        1.91111   0.00946   0.00000   0.03296   0.03259   1.94370
    A5        1.91076  -0.00790   0.00000  -0.02803  -0.02837   1.88239
    A6        1.91041   0.00604   0.00000   0.02128   0.02097   1.93138
    A7        1.91117  -0.01607   0.00000  -0.03966  -0.03893   1.87225
    A8        1.88287  -0.01339   0.00000  -0.02654  -0.02867   1.85420
    A9        1.76591   0.05078   0.00000   0.15080   0.15066   1.91657
   A10        1.96684   0.00622   0.00000  -0.01305  -0.01515   1.95169
   A11        1.99745  -0.01563   0.00000  -0.04645  -0.04636   1.95109
   A12        1.92592  -0.00834   0.00000  -0.00963  -0.01101   1.91491
   A13        2.01034  -0.01394   0.00000  -0.05386  -0.05381   1.95653
   A14        1.86149   0.00141   0.00000   0.02019   0.01948   1.88097
   A15        1.85148   0.02431   0.00000   0.07322   0.07299   1.92448
   A16        1.94120   0.00086   0.00000  -0.01585  -0.01615   1.92505
   A17        1.85741  -0.00383   0.00000  -0.00429  -0.00317   1.85424
   A18        1.94097  -0.00815   0.00000  -0.01621  -0.01792   1.92305
   A19        2.00429   0.02205   0.00000   0.05856   0.05865   2.06294
   A20        2.23938  -0.00931   0.00000  -0.02067  -0.02073   2.21865
   A21        2.01586  -0.01204   0.00000  -0.03174  -0.03224   1.98361
   A22        1.92545   0.00597   0.00000   0.00967   0.00921   1.93467
   A23        2.04954  -0.00087   0.00000   0.00271   0.00249   2.05203
   A24        1.96192   0.01707   0.00000   0.05078   0.05019   2.01210
   A25        2.26723  -0.01577   0.00000  -0.04916  -0.04936   2.21787
   A26        2.22760   0.01120   0.00000   0.03011   0.02978   2.25738
   A27        1.97628  -0.02504   0.00000  -0.05849  -0.05939   1.91688
   A28        2.04399   0.01509   0.00000   0.04317   0.04291   2.08690
   A29        1.52624   0.01552   0.00000   0.04493   0.04437   1.57061
    D1       -2.99467  -0.00487   0.00000  -0.02886  -0.02851  -3.02318
    D2        1.14220   0.00583   0.00000   0.02826   0.02799   1.17019
    D3       -0.87995  -0.00291   0.00000  -0.01952  -0.01950  -0.89945
    D4        1.19410  -0.00478   0.00000  -0.02834  -0.02802   1.16608
    D5       -0.95222   0.00591   0.00000   0.02878   0.02847  -0.92374
    D6       -2.97436  -0.00283   0.00000  -0.01899  -0.01902  -2.99338
    D7       -0.90061  -0.00461   0.00000  -0.02724  -0.02694  -0.92755
    D8       -3.04693   0.00608   0.00000   0.02988   0.02955  -3.01737
    D9        1.21411  -0.00265   0.00000  -0.01790  -0.01794   1.19617
   D10        1.09226  -0.00325   0.00000  -0.01465  -0.01344   1.07882
   D11       -1.07076   0.00399   0.00000   0.02683   0.02805  -1.04272
   D12       -3.14136   0.00058   0.00000  -0.00088  -0.00101   3.14082
   D13       -3.13803   0.00172   0.00000   0.00966   0.00953  -3.12850
   D14        0.98214   0.00896   0.00000   0.05115   0.05101   1.03315
   D15       -1.08846   0.00555   0.00000   0.02343   0.02196  -1.06650
   D16       -0.89780  -0.01000   0.00000  -0.05542  -0.05516  -0.95296
   D17       -3.06082  -0.00276   0.00000  -0.01394  -0.01368  -3.07450
   D18        1.15177  -0.00617   0.00000  -0.04165  -0.04273   1.10903
   D19       -1.56682   0.00467   0.00000   0.01751   0.01725  -1.54957
   D20        1.32997   0.00716   0.00000   0.04603   0.04555   1.37552
   D21        0.58235  -0.00060   0.00000  -0.00839  -0.00808   0.57427
   D22       -2.80404   0.00190   0.00000   0.02012   0.02022  -2.78383
   D23        2.69904  -0.00670   0.00000  -0.03985  -0.03957   2.65947
   D24       -0.68736  -0.00421   0.00000  -0.01133  -0.01127  -0.69863
   D25        3.00841  -0.00192   0.00000  -0.00133  -0.00057   3.00784
   D26        0.07912  -0.00373   0.00000  -0.02568  -0.02477   0.05435
   D27       -2.86914  -0.00722   0.00000  -0.05568  -0.05532  -2.92446
   D28        0.02628  -0.00070   0.00000  -0.01639  -0.01734   0.00894
   D29        3.05792   0.00087   0.00000   0.01891   0.01921   3.07713
   D30       -0.17533   0.00429   0.00000   0.06015   0.06233  -0.11300
   D31        3.04875  -0.00217   0.00000  -0.01809  -0.01814   3.03062
   D32        0.20079  -0.00887   0.00000  -0.08313  -0.08253   0.11827
   D33       -0.19894   0.00315   0.00000   0.03422   0.03404  -0.16490
   D34       -3.04690  -0.00354   0.00000  -0.03082  -0.03035  -3.07725
   D35       -0.12750   0.00611   0.00000   0.05847   0.05751  -0.06999
   D36       -3.00865  -0.00003   0.00000   0.00086   0.00054  -3.00811
         Item               Value     Threshold  Converged?
 Maximum Force            0.051352     0.000450     NO 
 RMS     Force            0.015368     0.000300     NO 
 Maximum Displacement     0.414788     0.001800     NO 
 RMS     Displacement     0.114401     0.001200     NO 
 Predicted change in Energy=-3.100531D-02
 Lowest energy point so far.  Saving SCF results.
 GradGradGradGradGradGradGradGradGradGradGradGradGradGradGradGradGradGrad

 Leave Link  103 at Sun Jul 11 16:21:27 2021, MaxMem=   104857600 cpu:               0.1 elap:               0.0
 (Enter /prod/apps/gaussian/g16b1/l202.exe)
                          Input orientation:                          
 ---------------------------------------------------------------------
 Center     Atomic      Atomic             Coordinates (Angstroms)
 Number     Number       Type             X           Y           Z
 ---------------------------------------------------------------------
      1          7           0        1.027122    2.777030   -0.496205
      2          1           0        0.172313    3.294496   -0.284722
      3          1           0        1.391851    3.125254   -1.386513
      4          6           0        0.755945    1.309106   -0.555920
      5          1           0        1.715944    0.807166   -0.661679
      6          1           0        0.118354    1.152010   -1.426327
      7          6           0        0.021740    0.867071    0.706508
      8          1           0       -0.946728    1.357176    0.810735
      9          1           0        0.660639    1.101978    1.564318
     10          6           0       -0.256063   -0.602241    0.656795
     11          7           0       -1.398245   -1.012278    0.085794
     12          6           0       -1.422661   -2.390957   -0.032207
     13          1           0       -2.323688   -2.844233   -0.424176
     14          6           0       -0.262837   -3.026952    0.311864
     15          1           0       -0.059995   -4.087643    0.394769
     16         16           0        0.855166   -1.886771    0.986863
     17          1           0        1.715143    2.986790    0.227102
 ---------------------------------------------------------------------
                    Distance matrix (angstroms):
                    1          2          3          4          5
     1  N    0.000000
     2  H    1.021370   0.000000
     3  H    1.023199   1.652229   0.000000
     4  C    1.493956   2.087091   2.095866   0.000000
     5  H    2.093375   2.951560   2.450296   1.088451   0.000000
     6  H    2.081269   2.428255   2.348845   1.090326   1.804411
     7  C    2.470882   2.626329   3.370064   1.525836   2.178497
     8  H    2.760464   2.491081   3.663734   2.183838   3.091979
     9  H    2.680646   2.909390   3.651810   2.132462   2.481057
    10  C    3.794133   4.031690   4.559051   2.479533   2.759277
    11  N    4.536516   4.599156   5.203027   3.231277   3.683376
    12  C    5.738015   5.910337   6.339101   4.325629   4.524938
    13  H    6.544594   6.628233   7.096908   5.172207   5.450481
    14  C    6.000264   6.364430   6.593338   4.537881   4.423100
    15  H    7.007095   7.416984   7.570118   5.540258   5.313115
    16  S    4.896948   5.378545   5.571475   3.550163   3.273519
    17  H    1.020071   1.654379   1.651497   2.085140   2.353868
                    6          7          8          9         10
     6  H    0.000000
     7  C    2.153953   0.000000
     8  H    2.486150   1.090411   0.000000
     9  H    3.039825   1.095085   1.793501   0.000000
    10  C    2.748997   1.496170   2.083274   2.137359   0.000000
    11  N    3.044786   2.435897   2.518674   3.300774   1.341175
    12  C    4.107422   3.639607   3.871120   4.369168   2.243921
    13  H    4.789346   4.533570   4.590519   5.332251   3.235753
    14  C    4.542062   3.924301   4.465104   4.412426   2.449131
    15  H    5.549969   4.965183   5.532212   5.368362   3.500732
    16  S    3.949756   2.890821   3.714975   3.050232   1.730258
    17  H    2.941085   2.755114   3.175189   2.540205   4.117212
                   11         12         13         14         15
    11  N    0.000000
    12  C    1.383935   0.000000
    13  H    2.114847   1.082103   0.000000
    14  C    2.323611   1.366772   2.195962   0.000000
    15  H    3.368122   2.217636   2.709436   1.083090   0.000000
    16  S    2.579637   2.545821   3.607337   1.733657   2.455999
    17  H    5.070078   6.231631   7.123002   6.331246   7.295672
                   16         17
    16  S    0.000000
    17  H    5.006835   0.000000
 Stoichiometry    C5H9N2S(1+)
 Framework group  C1[X(C5H9N2S)]
 Deg. of freedom    45
 Full point group                 C1      NOp   1
 RotChk:  IX=0 Diff= 1.07D-02
 Largest Abelian subgroup         C1      NOp   1
 Largest concise Abelian subgroup C1      NOp   1
                         Standard orientation:                         
 ---------------------------------------------------------------------
 Center     Atomic      Atomic             Coordinates (Angstroms)
 Number     Number       Type             X           Y           Z
 ---------------------------------------------------------------------
      1          7           0        3.476278   -0.015979   -0.234763
      2          1           0        3.731394    0.773037    0.361530
      3          1           0        4.039155    0.040946   -1.087326
      4          6           0        2.015018    0.005897   -0.544836
      5          1           0        1.783408   -0.915828   -1.075409
      6          1           0        1.848698    0.885024   -1.167960
      7          6           0        1.213932    0.132024    0.747653
      8          1           0        1.432409    1.060051    1.276832
      9          1           0        1.457053   -0.730475    1.377096
     10          6           0       -0.251846    0.155994    0.448582
     11          7           0       -0.829822    1.341675    0.205983
     12          6           0       -2.136741    1.175047   -0.217661
     13          1           0       -2.726235    2.066727   -0.386042
     14          6           0       -2.519791   -0.118981   -0.434062
     15          1           0       -3.499272   -0.514065   -0.674080
     16         16           0       -1.265237   -1.197977    0.083073
     17          1           0        3.728559   -0.877548    0.249589
 ---------------------------------------------------------------------
 Rotational constants (GHZ):           4.1182107           0.9580259           0.8424611
 Leave Link  202 at Sun Jul 11 16:21:27 2021, MaxMem=   104857600 cpu:               0.1 elap:               0.0
 (Enter /prod/apps/gaussian/g16b1/l301.exe)
 Standard basis: 6-31G(d) (6D, 7F)
 Ernie: Thresh=  0.10000D-02 Tol=  0.10000D-05 Strict=F.
 There are   142 symmetry adapted cartesian basis functions of A   symmetry.
 There are   142 symmetry adapted basis functions of A   symmetry.
   142 basis functions,   284 primitive gaussians,   142 cartesian basis functions
    34 alpha electrons       34 beta electrons
       nuclear repulsion energy       438.1989598977 Hartrees.
 IExCor=  402 DFT=T Ex+Corr=B3LYP ExCW=0 ScaHFX=  0.200000
 ScaDFX=  0.800000  0.720000  1.000000  0.810000 ScalE2=  1.000000  1.000000
 IRadAn=      5 IRanWt=     -1 IRanGd=            0 ICorTp=0 IEmpDi=  4
 NAtoms=   17 NActive=   17 NUniq=   17 SFac= 1.00D+00 NAtFMM=   60 NAOKFM=F Big=F
 Integral buffers will be    131072 words long.
 Raffenetti 2 integral format.
 Two-electron integral symmetry is turned on.
 ------------------------------------------------------------------------------
 Polarizable Continuum Model (PCM)
 =================================
 Model                : PCM.
 Atomic radii         : MST.
 Polarization charges : Total charges.
 Charge compensation  : None.
 Solution method      : On-the-fly selection.
 Cavity type          : Scaled VdW (van der Waals Surface) (Alpha=1.250).
 Cavity algorithm     : GePol (No added spheres)
                        Default sphere list used, NSphG=   17.
                        Lebedev-Laikov grids with approx.  5.0 points / Ang**2.
                        Smoothing algorithm: York/Karplus (Gamma=1.0000).
                        Polarization charges: spherical gaussians, with
                                              point-specific exponents (IZeta= 3).
                        Self-potential: point-specific (ISelfS= 7).
                        Self-field    : sphere-specific E.n sum rule (ISelfD= 2).
 1st derivatives      : Analytical E(r).r(x)/FMM algorithm (CHGder, D1EAlg=3).
                        Cavity 1st derivative terms included.
 Solvent              : Water, Eps=  78.355300 Eps(inf)=   1.777849
 ------------------------------------------------------------------------------
 Spheres list:
 ISph  on   Nord     Re0    Alpha      Xe            Ye            Ze
    1   N      1    1.7000  1.150      3.476278     -0.015979     -0.234763
    2   H      2    0.9000  1.150      3.731394      0.773037      0.361530
    3   H      3    0.9000  1.150      4.039155      0.040946     -1.087326
    4   C      4    1.5000  1.250      2.015018      0.005897     -0.544836
    5   H      5    1.2000  1.250      1.783408     -0.915828     -1.075409
    6   H      6    1.2000  1.250      1.848698      0.885024     -1.167960
    7   C      7    1.5000  1.250      1.213932      0.132024      0.747653
    8   H      8    1.2000  1.250      1.432409      1.060051      1.276832
    9   H      9    1.2000  1.250      1.457053     -0.730475      1.377096
   10   C     10    1.5000  1.250     -0.251846      0.155994      0.448582
   11   N     11    1.4000  1.250     -0.829822      1.341675      0.205983
   12   C     12    1.5000  1.250     -2.136741      1.175047     -0.217661
   13   H     13    1.2000  1.250     -2.726235      2.066727     -0.386042
   14   C     14    1.5000  1.250     -2.519791     -0.118981     -0.434062
   15   H     15    1.2000  1.250     -3.499272     -0.514065     -0.674080
   16   S     16    1.7500  1.250     -1.265237     -1.197977      0.083073
   17   H     17    0.9000  1.150      3.728559     -0.877548      0.249589
 ------------------------------------------------------------------------------
 GePol: Number of generator spheres                  =      17
 GePol: Total number of spheres                      =      17
 GePol: Number of exposed spheres                    =      17 (100.00%)
 GePol: Number of points                             =    1322
 GePol: Average weight of points                     =       0.14
 GePol: Minimum weight of points                     =   0.24D-08
 GePol: Maximum weight of points                     =    0.22001
 GePol: Number of points with low weight             =      77
 GePol: Fraction of low-weight points (<1% of avg)   =       5.82%
 GePol: Cavity surface area                          =    178.718 Ang**2
 GePol: Cavity volume                                =    159.248 Ang**3
 PCM non-electrostatic energy =         0.0002687168 Hartrees.
 Nuclear repulsion after PCM non-electrostatic terms =      438.1992286145 Hartrees.
 Leave Link  301 at Sun Jul 11 16:21:28 2021, MaxMem=   104857600 cpu:               0.3 elap:               0.1
 (Enter /prod/apps/gaussian/g16b1/l302.exe)
 NPDir=0 NMtPBC=     1 NCelOv=     1 NCel=       1 NClECP=     1 NCelD=      1
         NCelK=      1 NCelE2=     1 NClLst=     1 CellRange=     0.0.
 One-electron integrals computed using PRISM.
 One-electron integral symmetry used in STVInt
 NBasis=   142 RedAO= T EigKep=  2.58D-03  NBF=   142
 NBsUse=   142 1.00D-06 EigRej= -1.00D+00 NBFU=   142
 Precomputing XC quadrature grid using
 IXCGrd= 4 IRadAn=           5 IRanWt=          -1 IRanGd=           0 AccXCQ= 0.00D+00.
 Generated NRdTot=       0 NPtTot=           0 NUsed=           0 NTot=          32
 NSgBfM=   142   142   142   142   142 MxSgAt=    17 MxSgA2=    17.
 Leave Link  302 at Sun Jul 11 16:21:28 2021, MaxMem=   104857600 cpu:               0.7 elap:               0.2
 (Enter /prod/apps/gaussian/g16b1/l303.exe)
 DipDrv:  MaxL=1.
 Leave Link  303 at Sun Jul 11 16:21:28 2021, MaxMem=   104857600 cpu:               0.1 elap:               0.0
 (Enter /prod/apps/gaussian/g16b1/l401.exe)
 Initial guess from the checkpoint file:  "SET_328_BBB87_conf1.geo_180_270.chk"
 B after Tr=    -0.000000   -0.000000   -0.000000
         Rot=    0.999989    0.002533    0.003896    0.000016 Ang=   0.53 deg.
 Guess basis will be translated and rotated to current coordinates.
 JPrj=2 DoOrth=T DoCkMO=T.
 Generating alternative initial guess.
 ExpMin= 1.17D-01 ExpMax= 2.19D+04 ExpMxC= 3.30D+03 IAcc=3 IRadAn=         5 AccDes= 0.00D+00
 Harris functional with IExCor=  402 and IRadAn=       5 diagonalized for initial guess.
 HarFok:  IExCor=  402 AccDes= 0.00D+00 IRadAn=         5 IDoV= 1 UseB2=F ITyADJ=14
 ICtDFT=  3500011 ScaDFX=  1.000000  1.000000  1.000000  1.000000
 FoFCou: FMM=F IPFlag=           0 FMFlag=      100000 FMFlg1=           0
         NFxFlg=           0 DoJE=T BraDBF=F KetDBF=T FulRan=T
         wScrn=  0.000000 ICntrl=       500 IOpCl=  0 I1Cent=   200000004 NGrid=           0
         NMat0=    1 NMatS0=      1 NMatT0=    0 NMatD0=    1 NMtDS0=    0 NMtDT0=    0
 Petite list used in FoFCou.
 Harris En= -703.377592359412    
 Leave Link  401 at Sun Jul 11 16:21:28 2021, MaxMem=   104857600 cpu:               2.7 elap:               0.7
 (Enter /prod/apps/gaussian/g16b1/l502.exe)
 Keep R1 ints in memory in canonical form, NReq=55421297.
 FoFCou: FMM=F IPFlag=           0 FMFlag=           0 FMFlg1=           0
         NFxFlg=           0 DoJE=F BraDBF=F KetDBF=F FulRan=T
         wScrn=  0.000000 ICntrl=       600 IOpCl=  0 I1Cent=           0 NGrid=           0
         NMat0=    1 NMatS0=  10153 NMatT0=    0 NMatD0=    1 NMtDS0=    0 NMtDT0=    0
 Symmetry not used in FoFCou.
 Two-electron integral symmetry not used.
 Closed shell SCF:
 Using DIIS extrapolation, IDIIS=  1040.
 NGot=   104857600 LenX=    53267901 LenY=    53247296
 Requested convergence on RMS density matrix=1.00D-08 within 128 cycles.
 Requested convergence on MAX density matrix=1.00D-06.
 Requested convergence on             energy=1.00D-06.
 No special actions if energy rises.

 Cycle   1  Pass 1  IDiag  1:
 Inv3:  Mode=1 IEnd=     5243052.
 Iteration    1 A*A^-1 deviation from unit magnitude is 3.44D-15 for    363.
 Iteration    1 A*A^-1 deviation from orthogonality  is 2.19D-15 for    871    417.
 Iteration    1 A^-1*A deviation from unit magnitude is 3.33D-15 for      1.
 Iteration    1 A^-1*A deviation from orthogonality  is 1.67D-15 for   1169    764.
 E= -703.494850956634    
 DIIS: error= 3.92D-03 at cycle   1 NSaved=   1.
 NSaved= 1 IEnMin= 1 EnMin= -703.494850956634     IErMin= 1 ErrMin= 3.92D-03
 ErrMax= 3.92D-03  0.00D+00 EMaxC= 1.00D-01 BMatC= 5.05D-03 BMatP= 5.05D-03
 IDIUse=3 WtCom= 9.61D-01 WtEn= 3.92D-02
 Coeff-Com:  0.100D+01
 Coeff-En:   0.100D+01
 Coeff:      0.100D+01
 Gap=     1.613 Goal=   None    Shift=    0.000
 GapD=    1.613 DampG=2.000 DampE=1.000 DampFc=2.0000 IDamp=-1.
 RMSDP=9.32D-04 MaxDP=1.22D-02              OVMax= 2.16D-02

 Cycle   2  Pass 1  IDiag  1:
 E= -703.502546696025     Delta-E=       -0.007695739391 Rises=F Damp=F
 DIIS: error= 2.35D-03 at cycle   2 NSaved=   2.
 NSaved= 2 IEnMin= 2 EnMin= -703.502546696025     IErMin= 2 ErrMin= 2.35D-03
 ErrMax= 2.35D-03  0.00D+00 EMaxC= 1.00D-01 BMatC= 7.67D-04 BMatP= 5.05D-03
 IDIUse=3 WtCom= 9.77D-01 WtEn= 2.35D-02
 Coeff-Com:  0.175D+00 0.825D+00
 Coeff-En:   0.000D+00 0.100D+01
 Coeff:      0.171D+00 0.829D+00
 Gap=     0.214 Goal=   None    Shift=    0.000
 RMSDP=3.23D-04 MaxDP=8.60D-03 DE=-7.70D-03 OVMax= 9.34D-03

 Cycle   3  Pass 1  IDiag  1:
 E= -703.502675772644     Delta-E=       -0.000129076619 Rises=F Damp=F
 DIIS: error= 2.17D-03 at cycle   3 NSaved=   3.
 NSaved= 3 IEnMin= 3 EnMin= -703.502675772644     IErMin= 3 ErrMin= 2.17D-03
 ErrMax= 2.17D-03  0.00D+00 EMaxC= 1.00D-01 BMatC= 6.76D-04 BMatP= 7.67D-04
 IDIUse=3 WtCom= 9.78D-01 WtEn= 2.17D-02
 Coeff-Com: -0.265D-01 0.487D+00 0.540D+00
 Coeff-En:   0.000D+00 0.455D+00 0.545D+00
 Coeff:     -0.259D-01 0.486D+00 0.540D+00
 Gap=     0.214 Goal=   None    Shift=    0.000
 RMSDP=1.71D-04 MaxDP=4.49D-03 DE=-1.29D-04 OVMax= 5.85D-03

 Cycle   4  Pass 1  IDiag  1:
 E= -703.503258071154     Delta-E=       -0.000582298511 Rises=F Damp=F
 DIIS: error= 3.24D-04 at cycle   4 NSaved=   4.
 NSaved= 4 IEnMin= 4 EnMin= -703.503258071154     IErMin= 4 ErrMin= 3.24D-04
 ErrMax= 3.24D-04  0.00D+00 EMaxC= 1.00D-01 BMatC= 2.84D-05 BMatP= 6.76D-04
 IDIUse=3 WtCom= 9.97D-01 WtEn= 3.24D-03
 Coeff-Com: -0.201D-01 0.258D+00 0.312D+00 0.449D+00
 Coeff-En:   0.000D+00 0.000D+00 0.000D+00 0.100D+01
 Coeff:     -0.200D-01 0.257D+00 0.311D+00 0.451D+00
 Gap=     0.214 Goal=   None    Shift=    0.000
 RMSDP=4.00D-05 MaxDP=1.42D-03 DE=-5.82D-04 OVMax= 2.00D-03

 Cycle   5  Pass 1  IDiag  1:
 E= -703.503282763372     Delta-E=       -0.000024692217 Rises=F Damp=F
 DIIS: error= 7.05D-05 at cycle   5 NSaved=   5.
 NSaved= 5 IEnMin= 5 EnMin= -703.503282763372     IErMin= 5 ErrMin= 7.05D-05
 ErrMax= 7.05D-05  0.00D+00 EMaxC= 1.00D-01 BMatC= 2.05D-06 BMatP= 2.84D-05
 IDIUse=1 WtCom= 1.00D+00 WtEn= 0.00D+00
 Coeff-Com: -0.614D-02 0.541D-01 0.735D-01 0.237D+00 0.642D+00
 Coeff:     -0.614D-02 0.541D-01 0.735D-01 0.237D+00 0.642D+00
 Gap=     0.214 Goal=   None    Shift=    0.000
 RMSDP=9.37D-06 MaxDP=2.93D-04 DE=-2.47D-05 OVMax= 4.58D-04

 Cycle   6  Pass 1  IDiag  1:
 E= -703.503284491956     Delta-E=       -0.000001728584 Rises=F Damp=F
 DIIS: error= 2.06D-05 at cycle   6 NSaved=   6.
 NSaved= 6 IEnMin= 6 EnMin= -703.503284491956     IErMin= 6 ErrMin= 2.06D-05
 ErrMax= 2.06D-05  0.00D+00 EMaxC= 1.00D-01 BMatC= 1.10D-07 BMatP= 2.05D-06
 IDIUse=1 WtCom= 1.00D+00 WtEn= 0.00D+00
 Coeff-Com: -0.168D-02 0.108D-01 0.163D-01 0.861D-01 0.290D+00 0.599D+00
 Coeff:     -0.168D-02 0.108D-01 0.163D-01 0.861D-01 0.290D+00 0.599D+00
 Gap=     0.214 Goal=   None    Shift=    0.000
 RMSDP=3.01D-06 MaxDP=9.25D-05 DE=-1.73D-06 OVMax= 1.21D-04

 Cycle   7  Pass 1  IDiag  1:
 E= -703.503284588324     Delta-E=       -0.000000096369 Rises=F Damp=F
 DIIS: error= 6.87D-06 at cycle   7 NSaved=   7.
 NSaved= 7 IEnMin= 7 EnMin= -703.503284588324     IErMin= 7 ErrMin= 6.87D-06
 ErrMax= 6.87D-06  0.00D+00 EMaxC= 1.00D-01 BMatC= 1.46D-08 BMatP= 1.10D-07
 IDIUse=1 WtCom= 1.00D+00 WtEn= 0.00D+00
 Coeff-Com:  0.173D-03-0.352D-02-0.412D-02 0.609D-02 0.359D-01 0.286D+00
 Coeff-Com:  0.679D+00
 Coeff:      0.173D-03-0.352D-02-0.412D-02 0.609D-02 0.359D-01 0.286D+00
 Coeff:      0.679D+00
 Gap=     0.214 Goal=   None    Shift=    0.000
 RMSDP=1.00D-06 MaxDP=2.50D-05 DE=-9.64D-08 OVMax= 3.77D-05

 Cycle   8  Pass 1  IDiag  1:
 E= -703.503284602969     Delta-E=       -0.000000014645 Rises=F Damp=F
 DIIS: error= 1.80D-06 at cycle   8 NSaved=   8.
 NSaved= 8 IEnMin= 8 EnMin= -703.503284602969     IErMin= 8 ErrMin= 1.80D-06
 ErrMax= 1.80D-06  0.00D+00 EMaxC= 1.00D-01 BMatC= 7.69D-10 BMatP= 1.46D-08
 IDIUse=1 WtCom= 1.00D+00 WtEn= 0.00D+00
 Coeff-Com:  0.117D-03-0.180D-02-0.226D-02 0.862D-03 0.691D-02 0.113D+00
 Coeff-Com:  0.321D+00 0.562D+00
 Coeff:      0.117D-03-0.180D-02-0.226D-02 0.862D-03 0.691D-02 0.113D+00
 Coeff:      0.321D+00 0.562D+00
 Gap=     0.214 Goal=   None    Shift=    0.000
 RMSDP=2.64D-07 MaxDP=6.39D-06 DE=-1.46D-08 OVMax= 1.54D-05

 Cycle   9  Pass 1  IDiag  1:
 E= -703.503284603604     Delta-E=       -0.000000000635 Rises=F Damp=F
 DIIS: error= 6.26D-07 at cycle   9 NSaved=   9.
[...]
 Gap=     0.335 Goal=   None    Shift=    0.000
 RMSDP=5.56D-07 MaxDP=2.47D-05 DE=-4.40D-08 OVMax= 3.70D-05

 Cycle  11  Pass 1  IDiag  1:
 RMSU=  3.42D-07    CP:  6.58D-01  9.67D-01  9.03D-01  1.17D+00  1.53D+00
                    CP:  1.84D+00  1.59D+00  1.46D+00  1.23D+00  1.29D+00
 E= -700.812338080970     Delta-E=       -0.000000003719 Rises=F Damp=F
 DIIS: error= 4.62D-07 at cycle  11 NSaved=  11.
 NSaved=11 IEnMin=11 EnMin= -700.812338080970     IErMin=11 ErrMin= 4.62D-07
 ErrMax= 4.62D-07  0.00D+00 EMaxC= 1.00D-01 BMatC= 1.42D-10 BMatP= 1.31D-09
 IDIUse=1 WtCom= 1.00D+00 WtEn= 0.00D+00
 Coeff-Com: -0.289D-05 0.303D-04 0.116D-03 0.835D-04-0.149D-02-0.122D-02
 Coeff-Com:  0.934D-02 0.331D-02-0.107D+00 0.267D-01 0.107D+01
 Coeff:     -0.289D-05 0.303D-04 0.116D-03 0.835D-04-0.149D-02-0.122D-02
 Coeff:      0.934D-02 0.331D-02-0.107D+00 0.267D-01 0.107D+01
 Gap=     0.335 Goal=   None    Shift=    0.000
 RMSDP=1.86D-07 MaxDP=7.59D-06 DE=-3.72D-09 OVMax= 1.08D-05

 Cycle  12  Pass 1  IDiag  1:
 RMSU=  1.01D-07    CP:  6.58D-01  9.67D-01  9.03D-01  1.17D+00  1.53D+00
                    CP:  1.85D+00  1.59D+00  1.46D+00  1.23D+00  1.40D+00
                    CP:  1.26D+00
 E= -700.812338081319     Delta-E=       -0.000000000349 Rises=F Damp=F
 DIIS: error= 2.06D-07 at cycle  12 NSaved=  12.
 NSaved=12 IEnMin=12 EnMin= -700.812338081319     IErMin=12 ErrMin= 2.06D-07
 ErrMax= 2.06D-07  0.00D+00 EMaxC= 1.00D-01 BMatC= 2.15D-11 BMatP= 1.42D-10
 IDIUse=1 WtCom= 1.00D+00 WtEn= 0.00D+00
 Coeff-Com: -0.380D-05 0.204D-04 0.894D-04 0.162D-03-0.479D-03-0.213D-02
 Coeff-Com:  0.262D-02 0.125D-01-0.283D-01-0.105D+00 0.236D+00 0.884D+00
 Coeff:     -0.380D-05 0.204D-04 0.894D-04 0.162D-03-0.479D-03-0.213D-02
 Coeff:      0.262D-02 0.125D-01-0.283D-01-0.105D+00 0.236D+00 0.884D+00
 Gap=     0.335 Goal=   None    Shift=    0.000
 RMSDP=5.72D-08 MaxDP=3.09D-06 DE=-3.49D-10 OVMax= 3.69D-06

 Cycle  13  Pass 1  IDiag  1:
 RMSU=  3.70D-08    CP:  6.58D-01  9.67D-01  9.03D-01  1.17D+00  1.53D+00
                    CP:  1.85D+00  1.59D+00  1.46D+00  1.23D+00  1.42D+00
                    CP:  1.34D+00  1.13D+00
 E= -700.812338081364     Delta-E=       -0.000000000045 Rises=F Damp=F
 DIIS: error= 8.56D-08 at cycle  13 NSaved=  13.
 NSaved=13 IEnMin=13 EnMin= -700.812338081364     IErMin=13 ErrMin= 8.56D-08
 ErrMax= 8.56D-08  0.00D+00 EMaxC= 1.00D-01 BMatC= 3.31D-12 BMatP= 2.15D-11
 IDIUse=1 WtCom= 1.00D+00 WtEn= 0.00D+00
 Coeff-Com: -0.248D-06-0.723D-06-0.241D-05 0.284D-04 0.115D-03-0.151D-03
 Coeff-Com: -0.927D-03 0.164D-02 0.108D-01-0.174D-01-0.131D+00 0.167D+00
 Coeff-Com:  0.970D+00
 Coeff:     -0.248D-06-0.723D-06-0.241D-05 0.284D-04 0.115D-03-0.151D-03
 Coeff:     -0.927D-03 0.164D-02 0.108D-01-0.174D-01-0.131D+00 0.167D+00
 Coeff:      0.970D+00
 Gap=     0.335 Goal=   None    Shift=    0.000
 RMSDP=2.30D-08 MaxDP=9.43D-07 DE=-4.52D-11 OVMax= 1.36D-06

 Cycle  14  Pass 1  IDiag  1:
 RMSU=  1.22D-08    CP:  6.58D-01  9.67D-01  9.03D-01  1.17D+00  1.53D+00
                    CP:  1.85D+00  1.59D+00  1.46D+00  1.23D+00  1.43D+00
                    CP:  1.36D+00  1.30D+00  1.12D+00
 E= -700.812338081367     Delta-E=       -0.000000000003 Rises=F Damp=F
 DIIS: error= 3.09D-08 at cycle  14 NSaved=  14.
 NSaved=14 IEnMin=14 EnMin= -700.812338081367     IErMin=14 ErrMin= 3.09D-08
 ErrMax= 3.09D-08  0.00D+00 EMaxC= 1.00D-01 BMatC= 3.09D-13 BMatP= 3.31D-12
 IDIUse=1 WtCom= 1.00D+00 WtEn= 0.00D+00
 Coeff-Com:  0.419D-06-0.242D-05-0.111D-04-0.146D-04 0.569D-04 0.253D-03
 Coeff-Com: -0.399D-03-0.137D-02 0.385D-02 0.123D-01-0.454D-01-0.696D-01
 Coeff-Com:  0.569D-01 0.104D+01
 Coeff:      0.419D-06-0.242D-05-0.111D-04-0.146D-04 0.569D-04 0.253D-03
 Coeff:     -0.399D-03-0.137D-02 0.385D-02 0.123D-01-0.454D-01-0.696D-01
 Coeff:      0.569D-01 0.104D+01
 Gap=     0.335 Goal=   None    Shift=    0.000
 RMSDP=8.40D-09 MaxDP=3.18D-07 DE=-3.18D-12 OVMax= 6.48D-07

 SCF Done:  E(RHF) =  -700.812338081     A.U. after   14 cycles
            NFock= 14  Conv=0.84D-08     -V/T= 2.0007
 KE= 7.002954936996D+02 PE=-2.515329442554D+03 EE= 6.778587932491D+02
 Leave Link  502 at Sun Jul 11 16:27:41 2021, MaxMem=   262144000 cpu:             218.5 elap:              54.7
 (Enter /prod/apps/gaussian/g16b1/l801.exe)
 ExpMin= 2.97D-02 ExpMax= 1.11D+05 ExpMxC= 1.07D+03 IAcc=3 IRadAn=         5 AccDes= 0.00D+00
 HarFok:  IExCor=  205 AccDes= 0.00D+00 IRadAn=         5 IDoV=-2 UseB2=F ITyADJ=14
 ICtDFT= 12500011 ScaDFX=  1.000000  1.000000  1.000000  1.000000
 Largest valence mixing into a core orbital is  3.19D-04
 Largest core mixing into a valence orbital is  8.80D-05
 Range of M.O.s used for correlation:    13   269
 NBasis=   269 NAE=    34 NBE=    34 NFC=    12 NFV=     0
 NROrb=    257 NOA=    22 NOB=    22 NVA=   235 NVB=   235

 **** Warning!!: The largest alpha MO coefficient is  0.66965795D+02

 Leave Link  801 at Sun Jul 11 16:27:41 2021, MaxMem=   262144000 cpu:               0.9 elap:               0.3
 (Enter /prod/apps/gaussian/g16b1/l906.exe)
 FulOut=F Deriv=F AODrv=F NAtomX=    17
   MMem=          42  MDisk=          22 MDiskD=          22
  W3Min=     1473450 MinDsk=     1955505 NBas6D=         285
 NBas2D=       41124    NTT=       40755    LW2=     2000000
    MDV=   261540163 MDiskM=       12648 NBas2p=       39987
 Fully direct method using O(OVN) memory.
 IMap=   1   2   3   4   5   6   7   8   9  10  11  12  13  14  15  16  17  18  19  20
 IMap=  21  22
 JobTyp=1 Pass  1:  I=   1 to  22 NPSUse=  4 ParTrn=T ParDer=T DoDerP=F.
 Spin components of T(2) and E(2):
     alpha-alpha T2 =       0.5952306274D-01 E2=     -0.1544628861D+00
     alpha-beta  T2 =       0.3176226065D+00 E2=     -0.8814813766D+00
     beta-beta   T2 =       0.5952306274D-01 E2=     -0.1544628861D+00
 The integrals were generated   1 times.
 ANorm=    0.1198611168D+01
 E2 =    -0.1190407149D+01 EUMP2 =    -0.70200274523020D+03
 Leave Link  906 at Sun Jul 11 16:28:05 2021, MaxMem=   262144000 cpu:              94.3 elap:              23.6
 (Enter /prod/apps/gaussian/g16b1/l601.exe)
 Copying SCF densities to generalized density rwf, IOpCl= 0 IROHF=0.

 **********************************************************************

            Population analysis using the SCF Density.

 **********************************************************************

 Orbital symmetries:
       Occupied  (A) (A) (A) (A) (A) (A) (A) (A) (A) (A) (A) (A)
                 (A) (A) (A) (A) (A) (A) (A) (A) (A) (A) (A) (A)
                 (A) (A) (A) (A) (A) (A) (A) (A) (A) (A)
       Virtual   (A) (A) (A) (A) (A) (A) (A) (A) (A) (A) (A) (A)
                 (A) (A) (A) (A) (A) (A) (A) (A) (A) (A) (A) (A)
                 (A) (A) (A) (A) (A) (A) (A) (A) (A) (A) (A) (A)
                 (A) (A) (A) (A) (A) (A) (A) (A) (A) (A) (A) (A)
                 (A) (A) (A) (A) (A) (A) (A) (A) (A) (A) (A) (A)
                 (A) (A) (A) (A) (A) (A) (A) (A) (A) (A) (A) (A)
                 (A) (A) (A) (A) (A) (A) (A) (A) (A) (A) (A) (A)
                 (A) (A) (A) (A) (A) (A) (A) (A) (A) (A) (A) (A)
                 (A) (A) (A) (A) (A) (A) (A) (A) (A) (A) (A) (A)
                 (A) (A) (A) (A) (A) (A) (A) (A) (A) (A) (A) (A)
                 (A) (A) (A) (A) (A) (A) (A) (A) (A) (A) (A) (A)
                 (A) (A) (A) (A) (A) (A) (A) (A) (A) (A) (A) (A)
                 (A) (A) (A) (A) (A) (A) (A) (A) (A) (A) (A) (A)
                 (A) (A) (A) (A) (A) (A) (A) (A) (A) (A) (A) (A)
                 (A) (A) (A) (A) (A) (A) (A) (A) (A) (A) (A) (A)
                 (A) (A) (A) (A) (A) (A) (A) (A) (A) (A) (A) (A)
                 (A) (A) (A) (A) (A) (A) (A) (A) (A) (A) (A) (A)
                 (A) (A) (A) (A) (A) (A) (A) (A) (A) (A) (A) (A)
                 (A) (A) (A) (A) (A) (A) (A) (A) (A) (A) (A) (A)
                 (A) (A) (A) (A) (A) (A) (A)
 The electronic state is 1-A.
 Alpha  occ. eigenvalues --  -92.11429 -15.90777 -15.70278 -11.48706 -11.44675
 Alpha  occ. eigenvalues --  -11.42570 -11.38611 -11.38464  -9.11630  -6.79777
 Alpha  occ. eigenvalues --   -6.79692  -6.79516  -1.51630  -1.40430  -1.24265
 Alpha  occ. eigenvalues --   -1.18107  -1.12659  -1.05419  -0.97448  -0.96441
 Alpha  occ. eigenvalues --   -0.91454  -0.86972  -0.84708  -0.80580  -0.79622
 Alpha  occ. eigenvalues --   -0.73607  -0.71989  -0.69510  -0.66582  -0.66059
 Alpha  occ. eigenvalues --   -0.61637  -0.54955  -0.50432  -0.45186
 Alpha virt. eigenvalues --   -0.11733  -0.07958  -0.07873  -0.06298  -0.03941
 Alpha virt. eigenvalues --   -0.03615  -0.03523  -0.02924  -0.02242  -0.02115
 Alpha virt. eigenvalues --   -0.01498  -0.01069   0.00770   0.01338   0.01448
 Alpha virt. eigenvalues --    0.02543   0.03175   0.03556   0.03791   0.04057
 Alpha virt. eigenvalues --    0.04843   0.04976   0.06040   0.06432   0.07031
 Alpha virt. eigenvalues --    0.07304   0.07427   0.08065   0.08493   0.09065
 Alpha virt. eigenvalues --    0.10159   0.10768   0.11185   0.11821   0.12397
 Alpha virt. eigenvalues --    0.12549   0.13043   0.13582   0.14579   0.15047
 Alpha virt. eigenvalues --    0.15955   0.16576   0.17791   0.18670   0.19419
 Alpha virt. eigenvalues --    0.20565   0.20683   0.22412   0.22880   0.24078
 Alpha virt. eigenvalues --    0.24584   0.25674   0.26148   0.28207   0.28424
 Alpha virt. eigenvalues --    0.28763   0.29703   0.30475   0.30948   0.31735
 Alpha virt. eigenvalues --    0.32168   0.33278   0.33452   0.33993   0.35124
 Alpha virt. eigenvalues --    0.35599   0.36062   0.37631   0.37926   0.38621
 Alpha virt. eigenvalues --    0.39453   0.39975   0.41219   0.41261   0.42496
 Alpha virt. eigenvalues --    0.44187   0.44504   0.45275   0.45612   0.46358
 Alpha virt. eigenvalues --    0.47218   0.47796   0.48449   0.49134   0.50620
 Alpha virt. eigenvalues --    0.51052   0.52794   0.53793   0.54798   0.56107
 Alpha virt. eigenvalues --    0.56978   0.57514   0.58237   0.58752   0.59255
 Alpha virt. eigenvalues --    0.59523   0.60429   0.61399   0.62958   0.63322
 Alpha virt. eigenvalues --    0.64574   0.65382   0.65887   0.67299   0.69005
 Alpha virt. eigenvalues --    0.69782   0.70344   0.71429   0.72033   0.73345
 Alpha virt. eigenvalues --    0.74101   0.75488   0.76059   0.77321   0.78064
 Alpha virt. eigenvalues --    0.79517   0.81089   0.82385   0.82647   0.84149
 Alpha virt. eigenvalues --    0.87480   0.88254   0.89316   0.90614   0.91103
 Alpha virt. eigenvalues --    0.92387   0.93735   0.97454   0.98529   0.99621
 Alpha virt. eigenvalues --    1.01561   1.02910   1.05121   1.06251   1.07833
 Alpha virt. eigenvalues --    1.10758   1.11682   1.12062   1.12793   1.13195
 Alpha virt. eigenvalues --    1.16974   1.18818   1.19596   1.20544   1.23557
 Alpha virt. eigenvalues --    1.25657   1.28405   1.30492   1.31616   1.36135
 Alpha virt. eigenvalues --    1.39066   1.42507   1.43793   1.44740   1.47174
 Alpha virt. eigenvalues --    1.50185   1.52260   1.52507   1.54813   1.56582
 Alpha virt. eigenvalues --    1.57921   1.61881   1.62955   1.63723   1.66276
 Alpha virt. eigenvalues --    1.66926   1.67901   1.69288   1.71524   1.73018
 Alpha virt. eigenvalues --    1.73220   1.77781   1.78181   1.80691   1.83591
 Alpha virt. eigenvalues --    1.85425   1.88810   1.89416   1.90453   1.91128
 Alpha virt. eigenvalues --    1.94570   1.97717   1.99371   2.00172   2.01209
 Alpha virt. eigenvalues --    2.03909   2.04271   2.04589   2.07420   2.08615
 Alpha virt. eigenvalues --    2.09519   2.11198   2.16095   2.17709   2.17723
 Alpha virt. eigenvalues --    2.20556   2.22788   2.28296   2.29773   2.30554
 Alpha virt. eigenvalues --    2.31411   2.32904   2.36917   2.37499   2.40494
 Alpha virt. eigenvalues --    2.44419   2.46536   2.48799   2.51526   2.52129
 Alpha virt. eigenvalues --    2.54387   2.56712   2.60025   2.61134   2.66409
 Alpha virt. eigenvalues --    2.68510   2.69253   2.74193   2.78445   2.79470
 Alpha virt. eigenvalues --    2.83219   2.83854   2.83941   2.88047   2.89036
 Alpha virt. eigenvalues --    2.97566   3.02306   3.06226   3.14523   3.25159
 Alpha virt. eigenvalues --    3.28259   3.34414   3.35567   3.47532   3.66532
          Condensed to atoms (all electrons):
               1          2          3          4          5          6
     1  N    6.639969   0.412655   0.443091  -0.147333  -0.135958  -0.127005
     2  H    0.412655   0.507262  -0.060141  -0.034676   0.020726  -0.029788
     3  H    0.443091  -0.060141   0.582682  -0.056651  -0.030840  -0.027270
     4  C   -0.147333  -0.034676  -0.056651   4.630535   0.265715   0.294931
     5  H   -0.135958   0.020726  -0.030840   0.265715   1.250873  -0.129595
     6  H   -0.127005  -0.029788  -0.027270   0.294931  -0.129595   1.164562
     7  C   -0.087449  -0.025594   0.033051   0.619112  -0.058103  -0.096112
     8  H   -0.010873   0.010106  -0.001472  -0.098709   0.066402  -0.042138
     9  H   -0.018924  -0.009889   0.000839  -0.076470  -0.069822   0.076790
    10  C    0.155888   0.005250  -0.007137  -0.340503  -0.041810  -0.032505
    11  N    0.005442   0.001513   0.000041   0.038464  -0.003204   0.015502
    12  C    0.008919  -0.000901  -0.000343  -0.057450  -0.007525  -0.001952
    13  H    0.000217  -0.000002  -0.000110  -0.003440   0.000301  -0.000638
    14  C    0.005424   0.000574   0.000340   0.013367   0.006355  -0.002958
    15  H    0.000042   0.000006   0.000006  -0.000626   0.000099   0.000301
    16  S    0.002556   0.001307  -0.000465   0.034733   0.015162   0.011788
    17  H    0.399412  -0.047023  -0.062376  -0.029184  -0.023988   0.018840
               7          8          9         10         11         12
     1  N   -0.087449  -0.010873  -0.018924   0.155888   0.005442   0.008919
     2  H   -0.025594   0.010106  -0.009889   0.005250   0.001513  -0.000901
     3  H    0.033051  -0.001472   0.000839  -0.007137   0.000041  -0.000343
     4  C    0.619112  -0.098709  -0.076470  -0.340503   0.038464  -0.057450
     5  H   -0.058103   0.066402  -0.069822  -0.041810  -0.003204  -0.007525
     6  H   -0.096112  -0.042138   0.076790  -0.032505   0.015502  -0.001952
     7  C    5.612075   0.256222   0.087766  -0.395043   0.017386  -0.095585
     8  H    0.256222   0.985376  -0.084231  -0.043357  -0.002749  -0.002651
     9  H    0.087766  -0.084231   1.209034  -0.025777  -0.000945  -0.014300
    10  C   -0.395043  -0.043357  -0.025777   6.440620   0.256032  -0.161074
    11  N    0.017386  -0.002749  -0.000945   0.256032   7.545417   0.182116
    12  C   -0.095585  -0.002651  -0.014300  -0.161074   0.182116   5.070811
    13  H    0.008684  -0.000422  -0.000802   0.122352  -0.141652   0.305070
    14  C   -0.096122   0.001992   0.004372  -0.151787  -0.046506   0.316988
    15  H    0.022688   0.001134   0.001944   0.050527  -0.007914  -0.037137
    16  S   -0.086463   0.016967   0.004326   0.263821  -0.104384  -0.291538
    17  H   -0.018175  -0.012342   0.006992   0.004379  -0.000510   0.001759
              13         14         15         16         17
     1  N    0.000217   0.005424   0.000042   0.002556   0.399412
     2  H   -0.000002   0.000574   0.000006   0.001307  -0.047023
     3  H   -0.000110   0.000340   0.000006  -0.000465  -0.062376
     4  C   -0.003440   0.013367  -0.000626   0.034733  -0.029184
     5  H    0.000301   0.006355   0.000099   0.015162  -0.023988
     6  H   -0.000638  -0.002958   0.000301   0.011788   0.018840
     7  C    0.008684  -0.096122   0.022688  -0.086463  -0.018175
     8  H   -0.000422   0.001992   0.001134   0.016967  -0.012342
     9  H   -0.000802   0.004372   0.001944   0.004326   0.006992
    10  C    0.122352  -0.151787   0.050527   0.263821   0.004379
    11  N   -0.141652  -0.046506  -0.007914  -0.104384  -0.000510
    12  C    0.305070   0.316988  -0.037137  -0.291538   0.001759
    13  H    1.179669  -0.194155  -0.033033  -0.010949   0.000104
    14  C   -0.194155   5.343786   0.280906   0.284344  -0.000492
    15  H   -0.033033   0.280906   1.183845  -0.118988  -0.000089
    16  S   -0.010949   0.284344  -0.118988  15.602067  -0.001306
    17  H    0.000104  -0.000492  -0.000089  -0.001306   0.521998
 Mulliken charges:
               1
     1  N   -0.546073
     2  H    0.248615
     3  H    0.186755
     4  C    0.948185
     5  H   -0.124790
     6  H   -0.092753
     7  C    0.301660
     8  H   -0.039256
     9  H   -0.090903
    10  C   -0.099877
    11  N   -0.754049
    12  C    0.784794
    13  H   -0.231194
    14  C    0.233572
    15  H   -0.343712
    16  S    0.377025
    17  H    0.242000
 Sum of Mulliken charges =   1.00000
 Mulliken charges with hydrogens summed into heavy atoms:
               1
     1  N    0.131298
     4  C    0.730641
     7  C    0.171501
    10  C   -0.099877
    11  N   -0.754049
    12  C    0.553600
    14  C   -0.110140
    16  S    0.377025
 Electronic spatial extent (au):  <R**2>=           1382.2357
 Charge=              1.0000 electrons
 Dipole moment (field-independent basis, Debye):
    X=             13.0645    Y=             -1.0151    Z=             -1.0390  Tot=             13.1450
 Quadrupole moment (field-independent basis, Debye-Ang):
   XX=             12.8501   YY=            -52.5780   ZZ=            -52.6053
   XY=             -0.7376   XZ=             -0.0582   YZ=             -0.7479
 Traceless Quadrupole moment (field-independent basis, Debye-Ang):
   XX=             43.6278   YY=            -21.8002   ZZ=            -21.8276
   XY=             -0.7376   XZ=             -0.0582   YZ=             -0.7479
 Octapole moment (field-independent basis, Debye-Ang**2):
  XXX=            196.8684  YYY=             -3.1323  ZZZ=             -1.6011  XYY=             10.8546
  XXY=              2.9562  XXZ=            -19.1867  XZZ=             22.9109  YZZ=             -0.2705
  YYZ=             -1.8082  XYZ=              0.0348
 Hexadecapole moment (field-independent basis, Debye-Ang**3):
 XXXX=           -397.9635 YYYY=           -307.2809 ZZZZ=           -122.7002 XXXY=              4.0421
 XXXZ=            -19.3158 YYYX=            -13.5552 YYYZ=             -5.6456 ZZZX=            -12.9239
 ZZZY=              1.4004 XXYY=           -214.8397 XXZZ=           -214.7948 YYZZ=            -71.8212
 XXYZ=              2.0646 YYXZ=              7.6581 ZZXY=              3.2115
 N-N= 4.363628175238D+02 E-N=-2.515329440967D+03  KE= 7.002954936996D+02
 Leave Link  601 at Sun Jul 11 16:28:05 2021, MaxMem=   262144000 cpu:               0.2 elap:               0.1
 (Enter /prod/apps/gaussian/g16b1/l9999.exe)
 1\1\GINC-PIRINEUS45\SP\RMP2-FC\Aug-CC-pVDZ\C5H9N2S1(1+)\UBATOR02\11-Ju
 l-2021\0\\#p mp2/aug-cc-pVDZ scf=tight maxdisk=180GB geom=allcheck\\SE
 T_328_BBB87_conf1.geo_180_270 geometry\\1,1\N,0,1.0039169986,2.8330825
 195,-0.4738258775\H,0,0.131399228,3.3696552941,-0.3353119132\H,0,1.460
 2270674,3.2005084297,-1.3253115572\C,0,0.7330599525,1.3637985721,-0.60
 08935679\H,0,1.6865275035,0.8845838043,-0.8165765263\H,0,0.0678915437,
 1.2368949474,-1.4532191685\C,0,0.1016920736,0.8199504126,0.6822330658\
 H,0,-0.8142334653,1.3747584453,0.9049874027\H,0,0.7885149468,0.9542997
 76,1.5223769746\C,0,-0.260445397,-0.6294668176,0.5313980299\N,0,-1.364
 8724903,-1.0488166723,-0.025204101\C,0,-1.4146714339,-2.4253608067,-0.
 0588305102\H,0,-2.2813106681,-2.9128788602,-0.4877179907\C,0,-0.339947
 6096,-3.0761060068,0.4731104321\H,0,-0.1667166688,-4.1388386979,0.5613
 997282\S,0,0.8080898676,-1.917519634,1.0562443503\H,0,1.6248785514,3.0
 384552945,0.3221412289\\Version=ES64L-G16RevB.01\State=1-A\HF=-700.812
 3381\MP2=-702.0027452\RMSD=8.395e-09\PG=C01 [X(C5H9N2S1)]\\@


 The theorems and results in mathematical physics are
 not theorems and results about Nature, but about our
 description of it.
                   --Gerard 't Hooft
 Job cpu time:       0 days  0 hours  5 minutes 19.2 seconds.
 Elapsed time:       0 days  0 hours  1 minutes 20.1 seconds.
 File lengths (MBytes):  RWF=     43 Int=      0 D2E=      0 Chk=      8 Scr=      1
 Normal termination of Gaussian 16 at Sun Jul 11 16:28:05 2021.
