 Entering Gaussian System, Link 0=g16
 Initial command:
 /prod/apps/gaussian/g16b1/l1.exe "/tmp/ubator02/1834518/Gau-37073.inp" -scrdir="/tmp/ubator02/1834518/"
 Entering Link 1 = /prod/apps/gaussian/g16b1/l1.exe PID=     37075.
  
 Copyright (c) 1988-2017, Gaussian, Inc.  All Rights Reserved.
  
 This is part of the Gaussian(R) 16 program.  It is based on
 the Gaussian(R) 09 system (copyright 2009, Gaussian, Inc.),
 the Gaussian(R) 03 system (copyright 2003, Gaussian, Inc.),
 the Gaussian(R) 98 system (copyright 1998, Gaussian, Inc.),
 the Gaussian(R) 94 system (copyright 1995, Gaussian, Inc.),
 the Gaussian 92(TM) system (copyright 1992, Gaussian, Inc.),
 the Gaussian 90(TM) system (copyright 1990, Gaussian, Inc.),
 the Gaussian 88(TM) system (copyright 1988, Gaussian, Inc.),
 the Gaussian 86(TM) system (copyright 1986, Carnegie Mellon
 University), and the Gaussian 82(TM) system (copyright 1983,
 Carnegie Mellon University). Gaussian is a federally registered
 trademark of Gaussian, Inc.
  
 This software contains proprietary and confidential information,
 including trade secrets, belonging to Gaussian, Inc.
  
 This software is provided under written license and may be
 used, copied, transmitted, or stored only in accord with that
 written license.
  
 The following legend is applicable only to US Government
 contracts under FAR:
  
                    RESTRICTED RIGHTS LEGEND
  
 Use, reproduction and disclosure by the US Government is
 subject to restrictions as set forth in subparagraphs (a)
 and (c) of the Commercial Computer Software - Restricted
 Rights clause in FAR 52.227-19.
  
 Gaussian, Inc.
 340 Quinnipiac St., Bldg. 40, Wallingford CT 06492
  
  
 ---------------------------------------------------------------
 Warning -- This program may not be used in any manner that
 competes with the business of Gaussian, Inc. or will provide
 assistance to any competitor of Gaussian, Inc.  The licensee
 of this program is prohibited from giving any competitor of
 Gaussian, Inc. access to this program.  By using this program,
 the user acknowledges that Gaussian, Inc. is engaged in the
 business of creating and licensing software in the field of
 computational chemistry and represents and warrants to the
 licensee that it is not a competitor of Gaussian, Inc. and that
 it will not use this program in any manner prohibited above.
 ---------------------------------------------------------------
  

 Cite this work as:
 Gaussian 16, Revision B.01,
 M. J. Frisch, G. W. Trucks, H. B. Schlegel, G. E. Scuseria, 
 M. A. Robb, J. R. Cheeseman, G. Scalmani, V. Barone, 
 G. A. Petersson, H. Nakatsuji, X. Li, M. Caricato, A. V. Marenich, 
 J. Bloino, B. G. Janesko, R. Gomperts, B. Mennucci, H. P. Hratchian, 
 J. V. Ortiz, A. F. Izmaylov, J. L. Sonnenberg, D. Williams-Young, 
 F. Ding, F. Lipparini, F. Egidi, J. Goings, B. Peng, A. Petrone, 
 T. Henderson, D. Ranasinghe, V. G. Zakrzewski, J. Gao, N. Rega, 
 G. Zheng, W. Liang, M. Hada, M. Ehara, K. Toyota, R. Fukuda, 
 J. Hasegawa, M. Ishida, T. Nakajima, Y. Honda, O. Kitao, H. Nakai, 
 T. Vreven, K. Throssell, J. A. Montgomery, Jr., J. E. Peralta, 
 F. Ogliaro, M. J. Bearpark, J. J. Heyd, E. N. Brothers, K. N. Kudin, 
 V. N. Staroverov, T. A. Keith, R. Kobayashi, J. Normand, 
 K. Raghavachari, A. P. Rendell, J. C. Burant, S. S. Iyengar, 
 J. Tomasi, M. Cossi, J. M. Millam, M. Klene, C. Adamo, R. Cammi, 
 J. W. Ochterski, R. L. Martin, K. Morokuma, O. Farkas, 
 J. B. Foresman, and D. J. Fox, Gaussian, Inc., Wallingford CT, 2016.
 
 ******************************************
 Gaussian 16:  ES64L-G16RevB.01 20-Dec-2017
                11-Jul-2021 
 ******************************************
 %mem=800MB
 %nproc=4
 Will use up to    4 processors via shared memory.
 %chk=SET_328_BBB2_conf1.geo_240_195.chk
 -----------------------------------------------------------
 #p b3lyp/6-31G(d) opt freq scrf=(iefpcm,read,solvent=water)
 -----------------------------------------------------------
 1/18=20,19=15,26=3,38=1,40=2/1,3;
 2/9=110,12=2,17=6,18=5,40=1/2;
 3/5=1,6=6,7=1,11=2,25=1,30=1,70=2203,71=1,72=1,74=-5/1,2,3;
 4//1;
 5/5=2,38=5,53=1/2;
 6/7=2,8=2,9=2,10=2,28=1/1;
 7//1,2,3,16;
 1/18=20,19=15,26=3/3(2);
 2/9=110/2;
 99//99;
 2/9=110/2;
 3/5=1,6=6,7=1,11=2,25=1,30=1,70=2205,71=1,72=1,74=-5/1,2,3;
 4/5=5,16=3,69=1/1;
 5/5=2,38=5,53=1/2;
 7//1,2,3,16;
 1/18=20,19=15,26=3/3(-5);
 2/9=110/2;
 6/7=2,8=2,9=2,10=2,19=2,28=1/1;
 99/9=1/99;
 Leave Link    1 at Sun Jul 11 15:54:11 2021, MaxMem=   104857600 cpu:               0.1 elap:               0.0
 (Enter /prod/apps/gaussian/g16b1/l101.exe)
 ---------------------------------------
 SET_328_BBB2_conf1.geo_240_195 geometry
 ---------------------------------------
 Symbolic Z-matrix:
 Charge =  1 Multiplicity = 1
 C                     2.622     2.267    -3.334 
 H                     3.358     2.014    -4.101 
 H                     2.978     3.186    -2.863 
 H                     1.691     2.521    -3.848 
 N                     2.434     1.052    -2.456 
 H                     2.122     0.309    -3.048 
 C                     1.519     1.09     -1.291 
 C                     1.691    -0.048    -0.305 
 C                     0.597    -0.756     0.261 
 C                     0.798    -1.712     1.254 
 C                     2.099    -2.186     1.428 
 C                     3.173    -1.591     0.787 
 C                     3.009    -0.563    -0.105 
 H                     3.788    -0.033    -0.647 
 H                     4.211    -1.874     0.945 
 H                     2.278    -2.935     2.196 
 H                    -0.046    -2.116     1.807 
 H                     1.846     1.924    -0.664 
 C                     0.069     1.387    -1.76 
 H                    -0.096     0.92     -2.733 
 H                    -0.14      2.441    -1.953 
 C                    -0.859     1.115    -0.598 
 H                    -1.805     1.595    -0.856 
 H                    -0.491     1.786     0.181 
 C                    -0.857    -0.338    -0.18 
 H                    -1.039    -0.982    -1.043 
 C                    -2.006    -0.564     0.822 
 C                    -1.893     0.081     2.088 
 H                    -0.992     0.667     2.253 
 C                    -2.84     -0.073     3.057 
 Cl                   -2.572     0.515     4.669 
 C                    -3.935    -0.96      2.824 
 Cl                   -5.244    -1.159     3.961 
 C                    -4.125    -1.506     1.566 
 H                    -4.93     -2.205     1.352 
 C                    -3.096    -1.346     0.605 
 H                    -3.281    -1.879    -0.324 
 H                     3.337     0.799    -2.11 
 
 ITRead=  0  0  0  0  0  0  0  0  0  0  0  0  0  0  0  0  0  0  0  0
 ITRead=  0  0  0  0  0  0  0  0  0  0  0  0  0  0  0  0  0  0
 MicOpt= -1 -1 -1 -1 -1 -1 -1 -1 -1 -1 -1 -1 -1 -1 -1 -1 -1 -1 -1 -1
 MicOpt= -1 -1 -1 -1 -1 -1 -1 -1 -1 -1 -1 -1 -1 -1 -1 -1 -1 -1
 NAtoms=     38 NQM=       38 NQMF=       0 NMMI=      0 NMMIF=      0
                NMic=       0 NMicF=      0.
                    Isotopes and Nuclear Properties:
 (Nuclear quadrupole moments (NQMom) in fm**2, nuclear magnetic moments (NMagM)
  in nuclear magnetons)

  Atom         1           2           3           4           5           6           7           8           9          10
 IAtWgt=          12           1           1           1          14           1          12          12          12          12
 AtmWgt=  12.0000000   1.0078250   1.0078250   1.0078250  14.0030740   1.0078250  12.0000000  12.0000000  12.0000000  12.0000000
 NucSpn=           0           1           1           1           2           1           0           0           0           0
 AtZEff=  -0.0000000  -0.0000000  -0.0000000  -0.0000000  -0.0000000  -0.0000000  -0.0000000  -0.0000000  -0.0000000  -0.0000000
 NQMom=    0.0000000   0.0000000   0.0000000   0.0000000   2.0440000   0.0000000   0.0000000   0.0000000   0.0000000   0.0000000
 NMagM=    0.0000000   2.7928460   2.7928460   2.7928460   0.4037610   2.7928460   0.0000000   0.0000000   0.0000000   0.0000000
 AtZNuc=   6.0000000   1.0000000   1.0000000   1.0000000   7.0000000   1.0000000   6.0000000   6.0000000   6.0000000   6.0000000

  Atom        11          12          13          14          15          16          17          18          19          20
 IAtWgt=          12          12          12           1           1           1           1           1          12           1
 AtmWgt=  12.0000000  12.0000000  12.0000000   1.0078250   1.0078250   1.0078250   1.0078250   1.0078250  12.0000000   1.0078250
 NucSpn=           0           0           0           1           1           1           1           1           0           1
 AtZEff=  -0.0000000  -0.0000000  -0.0000000  -0.0000000  -0.0000000  -0.0000000  -0.0000000  -0.0000000  -0.0000000  -0.0000000
 NQMom=    0.0000000   0.0000000   0.0000000   0.0000000   0.0000000   0.0000000   0.0000000   0.0000000   0.0000000   0.0000000
 NMagM=    0.0000000   0.0000000   0.0000000   2.7928460   2.7928460   2.7928460   2.7928460   2.7928460   0.0000000   2.7928460
 AtZNuc=   6.0000000   6.0000000   6.0000000   1.0000000   1.0000000   1.0000000   1.0000000   1.0000000   6.0000000   1.0000000

  Atom        21          22          23          24          25          26          27          28          29          30
 IAtWgt=           1          12           1           1          12           1          12          12           1          12
 AtmWgt=   1.0078250  12.0000000   1.0078250   1.0078250  12.0000000   1.0078250  12.0000000  12.0000000   1.0078250  12.0000000
 NucSpn=           1           0           1           1           0           1           0           0           1           0
 AtZEff=  -0.0000000  -0.0000000  -0.0000000  -0.0000000  -0.0000000  -0.0000000  -0.0000000  -0.0000000  -0.0000000  -0.0000000
 NQMom=    0.0000000   0.0000000   0.0000000   0.0000000   0.0000000   0.0000000   0.0000000   0.0000000   0.0000000   0.0000000
 NMagM=    2.7928460   0.0000000   2.7928460   2.7928460   0.0000000   2.7928460   0.0000000   0.0000000   2.7928460   0.0000000
 AtZNuc=   1.0000000   6.0000000   1.0000000   1.0000000   6.0000000   1.0000000   6.0000000   6.0000000   1.0000000   6.0000000

  Atom        31          32          33          34          35          36          37          38
 IAtWgt=          35          12          35          12           1          12           1           1
 AtmWgt=  34.9688527  12.0000000  34.9688527  12.0000000   1.0078250  12.0000000   1.0078250   1.0078250
 NucSpn=           3           0           3           0           1           0           1           1
 AtZEff=  -0.0000000  -0.0000000  -0.0000000  -0.0000000  -0.0000000  -0.0000000  -0.0000000  -0.0000000
 NQMom=   -8.1650000   0.0000000  -8.1650000   0.0000000   0.0000000   0.0000000   0.0000000   0.0000000
 NMagM=    0.8218740   0.0000000   0.8218740   0.0000000   2.7928460   0.0000000   2.7928460   2.7928460
 AtZNuc=  17.0000000   6.0000000  17.0000000   6.0000000   1.0000000   6.0000000   1.0000000   1.0000000
 Leave Link  101 at Sun Jul 11 15:54:11 2021, MaxMem=   104857600 cpu:               0.5 elap:               0.1
 (Enter /prod/apps/gaussian/g16b1/l103.exe)

 GradGradGradGradGradGradGradGradGradGradGradGradGradGradGradGradGradGrad
 Berny optimization.
 Initialization pass.
                           ----------------------------
                           !    Initial Parameters    !
                           ! (Angstroms and Degrees)  !
 --------------------------                            --------------------------
 ! Name  Definition              Value          Derivative Info.                !
 --------------------------------------------------------------------------------
 ! R1    R(1,2)                  1.0927         estimate D2E/DX2                !
 ! R2    R(1,3)                  1.0923         estimate D2E/DX2                !
 ! R3    R(1,4)                  1.0934         estimate D2E/DX2                !
 ! R4    R(1,5)                  1.5108         estimate D2E/DX2                !
 ! R5    R(5,6)                  0.9999         estimate D2E/DX2                !
 ! R6    R(5,7)                  1.4819         estimate D2E/DX2                !
 ! R7    R(5,38)                 0.9996         estimate D2E/DX2                !
 ! R8    R(7,8)                  1.5155         estimate D2E/DX2                !
 ! R9    R(7,18)                 1.0934         estimate D2E/DX2                !
 ! R10   R(7,19)                 1.5526         estimate D2E/DX2                !
 ! R11   R(8,9)                  1.4207         estimate D2E/DX2                !
 ! R12   R(8,13)                 1.4291         estimate D2E/DX2                !
 ! R13   R(9,10)                 1.393          estimate D2E/DX2                !
 ! R14   R(9,25)                 1.5759         estimate D2E/DX2                !
 ! R15   R(10,11)                1.3955         estimate D2E/DX2                !
 ! R16   R(10,17)                1.0869         estimate D2E/DX2                !
 ! R17   R(11,12)                1.3851         estimate D2E/DX2                !
 ! R18   R(11,16)                1.0876         estimate D2E/DX2                !
 ! R19   R(12,13)                1.3709         estimate D2E/DX2                !
 ! R20   R(12,15)                1.0874         estimate D2E/DX2                !
 ! R21   R(13,14)                1.087          estimate D2E/DX2                !
 ! R22   R(19,20)                1.0918         estimate D2E/DX2                !
 ! R23   R(19,21)                1.0917         estimate D2E/DX2                !
 ! R24   R(19,22)                1.5118         estimate D2E/DX2                !
 ! R25   R(22,23)                1.0917         estimate D2E/DX2                !
 ! R26   R(22,24)                1.092          estimate D2E/DX2                !
 ! R27   R(22,25)                1.5119         estimate D2E/DX2                !
 ! R28   R(25,26)                1.0921         estimate D2E/DX2                !
 ! R29   R(25,27)                1.5412         estimate D2E/DX2                !
 ! R30   R(27,28)                1.4253         estimate D2E/DX2                !
 ! R31   R(27,36)                1.3589         estimate D2E/DX2                !
 ! R32   R(28,29)                1.0874         estimate D2E/DX2                !
 ! R33   R(28,30)                1.3636         estimate D2E/DX2                !
 ! R34   R(30,31)                1.7367         estimate D2E/DX2                !
 ! R35   R(30,32)                1.4283         estimate D2E/DX2                !
 ! R36   R(32,33)                1.7452         estimate D2E/DX2                !
 ! R37   R(32,34)                1.3845         estimate D2E/DX2                !
 ! R38   R(34,35)                1.0874         estimate D2E/DX2                !
 ! R39   R(34,36)                1.417          estimate D2E/DX2                !
 ! R40   R(36,37)                1.0869         estimate D2E/DX2                !
 ! A1    A(2,1,3)              106.1377         estimate D2E/DX2                !
 ! A2    A(2,1,4)              107.2978         estimate D2E/DX2                !
 ! A3    A(2,1,5)              107.7908         estimate D2E/DX2                !
 ! A4    A(3,1,4)              106.5452         estimate D2E/DX2                !
 ! A5    A(3,1,5)              117.8128         estimate D2E/DX2                !
 ! A6    A(4,1,5)              110.7366         estimate D2E/DX2                !
 ! A7    A(1,5,6)              106.9979         estimate D2E/DX2                !
 ! A8    A(1,5,7)              120.871          estimate D2E/DX2                !
 ! A9    A(1,5,38)             106.9961         estimate D2E/DX2                !
 ! A10   A(6,5,7)              106.9682         estimate D2E/DX2                !
 ! A11   A(6,5,38)             107.3819         estimate D2E/DX2                !
 ! A12   A(7,5,38)             106.988          estimate D2E/DX2                !
 ! A13   A(5,7,8)              114.9705         estimate D2E/DX2                !
 ! A14   A(5,7,18)             106.6013         estimate D2E/DX2                !
 ! A15   A(5,7,19)             110.1256         estimate D2E/DX2                !
 ! A16   A(8,7,18)              99.5392         estimate D2E/DX2                !
 ! A17   A(8,7,19)             116.497          estimate D2E/DX2                !
 ! A18   A(18,7,19)            107.8543         estimate D2E/DX2                !
 ! A19   A(7,8,9)              123.0928         estimate D2E/DX2                !
 ! A20   A(7,8,13)             117.7953         estimate D2E/DX2                !
 ! A21   A(9,8,13)             118.348          estimate D2E/DX2                !
 ! A22   A(8,9,10)             120.9903         estimate D2E/DX2                !
 ! A23   A(8,9,25)             117.8276         estimate D2E/DX2                !
 ! A24   A(10,9,25)            120.9756         estimate D2E/DX2                !
 ! A25   A(9,10,11)            117.1617         estimate D2E/DX2                !
 ! A26   A(9,10,17)            120.3806         estimate D2E/DX2                !
 ! A27   A(11,10,17)           122.2913         estimate D2E/DX2                !
 ! A28   A(10,11,12)           121.2835         estimate D2E/DX2                !
 ! A29   A(10,11,16)           118.3845         estimate D2E/DX2                !
 ! A30   A(12,11,16)           119.6714         estimate D2E/DX2                !
 ! A31   A(11,12,13)           122.0393         estimate D2E/DX2                !
 ! A32   A(11,12,15)           124.1342         estimate D2E/DX2                !
 ! A33   A(13,12,15)           113.8214         estimate D2E/DX2                !
 ! A34   A(8,13,12)            118.1394         estimate D2E/DX2                !
 ! A35   A(8,13,14)            114.5482         estimate D2E/DX2                !
 ! A36   A(12,13,14)           127.1818         estimate D2E/DX2                !
 ! A37   A(7,19,20)            109.1786         estimate D2E/DX2                !
 ! A38   A(7,19,21)            114.637          estimate D2E/DX2                !
 ! A39   A(7,19,22)            107.8592         estimate D2E/DX2                !
 ! A40   A(20,19,21)           103.0895         estimate D2E/DX2                !
 ! A41   A(20,19,22)           121.0157         estimate D2E/DX2                !
 ! A42   A(21,19,22)           101.0739         estimate D2E/DX2                !
 ! A43   A(19,22,23)           105.7333         estimate D2E/DX2                !
 ! A44   A(19,22,24)           103.3499         estimate D2E/DX2                !
 ! A45   A(19,22,25)           112.6191         estimate D2E/DX2                !
 ! A46   A(23,22,24)           100.9779         estimate D2E/DX2                !
 ! A47   A(23,22,25)           119.2757         estimate D2E/DX2                !
 ! A48   A(24,22,25)           113.1315         estimate D2E/DX2                !
 ! A49   A(9,25,22)            109.4815         estimate D2E/DX2                !
 ! A50   A(9,25,26)            102.6206         estimate D2E/DX2                !
 ! A51   A(9,25,27)            117.8422         estimate D2E/DX2                !
 ! A52   A(22,25,26)           110.3664         estimate D2E/DX2                !
 ! A53   A(22,25,27)           108.6437         estimate D2E/DX2                !
 ! A54   A(26,25,27)           107.6409         estimate D2E/DX2                !
 ! A55   A(25,27,28)           116.8725         estimate D2E/DX2                !
 ! A56   A(25,27,36)           125.3486         estimate D2E/DX2                !
 ! A57   A(28,27,36)           117.764          estimate D2E/DX2                !
 ! A58   A(27,28,29)           116.381          estimate D2E/DX2                !
 ! A59   A(27,28,30)           121.6688         estimate D2E/DX2                !
 ! A60   A(29,28,30)           121.9017         estimate D2E/DX2                !
 ! A61   A(28,30,31)           120.9425         estimate D2E/DX2                !
 ! A62   A(28,30,32)           119.1187         estimate D2E/DX2                !
 ! A63   A(31,30,32)           118.6841         estimate D2E/DX2                !
 ! A64   A(30,32,33)           122.6526         estimate D2E/DX2                !
 ! A65   A(30,32,34)           119.8907         estimate D2E/DX2                !
 ! A66   A(33,32,34)           116.3639         estimate D2E/DX2                !
 ! A67   A(32,34,35)           122.2714         estimate D2E/DX2                !
 ! A68   A(32,34,36)           118.1668         estimate D2E/DX2                !
 ! A69   A(35,34,36)           118.4702         estimate D2E/DX2                !
 ! A70   A(27,36,34)           122.625          estimate D2E/DX2                !
 ! A71   A(27,36,37)           123.7245         estimate D2E/DX2                !
 ! A72   A(34,36,37)           113.6211         estimate D2E/DX2                !
 ! D1    D(2,1,5,6)            -59.1623         estimate D2E/DX2                !
 ! D2    D(2,1,5,7)            178.2707         estimate D2E/DX2                !
 ! D3    D(2,1,5,38)            55.6779         estimate D2E/DX2                !
 ! D4    D(3,1,5,6)           -179.1166         estimate D2E/DX2                !
 ! D5    D(3,1,5,7)             58.3164         estimate D2E/DX2                !
 ! D6    D(3,1,5,38)           -64.2764         estimate D2E/DX2                !
 ! D7    D(4,1,5,6)             57.9278         estimate D2E/DX2                !
 ! D8    D(4,1,5,7)            -64.6392         estimate D2E/DX2                !
 ! D9    D(4,1,5,38)           172.768          estimate D2E/DX2                !
 ! D10   D(1,5,7,8)           -164.9071         estimate D2E/DX2                !
 ! D11   D(1,5,7,18)           -55.6626         estimate D2E/DX2                !
 ! D12   D(1,5,7,19)            61.0807         estimate D2E/DX2                !
 ! D13   D(6,5,7,8)             72.5117         estimate D2E/DX2                !
 ! D14   D(6,5,7,18)          -178.2438         estimate D2E/DX2                !
 ! D15   D(6,5,7,19)           -61.5005         estimate D2E/DX2                !
 ! D16   D(38,5,7,8)           -42.3104         estimate D2E/DX2                !
 ! D17   D(38,5,7,18)           66.9341         estimate D2E/DX2                !
 ! D18   D(38,5,7,19)         -176.3227         estimate D2E/DX2                !
 ! D19   D(5,7,8,9)           -135.9002         estimate D2E/DX2                !
 ! D20   D(5,7,8,13)            33.9096         estimate D2E/DX2                !
 ! D21   D(18,7,8,9)           110.6562         estimate D2E/DX2                !
 ! D22   D(18,7,8,13)          -79.5339         estimate D2E/DX2                !
 ! D23   D(19,7,8,9)            -4.885          estimate D2E/DX2                !
 ! D24   D(19,7,8,13)          164.9248         estimate D2E/DX2                !
 ! D25   D(5,7,19,20)           34.4479         estimate D2E/DX2                !
 ! D26   D(5,7,19,21)          -80.5959         estimate D2E/DX2                !
 ! D27   D(5,7,19,22)          167.7022         estimate D2E/DX2                !
 ! D28   D(8,7,19,20)          -98.7924         estimate D2E/DX2                !
 ! D29   D(8,7,19,21)          146.1638         estimate D2E/DX2                !
 ! D30   D(8,7,19,22)           34.4619         estimate D2E/DX2                !
 ! D31   D(18,7,19,20)         150.4067         estimate D2E/DX2                !
 ! D32   D(18,7,19,21)          35.3629         estimate D2E/DX2                !
 ! D33   D(18,7,19,22)         -76.3389         estimate D2E/DX2                !
 ! D34   D(7,8,9,10)          -174.0835         estimate D2E/DX2                !
 ! D35   D(7,8,9,25)             0.7445         estimate D2E/DX2                !
 ! D36   D(13,8,9,10)           16.1598         estimate D2E/DX2                !
 ! D37   D(13,8,9,25)         -169.0122         estimate D2E/DX2                !
 ! D38   D(7,8,13,12)          179.8946         estimate D2E/DX2                !
 ! D39   D(7,8,13,14)            3.7492         estimate D2E/DX2                !
 ! D40   D(9,8,13,12)           -9.801          estimate D2E/DX2                !
 ! D41   D(9,8,13,14)          174.0536         estimate D2E/DX2                !
 ! D42   D(8,9,10,11)          -15.7786         estimate D2E/DX2                !
 ! D43   D(8,9,10,17)          168.803          estimate D2E/DX2                !
 ! D44   D(25,9,10,11)         169.5565         estimate D2E/DX2                !
 ! D45   D(25,9,10,17)          -5.8618         estimate D2E/DX2                !
 ! D46   D(8,9,25,22)          -26.8688         estimate D2E/DX2                !
 ! D47   D(8,9,25,26)           90.3574         estimate D2E/DX2                !
 ! D48   D(8,9,25,27)         -151.6425         estimate D2E/DX2                !
 ! D49   D(10,9,25,22)         147.96           estimate D2E/DX2                !
 ! D50   D(10,9,25,26)         -94.8138         estimate D2E/DX2                !
 ! D51   D(10,9,25,27)          23.1863         estimate D2E/DX2                !
 ! D52   D(9,10,11,12)           9.5184         estimate D2E/DX2                !
 ! D53   D(9,10,11,16)        -179.8296         estimate D2E/DX2                !
 ! D54   D(17,10,11,12)       -175.1574         estimate D2E/DX2                !
 ! D55   D(17,10,11,16)         -4.5055         estimate D2E/DX2                !
 ! D56   D(10,11,12,13)         -3.8245         estimate D2E/DX2                !
 ! D57   D(10,11,12,15)        175.3025         estimate D2E/DX2                !
 ! D58   D(16,11,12,13)       -174.3581         estimate D2E/DX2                !
 ! D59   D(16,11,12,15)          4.7689         estimate D2E/DX2                !
 ! D60   D(11,12,13,8)           3.907          estimate D2E/DX2                !
 ! D61   D(11,12,13,14)        179.5051         estimate D2E/DX2                !
 ! D62   D(15,12,13,8)        -175.3031         estimate D2E/DX2                !
 ! D63   D(15,12,13,14)          0.2951         estimate D2E/DX2                !
 ! D64   D(7,19,22,23)         164.2056         estimate D2E/DX2                !
 ! D65   D(7,19,22,24)          58.53           estimate D2E/DX2                !
 ! D66   D(7,19,22,25)         -63.9002         estimate D2E/DX2                !
 ! D67   D(20,19,22,23)        -69.1788         estimate D2E/DX2                !
 ! D68   D(20,19,22,24)       -174.8544         estimate D2E/DX2                !
 ! D69   D(20,19,22,25)         62.7154         estimate D2E/DX2                !
 ! D70   D(21,19,22,23)         43.5855         estimate D2E/DX2                !
 ! D71   D(21,19,22,24)        -62.0901         estimate D2E/DX2                !
 ! D72   D(21,19,22,25)        175.4797         estimate D2E/DX2                !
 ! D73   D(19,22,25,9)          60.2499         estimate D2E/DX2                !
 ! D74   D(19,22,25,26)        -51.9935         estimate D2E/DX2                !
 ! D75   D(19,22,25,27)       -169.7949         estimate D2E/DX2                !
 ! D76   D(23,22,25,9)        -174.9755         estimate D2E/DX2                !
 ! D77   D(23,22,25,26)         72.7811         estimate D2E/DX2                !
 ! D78   D(23,22,25,27)        -45.0203         estimate D2E/DX2                !
 ! D79   D(24,22,25,9)         -56.4933         estimate D2E/DX2                !
 ! D80   D(24,22,25,26)       -168.7367         estimate D2E/DX2                !
 ! D81   D(24,22,25,27)         73.462          estimate D2E/DX2                !
 ! D82   D(9,25,27,28)          58.4434         estimate D2E/DX2                !
 ! D83   D(9,25,27,36)        -120.1196         estimate D2E/DX2                !
 ! D84   D(22,25,27,28)        -66.7441         estimate D2E/DX2                !
 ! D85   D(22,25,27,36)        114.6929         estimate D2E/DX2                !
 ! D86   D(26,25,27,28)        173.737          estimate D2E/DX2                !
 ! D87   D(26,25,27,36)         -4.826          estimate D2E/DX2                !
 ! D88   D(25,27,28,29)         -1.1827         estimate D2E/DX2                !
 ! D89   D(25,27,28,30)       -178.6936         estimate D2E/DX2                !
 ! D90   D(36,27,28,29)        177.4927         estimate D2E/DX2                !
 ! D91   D(36,27,28,30)         -0.0182         estimate D2E/DX2                !
 ! D92   D(25,27,36,34)       -179.5681         estimate D2E/DX2                !
 ! D93   D(25,27,36,37)         -1.6653         estimate D2E/DX2                !
 ! D94   D(28,27,36,34)          1.8804         estimate D2E/DX2                !
 ! D95   D(28,27,36,37)        179.7832         estimate D2E/DX2                !
 ! D96   D(27,28,30,31)        170.4925         estimate D2E/DX2                !
 ! D97   D(27,28,30,32)          3.4557         estimate D2E/DX2                !
 ! D98   D(29,28,30,31)         -6.8808         estimate D2E/DX2                !
 ! D99   D(29,28,30,32)       -173.9176         estimate D2E/DX2                !
 ! D100  D(28,30,32,33)       -176.4764         estimate D2E/DX2                !
 ! D101  D(28,30,32,34)         -8.8689         estimate D2E/DX2                !
 ! D102  D(31,30,32,33)         16.1924         estimate D2E/DX2                !
 ! D103  D(31,30,32,34)       -176.2002         estimate D2E/DX2                !
 ! D104  D(30,32,34,35)        178.3928         estimate D2E/DX2                !
 ! D105  D(30,32,34,36)         10.5297         estimate D2E/DX2                !
 ! D106  D(33,32,34,35)        -13.2416         estimate D2E/DX2                !
 ! D107  D(33,32,34,36)        178.8954         estimate D2E/DX2                !
 ! D108  D(32,34,36,27)         -7.2097         estimate D2E/DX2                !
 ! D109  D(32,34,36,37)        174.694          estimate D2E/DX2                !
 ! D110  D(35,34,36,27)       -175.5424         estimate D2E/DX2                !
 ! D111  D(35,34,36,37)          6.3613         estimate D2E/DX2                !
 --------------------------------------------------------------------------------
 Trust Radius=3.00D-01 FncErr=1.00D-07 GrdErr=1.00D-06 EigMax=2.50D+02 EigMin=1.00D-04
 Number of steps in this run=    228 maximum allowed number of steps=    228.
 GradGradGradGradGradGradGradGradGradGradGradGradGradGradGradGradGradGrad

 Leave Link  103 at Sun Jul 11 15:54:11 2021, MaxMem=   104857600 cpu:               0.1 elap:               0.0
 (Enter /prod/apps/gaussian/g16b1/l202.exe)
                          Input orientation:                          
 ---------------------------------------------------------------------
 Center     Atomic      Atomic             Coordinates (Angstroms)
 Number     Number       Type             X           Y           Z
 ---------------------------------------------------------------------
      1          6           0        2.622000    2.267000   -3.334000
      2          1           0        3.358000    2.014000   -4.101000
      3          1           0        2.978000    3.186000   -2.863000
      4          1           0        1.691000    2.521000   -3.848000
      5          7           0        2.434000    1.052000   -2.456000
      6          1           0        2.122000    0.309000   -3.048000
      7          6           0        1.519000    1.090000   -1.291000
      8          6           0        1.691000   -0.048000   -0.305000
      9          6           0        0.597000   -0.756000    0.261000
     10          6           0        0.798000   -1.712000    1.254000
     11          6           0        2.099000   -2.186000    1.428000
     12          6           0        3.173000   -1.591000    0.787000
     13          6           0        3.009000   -0.563000   -0.105000
     14          1           0        3.788000   -0.033000   -0.647000
     15          1           0        4.211000   -1.874000    0.945000
     16          1           0        2.278000   -2.935000    2.196000
     17          1           0       -0.046000   -2.116000    1.807000
     18          1           0        1.846000    1.924000   -0.664000
     19          6           0        0.069000    1.387000   -1.760000
     20          1           0       -0.096000    0.920000   -2.733000
     21          1           0       -0.140000    2.441000   -1.953000
     22          6           0       -0.859000    1.115000   -0.598000
     23          1           0       -1.805000    1.595000   -0.856000
     24          1           0       -0.491000    1.786000    0.181000
     25          6           0       -0.857000   -0.338000   -0.180000
     26          1           0       -1.039000   -0.982000   -1.043000
     27          6           0       -2.006000   -0.564000    0.822000
     28          6           0       -1.893000    0.081000    2.088000
     29          1           0       -0.992000    0.667000    2.253000
     30          6           0       -2.840000   -0.073000    3.057000
     31         17           0       -2.572000    0.515000    4.669000
     32          6           0       -3.935000   -0.960000    2.824000
     33         17           0       -5.244000   -1.159000    3.961000
     34          6           0       -4.125000   -1.506000    1.566000
     35          1           0       -4.930000   -2.205000    1.352000
     36          6           0       -3.096000   -1.346000    0.605000
     37          1           0       -3.281000   -1.879000   -0.324000
     38          1           0        3.337000    0.799000   -2.110000
 ---------------------------------------------------------------------
                    Distance matrix (angstroms):
                    1          2          3          4          5
     1  C    0.000000
     2  H    1.092700   0.000000
     3  H    1.092309   1.746605   0.000000
     4  H    1.093377   1.760667   1.751804   0.000000
     5  N    1.510779   2.117840   2.239540   2.155846   0.000000
     6  H    2.040970   2.354470   3.007339   2.391381   0.999928
     7  C    2.603034   3.483073   2.998847   2.935233   1.481855
     8  C    3.924389   4.630372   4.319547   4.376369   2.527617
     9  C    5.114996   5.858589   5.564881   5.368375   3.745066
    10  C    6.341069   7.008045   6.759622   6.689256   4.907167
    11  C    6.540595   7.056552   6.931357   7.082266   5.067773
    12  C    5.671896   6.076413   6.015002   6.370879   4.248367
    13  C    4.311045   4.767677   4.654302   5.025757   2.909648
    14  H    3.724181   4.037973   3.991080   4.600731   2.506596
    15  H    6.163006   6.426995   6.451725   6.974186   4.825558
    16  H    7.600003   8.081535   7.971833   8.163482   6.128753
    17  H    7.263525   7.971736   7.685355   7.516513   5.861723
    18  H    2.801558   3.755957   2.776629   3.243191   2.077833
    19  C    3.125650   4.085454   3.593785   2.876905   2.487944
    20  H    3.092432   3.872774   3.821143   2.645713   2.548539
    21  H    3.092908   4.127013   3.332424   2.636283   2.967795
    22  C    4.574949   5.555385   4.913434   4.363695   3.781532
    23  H    5.117655   6.112459   5.425534   4.693778   4.563329
    24  H    4.719889   5.762144   4.822852   4.640495   4.006014
    25  C    5.370026   6.218711   5.858694   5.302868   4.235913
    26  H    5.404406   6.136855   6.068024   5.252802   4.265613
    27  C    6.834126   7.723633   7.244445   6.707752   5.750682
    28  C    7.386603   8.343453   7.607895   7.350833   6.349308
    29  H    6.843651   7.817303   6.948361   6.917948   5.836127
    30  C    8.726622   9.695759   8.917208   8.656663   7.711930
    31  Cl   9.700265  10.692278   9.729736   9.733267   8.724336
    32  C    9.556607  10.487524   9.865133   9.396000   8.514147
    33  Cl  11.261814  12.208938  11.534612  11.073261  10.247834
    34  C    9.152461  10.024998   9.596016   8.908085   8.108041
    35  H    9.949376  10.780822  10.457799   9.654673   8.907155
    36  C    7.827197   8.665457   8.334238   7.595938   6.760253
    37  H    7.816318   8.573068   8.442501   7.516606   6.767378
    38  H    2.040692   2.332541   2.528569   2.948770   0.999567
                    6          7          8          9         10
     6  H    0.000000
     7  C    2.015098   0.000000
     8  C    2.799510   1.515528   0.000000
     9  C    3.795962   2.581957   1.420724   0.000000
    10  C    4.934027   3.853319   2.448842   1.392977   0.000000
    11  C    5.124464   4.296689   2.782229   2.379662   1.395548
    12  C    4.407020   3.773799   2.402007   2.758564   2.423501
    13  C    3.195059   2.521727   1.429108   2.447233   2.838239
    14  H    2.942333   2.612322   2.124758   3.395537   3.920834
    15  H    5.007341   4.586050   3.353681   3.844317   3.430786
    16  H    6.168258   5.379208   3.864497   3.364228   2.138573
    17  H    5.843960   4.724962   3.428460   2.157120   1.086904
    18  H    2.892725   1.093441   2.010395   3.098068   4.242349
    19  C    2.652515   1.552633   2.609048   2.992603   4.383998
    20  H    2.322083   2.171748   3.166319   3.500466   4.860332
    21  H    3.295617   2.239582   3.501940   3.958001   5.330300
    22  C    3.941890   2.477046   2.817963   2.521598   3.763972
    23  H    4.677605   3.390166   3.901931   3.541821   4.707861
    24  H    4.408598   2.586755   2.891518   2.766208   3.879285
    25  C    4.185508   2.986450   2.567495   1.575856   2.585200
    26  H    3.959625   3.301220   2.978238   2.104278   3.030458
    27  C    5.725331   4.430137   3.899256   2.669681   3.060546
    28  C    6.523090   4.906879   4.311397   3.199781   3.339444
    29  H    6.158389   4.363942   3.775325   2.918547   3.140341
    30  C    7.876445   6.265665   5.642130   4.482976   4.378604
    31  Cl   9.034830   7.251793   6.575014   5.575703   5.289485
    32  C    8.531002   7.133151   6.501866   5.210529   5.042985
    33  Cl  10.273221   8.853230   8.217500   6.926015   6.643751
    34  C    7.975477   6.837865   6.281103   4.956088   4.937176
    35  H    8.683945   7.709220   7.157928   5.817010   5.750012
    36  C    6.581106   5.552219   5.042645   3.755620   3.964643
    37  H    6.434278   5.726260   5.298463   4.079490   4.376781
    38  H    1.611263   2.015085   2.585488   3.943002   4.905929
                   11         12         13         14         15
    11  C    0.000000
    12  C    1.385057   0.000000
    13  C    2.410875   1.370892   0.000000
    14  H    3.434204   2.204982   1.086971   0.000000
    15  H    2.188876   1.087427   2.065436   2.470359   0.000000
    16  H    1.087596   2.143045   3.384575   4.334092   2.535194
    17  H    2.179350   3.417307   3.924357   5.006052   4.350133
    18  H    4.618720   4.027599   2.801824   2.757082   4.754672
    19  C    5.201017   4.999051   3.896810   4.133537   5.925142
    20  H    5.637303   5.420506   4.329746   4.510550   6.315407
    21  H    6.152513   5.894115   4.728141   4.822395   6.778557
    22  C    4.873504   5.049523   4.245016   4.786952   6.084396
    23  H    5.895238   6.134373   5.328749   5.828869   7.174247
    24  H    4.903049   5.019588   4.224878   4.722731   6.007337
    25  C    3.839102   4.329665   3.873268   4.678369   5.413829
    26  H    4.171630   4.632572   4.176327   4.935316   5.684216
    27  C    4.455238   5.279962   5.099956   6.000863   6.354708
    28  C    4.637990   5.491133   5.408659   6.306107   6.510552
    29  H    4.286550   4.959329   4.804276   5.634572   5.936224
    30  C    5.613567   6.604044   6.667019   7.592865   7.577648
    31  Cl   6.294261   7.246391   7.422986   8.307211   8.098431
    32  C    6.313561   7.420997   7.546906   8.517740   8.409718
    33  Cl   7.835207   9.005931   9.219522  10.201890   9.950101
    34  C    6.262557   7.339950   7.387520   8.347614   8.367196
    35  H    7.029437   8.145847   8.236913   9.204190   9.156041
    36  C    5.326439   6.276425   6.195822   7.119054   7.333937
    37  H    5.666406   6.555256   6.429924   7.313194   7.598714
    38  H    4.791692   3.759203   2.445946   1.742410   4.152328
                   16         17         18         19         20
    16  H    0.000000
    17  H    2.494606   0.000000
    18  H    5.654742   5.099716   0.000000
    19  C    6.261733   5.000772   2.155763   0.000000
    20  H    6.692678   5.461813   3.010007   1.091807   0.000000
    21  H    7.208488   5.908696   2.423429   1.091717   1.709906
    22  C    5.835213   4.109058   2.824157   1.511758   2.275614
    23  H    6.819567   4.894606   3.670818   2.091018   2.626678
    24  H    5.832275   4.250589   2.488903   2.059195   3.065514
    25  C    4.713598   2.786965   3.557683   2.515850   2.946098
    26  H    5.030688   3.224051   4.112384   2.711810   2.713476
    27  C    5.085487   2.687104   4.820399   3.844314   4.299812
    28  C    5.148316   2.883952   4.995025   4.512448   5.212981
    29  H    4.865239   2.973032   4.259481   4.212872   5.072181
    30  C    5.926744   3.680052   6.308125   5.813551   6.483802
    31  Cl   6.445210   4.636149   7.067170   7.004806   7.815638
    32  C    6.549533   4.182696   7.341904   6.523303   7.010889
    33  Cl   7.927792   5.707431   9.009085   8.212182   8.696768
    34  C    6.590702   4.131395   7.238138   6.084518   6.371791
    35  H    7.293867   4.905956   8.187006   6.897609   7.058357
    36  C    5.825468   3.367522   6.060250   4.804138   5.027624
    37  H    6.194192   3.881051   6.392538   4.894012   4.876670
    38  H    5.797057   5.940101   2.362122   3.338872   3.491169
                   21         22         23         24         25
    21  H    0.000000
    22  C    2.027625   0.000000
    23  H    2.165952   1.091733   0.000000
    24  H    2.259686   1.092019   1.684769   0.000000
    25  C    3.373494   1.511932   2.256583   2.185327   0.000000
    26  H    3.654207   2.151240   2.694931   3.075761   1.092076
    27  C    4.495843   2.480131   2.741782   2.868555   1.541195
    28  C    4.997228   3.058252   3.311658   2.917067   2.528375
    29  H    4.643643   2.889047   3.344852   2.407560   2.635856
    30  C    6.221760   4.323740   4.377787   4.152717   3.805349
    31  Cl   7.312659   5.570966   5.681577   5.107656   5.213601
    32  C    6.984880   5.047523   4.960577   5.136838   4.345686
    33  Cl   8.601524   6.721888   6.527996   6.749254   6.088324
    34  C    6.621359   4.713735   4.567788   5.095237   3.884915
    35  H    7.446640   5.603387   5.392670   6.083095   4.735192
    36  C    5.442671   3.536651   3.528553   4.095757   2.577869
    37  H    5.584078   3.860725   3.811860   4.633719   2.875968
    38  H    3.848421   4.471288   5.352223   4.569074   4.754714
                   26         27         28         29         30
    26  H    0.000000
    27  C    2.141971   0.000000
    28  C    3.415032   1.425325   0.000000
    29  H    3.685787   2.142736   1.087392   0.000000
    30  C    4.569451   2.435541   1.363630   2.146886   0.000000
    31  Cl   6.100659   4.035345   2.703878   2.890772   1.736696
    32  C    4.831251   2.808178   2.407310   3.410926   1.428315
    33  Cl   6.538606   4.548845   4.034220   4.932651   2.788517
    34  C    4.074905   2.435377   2.787988   3.874221   2.434706
    35  H    4.729866   3.394637   3.871803   4.956615   3.438103
    36  C    2.660761   1.358938   2.383868   3.345876   2.774593
    37  H    2.519550   2.160594   3.403805   4.285156   3.858404
    38  H    4.843534   6.245161   6.744748   6.147636   8.100222
                   31         32         33         34         35
    31  Cl   0.000000
    32  C    2.727163   0.000000
    33  Cl   3.231582   1.745237   0.000000
    34  C    4.015577   1.384478   2.666195   0.000000
    35  H    4.895003   2.169524   2.828355   1.087392   0.000000
    36  C    4.500444   2.403514   3.988936   1.417026   2.158575
    37  H    5.582470   3.343977   4.767913   2.103227   2.373700
    38  H    8.997321   8.962166  10.692257   8.631770   9.452658
                   36         37         38
    36  C    0.000000
    37  H    1.086902   0.000000
    38  H    7.304501   7.359307   0.000000
 Stoichiometry    C17H18Cl2N(1+)
 Framework group  C1[X(C17H18Cl2N)]
 Deg. of freedom   108
 Full point group                 C1      NOp   1
 Largest Abelian subgroup         C1      NOp   1
 Largest concise Abelian subgroup C1      NOp   1
                         Standard orientation:                         
 ---------------------------------------------------------------------
 Center     Atomic      Atomic             Coordinates (Angstroms)
 Number     Number       Type             X           Y           Z
 ---------------------------------------------------------------------
      1          6           0       -5.694631   -1.821364    0.724262
      2          1           0       -6.695239   -1.712810    0.298827
      3          1           0       -5.820947   -1.791238    1.808824
      4          1           0       -5.344687   -2.827867    0.479390
      5          7           0       -4.807011   -0.777030    0.088691
      6          1           0       -4.818231   -0.944526   -0.897045
      7          6           0       -3.386481   -0.641330    0.488156
      8          6           0       -2.719071    0.647012    0.050475
      9          6           0       -1.415320    0.692974   -0.512176
     10          6           0       -0.795051    1.909672   -0.786581
     11          6           0       -1.604604    3.046139   -0.811469
     12          6           0       -2.921662    3.000462   -0.385261
     13          6           0       -3.518781    1.830638    0.007554
     14          1           0       -4.538049    1.700074    0.361887
     15          1           0       -3.570938    3.869986   -0.315500
     16          1           0       -1.141327    4.006334   -1.026566
     17          1           0        0.260460    1.942902   -1.043782
     18          1           0       -3.379552   -0.490186    1.571079
     19          6           0       -2.618620   -1.956569    0.186154
     20          1           0       -3.024523   -2.408659   -0.720985
     21          1           0       -2.749229   -2.741654    0.933435
     22          6           0       -1.140049   -1.671387    0.319979
     23          1           0       -0.655281   -2.647242    0.387710
     24          1           0       -1.043311   -1.319254    1.349129
     25          6           0       -0.646431   -0.669778   -0.699363
     26          1           0       -0.942144   -0.974340   -1.705557
     27          6           0        0.893803   -0.639293   -0.654330
     28          6           0        1.493647   -0.131784    0.534860
     29          1           0        0.813381    0.212905    1.310004
     30          6           0        2.847254   -0.036121    0.669330
     31         17           0        3.553760    0.804974    2.014514
     32          6           0        3.681908   -0.385019   -0.435978
     33         17           0        5.424370   -0.383068   -0.337613
     34          6           0        3.129962   -0.985085   -1.554932
     35          1           0        3.724472   -1.243479   -2.427980
     36          6           0        1.717695   -1.029344   -1.662187
     37          1           0        1.365185   -1.432875   -2.607838
     38          1           0       -5.240574    0.109795    0.245847
 ---------------------------------------------------------------------
 Rotational constants (GHZ):           0.5729154           0.1330000           0.1232610
 Leave Link  202 at Sun Jul 11 15:54:11 2021, MaxMem=   104857600 cpu:               0.1 elap:               0.0
 (Enter /prod/apps/gaussian/g16b1/l301.exe)
 Standard basis: 6-31G(d) (6D, 7F)
 Ernie: Thresh=  0.10000D-02 Tol=  0.10000D-05 Strict=F.
 There are   344 symmetry adapted cartesian basis functions of A   symmetry.
 There are   344 symmetry adapted basis functions of A   symmetry.
   344 basis functions,   680 primitive gaussians,   344 cartesian basis functions
    80 alpha electrons       80 beta electrons
       nuclear repulsion energy      1732.1518078960 Hartrees.
 IExCor=  402 DFT=T Ex+Corr=B3LYP ExCW=0 ScaHFX=  0.200000
 ScaDFX=  0.800000  0.720000  1.000000  0.810000 ScalE2=  1.000000  1.000000
 IRadAn=      5 IRanWt=     -1 IRanGd=            0 ICorTp=0 IEmpDi=  4
 NAtoms=   38 NActive=   38 NUniq=   38 SFac= 1.00D+00 NAtFMM=   60 NAOKFM=F Big=F
 Integral buffers will be    131072 words long.
 Raffenetti 2 integral format.
 Two-electron integral symmetry is turned on.
 Using the following non-standard input for PCM:
 MSTModel=DFT cav MSTCharged
 --- end of non-standard input.
 MST model for solvation energy: B3LYP parametrization.
 MST cavity parameters:
 ISph   IAn     Re0     Alpha   Atom Type   QCorr
 ------------------------------------------------
   1      6     1.50     1.25      CH3        F
   2      1     1.20     1.25      CH3        F
   3      1     1.20     1.25      CH3        F
   4      1     1.20     1.25      CH3        F
   5      7     1.55     1.15      NH         T
   6      1     0.90     1.15      NH         T
   7      6     1.50     1.25      CH         F
   8      6     1.50     1.25      C          F
   9      6     1.50     1.25      C          F
  10      6     1.50     1.25      CH         F
  11      6     1.50     1.25      CH         F
  12      6     1.50     1.25      CH         F
  13      6     1.50     1.25      CH         F
  14      1     1.20     1.25      CH         F
  15      1     1.20     1.25      CH         F
  16      1     1.20     1.25      CH         F
  17      1     1.20     1.25      CH         F
  18      1     1.20     1.25      CH         F
  19      6     1.50     1.25      CH2        F
  20      1     1.20     1.25      CH2        F
  21      1     1.20     1.25      CH2        F
  22      6     1.50     1.25      CH2        F
  23      1     1.20     1.25      CH2        F
  24      1     1.20     1.25      CH2        F
  25      6     1.50     1.25      CH         F
  26      1     1.20     1.25      CH         F
  27      6     1.50     1.25      C          F
  28      6     1.50     1.25      CH         F
  29      1     1.20     1.25      CH         F
  30      6     1.50     1.25      C          F
  31     17     1.80     1.25      Cl         F
  32      6     1.50     1.25      C          F
  33     17     1.80     1.25      Cl         F
  34      6     1.50     1.25      CH         F
  35      1     1.20     1.25      CH         F
  36      6     1.50     1.25      CH         F
  37      1     1.20     1.25      CH         F
  38      1     0.90     1.15      NH         T
 ------------------------------------------------------------------------------
 Polarizable Continuum Model (PCM)
 =================================
 Model                : PCM.
 Atomic radii         : MST.
 Polarization charges : Total charges.
 Charge compensation  : None.
 Solution method      : On-the-fly selection.
 Cavity type          : Scaled VdW (van der Waals Surface) (Alpha=1.250).
 Cavity algorithm     : GePol (No added spheres)
                        Default sphere list used, NSphG=   38.
                        Lebedev-Laikov grids with approx.  5.0 points / Ang**2.
                        Smoothing algorithm: York/Karplus (Gamma=1.0000).
                        Polarization charges: spherical gaussians, with
                                              point-specific exponents (IZeta= 3).
                        Self-potential: point-specific (ISelfS= 7).
                        Self-field    : sphere-specific E.n sum rule (ISelfD= 2).
 1st derivatives      : Analytical E(r).r(x)/FMM algorithm (CHGder, D1EAlg=3).
                        Cavity 1st derivative terms included.
 Solvent              : Water, Eps=  78.355300 Eps(inf)=   1.777849
 ------------------------------------------------------------------------------
 GePol: Number of generator spheres                  =      38
 GePol: Total number of spheres                      =      38
 GePol: Number of exposed spheres                    =      38 (100.00%)
 GePol: Number of points                             =    2911
 GePol: Average weight of points                     =       0.13
 GePol: Minimum weight of points                     =   0.15D-11
 GePol: Maximum weight of points                     =    0.21416
 GePol: Number of points with low weight             =     184
 GePol: Fraction of low-weight points (<1% of avg)   =       6.32%
 GePol: Cavity surface area                          =    370.534 Ang**2
 GePol: Cavity volume                                =    369.950 Ang**3
 PCM non-electrostatic energy =         0.0031363787 Hartrees.
 Nuclear repulsion after PCM non-electrostatic terms =     1732.1549442747 Hartrees.
 Leave Link  301 at Sun Jul 11 15:54:11 2021, MaxMem=   104857600 cpu:               0.4 elap:               0.1
 (Enter /prod/apps/gaussian/g16b1/l302.exe)
 NPDir=0 NMtPBC=     1 NCelOv=     1 NCel=       1 NClECP=     1 NCelD=      1
         NCelK=      1 NCelE2=     1 NClLst=     1 CellRange=     0.0.
 One-electron integrals computed using PRISM.
 One-electron integral symmetry used in STVInt
 NBasis=   344 RedAO= T EigKep=  5.20D-04  NBF=   344
 NBsUse=   344 1.00D-06 EigRej= -1.00D+00 NBFU=   344
 Precomputing XC quadrature grid using
 IXCGrd= 4 IRadAn=           5 IRanWt=          -1 IRanGd=           0 AccXCQ= 0.00D+00.
 Generated NRdTot=       0 NPtTot=           0 NUsed=           0 NTot=          32
 NSgBfM=   339   339   339   339   339 MxSgAt=    38 MxSgA2=    38.
 Leave Link  302 at Sun Jul 11 15:54:12 2021, MaxMem=   104857600 cpu:               2.0 elap:               0.5
 (Enter /prod/apps/gaussian/g16b1/l303.exe)
 DipDrv:  MaxL=1.
 Leave Link  303 at Sun Jul 11 15:54:12 2021, MaxMem=   104857600 cpu:               0.2 elap:               0.1
 (Enter /prod/apps/gaussian/g16b1/l401.exe)
 ExpMin= 1.43D-01 ExpMax= 2.52D+04 ExpMxC= 3.78D+03 IAcc=3 IRadAn=         5 AccDes= 0.00D+00
 Harris functional with IExCor=  402 and IRadAn=       5 diagonalized for initial guess.
 HarFok:  IExCor=  402 AccDes= 0.00D+00 IRadAn=         5 IDoV= 1 UseB2=F ITyADJ=14
 ICtDFT=  3500011 ScaDFX=  1.000000  1.000000  1.000000  1.000000
 FoFCou: FMM=F IPFlag=           0 FMFlag=      100000 FMFlg1=           0
         NFxFlg=           0 DoJE=T BraDBF=F KetDBF=T FulRan=T
         wScrn=  0.000000 ICntrl=       500 IOpCl=  0 I1Cent=   200000004 NGrid=           0
         NMat0=    1 NMatS0=      1 NMatT0=    0 NMatD0=    1 NMtDS0=    0 NMtDT0=    0
 Petite list used in FoFCou.
 Harris En= -1633.41029638757    
 JPrj=0 DoOrth=F DoCkMO=F.
 Leave Link  401 at Sun Jul 11 15:54:15 2021, MaxMem=   104857600 cpu:              10.6 elap:               2.7
 (Enter /prod/apps/gaussian/g16b1/l502.exe)
 Integral symmetry usage will be decided dynamically.
 Closed shell SCF:
 Using DIIS extrapolation, IDIIS=  1040.
 NGot=   104857600 LenX=   104614994 LenY=   104496217
 Requested convergence on RMS density matrix=1.00D-08 within 128 cycles.
 Requested convergence on MAX density matrix=1.00D-06.
 Requested convergence on             energy=1.00D-06.
 No special actions if energy rises.
 Fock matrices will be formed incrementally for  20 cycles.

 Cycle   1  Pass 1  IDiag  1:
 FoFJK:  IHMeth= 1 ICntrl=       0 DoSepK=F KAlg= 0 I1Cent=           0 FoldK=F
 IRaf= 790000000 NMat=       1 IRICut=       1 DoRegI=T DoRafI=F ISym2E= 0 IDoP0=0 IntGTp=1.
 FoFCou: FMM=F IPFlag=           0 FMFlag=      100000 FMFlg1=           0
         NFxFlg=           0 DoJE=F BraDBF=F KetDBF=F FulRan=T
         wScrn=  0.000000 ICntrl=         0 IOpCl=  0 I1Cent=           0 NGrid=           0
         NMat0=    1 NMatS0=      1 NMatT0=    0 NMatD0=    1 NMtDS0=    0 NMtDT0=    0
 Symmetry not used in FoFCou.
 Inv3:  Mode=1 IEnd=    25421763.
 Iteration    1 A*A^-1 deviation from unit magnitude is 3.33D-15 for   2001.
 Iteration    1 A*A^-1 deviation from orthogonality  is 2.27D-15 for   1974   1020.
 Iteration    1 A^-1*A deviation from unit magnitude is 3.33D-15 for   2001.
 Iteration    1 A^-1*A deviation from orthogonality  is 5.02D-15 for   2256   2231.
 E= -1633.19141534790    
 DIIS: error= 3.27D-02 at cycle   1 NSaved=   1.
 NSaved= 1 IEnMin= 1 EnMin= -1633.19141534790     IErMin= 1 ErrMin= 3.27D-02
 ErrMax= 3.27D-02  0.00D+00 EMaxC= 1.00D-01 BMatC= 4.03D-01 BMatP= 4.03D-01
 IDIUse=3 WtCom= 6.73D-01 WtEn= 3.27D-01
 Coeff-Com:  0.100D+01
 Coeff-En:   0.100D+01
 Coeff:      0.100D+01
 Gap=     0.346 Goal=   None    Shift=    0.000
 GapD=    0.346 DampG=1.000 DampE=0.500 DampFc=0.5000 IDamp=-1.
 Damping current iteration by 5.00D-01
 RMSDP=4.51D-03 MaxDP=1.23D-01              OVMax= 2.57D-01

 Cycle   2  Pass 1  IDiag  1:
 RMSU=  2.24D-03    CP:  9.85D-01
 E= -1633.38591338124     Delta-E=       -0.194498033334 Rises=F Damp=T
 DIIS: error= 1.04D-02 at cycle   2 NSaved=   2.
 NSaved= 2 IEnMin= 2 EnMin= -1633.38591338124     IErMin= 2 ErrMin= 1.04D-02
 ErrMax= 1.04D-02  0.00D+00 EMaxC= 1.00D-01 BMatC= 2.80D-02 BMatP= 4.03D-01
 IDIUse=3 WtCom= 8.96D-01 WtEn= 1.04D-01
 Coeff-Com:  0.346D-01 0.965D+00
 Coeff-En:   0.885D-01 0.911D+00
 Coeff:      0.402D-01 0.960D+00
 Gap=     0.272 Goal=   None    Shift=    0.000
 RMSDP=1.26D-03 MaxDP=5.29D-02 DE=-1.94D-01 OVMax= 2.03D-01

 Cycle   3  Pass 1  IDiag  1:
 RMSU=  1.20D-03    CP:  9.75D-01  8.61D-01
 E= -1633.60876106013     Delta-E=       -0.222847678897 Rises=F Damp=F
 DIIS: error= 5.39D-03 at cycle   3 NSaved=   3.
 NSaved= 3 IEnMin= 3 EnMin= -1633.60876106013     IErMin= 3 ErrMin= 5.39D-03
 ErrMax= 5.39D-03  0.00D+00 EMaxC= 1.00D-01 BMatC= 1.39D-02 BMatP= 2.80D-02
 IDIUse=3 WtCom= 9.46D-01 WtEn= 5.39D-02
 Coeff-Com: -0.345D-01 0.399D+00 0.635D+00
 Coeff-En:   0.000D+00 0.000D+00 0.100D+01
 Coeff:     -0.327D-01 0.378D+00 0.655D+00
 Gap=     0.219 Goal=   None    Shift=    0.000
 RMSDP=6.25D-04 MaxDP=3.05D-02 DE=-2.23D-01 OVMax= 6.34D-02

 Cycle   4  Pass 1  IDiag  1:
 RMSU=  5.25D-04    CP:  9.77D-01  9.37D-01  7.60D-01
 E= -1633.61702509568     Delta-E=       -0.008264035552 Rises=F Damp=F
 DIIS: error= 4.15D-03 at cycle   4 NSaved=   4.
 NSaved= 4 IEnMin= 4 EnMin= -1633.61702509568     IErMin= 4 ErrMin= 4.15D-03
 ErrMax= 4.15D-03  0.00D+00 EMaxC= 1.00D-01 BMatC= 6.39D-03 BMatP= 1.39D-02
 IDIUse=3 WtCom= 9.59D-01 WtEn= 4.15D-02
 Coeff-Com: -0.242D-01 0.102D+00 0.421D+00 0.501D+00
 Coeff-En:   0.000D+00 0.000D+00 0.334D+00 0.666D+00
 Coeff:     -0.232D-01 0.977D-01 0.417D+00 0.508D+00
 Gap=     0.216 Goal=   None    Shift=    0.000
 RMSDP=3.12D-04 MaxDP=1.46D-02 DE=-8.26D-03 OVMax= 2.56D-02

 Cycle   5  Pass 1  IDiag  1:
 RMSU=  1.36D-04    CP:  9.76D-01  9.31D-01  8.44D-01  5.03D-01
 E= -1633.62360243711     Delta-E=       -0.006577341421 Rises=F Damp=F
 DIIS: error= 5.63D-04 at cycle   5 NSaved=   5.
 NSaved= 5 IEnMin= 5 EnMin= -1633.62360243711     IErMin= 5 ErrMin= 5.63D-04
 ErrMax= 5.63D-04  0.00D+00 EMaxC= 1.00D-01 BMatC= 2.45D-04 BMatP= 6.39D-03
 IDIUse=3 WtCom= 9.94D-01 WtEn= 5.63D-03
 Coeff-Com: -0.873D-02 0.211D-01 0.164D+00 0.255D+00 0.568D+00
 Coeff-En:   0.000D+00 0.000D+00 0.000D+00 0.000D+00 0.100D+01
 Coeff:     -0.868D-02 0.210D-01 0.163D+00 0.254D+00 0.571D+00
 Gap=     0.216 Goal=   None    Shift=    0.000
 RMSDP=6.67D-05 MaxDP=3.65D-03 DE=-6.58D-03 OVMax= 4.05D-03

 Cycle   6  Pass 1  IDiag  1:
 RMSU=  3.95D-05    CP:  9.76D-01  9.29D-01  8.47D-01  5.54D-01  6.62D-01
 E= -1633.62384135280     Delta-E=       -0.000238915691 Rises=F Damp=F
 DIIS: error= 1.16D-04 at cycle   6 NSaved=   6.
 NSaved= 6 IEnMin= 6 EnMin= -1633.62384135280     IErMin= 6 ErrMin= 1.16D-04
 ErrMax= 1.16D-04  0.00D+00 EMaxC= 1.00D-01 BMatC= 1.58D-05 BMatP= 2.45D-04
 IDIUse=3 WtCom= 9.99D-01 WtEn= 1.16D-03
 Coeff-Com: -0.243D-02 0.326D-02 0.482D-01 0.833D-01 0.275D+00 0.592D+00
 Coeff-En:   0.000D+00 0.000D+00 0.000D+00 0.000D+00 0.000D+00 0.100D+01
 Coeff:     -0.243D-02 0.326D-02 0.481D-01 0.832D-01 0.275D+00 0.593D+00
 Gap=     0.216 Goal=   None    Shift=    0.000
 RMSDP=1.67D-05 MaxDP=4.94D-04 DE=-2.39D-04 OVMax= 1.16D-03

 Cycle   7  Pass 1  IDiag  1:
 RMSU=  9.08D-06    CP:  9.76D-01  9.28D-01  8.51D-01  5.55D-01  6.97D-01
                    CP:  6.90D-01
 E= -1633.62385680721     Delta-E=       -0.000015454410 Rises=F Damp=F
 DIIS: error= 5.38D-05 at cycle   7 NSaved=   7.
 NSaved= 7 IEnMin= 7 EnMin= -1633.62385680721     IErMin= 7 ErrMin= 5.38D-05
 ErrMax= 5.38D-05  0.00D+00 EMaxC= 1.00D-01 BMatC= 1.41D-06 BMatP= 1.58D-05
 IDIUse=1 WtCom= 1.00D+00 WtEn= 0.00D+00
 Coeff-Com: -0.714D-03 0.216D-03 0.153D-01 0.275D-01 0.108D+00 0.306D+00
 Coeff-Com:  0.544D+00
 Coeff:     -0.714D-03 0.216D-03 0.153D-01 0.275D-01 0.108D+00 0.306D+00
 Coeff:      0.544D+00
 Gap=     0.216 Goal=   None    Shift=    0.000
 RMSDP=5.09D-06 MaxDP=2.13D-04 DE=-1.55D-05 OVMax= 5.67D-04

 Cycle   8  Pass 1  IDiag  1:
 RMSU=  3.60D-06    CP:  9.76D-01  9.28D-01  8.51D-01  5.56D-01  7.02D-01
                    CP:  7.31D-01  6.61D-01
 E= -1633.62385820890     Delta-E=       -0.000001401695 Rises=F Damp=F
 DIIS: error= 1.69D-05 at cycle   8 NSaved=   8.
 NSaved= 8 IEnMin= 8 EnMin= -1633.62385820890     IErMin= 8 ErrMin= 1.69D-05
 ErrMax= 1.69D-05  0.00D+00 EMaxC= 1.00D-01 BMatC= 1.84D-07 BMatP= 1.41D-06
 IDIUse=1 WtCom= 1.00D+00 WtEn= 0.00D+00
 Coeff-Com:  0.950D-04-0.510D-03-0.937D-03-0.169D-02 0.482D-02 0.494D-01
 Coeff-Com:  0.284D+00 0.665D+00
 Coeff:      0.950D-04-0.510D-03-0.937D-03-0.169D-02 0.482D-02 0.494D-01
 Coeff:      0.284D+00 0.665D+00
 Gap=     0.216 Goal=   None    Shift=    0.000
 RMSDP=1.71D-06 MaxDP=6.62D-05 DE=-1.40D-06 OVMax= 1.66D-04

 Cycle   9  Pass 1  IDiag  1:
 RMSU=  9.77D-07    CP:  9.76D-01  9.28D-01  8.51D-01  5.56D-01  7.04D-01
                    CP:  7.33D-01  7.63D-01  7.65D-01
 E= -1633.62385841034     Delta-E=       -0.000000201439 Rises=F Damp=F
 DIIS: error= 4.46D-06 at cycle   9 NSaved=   9.
 NSaved= 9 IEnMin= 9 EnMin= -1633.62385841034     IErMin= 9 ErrMin= 4.46D-06
 ErrMax= 4.46D-06  0.00D+00 EMaxC= 1.00D-01 BMatC= 1.39D-08 BMatP= 1.84D-07
 IDIUse=1 WtCom= 1.00D+00 WtEn= 0.00D+00
 Coeff-Com:  0.101D-03-0.269D-03-0.147D-02-0.279D-02-0.480D-02 0.389D-02
 Coeff-Com:  0.101D+00 0.323D+00 0.581D+00
 Coeff:      0.101D-03-0.269D-03-0.147D-02-0.279D-02-0.480D-02 0.389D-02
 Coeff:      0.101D+00 0.323D+00 0.581D+00
 Gap=     0.216 Goal=   None    Shift=    0.000
 RMSDP=4.54D-07 MaxDP=2.08D-05 DE=-2.01D-07 OVMax= 3.50D-05

 Cycle  10  Pass 1  IDiag  1:
 RMSU=  3.06D-07    CP:  9.76D-01  9.28D-01  8.51D-01  5.56D-01  7.04D-01
                    CP:  7.38D-01  7.70D-01  8.03D-01  8.11D-01
 E= -1633.62385842391     Delta-E=       -0.000000013566 Rises=F Damp=F
 DIIS: error= 1.34D-06 at cycle  10 NSaved=  10.
 NSaved=10 IEnMin=10 EnMin= -1633.62385842391     IErMin=10 ErrMin= 1.34D-06
 ErrMax= 1.34D-06  0.00D+00 EMaxC= 1.00D-01 BMatC= 1.15D-09 BMatP= 1.39D-08
 IDIUse=1 WtCom= 1.00D+00 WtEn= 0.00D+00
 Coeff-Com:  0.338D-04-0.583D-04-0.516D-03-0.104D-02-0.249D-02-0.346D-02
 Coeff-Com:  0.120D-01 0.679D-01 0.262D+00 0.666D+00
 Coeff:      0.338D-04-0.583D-04-0.516D-03-0.104D-02-0.249D-02-0.346D-02
 Coeff:      0.120D-01 0.679D-01 0.262D+00 0.666D+00
 Gap=     0.216 Goal=   None    Shift=    0.000
 RMSDP=1.39D-07 MaxDP=5.20D-06 DE=-1.36D-08 OVMax= 1.58D-05

 Cycle  11  Pass 1  IDiag  1:
 RMSU=  9.66D-08    CP:  9.76D-01  9.28D-01  8.51D-01  5.56D-01  7.05D-01
                    CP:  7.38D-01  7.75D-01  8.16D-01  8.47D-01  8.01D-01
 E= -1633.62385842515     Delta-E=       -0.000000001243 Rises=F Damp=F
 DIIS: error= 3.28D-07 at cycle  11 NSaved=  11.
 NSaved=11 IEnMin=11 EnMin= -1633.62385842515     IErMin=11 ErrMin= 3.28D-07
 ErrMax= 3.28D-07  0.00D+00 EMaxC= 1.00D-01 BMatC= 7.16D-11 BMatP= 1.15D-09
 IDIUse=1 WtCom= 1.00D+00 WtEn= 0.00D+00
 Coeff-Com:  0.392D-05 0.134D-05-0.653D-04-0.149D-03-0.461D-03-0.158D-02
 Coeff-Com: -0.467D-02-0.340D-02 0.471D-01 0.252D+00 0.711D+00
 Coeff:      0.392D-05 0.134D-05-0.653D-04-0.149D-03-0.461D-03-0.158D-02
 Coeff:     -0.467D-02-0.340D-02 0.471D-01 0.252D+00 0.711D+00
 Gap=     0.216 Goal=   None    Shift=    0.000
 RMSDP=4.47D-08 MaxDP=1.94D-06 DE=-1.24D-09 OVMax= 4.49D-06

 Cycle  12  Pass 1  IDiag  1:
 RMSU=  2.96D-08    CP:  9.76D-01  9.28D-01  8.51D-01  5.56D-01  7.05D-01
                    CP:  7.38D-01  7.75D-01  8.18D-01  8.68D-01  8.59D-01
                    CP:  8.51D-01
 E= -1633.62385842522     Delta-E=       -0.000000000072 Rises=F Damp=F
 DIIS: error= 1.01D-07 at cycle  12 NSaved=  12.
 NSaved=12 IEnMin=12 EnMin= -1633.62385842522     IErMin=12 ErrMin= 1.01D-07
 ErrMax= 1.01D-07  0.00D+00 EMaxC= 1.00D-01 BMatC= 1.16D-11 BMatP= 7.16D-11
 IDIUse=1 WtCom= 1.00D+00 WtEn= 0.00D+00
 Coeff-Com: -0.158D-05 0.660D-05 0.221D-04 0.380D-04 0.548D-04-0.381D-03
 Coeff-Com: -0.347D-02-0.873D-02-0.476D-02 0.534D-01 0.338D+00 0.626D+00
 Coeff:     -0.158D-05 0.660D-05 0.221D-04 0.380D-04 0.548D-04-0.381D-03
 Coeff:     -0.347D-02-0.873D-02-0.476D-02 0.534D-01 0.338D+00 0.626D+00
 Gap=     0.216 Goal=   None    Shift=    0.000
 RMSDP=1.59D-08 MaxDP=6.00D-07 DE=-7.23D-11 OVMax= 2.20D-06

 Cycle  13  Pass 1  IDiag  1:
 RMSU=  1.17D-08    CP:  9.76D-01  9.28D-01  8.51D-01  5.56D-01  7.05D-01
                    CP:  7.38D-01  7.75D-01  8.18D-01  8.72D-01  8.69D-01
                    CP:  9.15D-01  7.86D-01
 E= -1633.62385842524     Delta-E=       -0.000000000019 Rises=F Damp=F
 DIIS: error= 5.71D-08 at cycle  13 NSaved=  13.
 NSaved=13 IEnMin=13 EnMin= -1633.62385842524     IErMin=13 ErrMin= 5.71D-08
 ErrMax= 5.71D-08  0.00D+00 EMaxC= 1.00D-01 BMatC= 2.16D-12 BMatP= 1.16D-11
 IDIUse=1 WtCom= 1.00D+00 WtEn= 0.00D+00
 Coeff-Com: -0.129D-05 0.339D-05 0.188D-04 0.378D-04 0.813D-04-0.371D-04
 Coeff-Com: -0.137D-02-0.450D-02-0.868D-02-0.232D-02 0.934D-01 0.347D+00
 Coeff-Com:  0.576D+00
 Coeff:     -0.129D-05 0.339D-05 0.188D-04 0.378D-04 0.813D-04-0.371D-04
 Coeff:     -0.137D-02-0.450D-02-0.868D-02-0.232D-02 0.934D-01 0.347D+00
 Coeff:      0.576D+00
 Gap=     0.216 Goal=   None    Shift=    0.000
 RMSDP=6.39D-09 MaxDP=2.33D-07 DE=-1.91D-11 OVMax= 6.18D-07

 Error on total polarization charges =  0.01884
 SCF Done:  E(RB3LYP) =  -1633.62385843     A.U. after   13 cycles
            NFock= 13  Conv=0.64D-08     -V/T= 2.0060
 KE= 1.623915534442D+03 PE=-7.282238666575D+03 EE= 2.292544329433D+03
 Leave Link  502 at Sun Jul 11 15:55:38 2021, MaxMem=   104857600 cpu:             331.8 elap:              83.0
 (Enter /prod/apps/gaussian/g16b1/l601.exe)
 Copying SCF densities to generalized density rwf, IOpCl= 0 IROHF=0.

 **********************************************************************

            Population analysis using the SCF Density.

 **********************************************************************

 Orbital symmetries:
       Occupied  (A) (A) (A) (A) (A) (A) (A) (A) (A) (A) (A) (A)
                 (A) (A) (A) (A) (A) (A) (A) (A) (A) (A) (A) (A)
                 (A) (A) (A) (A) (A) (A) (A) (A) (A) (A) (A) (A)
                 (A) (A) (A) (A) (A) (A) (A) (A) (A) (A) (A) (A)
                 (A) (A) (A) (A) (A) (A) (A) (A) (A) (A) (A) (A)
                 (A) (A) (A) (A) (A) (A) (A) (A) (A) (A) (A) (A)
                 (A) (A) (A) (A) (A) (A) (A) (A)
       Virtual   (A) (A) (A) (A) (A) (A) (A) (A) (A) (A) (A) (A)
                 (A) (A) (A) (A) (A) (A) (A) (A) (A) (A) (A) (A)
                 (A) (A) (A) (A) (A) (A) (A) (A) (A) (A) (A) (A)
                 (A) (A) (A) (A) (A) (A) (A) (A) (A) (A) (A) (A)
                 (A) (A) (A) (A) (A) (A) (A) (A) (A) (A) (A) (A)
                 (A) (A) (A) (A) (A) (A) (A) (A) (A) (A) (A) (A)
                 (A) (A) (A) (A) (A) (A) (A) (A) (A) (A) (A) (A)
                 (A) (A) (A) (A) (A) (A) (A) (A) (A) (A) (A) (A)
                 (A) (A) (A) (A) (A) (A) (A) (A) (A) (A) (A) (A)
                 (A) (A) (A) (A) (A) (A) (A) (A) (A) (A) (A) (A)
                 (A) (A) (A) (A) (A) (A) (A) (A) (A) (A) (A) (A)
                 (A) (A) (A) (A) (A) (A) (A) (A) (A) (A) (A) (A)
                 (A) (A) (A) (A) (A) (A) (A) (A) (A) (A) (A) (A)
                 (A) (A) (A) (A) (A) (A) (A) (A) (A) (A) (A) (A)
                 (A) (A) (A) (A) (A) (A) (A) (A) (A) (A) (A) (A)
                 (A) (A) (A) (A) (A) (A) (A) (A) (A) (A) (A) (A)
                 (A) (A) (A) (A) (A) (A) (A) (A) (A) (A) (A) (A)
                 (A) (A) (A) (A) (A) (A) (A) (A) (A) (A) (A) (A)
                 (A) (A) (A) (A) (A) (A) (A) (A) (A) (A) (A) (A)
                 (A) (A) (A) (A) (A) (A) (A) (A) (A) (A) (A) (A)
                 (A) (A) (A) (A) (A) (A) (A) (A) (A) (A) (A) (A)
                 (A) (A) (A) (A) (A) (A) (A) (A) (A) (A) (A) (A)
 The electronic state is 1-A.
 Alpha  occ. eigenvalues -- -101.56181-101.56010 -14.45455 -10.26826 -10.26712
 Alpha  occ. eigenvalues --  -10.25841 -10.24560 -10.21775 -10.21460 -10.21435
 Alpha  occ. eigenvalues --  -10.21233 -10.21226 -10.21074 -10.20422 -10.20298
 Alpha  occ. eigenvalues --  -10.19858 -10.19846 -10.19800 -10.19620 -10.19157
 Alpha  occ. eigenvalues --   -9.47834  -9.47656  -7.24235  -7.24055  -7.23262
 Alpha  occ. eigenvalues --   -7.23215  -7.23089  -7.23039  -1.01803  -0.92058
 Alpha  occ. eigenvalues --   -0.87958  -0.86708  -0.85112  -0.82690  -0.79143
 Alpha  occ. eigenvalues --   -0.75741  -0.75318  -0.74711  -0.73162  -0.70954
 Alpha  occ. eigenvalues --   -0.65733  -0.63437  -0.62663  -0.61857  -0.59744
 Alpha  occ. eigenvalues --   -0.58233  -0.56996  -0.54184  -0.51937  -0.51379
 Alpha  occ. eigenvalues --   -0.50036  -0.48833  -0.48127  -0.46917  -0.46396
 Alpha  occ. eigenvalues --   -0.44469  -0.44242  -0.43913  -0.43256  -0.42149
 Alpha  occ. eigenvalues --   -0.41967  -0.41520  -0.41090  -0.39549  -0.38783
 Alpha  occ. eigenvalues --   -0.38153  -0.37731  -0.36782  -0.36298  -0.35579
 Alpha  occ. eigenvalues --   -0.35417  -0.34146  -0.33232  -0.32040  -0.31538
 Alpha  occ. eigenvalues --   -0.31224  -0.26436  -0.25787  -0.25149  -0.24630
 Alpha virt. eigenvalues --   -0.03034  -0.02588  -0.01900  -0.01122   0.00791
 Alpha virt. eigenvalues --    0.05917   0.05997   0.08511   0.08977   0.09997
 Alpha virt. eigenvalues --    0.10580   0.11287   0.11958   0.12688   0.13410
 Alpha virt. eigenvalues --    0.13764   0.14317   0.15022   0.15420   0.15960
 Alpha virt. eigenvalues --    0.16252   0.16910   0.18053   0.18388   0.18489
 Alpha virt. eigenvalues --    0.19441   0.20651   0.21548   0.22616   0.23315
 Alpha virt. eigenvalues --    0.24593   0.24976   0.25632   0.27067   0.28671
 Alpha virt. eigenvalues --    0.28906   0.29458   0.31846   0.32544   0.33209
 Alpha virt. eigenvalues --    0.33954   0.35173   0.36727   0.37547   0.40397
 Alpha virt. eigenvalues --    0.41269   0.41419   0.44626   0.45560   0.46231
 Alpha virt. eigenvalues --    0.46701   0.48162   0.48816   0.49012   0.50022
 Alpha virt. eigenvalues --    0.50408   0.52113   0.52276   0.52846   0.52938
 Alpha virt. eigenvalues --    0.53708   0.55076   0.55630   0.56896   0.56970
 Alpha virt. eigenvalues --    0.57259   0.57955   0.58893   0.59882   0.60282
 Alpha virt. eigenvalues --    0.60633   0.60973   0.61162   0.61651   0.62759
 Alpha virt. eigenvalues --    0.62865   0.63962   0.64805   0.66905   0.67733
 Alpha virt. eigenvalues --    0.69220   0.69757   0.69845   0.70967   0.73052
 Alpha virt. eigenvalues --    0.73705   0.75450   0.75852   0.77527   0.79124
 Alpha virt. eigenvalues --    0.80700   0.81391   0.81874   0.81945   0.82735
 Alpha virt. eigenvalues --    0.83467   0.83700   0.83790   0.84393   0.84679
 Alpha virt. eigenvalues --    0.85003   0.85983   0.86074   0.86468   0.87519
 Alpha virt. eigenvalues --    0.87941   0.88109   0.88800   0.89899   0.90867
 Alpha virt. eigenvalues --    0.91703   0.92168   0.92325   0.92961   0.95432
 Alpha virt. eigenvalues --    0.95812   0.96556   0.97966   0.98324   1.00052
 Alpha virt. eigenvalues --    1.00287   1.00799   1.01975   1.02826   1.03206
 Alpha virt. eigenvalues --    1.04916   1.05454   1.06784   1.08573   1.08970
 Alpha virt. eigenvalues --    1.11326   1.12710   1.14539   1.15037   1.16431
 Alpha virt. eigenvalues --    1.17628   1.19123   1.21291   1.23347   1.24292
 Alpha virt. eigenvalues --    1.27237   1.27689   1.29025   1.30490   1.31624
 Alpha virt. eigenvalues --    1.33532   1.36443   1.40334   1.41147   1.42743
 Alpha virt. eigenvalues --    1.44592   1.45950   1.47500   1.48694   1.49991
 Alpha virt. eigenvalues --    1.50185   1.50835   1.52468   1.54779   1.58469
 Alpha virt. eigenvalues --    1.59925   1.62261   1.63466   1.67312   1.69395
 Alpha virt. eigenvalues --    1.70575   1.72687   1.74008   1.75263   1.76666
 Alpha virt. eigenvalues --    1.78197   1.78903   1.81311   1.81677   1.84595
 Alpha virt. eigenvalues --    1.86908   1.87598   1.89289   1.90339   1.91033
 Alpha virt. eigenvalues --    1.92399   1.93382   1.94010   1.95035   1.96019
 Alpha virt. eigenvalues --    1.97389   2.00162   2.02561   2.04184   2.05012
 Alpha virt. eigenvalues --    2.06480   2.07316   2.08900   2.10905   2.11203
 Alpha virt. eigenvalues --    2.12921   2.13356   2.15313   2.15959   2.17945
 Alpha virt. eigenvalues --    2.20249   2.21502   2.22560   2.24588   2.27134
 Alpha virt. eigenvalues --    2.27795   2.28515   2.29439   2.30014   2.30902
 Alpha virt. eigenvalues --    2.32842   2.33991   2.35676   2.38700   2.41692
 Alpha virt. eigenvalues --    2.45086   2.46551   2.48894   2.53403   2.54585
 Alpha virt. eigenvalues --    2.57504   2.57847   2.60230   2.61461   2.62734
 Alpha virt. eigenvalues --    2.63538   2.63923   2.66062   2.67753   2.70290
 Alpha virt. eigenvalues --    2.71783   2.73976   2.76015   2.78386   2.78966
 Alpha virt. eigenvalues --    2.80913   2.84166   2.86170   2.90479   2.91872
 Alpha virt. eigenvalues --    3.07105   3.11287   3.32422   3.36548   3.90655
 Alpha virt. eigenvalues --    4.00977   4.08543   4.09294   4.11944   4.13229
 Alpha virt. eigenvalues --    4.15921   4.21375   4.22894   4.25957   4.27036
 Alpha virt. eigenvalues --    4.31040   4.32543   4.34879   4.39245   4.41757
 Alpha virt. eigenvalues --    4.54517   4.56482   4.67748   4.72653
          Condensed to atoms (all electrons):
               1          2          3          4          5          6
     1  C    5.017748   0.379192   0.378911   0.381505   0.247594  -0.019760
     2  H    0.379192   0.481555  -0.026976  -0.024673  -0.025531  -0.002114
     3  H    0.378911  -0.026976   0.468978  -0.026742  -0.022398   0.002488
     4  H    0.381505  -0.024673  -0.026742   0.476735  -0.027984  -0.002558
     5  N    0.247594  -0.025531  -0.022398  -0.027984   6.757984   0.295309
     6  H   -0.019760  -0.002114   0.002488  -0.002558   0.295309   0.284514
     7  C   -0.028451   0.003145  -0.000570  -0.003913   0.226782  -0.021635
     8  C    0.003067  -0.000078   0.000014  -0.000092  -0.041065   0.000611
     9  C   -0.000034   0.000001  -0.000001   0.000000   0.000756   0.000367
    10  C    0.000001  -0.000000  -0.000000   0.000000  -0.000022  -0.000028
    11  C    0.000000   0.000000   0.000000  -0.000000  -0.000015   0.000002
    12  C   -0.000000  -0.000000  -0.000000   0.000000   0.000584  -0.000097
    13  C    0.000182  -0.000015  -0.000007   0.000002  -0.006709   0.000783
    14  H   -0.000089   0.000034   0.000033  -0.000009  -0.000185   0.000274
    15  H   -0.000000   0.000000  -0.000000   0.000000   0.000000  -0.000000
    16  H    0.000000  -0.000000  -0.000000   0.000000   0.000000   0.000000
    17  H   -0.000000   0.000000   0.000000   0.000000   0.000000   0.000000
    18  H   -0.002179  -0.000029   0.002774  -0.000227  -0.043386   0.004899
    19  C   -0.001895  -0.000040  -0.000521   0.004483  -0.046571  -0.004227
    20  H   -0.001030  -0.000057   0.000093   0.000832  -0.002884   0.005946
    21  H    0.001449   0.000021   0.000087   0.000101  -0.000789  -0.000346
    22  C    0.000063  -0.000002  -0.000012   0.000003   0.003351  -0.000058
    23  H   -0.000003  -0.000000  -0.000000   0.000004  -0.000109  -0.000009
    24  H   -0.000018   0.000000   0.000001   0.000004   0.000234   0.000023
    25  C    0.000005   0.000000   0.000000  -0.000000  -0.000143   0.000023
    26  H   -0.000002   0.000000  -0.000000   0.000000   0.000068  -0.000013
    27  C    0.000000  -0.000000  -0.000000   0.000000  -0.000002   0.000001
    28  C   -0.000000   0.000000  -0.000000  -0.000000   0.000000  -0.000000
    29  H    0.000000   0.000000  -0.000000   0.000000   0.000000  -0.000000
    30  C   -0.000000  -0.000000  -0.000000  -0.000000   0.000000  -0.000000
    31  Cl   0.000000   0.000000  -0.000000   0.000000  -0.000000  -0.000000
    32  C    0.000000  -0.000000   0.000000   0.000000  -0.000000   0.000000
    33  Cl   0.000000  -0.000000  -0.000000  -0.000000   0.000000  -0.000000
    34  C   -0.000000  -0.000000  -0.000000  -0.000000   0.000000  -0.000000
    35  H   -0.000000   0.000000   0.000000   0.000000  -0.000000  -0.000000
    36  C    0.000000   0.000000  -0.000000   0.000000  -0.000000  -0.000000
    37  H    0.000000   0.000000  -0.000000   0.000000  -0.000000  -0.000000
    38  H   -0.020758  -0.002732  -0.001606   0.002837   0.289498  -0.011564
               7          8          9         10         11         12
     1  C   -0.028451   0.003067  -0.000034   0.000001   0.000000  -0.000000
     2  H    0.003145  -0.000078   0.000001  -0.000000   0.000000  -0.000000
     3  H   -0.000570   0.000014  -0.000001  -0.000000   0.000000  -0.000000
     4  H   -0.003913  -0.000092   0.000000   0.000000  -0.000000   0.000000
     5  N    0.226782  -0.041065   0.000756  -0.000022  -0.000015   0.000584
     6  H   -0.021635   0.000611   0.000367  -0.000028   0.000002  -0.000097
     7  C    5.075325   0.341452  -0.035560   0.007747   0.000115   0.006147
     8  C    0.341452   4.876979   0.537647  -0.036216  -0.042295  -0.026617
     9  C   -0.035560   0.537647   4.812807   0.511038  -0.017431  -0.044446
    10  C    0.007747  -0.036216   0.511038   5.021200   0.501350  -0.027291
    11  C    0.000115  -0.042295  -0.017431   0.501350   4.903274   0.543290
    12  C    0.006147  -0.026617  -0.044446  -0.027291   0.543290   4.853359
    13  C   -0.067289   0.491424  -0.023784  -0.051324  -0.028939   0.539231
    14  H   -0.007593  -0.057490   0.004248   0.000550   0.003921  -0.024567
    15  H   -0.000251   0.004359   0.000854   0.004162  -0.039112   0.361515
    16  H    0.000007   0.000846   0.004063  -0.041230   0.361118  -0.040787
    17  H   -0.000123   0.004523  -0.039532   0.358790  -0.038558   0.003852
    18  H    0.369959  -0.045605  -0.000140  -0.000474   0.000130  -0.000415
    19  C    0.345420  -0.033238  -0.014842  -0.000235  -0.000001  -0.000146
    20  H   -0.044426  -0.002349   0.000591  -0.000032   0.000000  -0.000001
    21  H   -0.017979   0.003138   0.000209   0.000011  -0.000000   0.000002
    22  C   -0.038231  -0.011739  -0.028218   0.003844  -0.000181   0.000007
    23  H    0.005181   0.000347   0.003970  -0.000067   0.000001   0.000000
    24  H   -0.006233  -0.002252  -0.004339   0.000264  -0.000021  -0.000001
    25  C   -0.024358  -0.036567   0.316930  -0.063880   0.006505   0.000119
    26  H    0.000901  -0.002491  -0.037948  -0.001046  -0.000279   0.000097
    27  C    0.000186   0.002647  -0.032401  -0.002511   0.000310  -0.000011
    28  C   -0.000042   0.000431  -0.007130  -0.003512   0.000113  -0.000005
    29  H   -0.000003  -0.000059   0.004342   0.001946  -0.000055  -0.000005
    30  C    0.000000   0.000000   0.000330  -0.000215  -0.000004   0.000000
    31  Cl  -0.000000  -0.000000  -0.000006   0.000028   0.000000  -0.000000
    32  C    0.000000   0.000000  -0.000002  -0.000024  -0.000000   0.000000
    33  Cl   0.000000   0.000000  -0.000000   0.000000   0.000000  -0.000000
    34  C   -0.000000   0.000002  -0.000054  -0.000015  -0.000001   0.000000
[...]
 Rotational constants (GHZ):           0.5741943           0.1347013           0.1262236
 Leave Link  202 at Sun Jul 11 16:44:20 2021, MaxMem=   262144000 cpu:               0.0 elap:               0.0
 (Enter /prod/apps/gaussian/g16b1/l301.exe)
 Standard basis: Aug-CC-pVDZ (5D, 7F)
 Ernie: Thresh=  0.10000D-02 Tol=  0.10000D-05 Strict=F.
 Ernie:  56 primitive shells out of 682 were deleted.
 There are   670 symmetry adapted cartesian basis functions of A   symmetry.
 There are   630 symmetry adapted basis functions of A   symmetry.
   630 basis functions,  1134 primitive gaussians,   670 cartesian basis functions
    80 alpha electrons       80 beta electrons
       nuclear repulsion energy      1737.6892447630 Hartrees.
 IExCor=    0 DFT=F Ex=HF Corr=None ExCW=0 ScaHFX=  1.000000
 ScaDFX=  1.000000  1.000000  1.000000  1.000000 ScalE2=  1.000000  1.000000
 IRadAn=      5 IRanWt=     -1 IRanGd=            0 ICorTp=0 IEmpDi=  4
 NAtoms=   38 NActive=   38 NUniq=   38 SFac= 1.00D+00 NAtFMM=   60 NAOKFM=F Big=F
 Integral buffers will be    131072 words long.
 Raffenetti 1 integral format.
 Two-electron integral symmetry is turned on.
 Leave Link  301 at Sun Jul 11 16:44:20 2021, MaxMem=   262144000 cpu:               0.2 elap:               0.1
 (Enter /prod/apps/gaussian/g16b1/l302.exe)
 NPDir=0 NMtPBC=     1 NCelOv=     1 NCel=       1 NClECP=     1 NCelD=      1
         NCelK=      1 NCelE2=     1 NClLst=     1 CellRange=     0.0.
 One-electron integrals computed using PRISM.
 One-electron integral symmetry used in STVInt
 NBasis=   630 RedAO= T EigKep=  1.30D-06  NBF=   630
 NBsUse=   627 1.00D-06 EigRej=  9.50D-07 NBFU=   627
 Leave Link  302 at Sun Jul 11 16:44:20 2021, MaxMem=   262144000 cpu:               2.0 elap:               0.5
 (Enter /prod/apps/gaussian/g16b1/l303.exe)
 DipDrv:  MaxL=1.
 Leave Link  303 at Sun Jul 11 16:44:20 2021, MaxMem=   262144000 cpu:               0.4 elap:               0.1
 (Enter /prod/apps/gaussian/g16b1/l401.exe)
 ExpMin= 2.97D-02 ExpMax= 1.28D+05 ExpMxC= 1.24D+03 IAcc=3 IRadAn=         5 AccDes= 0.00D+00
 Harris functional with IExCor=  205 and IRadAn=       5 diagonalized for initial guess.
 HarFok:  IExCor=  205 AccDes= 0.00D+00 IRadAn=         5 IDoV= 1 UseB2=F ITyADJ=14
 ICtDFT=  3500011 ScaDFX=  1.000000  1.000000  1.000000  1.000000
 FoFCou: FMM=F IPFlag=           0 FMFlag=      100000 FMFlg1=           0
         NFxFlg=           0 DoJE=T BraDBF=F KetDBF=T FulRan=T
         wScrn=  0.000000 ICntrl=       500 IOpCl=  0 I1Cent=   200000004 NGrid=           0
         NMat0=    1 NMatS0=      1 NMatT0=    0 NMatD0=    1 NMtDS0=    0 NMtDT0=    0
 Petite list used in FoFCou.
 Harris En= -1627.73869727840    
 JPrj=0 DoOrth=F DoCkMO=F.
 Leave Link  401 at Sun Jul 11 16:44:25 2021, MaxMem=   262144000 cpu:              19.5 elap:               4.9
 (Enter /prod/apps/gaussian/g16b1/l502.exe)
 Integral symmetry usage will be decided dynamically.
 Closed shell SCF:
 Using DIIS extrapolation, IDIIS=  1040.
 NGot=   262144000 LenX=   261235912 LenY=   260786342
 Requested convergence on RMS density matrix=1.00D-08 within 128 cycles.
 Requested convergence on MAX density matrix=1.00D-06.
 Requested convergence on             energy=1.00D-06.
 No special actions if energy rises.
 Fock matrices will be formed incrementally for  20 cycles.

 Cycle   1  Pass 1  IDiag  1:
 FoFJK:  IHMeth= 1 ICntrl=       0 DoSepK=F KAlg= 0 I1Cent=           0 FoldK=F
 IRaf= 930000000 NMat=       1 IRICut=       1 DoRegI=T DoRafI=F ISym2E= 0 IDoP0=0 IntGTp=1.
 FoFCou: FMM=F IPFlag=           0 FMFlag=      100000 FMFlg1=           0
         NFxFlg=           0 DoJE=F BraDBF=F KetDBF=F FulRan=T
         wScrn=  0.000000 ICntrl=         0 IOpCl=  0 I1Cent=           0 NGrid=           0
         NMat0=    1 NMatS0=      1 NMatT0=    0 NMatD0=    1 NMtDS0=    0 NMtDT0=    0
 Symmetry not used in FoFCou.
 E= -1626.82332344138    
 DIIS: error= 1.78D-02 at cycle   1 NSaved=   1.
 NSaved= 1 IEnMin= 1 EnMin= -1626.82332344138     IErMin= 1 ErrMin= 1.78D-02
 ErrMax= 1.78D-02  0.00D+00 EMaxC= 1.00D-01 BMatC= 9.41D-01 BMatP= 9.41D-01
 IDIUse=3 WtCom= 8.22D-01 WtEn= 1.78D-01
 Coeff-Com:  0.100D+01
 Coeff-En:   0.100D+01
 Coeff:      0.100D+01
 Gap=     0.559 Goal=   None    Shift=    0.000
 GapD=    0.559 DampG=2.000 DampE=0.500 DampFc=1.0000 IDamp=-1.
 RMSDP=6.82D-02 MaxDP=6.56D+00              OVMax= 1.88D-01

 Cycle   2  Pass 1  IDiag  1:
 RMSU=  3.53D-02    CP:  5.27D-01
 E= -1627.42399070109     Delta-E=       -0.600667259715 Rises=F Damp=F
 DIIS: error= 9.02D-03 at cycle   2 NSaved=   2.
 NSaved= 2 IEnMin= 2 EnMin= -1627.42399070109     IErMin= 2 ErrMin= 9.02D-03
 ErrMax= 9.02D-03  0.00D+00 EMaxC= 1.00D-01 BMatC= 1.36D-01 BMatP= 9.41D-01
 IDIUse=3 WtCom= 9.10D-01 WtEn= 9.02D-02
 Coeff-Com:  0.215D+00 0.785D+00
 Coeff-En:   0.000D+00 0.100D+01
 Coeff:      0.195D+00 0.805D+00
 Gap=     0.388 Goal=   None    Shift=    0.000
 RMSDP=8.91D-03 MaxDP=6.90D-01 DE=-6.01D-01 OVMax= 9.18D-02

 Cycle   3  Pass 1  IDiag  1:
 RMSU=  8.77D-03    CP:  5.21D-01  9.61D-01
 E= -1627.55809090820     Delta-E=       -0.134100207106 Rises=F Damp=F
 DIIS: error= 2.08D-03 at cycle   3 NSaved=   3.
 NSaved= 3 IEnMin= 3 EnMin= -1627.55809090820     IErMin= 3 ErrMin= 2.08D-03
 ErrMax= 2.08D-03  0.00D+00 EMaxC= 1.00D-01 BMatC= 1.21D-02 BMatP= 1.36D-01
 IDIUse=3 WtCom= 9.79D-01 WtEn= 2.08D-02
 Coeff-Com: -0.207D-01 0.186D+00 0.835D+00
 Coeff-En:   0.000D+00 0.000D+00 0.100D+01
 Coeff:     -0.202D-01 0.182D+00 0.839D+00
 Gap=     0.336 Goal=   None    Shift=    0.000
 RMSDP=2.96D-03 MaxDP=2.77D-01 DE=-1.34D-01 OVMax= 3.61D-02

 Cycle   4  Pass 1  IDiag  1:
 RMSU=  1.86D-03    CP:  5.14D-01  1.01D+00  8.48D-01
 E= -1627.57155543501     Delta-E=       -0.013464526816 Rises=F Damp=F
 DIIS: error= 5.92D-04 at cycle   4 NSaved=   4.
 NSaved= 4 IEnMin= 4 EnMin= -1627.57155543501     IErMin= 4 ErrMin= 5.92D-04
 ErrMax= 5.92D-04  0.00D+00 EMaxC= 1.00D-01 BMatC= 9.25D-04 BMatP= 1.21D-02
 IDIUse=3 WtCom= 9.94D-01 WtEn= 5.92D-03
 Coeff-Com: -0.140D-01 0.246D-01 0.254D+00 0.735D+00
 Coeff-En:   0.000D+00 0.000D+00 0.000D+00 0.100D+01
 Coeff:     -0.139D-01 0.245D-01 0.253D+00 0.737D+00
 Gap=     0.330 Goal=   None    Shift=    0.000
 RMSDP=5.63D-04 MaxDP=5.67D-02 DE=-1.35D-02 OVMax= 7.81D-03

 Cycle   5  Pass 1  IDiag  1:
 RMSU=  4.62D-04    CP:  5.12D-01  1.01D+00  8.60D-01  9.53D-01
 E= -1627.57262038233     Delta-E=       -0.001064947314 Rises=F Damp=F
 DIIS: error= 2.48D-04 at cycle   5 NSaved=   5.
 NSaved= 5 IEnMin= 5 EnMin= -1627.57262038233     IErMin= 5 ErrMin= 2.48D-04
 ErrMax= 2.48D-04  0.00D+00 EMaxC= 1.00D-01 BMatC= 8.55D-05 BMatP= 9.25D-04
 IDIUse=3 WtCom= 9.98D-01 WtEn= 2.48D-03
 Coeff-Com: -0.338D-03-0.180D-01-0.469D-01 0.143D+00 0.923D+00
 Coeff-En:   0.000D+00 0.000D+00 0.000D+00 0.000D+00 0.100D+01
 Coeff:     -0.337D-03-0.180D-01-0.468D-01 0.142D+00 0.923D+00
 Gap=     0.331 Goal=   None    Shift=    0.000
 RMSDP=2.36D-04 MaxDP=2.12D-02 DE=-1.06D-03 OVMax= 4.37D-03

 Cycle   6  Pass 1  IDiag  1:
 RMSU=  1.43D-04    CP:  5.12D-01  1.01D+00  8.67D-01  1.03D+00  9.56D-01
 E= -1627.57276316773     Delta-E=       -0.000142785399 Rises=F Damp=F
 DIIS: error= 6.04D-05 at cycle   6 NSaved=   6.
 NSaved= 6 IEnMin= 6 EnMin= -1627.57276316773     IErMin= 6 ErrMin= 6.04D-05
 ErrMax= 6.04D-05  0.00D+00 EMaxC= 1.00D-01 BMatC= 9.91D-06 BMatP= 8.55D-05
 IDIUse=1 WtCom= 1.00D+00 WtEn= 0.00D+00
 Coeff-Com:  0.131D-02-0.736D-02-0.360D-01-0.474D-01 0.212D+00 0.877D+00
 Coeff:      0.131D-02-0.736D-02-0.360D-01-0.474D-01 0.212D+00 0.877D+00
 Gap=     0.331 Goal=   None    Shift=    0.000
 RMSDP=7.47D-05 MaxDP=4.97D-03 DE=-1.43D-04 OVMax= 1.39D-03

 Cycle   7  Pass 1  IDiag  1:
 RMSU=  5.91D-05    CP:  5.11D-01  1.01D+00  8.70D-01  1.04D+00  1.02D+00
                    CP:  1.12D+00
 E= -1627.57278231717     Delta-E=       -0.000019149446 Rises=F Damp=F
 DIIS: error= 2.58D-05 at cycle   7 NSaved=   7.
 NSaved= 7 IEnMin= 7 EnMin= -1627.57278231717     IErMin= 7 ErrMin= 2.58D-05
 ErrMax= 2.58D-05  0.00D+00 EMaxC= 1.00D-01 BMatC= 1.04D-06 BMatP= 9.91D-06
 IDIUse=1 WtCom= 1.00D+00 WtEn= 0.00D+00
 Coeff-Com:  0.217D-03 0.347D-03-0.479D-03-0.224D-01-0.555D-01 0.118D+00
 Coeff-Com:  0.959D+00
 Coeff:      0.217D-03 0.347D-03-0.479D-03-0.224D-01-0.555D-01 0.118D+00
 Coeff:      0.959D+00
 Gap=     0.331 Goal=   None    Shift=    0.000
 RMSDP=2.57D-05 MaxDP=2.02D-03 DE=-1.91D-05 OVMax= 8.73D-04

 Cycle   8  Pass 1  IDiag  1:
 RMSU=  1.85D-05    CP:  5.11D-01  1.01D+00  8.70D-01  1.04D+00  1.03D+00
                    CP:  1.21D+00  1.11D+00
 E= -1627.57278545576     Delta-E=       -0.000003138592 Rises=F Damp=F
 DIIS: error= 1.32D-05 at cycle   8 NSaved=   8.
 NSaved= 8 IEnMin= 8 EnMin= -1627.57278545576     IErMin= 8 ErrMin= 1.32D-05
 ErrMax= 1.32D-05  0.00D+00 EMaxC= 1.00D-01 BMatC= 2.22D-07 BMatP= 1.04D-06
 IDIUse=1 WtCom= 1.00D+00 WtEn= 0.00D+00
 Coeff-Com: -0.174D-03 0.114D-02 0.569D-02 0.531D-02-0.319D-01-0.132D+00
 Coeff-Com:  0.638D-01 0.109D+01
 Coeff:     -0.174D-03 0.114D-02 0.569D-02 0.531D-02-0.319D-01-0.132D+00
 Coeff:      0.638D-01 0.109D+01
 Gap=     0.331 Goal=   None    Shift=    0.000
 RMSDP=1.55D-05 MaxDP=1.27D-03 DE=-3.14D-06 OVMax= 4.64D-04

 Cycle   9  Pass 1  IDiag  1:
 RMSU=  1.03D-05    CP:  5.11D-01  1.01D+00  8.71D-01  1.04D+00  1.03D+00
                    CP:  1.24D+00  1.24D+00  1.22D+00
 E= -1627.57278637993     Delta-E=       -0.000000924168 Rises=F Damp=F
 DIIS: error= 6.89D-06 at cycle   9 NSaved=   9.
 NSaved= 9 IEnMin= 9 EnMin= -1627.57278637993     IErMin= 9 ErrMin= 6.89D-06
 ErrMax= 6.89D-06  0.00D+00 EMaxC= 1.00D-01 BMatC= 5.22D-08 BMatP= 2.22D-07
 IDIUse=1 WtCom= 1.00D+00 WtEn= 0.00D+00
 Coeff-Com: -0.842D-04 0.188D-03 0.138D-02 0.570D-02 0.587D-02-0.558D-01
 Coeff-Com: -0.194D+00 0.233D+00 0.100D+01
 Coeff:     -0.842D-04 0.188D-03 0.138D-02 0.570D-02 0.587D-02-0.558D-01
 Coeff:     -0.194D+00 0.233D+00 0.100D+01
 Gap=     0.331 Goal=   None    Shift=    0.000
 RMSDP=6.36D-06 MaxDP=3.72D-04 DE=-9.24D-07 OVMax= 3.07D-04

 Cycle  10  Pass 1  IDiag  1:
 RMSU=  4.00D-06    CP:  5.11D-01  1.01D+00  8.71D-01  1.04D+00  1.03D+00
                    CP:  1.24D+00  1.27D+00  1.38D+00  1.22D+00
 E= -1627.57278663233     Delta-E=       -0.000000252403 Rises=F Damp=F
 DIIS: error= 3.86D-06 at cycle  10 NSaved=  10.
 NSaved=10 IEnMin=10 EnMin= -1627.57278663233     IErMin=10 ErrMin= 3.86D-06
 ErrMax= 3.86D-06  0.00D+00 EMaxC= 1.00D-01 BMatC= 8.77D-09 BMatP= 5.22D-08
 IDIUse=1 WtCom= 1.00D+00 WtEn= 0.00D+00
 Coeff-Com:  0.407D-04-0.228D-03-0.125D-02-0.187D-02 0.526D-02 0.334D-01
 Coeff-Com:  0.123D-01-0.234D+00-0.143D+00 0.133D+01
 Coeff:      0.407D-04-0.228D-03-0.125D-02-0.187D-02 0.526D-02 0.334D-01
 Coeff:      0.123D-01-0.234D+00-0.143D+00 0.133D+01
 Gap=     0.331 Goal=   None    Shift=    0.000
 RMSDP=3.70D-06 MaxDP=1.74D-04 DE=-2.52D-07 OVMax= 1.55D-04

 Cycle  11  Pass 1  IDiag  1:
 RMSU=  1.98D-06    CP:  5.11D-01  1.01D+00  8.71D-01  1.04D+00  1.04D+00
                    CP:  1.25D+00  1.28D+00  1.42D+00  1.45D+00  1.37D+00
 E= -1627.57278669241     Delta-E=       -0.000000060078 Rises=F Damp=F
 DIIS: error= 1.22D-06 at cycle  11 NSaved=  11.
 NSaved=11 IEnMin=11 EnMin= -1627.57278669241     IErMin=11 ErrMin= 1.22D-06
 ErrMax= 1.22D-06  0.00D+00 EMaxC= 1.00D-01 BMatC= 1.51D-09 BMatP= 8.77D-09
 IDIUse=1 WtCom= 1.00D+00 WtEn= 0.00D+00
 Coeff-Com:  0.208D-04-0.615D-04-0.415D-03-0.130D-02-0.617D-03 0.144D-01
 Coeff-Com:  0.377D-01-0.658D-01-0.215D+00 0.114D+00 0.112D+01
 Coeff:      0.208D-04-0.615D-04-0.415D-03-0.130D-02-0.617D-03 0.144D-01
 Coeff:      0.377D-01-0.658D-01-0.215D+00 0.114D+00 0.112D+01
 Gap=     0.331 Goal=   None    Shift=    0.000
 RMSDP=1.49D-06 MaxDP=7.33D-05 DE=-6.01D-08 OVMax= 5.95D-05

 Cycle  12  Pass 1  IDiag  1:
 RMSU=  6.68D-07    CP:  5.11D-01  1.01D+00  8.71D-01  1.04D+00  1.04D+00
                    CP:  1.25D+00  1.28D+00  1.43D+00  1.52D+00  1.55D+00
                    CP:  1.37D+00
 E= -1627.57278670087     Delta-E=       -0.000000008455 Rises=F Damp=F
 DIIS: error= 3.03D-07 at cycle  12 NSaved=  12.
 NSaved=12 IEnMin=12 EnMin= -1627.57278670087     IErMin=12 ErrMin= 3.03D-07
 ErrMax= 3.03D-07  0.00D+00 EMaxC= 1.00D-01 BMatC= 1.71D-10 BMatP= 1.51D-09
 IDIUse=1 WtCom= 1.00D+00 WtEn= 0.00D+00
 Coeff-Com: -0.289D-05 0.250D-04 0.121D-03 0.142D-03-0.794D-03-0.332D-02
 Coeff-Com:  0.195D-02 0.297D-01 0.481D-04-0.189D+00 0.108D+00 0.105D+01
 Coeff:     -0.289D-05 0.250D-04 0.121D-03 0.142D-03-0.794D-03-0.332D-02
 Coeff:      0.195D-02 0.297D-01 0.481D-04-0.189D+00 0.108D+00 0.105D+01
 Gap=     0.331 Goal=   None    Shift=    0.000
 RMSDP=4.57D-07 MaxDP=2.93D-05 DE=-8.45D-09 OVMax= 1.59D-05

 Cycle  13  Pass 1  IDiag  1:
 RMSU=  2.37D-07    CP:  5.11D-01  1.01D+00  8.71D-01  1.04D+00  1.04D+00
                    CP:  1.25D+00  1.28D+00  1.44D+00  1.53D+00  1.57D+00
                    CP:  1.51D+00  1.15D+00
 E= -1627.57278670144     Delta-E=       -0.000000000572 Rises=F Damp=F
 DIIS: error= 9.36D-08 at cycle  13 NSaved=  13.
 NSaved=13 IEnMin=13 EnMin= -1627.57278670144     IErMin=13 ErrMin= 9.36D-08
 ErrMax= 9.36D-08  0.00D+00 EMaxC= 1.00D-01 BMatC= 1.64D-11 BMatP= 1.71D-10
 IDIUse=1 WtCom= 1.00D+00 WtEn= 0.00D+00
 Coeff-Com: -0.241D-05 0.955D-05 0.560D-04 0.157D-03-0.404D-04-0.194D-02
 Coeff-Com: -0.381D-02 0.109D-01 0.216D-01-0.366D-01-0.956D-01 0.145D+00
 Coeff-Com:  0.960D+00
 Coeff:     -0.241D-05 0.955D-05 0.560D-04 0.157D-03-0.404D-04-0.194D-02
 Coeff:     -0.381D-02 0.109D-01 0.216D-01-0.366D-01-0.956D-01 0.145D+00
 Coeff:      0.960D+00
 Gap=     0.331 Goal=   None    Shift=    0.000
 RMSDP=1.26D-07 MaxDP=5.77D-06 DE=-5.72D-10 OVMax= 3.94D-06

 Cycle  14  Pass 1  IDiag  1:
 RMSU=  7.60D-08    CP:  5.11D-01  1.01D+00  8.71D-01  1.04D+00  1.04D+00
                    CP:  1.25D+00  1.28D+00  1.44D+00  1.53D+00  1.57D+00
                    CP:  1.52D+00  1.25D+00  1.13D+00
 E= -1627.57278670152     Delta-E=       -0.000000000077 Rises=F Damp=F
 DIIS: error= 3.03D-08 at cycle  14 NSaved=  14.
 NSaved=14 IEnMin=14 EnMin= -1627.57278670152     IErMin=14 ErrMin= 3.03D-08
 ErrMax= 3.03D-08  0.00D+00 EMaxC= 1.00D-01 BMatC= 2.72D-12 BMatP= 1.64D-11
 IDIUse=1 WtCom= 1.00D+00 WtEn= 0.00D+00
 Coeff-Com:  0.898D-07-0.189D-05-0.891D-05-0.164D-06 0.902D-04 0.214D-03
 Coeff-Com: -0.647D-03-0.243D-02 0.201D-02 0.192D-01-0.246D-01-0.115D+00
 Coeff-Com:  0.122D+00 0.100D+01
 Coeff:      0.898D-07-0.189D-05-0.891D-05-0.164D-06 0.902D-04 0.214D-03
 Coeff:     -0.647D-03-0.243D-02 0.201D-02 0.192D-01-0.246D-01-0.115D+00
 Coeff:      0.122D+00 0.100D+01
 Gap=     0.331 Goal=   None    Shift=    0.000
 RMSDP=4.69D-08 MaxDP=3.96D-06 DE=-7.73D-11 OVMax= 1.36D-06

 Cycle  15  Pass 1  IDiag  1:
 RMSU=  2.94D-08    CP:  5.11D-01  1.01D+00  8.71D-01  1.04D+00  1.04D+00
                    CP:  1.25D+00  1.28D+00  1.44D+00  1.53D+00  1.57D+00
                    CP:  1.52D+00  1.26D+00  1.23D+00  1.21D+00
 E= -1627.57278670155     Delta-E=       -0.000000000037 Rises=F Damp=F
 DIIS: error= 2.53D-08 at cycle  15 NSaved=  15.
 NSaved=15 IEnMin=15 EnMin= -1627.57278670155     IErMin=15 ErrMin= 2.53D-08
 ErrMax= 2.53D-08  0.00D+00 EMaxC= 1.00D-01 BMatC= 5.17D-13 BMatP= 2.72D-12
 IDIUse=1 WtCom= 1.00D+00 WtEn= 0.00D+00
 Coeff-Com:  0.373D-06-0.158D-05-0.924D-05-0.255D-04 0.776D-05 0.328D-03
 Coeff-Com:  0.590D-03-0.181D-02-0.342D-02 0.713D-02 0.134D-01-0.295D-01
 Coeff-Com: -0.138D+00 0.410D-01 0.111D+01
 Coeff:      0.373D-06-0.158D-05-0.924D-05-0.255D-04 0.776D-05 0.328D-03
 Coeff:      0.590D-03-0.181D-02-0.342D-02 0.713D-02 0.134D-01-0.295D-01
 Coeff:     -0.138D+00 0.410D-01 0.111D+01
 Gap=     0.331 Goal=   None    Shift=    0.000
 RMSDP=2.63D-08 MaxDP=1.52D-06 DE=-3.73D-11 OVMax= 7.51D-07

 Cycle  16  Pass 1  IDiag  1:
 RMSU=  1.42D-08    CP:  5.11D-01  1.01D+00  8.71D-01  1.04D+00  1.04D+00
                    CP:  1.25D+00  1.28D+00  1.44D+00  1.53D+00  1.58D+00
                    CP:  1.52D+00  1.26D+00  1.25D+00  1.40D+00  1.38D+00
 E= -1627.57278670157     Delta-E=       -0.000000000017 Rises=F Damp=F
 DIIS: error= 9.42D-09 at cycle  16 NSaved=  16.
 NSaved=16 IEnMin=16 EnMin= -1627.57278670157     IErMin=16 ErrMin= 9.42D-09
 ErrMax= 9.42D-09  0.00D+00 EMaxC= 1.00D-01 BMatC= 1.28D-13 BMatP= 5.17D-13
 IDIUse=1 WtCom= 1.00D+00 WtEn= 0.00D+00
 Coeff-Com: -0.369D-07 0.518D-06 0.252D-05 0.576D-06-0.233D-04-0.598D-04
 Coeff-Com:  0.135D-03 0.603D-03-0.448D-03-0.443D-02 0.526D-02 0.279D-01
 Coeff-Com: -0.243D-01-0.236D+00-0.970D-02 0.124D+01
 Coeff:     -0.369D-07 0.518D-06 0.252D-05 0.576D-06-0.233D-04-0.598D-04
 Coeff:      0.135D-03 0.603D-03-0.448D-03-0.443D-02 0.526D-02 0.279D-01
 Coeff:     -0.243D-01-0.236D+00-0.970D-02 0.124D+01
 Gap=     0.331 Goal=   None    Shift=    0.000
 RMSDP=1.33D-08 MaxDP=5.30D-07 DE=-1.73D-11 OVMax= 5.06D-07

 Cycle  17  Pass 1  IDiag  1:
 RMSU=  6.32D-09    CP:  5.11D-01  1.01D+00  8.71D-01  1.04D+00  1.04D+00
                    CP:  1.25D+00  1.28D+00  1.44D+00  1.53D+00  1.58D+00
                    CP:  1.52D+00  1.26D+00  1.25D+00  1.46D+00  1.61D+00
                    CP:  1.44D+00
 E= -1627.57278670155     Delta-E=        0.000000000025 Rises=F Damp=F
 DIIS: error= 4.28D-09 at cycle  17 NSaved=  17.
 NSaved=17 IEnMin=16 EnMin= -1627.57278670157     IErMin=17 ErrMin= 4.28D-09
 ErrMax= 4.28D-09  0.00D+00 EMaxC= 1.00D-01 BMatC= 2.19D-14 BMatP= 1.28D-13
 IDIUse=1 WtCom= 1.00D+00 WtEn= 0.00D+00
 Coeff-Com: -0.796D-07 0.365D-06 0.212D-05 0.559D-05-0.183D-05-0.738D-04
 Coeff-Com: -0.122D-03 0.409D-03 0.761D-03-0.163D-02-0.327D-02 0.714D-02
 Coeff-Com:  0.302D-01-0.136D-01-0.254D+00 0.232D-01 0.121D+01
 Coeff:     -0.796D-07 0.365D-06 0.212D-05 0.559D-05-0.183D-05-0.738D-04
 Coeff:     -0.122D-03 0.409D-03 0.761D-03-0.163D-02-0.327D-02 0.714D-02
 Coeff:      0.302D-01-0.136D-01-0.254D+00 0.232D-01 0.121D+01
 Gap=     0.331 Goal=   None    Shift=    0.000
 RMSDP=7.60D-09 MaxDP=4.18D-07 DE= 2.55D-11 OVMax= 2.40D-07

 SCF Done:  E(RHF) =  -1627.57278670     A.U. after   17 cycles
            NFock= 17  Conv=0.76D-08     -V/T= 2.0004
 KE= 1.626847515144D+03 PE=-7.293575868557D+03 EE= 2.301466321948D+03
 Leave Link  502 at Sun Jul 11 17:07:17 2021, MaxMem=   262144000 cpu:            5484.1 elap:            1371.5
 (Enter /prod/apps/gaussian/g16b1/l801.exe)
 ExpMin= 2.97D-02 ExpMax= 1.28D+05 ExpMxC= 1.24D+03 IAcc=3 IRadAn=         5 AccDes= 0.00D+00
 HarFok:  IExCor=  205 AccDes= 0.00D+00 IRadAn=         5 IDoV=-2 UseB2=F ITyADJ=14
 ICtDFT= 12500011 ScaDFX=  1.000000  1.000000  1.000000  1.000000
 GSVD:  LWork=       -1008 too small for GESVD, short by        4340 words or        4340 for optimal perf.
 Largest valence mixing into a core orbital is  2.86D-04
 Largest core mixing into a valence orbital is  9.87D-05
 Range of M.O.s used for correlation:    29   627
 NBasis=   630 NAE=    80 NBE=    80 NFC=    28 NFV=     0
 NROrb=    599 NOA=    52 NOB=    52 NVA=   547 NVB=   547

 **** Warning!!: The largest alpha MO coefficient is  0.12537637D+03

 Leave Link  801 at Sun Jul 11 17:07:17 2021, MaxMem=   262144000 cpu:               1.2 elap:               0.3
 (Enter /prod/apps/gaussian/g16b1/l906.exe)
 FulOut=F Deriv=F AODrv=F NAtomX=    38
   MMem=           3  MDisk=          52 MDiskD=          52
  W3Min=    19057480 MinDsk=    19424853 NBas6D=         670
 NBas2D=      225679    NTT=      224785    LW2=     2000000
    MDV=   259344680 MDiskM=        5334 NBas2p=      203825
 Disk-based method using OVN memory for 52 occupieds at a time.
 Estimated scratch disk usage= 17651007580 words.
 IMap=   1   2   3   4   5   6   7   8   9  10  11  12  13  14  15  16  17  18  19  20
 IMap=  21  22  23  24  25  26  27  28  29  30  31  32  33  34  35  36  37  38  39  40
 IMap=  41  42  43  44  45  46  47  48  49  50  51  52
 Actual    scratch disk usage= 17438277724 words.
 JobTyp=1 Pass  1:  I=   1 to  52 NPSUse=  4 ParTrn=T ParDer=T DoDerP=F.
Erroneous write. Write -1 instead of 3057392.
fd = 4
orig len = 8384512 left = 3057392
g_write
