 Entering Gaussian System, Link 0=g16
 Initial command:
 /prod/apps/gaussian/g16b1/l1.exe "/tmp/ubator02/1834621/Gau-209336.inp" -scrdir="/tmp/ubator02/1834621/"
 Entering Link 1 = /prod/apps/gaussian/g16b1/l1.exe PID=    209337.
  
 Copyright (c) 1988-2017, Gaussian, Inc.  All Rights Reserved.
  
 This is part of the Gaussian(R) 16 program.  It is based on
 the Gaussian(R) 09 system (copyright 2009, Gaussian, Inc.),
 the Gaussian(R) 03 system (copyright 2003, Gaussian, Inc.),
 the Gaussian(R) 98 system (copyright 1998, Gaussian, Inc.),
 the Gaussian(R) 94 system (copyright 1995, Gaussian, Inc.),
 the Gaussian 92(TM) system (copyright 1992, Gaussian, Inc.),
 the Gaussian 90(TM) system (copyright 1990, Gaussian, Inc.),
 the Gaussian 88(TM) system (copyright 1988, Gaussian, Inc.),
 the Gaussian 86(TM) system (copyright 1986, Carnegie Mellon
 University), and the Gaussian 82(TM) system (copyright 1983,
 Carnegie Mellon University). Gaussian is a federally registered
 trademark of Gaussian, Inc.
  
 This software contains proprietary and confidential information,
 including trade secrets, belonging to Gaussian, Inc.
  
 This software is provided under written license and may be
 used, copied, transmitted, or stored only in accord with that
 written license.
  
 The following legend is applicable only to US Government
 contracts under FAR:
  
                    RESTRICTED RIGHTS LEGEND
  
 Use, reproduction and disclosure by the US Government is
 subject to restrictions as set forth in subparagraphs (a)
 and (c) of the Commercial Computer Software - Restricted
 Rights clause in FAR 52.227-19.
  
 Gaussian, Inc.
 340 Quinnipiac St., Bldg. 40, Wallingford CT 06492
  
  
 ---------------------------------------------------------------
 Warning -- This program may not be used in any manner that
 competes with the business of Gaussian, Inc. or will provide
 assistance to any competitor of Gaussian, Inc.  The licensee
 of this program is prohibited from giving any competitor of
 Gaussian, Inc. access to this program.  By using this program,
 the user acknowledges that Gaussian, Inc. is engaged in the
 business of creating and licensing software in the field of
 computational chemistry and represents and warrants to the
 licensee that it is not a competitor of Gaussian, Inc. and that
 it will not use this program in any manner prohibited above.
 ---------------------------------------------------------------
  

 Cite this work as:
 Gaussian 16, Revision B.01,
 M. J. Frisch, G. W. Trucks, H. B. Schlegel, G. E. Scuseria, 
 M. A. Robb, J. R. Cheeseman, G. Scalmani, V. Barone, 
 G. A. Petersson, H. Nakatsuji, X. Li, M. Caricato, A. V. Marenich, 
 J. Bloino, B. G. Janesko, R. Gomperts, B. Mennucci, H. P. Hratchian, 
 J. V. Ortiz, A. F. Izmaylov, J. L. Sonnenberg, D. Williams-Young, 
 F. Ding, F. Lipparini, F. Egidi, J. Goings, B. Peng, A. Petrone, 
 T. Henderson, D. Ranasinghe, V. G. Zakrzewski, J. Gao, N. Rega, 
 G. Zheng, W. Liang, M. Hada, M. Ehara, K. Toyota, R. Fukuda, 
 J. Hasegawa, M. Ishida, T. Nakajima, Y. Honda, O. Kitao, H. Nakai, 
 T. Vreven, K. Throssell, J. A. Montgomery, Jr., J. E. Peralta, 
 F. Ogliaro, M. J. Bearpark, J. J. Heyd, E. N. Brothers, K. N. Kudin, 
 V. N. Staroverov, T. A. Keith, R. Kobayashi, J. Normand, 
 K. Raghavachari, A. P. Rendell, J. C. Burant, S. S. Iyengar, 
 J. Tomasi, M. Cossi, J. M. Millam, M. Klene, C. Adamo, R. Cammi, 
 J. W. Ochterski, R. L. Martin, K. Morokuma, O. Farkas, 
 J. B. Foresman, and D. J. Fox, Gaussian, Inc., Wallingford CT, 2016.
 
 ******************************************
 Gaussian 16:  ES64L-G16RevB.01 20-Dec-2017
                11-Jul-2021 
 ******************************************
 %mem=800MB
 %nproc=4
 Will use up to    4 processors via shared memory.
 %chk=SET_328_BBB315_conf1.geo_180_090.chk
 -----------------------------------------------------------
 #p b3lyp/6-31G(d) opt freq scrf=(iefpcm,read,solvent=water)
 -----------------------------------------------------------
 1/18=20,19=15,26=3,38=1,40=2/1,3;
 2/9=110,12=2,17=6,18=5,40=1/2;
 3/5=1,6=6,7=1,11=2,25=1,30=1,70=2203,71=1,72=1,74=-5/1,2,3;
 4//1;
 5/5=2,38=5,53=1/2;
 6/7=2,8=2,9=2,10=2,28=1/1;
 7//1,2,3,16;
 1/18=20,19=15,26=3/3(2);
 2/9=110/2;
 99//99;
 2/9=110/2;
 3/5=1,6=6,7=1,11=2,25=1,30=1,70=2205,71=1,72=1,74=-5/1,2,3;
 4/5=5,16=3,69=1/1;
 5/5=2,38=5,53=1/2;
 7//1,2,3,16;
 1/18=20,19=15,26=3/3(-5);
 2/9=110/2;
 6/7=2,8=2,9=2,10=2,19=2,28=1/1;
 99/9=1/99;
 Leave Link    1 at Sun Jul 11 16:24:54 2021, MaxMem=   104857600 cpu:               0.1 elap:               0.0
 (Enter /prod/apps/gaussian/g16b1/l101.exe)
 -----------------------------------------
 SET_328_BBB315_conf1.geo_180_090 geometry
 -----------------------------------------
 Symbolic Z-matrix:
 Charge =  1 Multiplicity = 1
 N                    -2.142     3.474    -1.165 
 H                    -3.038     3.429    -0.723 
 H                    -2.244     3.293    -2.143 
 C                    -1.235     2.449    -0.56 
 H                    -1.134     2.467     0.528 
 H                    -0.264     2.665    -1.013 
 C                    -1.69      1.111    -1.037 
 H                    -1.769     1.163    -2.125 
 H                    -2.682     0.804    -0.7 
 C                    -0.772     0.135    -0.422 
 C                     0.46     -0.209    -0.932 
 H                     0.993     0.266    -1.747 
 N                     1.014    -1.118    -0.11 
 C                     2.31     -1.608    -0.183 
 H                     2.912    -1.518    -1.079 
 C                     2.631    -2.395     0.928 
 H                     3.602    -2.871     1.024 
 C                     1.699    -2.598     2.005 
 H                     1.878    -3.31      2.803 
 C                     0.526    -1.888     2.026 
 H                    -0.156    -1.931     2.868 
 C                     0.127    -1.112     0.93 
 N                    -1.008    -0.446     0.807 
 H                    -1.751     4.385    -1.033 
 
 ITRead=  0  0  0  0  0  0  0  0  0  0  0  0  0  0  0  0  0  0  0  0
 ITRead=  0  0  0  0
 MicOpt= -1 -1 -1 -1 -1 -1 -1 -1 -1 -1 -1 -1 -1 -1 -1 -1 -1 -1 -1 -1
 MicOpt= -1 -1 -1 -1
 NAtoms=     24 NQM=       24 NQMF=       0 NMMI=      0 NMMIF=      0
                NMic=       0 NMicF=      0.
                    Isotopes and Nuclear Properties:
 (Nuclear quadrupole moments (NQMom) in fm**2, nuclear magnetic moments (NMagM)
  in nuclear magnetons)

  Atom         1           2           3           4           5           6           7           8           9          10
 IAtWgt=          14           1           1          12           1           1          12           1           1          12
 AtmWgt=  14.0030740   1.0078250   1.0078250  12.0000000   1.0078250   1.0078250  12.0000000   1.0078250   1.0078250  12.0000000
 NucSpn=           2           1           1           0           1           1           0           1           1           0
 AtZEff=  -0.0000000  -0.0000000  -0.0000000  -0.0000000  -0.0000000  -0.0000000  -0.0000000  -0.0000000  -0.0000000  -0.0000000
 NQMom=    2.0440000   0.0000000   0.0000000   0.0000000   0.0000000   0.0000000   0.0000000   0.0000000   0.0000000   0.0000000
 NMagM=    0.4037610   2.7928460   2.7928460   0.0000000   2.7928460   2.7928460   0.0000000   2.7928460   2.7928460   0.0000000
 AtZNuc=   7.0000000   1.0000000   1.0000000   6.0000000   1.0000000   1.0000000   6.0000000   1.0000000   1.0000000   6.0000000

  Atom        11          12          13          14          15          16          17          18          19          20
 IAtWgt=          12           1          14          12           1          12           1          12           1          12
 AtmWgt=  12.0000000   1.0078250  14.0030740  12.0000000   1.0078250  12.0000000   1.0078250  12.0000000   1.0078250  12.0000000
 NucSpn=           0           1           2           0           1           0           1           0           1           0
 AtZEff=  -0.0000000  -0.0000000  -0.0000000  -0.0000000  -0.0000000  -0.0000000  -0.0000000  -0.0000000  -0.0000000  -0.0000000
 NQMom=    0.0000000   0.0000000   2.0440000   0.0000000   0.0000000   0.0000000   0.0000000   0.0000000   0.0000000   0.0000000
 NMagM=    0.0000000   2.7928460   0.4037610   0.0000000   2.7928460   0.0000000   2.7928460   0.0000000   2.7928460   0.0000000
 AtZNuc=   6.0000000   1.0000000   7.0000000   6.0000000   1.0000000   6.0000000   1.0000000   6.0000000   1.0000000   6.0000000

  Atom        21          22          23          24
 IAtWgt=           1          12          14           1
 AtmWgt=   1.0078250  12.0000000  14.0030740   1.0078250
 NucSpn=           1           0           2           1
 AtZEff=  -0.0000000  -0.0000000  -0.0000000  -0.0000000
 NQMom=    0.0000000   0.0000000   2.0440000   0.0000000
 NMagM=    2.7928460   0.0000000   0.4037610   2.7928460
 AtZNuc=   1.0000000   6.0000000   7.0000000   1.0000000
 Leave Link  101 at Sun Jul 11 16:24:54 2021, MaxMem=   104857600 cpu:               0.5 elap:               0.1
 (Enter /prod/apps/gaussian/g16b1/l103.exe)

 GradGradGradGradGradGradGradGradGradGradGradGradGradGradGradGradGradGrad
 Berny optimization.
 Initialization pass.
                           ----------------------------
                           !    Initial Parameters    !
                           ! (Angstroms and Degrees)  !
 --------------------------                            --------------------------
 ! Name  Definition              Value          Derivative Info.                !
 --------------------------------------------------------------------------------
 ! R1    R(1,2)                  1.0001         estimate D2E/DX2                !
 ! R2    R(1,3)                  0.9998         estimate D2E/DX2                !
 ! R3    R(1,4)                  1.4964         estimate D2E/DX2                !
 ! R4    R(1,24)                 1.0001         estimate D2E/DX2                !
 ! R5    R(4,5)                  1.0928         estimate D2E/DX2                !
 ! R6    R(4,6)                  1.093          estimate D2E/DX2                !
 ! R7    R(4,7)                  1.4916         estimate D2E/DX2                !
 ! R8    R(7,8)                  1.0921         estimate D2E/DX2                !
 ! R9    R(7,9)                  1.0917         estimate D2E/DX2                !
 ! R10   R(7,10)                 1.4743         estimate D2E/DX2                !
 ! R11   R(10,11)                1.377          estimate D2E/DX2                !
 ! R12   R(10,23)                1.3797         estimate D2E/DX2                !
 ! R13   R(11,12)                1.0835         estimate D2E/DX2                !
 ! R14   R(11,13)                1.3449         estimate D2E/DX2                !
 ! R15   R(13,14)                1.3875         estimate D2E/DX2                !
 ! R16   R(13,22)                1.3669         estimate D2E/DX2                !
 ! R17   R(14,15)                1.0832         estimate D2E/DX2                !
 ! R18   R(14,16)                1.3988         estimate D2E/DX2                !
 ! R19   R(16,17)                1.0856         estimate D2E/DX2                !
 ! R20   R(16,18)                1.4387         estimate D2E/DX2                !
 ! R21   R(18,19)                1.0843         estimate D2E/DX2                !
 ! R22   R(18,20)                1.3713         estimate D2E/DX2                !
 ! R23   R(20,21)                1.0844         estimate D2E/DX2                !
 ! R24   R(20,22)                1.4009         estimate D2E/DX2                !
 ! R25   R(22,23)                1.3217         estimate D2E/DX2                !
 ! A1    A(2,1,3)              109.4366         estimate D2E/DX2                !
 ! A2    A(2,1,4)              109.4824         estimate D2E/DX2                !
 ! A3    A(2,1,24)             109.4458         estimate D2E/DX2                !
 ! A4    A(3,1,4)              109.4695         estimate D2E/DX2                !
 ! A5    A(3,1,24)             109.505          estimate D2E/DX2                !
 ! A6    A(4,1,24)             109.488          estimate D2E/DX2                !
 ! A7    A(1,4,5)              116.5671         estimate D2E/DX2                !
 ! A8    A(1,4,6)              103.6225         estimate D2E/DX2                !
 ! A9    A(1,4,7)              107.4729         estimate D2E/DX2                !
 ! A10   A(5,4,6)              109.1024         estimate D2E/DX2                !
 ! A11   A(5,4,7)              111.1832         estimate D2E/DX2                !
 ! A12   A(6,4,7)              108.4044         estimate D2E/DX2                !
 ! A13   A(4,7,8)              107.3344         estimate D2E/DX2                !
 ! A14   A(4,7,9)              115.5129         estimate D2E/DX2                !
 ! A15   A(4,7,10)             105.6943         estimate D2E/DX2                !
 ! A16   A(8,7,9)              104.7845         estimate D2E/DX2                !
 ! A17   A(8,7,10)             119.4818         estimate D2E/DX2                !
 ! A18   A(9,7,10)             104.5285         estimate D2E/DX2                !
 ! A19   A(7,10,11)            124.6087         estimate D2E/DX2                !
 ! A20   A(7,10,23)            122.9453         estimate D2E/DX2                !
 ! A21   A(11,10,23)           112.1932         estimate D2E/DX2                !
 ! A22   A(10,11,12)           127.5304         estimate D2E/DX2                !
 ! A23   A(10,11,13)           108.12           estimate D2E/DX2                !
 ! A24   A(12,11,13)           123.6002         estimate D2E/DX2                !
 ! A25   A(11,13,14)           126.2488         estimate D2E/DX2                !
 ! A26   A(11,13,22)           101.2301         estimate D2E/DX2                !
 ! A27   A(14,13,22)           130.37           estimate D2E/DX2                !
 ! A28   A(13,14,15)           122.229          estimate D2E/DX2                !
 ! A29   A(13,14,16)           111.7931         estimate D2E/DX2                !
 ! A30   A(15,14,16)           125.1827         estimate D2E/DX2                !
 ! A31   A(14,16,17)           121.4766         estimate D2E/DX2                !
 ! A32   A(14,16,18)           121.6883         estimate D2E/DX2                !
 ! A33   A(17,16,18)           116.8301         estimate D2E/DX2                !
 ! A34   A(16,18,19)           122.455          estimate D2E/DX2                !
 ! A35   A(16,18,20)           119.5082         estimate D2E/DX2                !
 ! A36   A(19,18,20)           118.0282         estimate D2E/DX2                !
 ! A37   A(18,20,21)           121.9601         estimate D2E/DX2                !
 ! A38   A(18,20,22)           121.2277         estimate D2E/DX2                !
 ! A39   A(21,20,22)           116.7629         estimate D2E/DX2                !
 ! A40   A(13,22,20)           114.0787         estimate D2E/DX2                !
 ! A41   A(13,22,23)           119.2522         estimate D2E/DX2                !
 ! A42   A(20,22,23)           126.6197         estimate D2E/DX2                !
 ! A43   A(10,23,22)            98.5224         estimate D2E/DX2                !
 ! D1    D(2,1,4,5)            -53.1551         estimate D2E/DX2                !
 ! D2    D(2,1,4,6)           -173.0007         estimate D2E/DX2                !
 ! D3    D(2,1,4,7)             72.3628         estimate D2E/DX2                !
 ! D4    D(3,1,4,5)           -173.1185         estimate D2E/DX2                !
 ! D5    D(3,1,4,6)             67.0359         estimate D2E/DX2                !
 ! D6    D(3,1,4,7)            -47.6006         estimate D2E/DX2                !
 ! D7    D(24,1,4,5)            66.8309         estimate D2E/DX2                !
 ! D8    D(24,1,4,6)           -53.0147         estimate D2E/DX2                !
 ! D9    D(24,1,4,7)          -167.6512         estimate D2E/DX2                !
 ! D10   D(1,4,7,8)             51.3492         estimate D2E/DX2                !
 ! D11   D(1,4,7,9)            -65.0851         estimate D2E/DX2                !
 ! D12   D(1,4,7,10)           179.9015         estimate D2E/DX2                !
 ! D13   D(5,4,7,8)           -179.9799         estimate D2E/DX2                !
 ! D14   D(5,4,7,9)             63.5858         estimate D2E/DX2                !
 ! D15   D(5,4,7,10)           -51.4275         estimate D2E/DX2                !
 ! D16   D(6,4,7,8)            -60.0564         estimate D2E/DX2                !
 ! D17   D(6,4,7,9)           -176.4907         estimate D2E/DX2                !
 ! D18   D(6,4,7,10)            68.4959         estimate D2E/DX2                !
 ! D19   D(4,7,10,11)          -83.9127         estimate D2E/DX2                !
 ! D20   D(4,7,10,23)           89.8543         estimate D2E/DX2                !
 ! D21   D(8,7,10,11)           37.0431         estimate D2E/DX2                !
 ! D22   D(8,7,10,23)         -149.1899         estimate D2E/DX2                !
 ! D23   D(9,7,10,11)          153.7442         estimate D2E/DX2                !
 ! D24   D(9,7,10,23)          -32.4888         estimate D2E/DX2                !
 ! D25   D(7,10,11,12)           9.5314         estimate D2E/DX2                !
 ! D26   D(7,10,11,13)         179.7995         estimate D2E/DX2                !
 ! D27   D(23,10,11,12)       -164.8213         estimate D2E/DX2                !
 ! D28   D(23,10,11,13)          5.4467         estimate D2E/DX2                !
 ! D29   D(7,10,23,22)        -174.812          estimate D2E/DX2                !
 ! D30   D(11,10,23,22)         -0.3503         estimate D2E/DX2                !
 ! D31   D(10,11,13,14)       -172.2742         estimate D2E/DX2                !
 ! D32   D(10,11,13,22)         -7.6029         estimate D2E/DX2                !
 ! D33   D(12,11,13,14)         -1.5359         estimate D2E/DX2                !
 ! D34   D(12,11,13,22)        163.1354         estimate D2E/DX2                !
 ! D35   D(11,13,14,15)        -18.1863         estimate D2E/DX2                !
 ! D36   D(11,13,14,16)        171.5389         estimate D2E/DX2                !
 ! D37   D(22,13,14,15)       -178.289          estimate D2E/DX2                !
 ! D38   D(22,13,14,16)         11.4363         estimate D2E/DX2                !
 ! D39   D(11,13,22,20)       -173.8691         estimate D2E/DX2                !
 ! D40   D(11,13,22,23)          8.519          estimate D2E/DX2                !
 ! D41   D(14,13,22,20)        -10.1188         estimate D2E/DX2                !
 ! D42   D(14,13,22,23)        172.2693         estimate D2E/DX2                !
 ! D43   D(13,14,16,17)        178.9931         estimate D2E/DX2                !
 ! D44   D(13,14,16,18)         -1.8475         estimate D2E/DX2                !
 ! D45   D(15,14,16,17)          9.0622         estimate D2E/DX2                !
 ! D46   D(15,14,16,18)       -171.7784         estimate D2E/DX2                !
 ! D47   D(14,16,18,19)        171.3843         estimate D2E/DX2                !
 ! D48   D(14,16,18,20)         -7.5273         estimate D2E/DX2                !
 ! D49   D(17,16,18,19)         -9.419          estimate D2E/DX2                !
 ! D50   D(17,16,18,20)        171.6693         estimate D2E/DX2                !
 ! D51   D(16,18,20,21)       -173.4653         estimate D2E/DX2                !
 ! D52   D(16,18,20,22)          9.1727         estimate D2E/DX2                !
 ! D53   D(19,18,20,21)          7.5751         estimate D2E/DX2                !
 ! D54   D(19,18,20,22)       -169.7869         estimate D2E/DX2                !
 ! D55   D(18,20,22,13)         -1.2545         estimate D2E/DX2                !
 ! D56   D(18,20,22,23)        176.1494         estimate D2E/DX2                !
 ! D57   D(21,20,22,13)       -178.7479         estimate D2E/DX2                !
 ! D58   D(21,20,22,23)         -1.344          estimate D2E/DX2                !
 ! D59   D(13,22,23,10)         -5.2067         estimate D2E/DX2                !
 ! D60   D(20,22,23,10)        177.51           estimate D2E/DX2                !
 --------------------------------------------------------------------------------
 Trust Radius=3.00D-01 FncErr=1.00D-07 GrdErr=1.00D-06 EigMax=2.50D+02 EigMin=1.00D-04
 Number of steps in this run=    138 maximum allowed number of steps=    144.
 GradGradGradGradGradGradGradGradGradGradGradGradGradGradGradGradGradGrad

 Leave Link  103 at Sun Jul 11 16:24:54 2021, MaxMem=   104857600 cpu:               0.0 elap:               0.0
 (Enter /prod/apps/gaussian/g16b1/l202.exe)
                          Input orientation:                          
 ---------------------------------------------------------------------
 Center     Atomic      Atomic             Coordinates (Angstroms)
 Number     Number       Type             X           Y           Z
 ---------------------------------------------------------------------
      1          7           0       -2.142000    3.474000   -1.165000
      2          1           0       -3.038000    3.429000   -0.723000
      3          1           0       -2.244000    3.293000   -2.143000
      4          6           0       -1.235000    2.449000   -0.560000
      5          1           0       -1.134000    2.467000    0.528000
      6          1           0       -0.264000    2.665000   -1.013000
      7          6           0       -1.690000    1.111000   -1.037000
      8          1           0       -1.769000    1.163000   -2.125000
      9          1           0       -2.682000    0.804000   -0.700000
     10          6           0       -0.772000    0.135000   -0.422000
     11          6           0        0.460000   -0.209000   -0.932000
     12          1           0        0.993000    0.266000   -1.747000
     13          7           0        1.014000   -1.118000   -0.110000
     14          6           0        2.310000   -1.608000   -0.183000
     15          1           0        2.912000   -1.518000   -1.079000
     16          6           0        2.631000   -2.395000    0.928000
     17          1           0        3.602000   -2.871000    1.024000
     18          6           0        1.699000   -2.598000    2.005000
     19          1           0        1.878000   -3.310000    2.803000
     20          6           0        0.526000   -1.888000    2.026000
     21          1           0       -0.156000   -1.931000    2.868000
     22          6           0        0.127000   -1.112000    0.930000
     23          7           0       -1.008000   -0.446000    0.807000
     24          1           0       -1.751000    4.385000   -1.033000
 ---------------------------------------------------------------------
                    Distance matrix (angstroms):
                    1          2          3          4          5
     1  N    0.000000
     2  H    1.000102   0.000000
     3  H    0.999824   1.632584   0.000000
     4  C    1.496429   2.058586   2.058229   0.000000
     5  H    2.212772   2.472986   3.008092   1.092826   0.000000
     6  H    2.050480   2.891863   2.364674   1.093026   1.780670
     7  C    2.409244   2.699782   2.508242   1.491576   2.144084
     8  H    2.530109   2.951393   2.182395   2.094798   3.023582
     9  H    2.763463   2.649130   2.910191   2.195321   2.582607
    10  C    3.684816   4.009463   3.886076   2.363897   2.543967
    11  C    4.515438   5.051211   4.587171   3.174330   3.439973
    12  H    4.523076   5.225142   4.449462   3.337430   3.813680
    13  N    5.670963   6.121248   5.848468   4.240753   4.227668
    14  C    6.827251   7.366415   6.971393   5.400778   5.382591
    15  H    7.104251   7.746099   7.131771   5.762296   5.901931
    16  C    7.849034   8.293512   8.096296   6.373730   6.162327
    17  H    8.834267   9.318348   9.066449   7.362610   7.153318
    18  C    7.853112   8.136700   8.213223   6.376503   5.988459
    19  H    8.827688   9.056150   9.222441   7.359797   6.900833
    20  C    6.786144   6.966318   7.203903   5.347718   4.895470
    21  H    7.030171   7.066173   7.533926   5.665671   5.076858
    22  C    5.528904   5.776705   5.871030   4.093393   3.815883
    23  N    4.532233   4.634374   4.920398   3.209555   2.929042
    24  H    1.000113   1.632913   1.633283   2.058660   2.548751
                    6          7          8          9         10
     6  H    0.000000
     7  C    2.109258   0.000000
     8  H    2.399494   1.092103   0.000000
     9  H    3.067249   1.091733   1.730051   0.000000
    10  C    2.647309   1.474288   2.225085   2.042779   0.000000
    11  C    2.964897   2.525059   2.876469   3.309404   1.377048
    12  H    2.806066   2.901140   2.928504   3.858922   2.210885
    13  N    4.093871   3.624829   4.124109   4.207446   2.203894
    14  C    5.056966   4.911443   5.299816   5.568222   3.548788
    15  H    5.252506   5.300171   5.494874   6.068621   4.090955
    16  C    6.144274   5.901212   6.429632   6.411860   4.450147
    17  H    7.052845   6.936087   7.418692   7.481073   5.500802
    18  C    6.376587   5.873310   6.574880   6.171207   4.411968
    19  H    7.406122   6.857220   7.589040   7.070333   5.412130
    20  C    5.530771   4.825622   5.639719   4.996919   3.430749
    21  H    6.016398   5.182272   6.091359   5.156697   3.933435
    22  C    4.265426   3.480274   4.254817   3.770734   2.047221
    23  N    3.680252   2.507929   3.429960   2.576010   1.379746
    24  H    2.273757   3.274571   3.402069   3.714998   4.403892
                   11         12         13         14         15
    11  C    0.000000
    12  H    1.083485   0.000000
    13  N    1.344946   2.143750   0.000000
    14  C    2.437356   2.773529   1.387460   0.000000
    15  H    2.783414   2.703968   2.168263   1.083199   0.000000
    16  C    3.598810   4.113343   2.307133   1.398832   2.208198
    17  H    4.558985   4.932149   3.325163   2.172851   2.594093
    18  C    3.983517   4.772676   2.670740   2.478057   3.485516
    19  H    5.057386   5.854357   3.746589   3.464047   4.398903
    20  C    3.401935   4.369592   2.322400   2.853198   3.933309
    21  H    4.217196   5.238820   3.301265   3.936253   5.016174
    22  C    2.096030   3.132917   1.366896   2.500055   3.457910
    23  N    2.288081   3.321726   2.319689   3.652324   4.480243
    24  H    5.099368   5.000549   6.227372   7.289051   7.522705
                   16         17         18         19         20
    16  C    0.000000
    17  H    1.085649   0.000000
    18  C    1.438667   2.158309   0.000000
    19  H    2.218076   2.515897   1.084338   0.000000
    20  C    2.427690   3.381134   1.371302   2.110383   0.000000
    21  H    3.427282   4.290280   2.151902   2.458256   1.084406
    22  C    2.813558   3.895965   2.415576   3.377178   1.400926
    23  N    4.129838   5.213426   3.659803   4.529405   2.432793
    24  H    8.307578   9.248535   8.360277   9.332607   7.341167
                   21         22         23         24
    21  H    0.000000
    22  C    2.122898   0.000000
    23  N    2.679338   1.321707   0.000000
    24  H    7.593002   6.131661   5.222663   0.000000
 Stoichiometry    C9H12N3(1+)
 Framework group  C1[X(C9H12N3)]
 Deg. of freedom    66
 Full point group                 C1      NOp   1
 Largest Abelian subgroup         C1      NOp   1
 Largest concise Abelian subgroup C1      NOp   1
                         Standard orientation:                         
 ---------------------------------------------------------------------
 Center     Atomic      Atomic             Coordinates (Angstroms)
 Number     Number       Type             X           Y           Z
 ---------------------------------------------------------------------
      1          7           0       -4.416934    0.050434    0.501189
      2          1           0       -4.739550   -0.860022    0.241971
      3          1           0       -4.674656    0.708562   -0.205985
      4          6           0       -2.927533    0.030066    0.644609
      5          1           0       -2.510562   -0.733790    1.305615
      6          1           0       -2.694250    1.018608    1.048427
      7          6           0       -2.346941   -0.067819   -0.725840
      8          1           0       -2.803869    0.719056   -1.329771
      9          1           0       -2.563760   -0.992965   -1.263404
     10          6           0       -0.884574   -0.082490   -0.539308
     11          6           0       -0.103453    1.042106   -0.393041
     12          1           0       -0.436625    2.063133   -0.250073
     13          7           0        1.173388    0.647700   -0.241374
     14          6           0        2.250038    1.460433    0.083177
     15          1           0        2.216557    2.536969   -0.032023
     16          6           0        3.402548    0.713819    0.349672
     17          1           0        4.342443    1.193626    0.604653
     18          6           0        3.395677   -0.724454    0.316726
     19          1           0        4.304152   -1.312428    0.385639
     20          6           0        2.206140   -1.391061    0.171442
     21          1           0        2.140545   -2.470949    0.245440
     22          6           0        1.022797   -0.706711   -0.135083
     23          7           0       -0.161637   -1.245096   -0.367826
     24          1           0       -4.832330    0.315588    1.371457
 ---------------------------------------------------------------------
 Rotational constants (GHZ):           3.0158488           0.4775472           0.4372580
 Leave Link  202 at Sun Jul 11 16:24:54 2021, MaxMem=   104857600 cpu:               0.1 elap:               0.0
 (Enter /prod/apps/gaussian/g16b1/l301.exe)
 Standard basis: 6-31G(d) (6D, 7F)
 Ernie: Thresh=  0.10000D-02 Tol=  0.10000D-05 Strict=F.
 There are   204 symmetry adapted cartesian basis functions of A   symmetry.
 There are   204 symmetry adapted basis functions of A   symmetry.
   204 basis functions,   384 primitive gaussians,   204 cartesian basis functions
    43 alpha electrons       43 beta electrons
       nuclear repulsion energy       676.5147565283 Hartrees.
 IExCor=  402 DFT=T Ex+Corr=B3LYP ExCW=0 ScaHFX=  0.200000
 ScaDFX=  0.800000  0.720000  1.000000  0.810000 ScalE2=  1.000000  1.000000
 IRadAn=      5 IRanWt=     -1 IRanGd=            0 ICorTp=0 IEmpDi=  4
 NAtoms=   24 NActive=   24 NUniq=   24 SFac= 1.00D+00 NAtFMM=   60 NAOKFM=F Big=F
 Integral buffers will be    131072 words long.
 Raffenetti 2 integral format.
 Two-electron integral symmetry is turned on.
 Using the following non-standard input for PCM:
 MSTModel=DFT cav MSTCharged
 --- end of non-standard input.
 MST model for solvation energy: B3LYP parametrization.
 MST cavity parameters:
 ISph   IAn     Re0     Alpha   Atom Type   QCorr
 ------------------------------------------------
   1      7     1.70     1.15      NH         T
   2      1     0.90     1.15      NH         T
   3      1     0.90     1.15      NH         T
   4      6     1.50     1.25      CH2        F
   5      1     1.20     1.25      CH2        F
   6      1     1.20     1.25      CH2        F
   7      6     1.50     1.25      CH2        F
   8      1     1.20     1.25      CH2        F
   9      1     1.20     1.25      CH2        F
  10      6     1.50     1.25      C          F
  11      6     1.50     1.25      CH         F
  12      1     1.20     1.25      CH         F
  13      7     1.40     1.25      N          F
  14      6     1.50     1.25      CH         F
  15      1     1.20     1.25      CH         F
  16      6     1.50     1.25      CH         F
  17      1     1.20     1.25      CH         F
  18      6     1.50     1.25      CH         F
  19      1     1.20     1.25      CH         F
  20      6     1.50     1.25      CH         F
  21      1     1.20     1.25      CH         F
  22      6     1.50     1.25      C          F
  23      7     1.40     1.25      N          F
  24      1     0.90     1.15      NH         T
 ------------------------------------------------------------------------------
 Polarizable Continuum Model (PCM)
 =================================
 Model                : PCM.
 Atomic radii         : MST.
 Polarization charges : Total charges.
 Charge compensation  : None.
 Solution method      : On-the-fly selection.
 Cavity type          : Scaled VdW (van der Waals Surface) (Alpha=1.250).
 Cavity algorithm     : GePol (No added spheres)
                        Default sphere list used, NSphG=   24.
                        Lebedev-Laikov grids with approx.  5.0 points / Ang**2.
                        Smoothing algorithm: York/Karplus (Gamma=1.0000).
                        Polarization charges: spherical gaussians, with
                                              point-specific exponents (IZeta= 3).
                        Self-potential: point-specific (ISelfS= 7).
                        Self-field    : sphere-specific E.n sum rule (ISelfD= 2).
 1st derivatives      : Analytical E(r).r(x)/FMM algorithm (CHGder, D1EAlg=3).
                        Cavity 1st derivative terms included.
 Solvent              : Water, Eps=  78.355300 Eps(inf)=   1.777849
 ------------------------------------------------------------------------------
 GePol: Number of generator spheres                  =      24
 GePol: Total number of spheres                      =      24
 GePol: Number of exposed spheres                    =      24 (100.00%)
 GePol: Number of points                             =    1762
 GePol: Average weight of points                     =       0.13
 GePol: Minimum weight of points                     =   0.11D-08
 GePol: Maximum weight of points                     =    0.22001
 GePol: Number of points with low weight             =      97
 GePol: Fraction of low-weight points (<1% of avg)   =       5.51%
 GePol: Cavity surface area                          =    222.824 Ang**2
 GePol: Cavity volume                                =    201.845 Ang**3
 PCM non-electrostatic energy =         0.0009078757 Hartrees.
 Nuclear repulsion after PCM non-electrostatic terms =      676.5156644040 Hartrees.
 Leave Link  301 at Sun Jul 11 16:24:54 2021, MaxMem=   104857600 cpu:               0.4 elap:               0.1
 (Enter /prod/apps/gaussian/g16b1/l302.exe)
 NPDir=0 NMtPBC=     1 NCelOv=     1 NCel=       1 NClECP=     1 NCelD=      1
         NCelK=      1 NCelE2=     1 NClLst=     1 CellRange=     0.0.
 One-electron integrals computed using PRISM.
 One-electron integral symmetry used in STVInt
 NBasis=   204 RedAO= T EigKep=  7.16D-04  NBF=   204
 NBsUse=   204 1.00D-06 EigRej= -1.00D+00 NBFU=   204
 Precomputing XC quadrature grid using
 IXCGrd= 4 IRadAn=           5 IRanWt=          -1 IRanGd=           0 AccXCQ= 0.00D+00.
 Generated NRdTot=       0 NPtTot=           0 NUsed=           0 NTot=          32
 NSgBfM=   203   203   203   203   203 MxSgAt=    24 MxSgA2=    24.
 Leave Link  302 at Sun Jul 11 16:24:55 2021, MaxMem=   104857600 cpu:               1.0 elap:               0.3
 (Enter /prod/apps/gaussian/g16b1/l303.exe)
 DipDrv:  MaxL=1.
 Leave Link  303 at Sun Jul 11 16:24:55 2021, MaxMem=   104857600 cpu:               0.1 elap:               0.1
 (Enter /prod/apps/gaussian/g16b1/l401.exe)
 ExpMin= 1.61D-01 ExpMax= 4.17D+03 ExpMxC= 6.27D+02 IAcc=3 IRadAn=         5 AccDes= 0.00D+00
 Harris functional with IExCor=  402 and IRadAn=       5 diagonalized for initial guess.
 HarFok:  IExCor=  402 AccDes= 0.00D+00 IRadAn=         5 IDoV= 1 UseB2=F ITyADJ=14
 ICtDFT=  3500011 ScaDFX=  1.000000  1.000000  1.000000  1.000000
 FoFCou: FMM=F IPFlag=           0 FMFlag=      100000 FMFlg1=           0
         NFxFlg=           0 DoJE=T BraDBF=F KetDBF=T FulRan=T
         wScrn=  0.000000 ICntrl=       500 IOpCl=  0 I1Cent=   200000004 NGrid=           0
         NMat0=    1 NMatS0=      1 NMatT0=    0 NMatD0=    1 NMtDS0=    0 NMtDT0=    0
 Petite list used in FoFCou.
 Harris En= -514.172526477991    
 JPrj=0 DoOrth=F DoCkMO=F.
 Leave Link  401 at Sun Jul 11 16:24:56 2021, MaxMem=   104857600 cpu:               5.2 elap:               1.3
 (Enter /prod/apps/gaussian/g16b1/l502.exe)
 Integral symmetry usage will be decided dynamically.
 Closed shell SCF:
 Using DIIS extrapolation, IDIIS=  1040.
 NGot=   104857600 LenX=   104770734 LenY=   104728677
 Requested convergence on RMS density matrix=1.00D-08 within 128 cycles.
 Requested convergence on MAX density matrix=1.00D-06.
 Requested convergence on             energy=1.00D-06.
 No special actions if energy rises.
 Fock matrices will be formed incrementally for  20 cycles.

 Cycle   1  Pass 1  IDiag  1:
 FoFJK:  IHMeth= 1 ICntrl=       0 DoSepK=F KAlg= 0 I1Cent=           0 FoldK=F
 IRaf= 870000000 NMat=       1 IRICut=       1 DoRegI=T DoRafI=F ISym2E= 0 IDoP0=0 IntGTp=1.
 FoFCou: FMM=F IPFlag=           0 FMFlag=      100000 FMFlg1=           0
         NFxFlg=           0 DoJE=F BraDBF=F KetDBF=F FulRan=T
         wScrn=  0.000000 ICntrl=         0 IOpCl=  0 I1Cent=           0 NGrid=           0
         NMat0=    1 NMatS0=      1 NMatT0=    0 NMatD0=    1 NMtDS0=    0 NMtDT0=    0
 Symmetry not used in FoFCou.
 Inv3:  Mode=1 IEnd=     9313932.
 Iteration    1 A*A^-1 deviation from unit magnitude is 3.33D-15 for    489.
 Iteration    1 A*A^-1 deviation from orthogonality  is 2.29D-15 for   1105    504.
 Iteration    1 A^-1*A deviation from unit magnitude is 3.33D-15 for    489.
 Iteration    1 A^-1*A deviation from orthogonality  is 1.78D-15 for   1558     22.
 E= -514.057608579618    
 DIIS: error= 2.49D-02 at cycle   1 NSaved=   1.
 NSaved= 1 IEnMin= 1 EnMin= -514.057608579618     IErMin= 1 ErrMin= 2.49D-02
 ErrMax= 2.49D-02  0.00D+00 EMaxC= 1.00D-01 BMatC= 2.13D-01 BMatP= 2.13D-01
 IDIUse=3 WtCom= 7.51D-01 WtEn= 2.49D-01
 Coeff-Com:  0.100D+01
 Coeff-En:   0.100D+01
 Coeff:      0.100D+01
 Gap=     0.171 Goal=   None    Shift=    0.000
 GapD=    0.171 DampG=1.000 DampE=0.500 DampFc=0.5000 IDamp=-1.
 Damping current iteration by 5.00D-01
 RMSDP=5.17D-03 MaxDP=1.67D-01              OVMax= 2.08D-01

 Cycle   2  Pass 1  IDiag  1:
 RMSU=  2.52D-03    CP:  9.75D-01
 E= -514.156067026385     Delta-E=       -0.098458446767 Rises=F Damp=T
 DIIS: error= 6.93D-03 at cycle   2 NSaved=   2.
 NSaved= 2 IEnMin= 2 EnMin= -514.156067026385     IErMin= 2 ErrMin= 6.93D-03
 ErrMax= 6.93D-03  0.00D+00 EMaxC= 1.00D-01 BMatC= 1.84D-02 BMatP= 2.13D-01
 IDIUse=3 WtCom= 9.31D-01 WtEn= 6.93D-02
 Coeff-Com:  0.314D-01 0.969D+00
 Coeff-En:   0.498D-01 0.950D+00
 Coeff:      0.326D-01 0.967D+00
 Gap=     0.181 Goal=   None    Shift=    0.000
 RMSDP=1.44D-03 MaxDP=4.84D-02 DE=-9.85D-02 OVMax= 1.69D-01

 Cycle   3  Pass 1  IDiag  1:
 RMSU=  1.42D-03    CP:  9.64D-01  9.84D-01
 E= -514.255171713420     Delta-E=       -0.099104687035 Rises=F Damp=F
 DIIS: error= 7.89D-03 at cycle   3 NSaved=   3.
 NSaved= 3 IEnMin= 3 EnMin= -514.255171713420     IErMin= 2 ErrMin= 6.93D-03
 ErrMax= 7.89D-03  0.00D+00 EMaxC= 1.00D-01 BMatC= 1.90D-02 BMatP= 1.84D-02
 IDIUse=3 WtCom= 9.21D-01 WtEn= 7.89D-02
 Coeff-Com: -0.508D-01 0.529D+00 0.522D+00
 Coeff-En:   0.000D+00 0.000D+00 0.100D+01
 Coeff:     -0.468D-01 0.487D+00 0.560D+00
 Gap=     0.173 Goal=   None    Shift=    0.000
 RMSDP=9.06D-04 MaxDP=3.88D-02 DE=-9.91D-02 OVMax= 6.53D-02

 Cycle   4  Pass 1  IDiag  1:
 RMSU=  6.05D-04    CP:  9.66D-01  1.09D+00  5.62D-01
 E= -514.270223760970     Delta-E=       -0.015052047550 Rises=F Damp=F
 DIIS: error= 3.37D-03 at cycle   4 NSaved=   4.
 NSaved= 4 IEnMin= 4 EnMin= -514.270223760970     IErMin= 4 ErrMin= 3.37D-03
 ErrMax= 3.37D-03  0.00D+00 EMaxC= 1.00D-01 BMatC= 3.79D-03 BMatP= 1.84D-02
 IDIUse=3 WtCom= 9.66D-01 WtEn= 3.37D-02
 Coeff-Com: -0.202D-01 0.979D-01 0.330D+00 0.592D+00
 Coeff-En:   0.000D+00 0.000D+00 0.190D+00 0.810D+00
 Coeff:     -0.195D-01 0.946D-01 0.325D+00 0.599D+00
 Gap=     0.173 Goal=   None    Shift=    0.000
 RMSDP=3.21D-04 MaxDP=1.28D-02 DE=-1.51D-02 OVMax= 2.00D-02

 Cycle   5  Pass 1  IDiag  1:
 RMSU=  1.33D-04    CP:  9.66D-01  1.05D+00  6.86D-01  6.41D-01
 E= -514.273725673611     Delta-E=       -0.003501912641 Rises=F Damp=F
 DIIS: error= 5.00D-04 at cycle   5 NSaved=   5.
 NSaved= 5 IEnMin= 5 EnMin= -514.273725673611     IErMin= 5 ErrMin= 5.00D-04
 ErrMax= 5.00D-04  0.00D+00 EMaxC= 1.00D-01 BMatC= 1.62D-04 BMatP= 3.79D-03
 IDIUse=3 WtCom= 9.95D-01 WtEn= 5.00D-03
 Coeff-Com: -0.729D-02 0.216D-01 0.143D+00 0.316D+00 0.527D+00
 Coeff-En:   0.000D+00 0.000D+00 0.000D+00 0.000D+00 0.100D+01
 Coeff:     -0.725D-02 0.215D-01 0.142D+00 0.314D+00 0.529D+00
 Gap=     0.173 Goal=   None    Shift=    0.000
 RMSDP=8.11D-05 MaxDP=3.52D-03 DE=-3.50D-03 OVMax= 4.48D-03

 Cycle   6  Pass 1  IDiag  1:
 RMSU=  4.63D-05    CP:  9.65D-01  1.06D+00  6.88D-01  6.60D-01  5.23D-01
 E= -514.273867973653     Delta-E=       -0.000142300042 Rises=F Damp=F
 DIIS: error= 1.34D-04 at cycle   6 NSaved=   6.
 NSaved= 6 IEnMin= 6 EnMin= -514.273867973653     IErMin= 6 ErrMin= 1.34D-04
 ErrMax= 1.34D-04  0.00D+00 EMaxC= 1.00D-01 BMatC= 1.22D-05 BMatP= 1.62D-04
 IDIUse=3 WtCom= 9.99D-01 WtEn= 1.34D-03
 Coeff-Com: -0.195D-02 0.308D-02 0.441D-01 0.108D+00 0.275D+00 0.571D+00
 Coeff-En:   0.000D+00 0.000D+00 0.000D+00 0.000D+00 0.000D+00 0.100D+01
 Coeff:     -0.194D-02 0.307D-02 0.440D-01 0.108D+00 0.275D+00 0.572D+00
 Gap=     0.173 Goal=   None    Shift=    0.000
 RMSDP=2.11D-05 MaxDP=8.53D-04 DE=-1.42D-04 OVMax= 1.42D-03

 Cycle   7  Pass 1  IDiag  1:
 RMSU=  1.11D-05    CP:  9.66D-01  1.06D+00  6.89D-01  6.63D-01  5.97D-01
                    CP:  6.80D-01
 E= -514.273878977503     Delta-E=       -0.000011003850 Rises=F Damp=F
 DIIS: error= 4.27D-05 at cycle   7 NSaved=   7.
 NSaved= 7 IEnMin= 7 EnMin= -514.273878977503     IErMin= 7 ErrMin= 4.27D-05
 ErrMax= 4.27D-05  0.00D+00 EMaxC= 1.00D-01 BMatC= 1.14D-06 BMatP= 1.22D-05
 IDIUse=1 WtCom= 1.00D+00 WtEn= 0.00D+00
 Coeff-Com: -0.588D-03 0.156D-03 0.147D-01 0.382D-01 0.117D+00 0.317D+00
 Coeff-Com:  0.513D+00
 Coeff:     -0.588D-03 0.156D-03 0.147D-01 0.382D-01 0.117D+00 0.317D+00
 Coeff:      0.513D+00
 Gap=     0.173 Goal=   None    Shift=    0.000
 RMSDP=5.64D-06 MaxDP=1.88D-04 DE=-1.10D-05 OVMax= 3.97D-04

 Cycle   8  Pass 1  IDiag  1:
 RMSU=  2.82D-06    CP:  9.65D-01  1.06D+00  6.89D-01  6.65D-01  5.94D-01
                    CP:  7.11D-01  5.90D-01
 E= -514.273880068603     Delta-E=       -0.000001091100 Rises=F Damp=F
 DIIS: error= 8.71D-06 at cycle   8 NSaved=   8.
 NSaved= 8 IEnMin= 8 EnMin= -514.273880068603     IErMin= 8 ErrMin= 8.71D-06
 ErrMax= 8.71D-06  0.00D+00 EMaxC= 1.00D-01 BMatC= 2.99D-08 BMatP= 1.14D-06
 IDIUse=1 WtCom= 1.00D+00 WtEn= 0.00D+00
 Coeff-Com: -0.259D-06-0.250D-03 0.101D-02 0.280D-02 0.148D-01 0.548D-01
 Coeff-Com:  0.173D+00 0.754D+00
 Coeff:     -0.259D-06-0.250D-03 0.101D-02 0.280D-02 0.148D-01 0.548D-01
 Coeff:      0.173D+00 0.754D+00
 Gap=     0.173 Goal=   None    Shift=    0.000
 RMSDP=1.07D-06 MaxDP=3.96D-05 DE=-1.09D-06 OVMax= 6.01D-05

 Cycle   9  Pass 1  IDiag  1:
 RMSU=  7.95D-07    CP:  9.65D-01  1.06D+00  6.89D-01  6.65D-01  5.96D-01
                    CP:  7.15D-01  6.30D-01  8.60D-01
 E= -514.273880092050     Delta-E=       -0.000000023447 Rises=F Damp=F
 DIIS: error= 2.96D-06 at cycle   9 NSaved=   9.
 NSaved= 9 IEnMin= 9 EnMin= -514.273880092050     IErMin= 9 ErrMin= 2.96D-06
 ErrMax= 2.96D-06  0.00D+00 EMaxC= 1.00D-01 BMatC= 5.06D-09 BMatP= 2.99D-08
 IDIUse=1 WtCom= 1.00D+00 WtEn= 0.00D+00
 Coeff-Com:  0.358D-04-0.139D-03-0.319D-03-0.842D-03 0.652D-03 0.899D-02
 Coeff-Com:  0.584D-01 0.381D+00 0.552D+00
 Coeff:      0.358D-04-0.139D-03-0.319D-03-0.842D-03 0.652D-03 0.899D-02
 Coeff:      0.584D-01 0.381D+00 0.552D+00
 Gap=     0.173 Goal=   None    Shift=    0.000
 RMSDP=3.97D-07 MaxDP=1.63D-05 DE=-2.34D-08 OVMax= 3.11D-05

 Cycle  10  Pass 1  IDiag  1:
 RMSU=  2.61D-07    CP:  9.65D-01  1.06D+00  6.89D-01  6.65D-01  5.96D-01
                    CP:  7.16D-01  6.35D-01  9.09D-01  6.97D-01
 E= -514.273880096894     Delta-E=       -0.000000004844 Rises=F Damp=F
 DIIS: error= 5.45D-07 at cycle  10 NSaved=  10.
 NSaved=10 IEnMin=10 EnMin= -514.273880096894     IErMin=10 ErrMin= 5.45D-07
 ErrMax= 5.45D-07  0.00D+00 EMaxC= 1.00D-01 BMatC= 2.16D-10 BMatP= 5.06D-09
 IDIUse=1 WtCom= 1.00D+00 WtEn= 0.00D+00
 Coeff-Com:  0.141D-04-0.273D-04-0.197D-03-0.582D-03-0.121D-02-0.209D-02
 Coeff-Com:  0.442D-02 0.607D-01 0.202D+00 0.736D+00
 Coeff:      0.141D-04-0.273D-04-0.197D-03-0.582D-03-0.121D-02-0.209D-02
 Coeff:      0.442D-02 0.607D-01 0.202D+00 0.736D+00
 Gap=     0.173 Goal=   None    Shift=    0.000
 RMSDP=9.17D-08 MaxDP=3.76D-06 DE=-4.84D-09 OVMax= 6.82D-06

 Cycle  11  Pass 1  IDiag  1:
 RMSU=  6.08D-08    CP:  9.65D-01  1.06D+00  6.89D-01  6.65D-01  5.96D-01
                    CP:  7.16D-01  6.37D-01  9.17D-01  7.62D-01  8.92D-01
 E= -514.273880097111     Delta-E=       -0.000000000217 Rises=F Damp=F
 DIIS: error= 2.41D-07 at cycle  11 NSaved=  11.
 NSaved=11 IEnMin=11 EnMin= -514.273880097111     IErMin=11 ErrMin= 2.41D-07
 ErrMax= 2.41D-07  0.00D+00 EMaxC= 1.00D-01 BMatC= 2.30D-11 BMatP= 2.16D-10
 IDIUse=1 WtCom= 1.00D+00 WtEn= 0.00D+00
 Coeff-Com:  0.480D-05-0.536D-05-0.685D-04-0.221D-03-0.585D-03-0.144D-02
 Coeff-Com: -0.111D-02 0.618D-02 0.627D-01 0.324D+00 0.611D+00
 Coeff:      0.480D-05-0.536D-05-0.685D-04-0.221D-03-0.585D-03-0.144D-02
 Coeff:     -0.111D-02 0.618D-02 0.627D-01 0.324D+00 0.611D+00
 Gap=     0.173 Goal=   None    Shift=    0.000
 RMSDP=3.26D-08 MaxDP=1.54D-06 DE=-2.17D-10 OVMax= 3.17D-06

 Cycle  12  Pass 1  IDiag  1:
 RMSU=  2.26D-08    CP:  9.65D-01  1.06D+00  6.89D-01  6.65D-01  5.96D-01
                    CP:  7.16D-01  6.37D-01  9.21D-01  7.69D-01  9.45D-01
                    CP:  8.02D-01
 E= -514.273880097132     Delta-E=       -0.000000000021 Rises=F Damp=F
 DIIS: error= 7.52D-08 at cycle  12 NSaved=  12.
 NSaved=12 IEnMin=12 EnMin= -514.273880097132     IErMin=12 ErrMin= 7.52D-08
 ErrMax= 7.52D-08  0.00D+00 EMaxC= 1.00D-01 BMatC= 3.55D-12 BMatP= 2.30D-11
 IDIUse=1 WtCom= 1.00D+00 WtEn= 0.00D+00
 Coeff-Com: -0.327D-06 0.230D-05 0.819D-05 0.104D-04-0.367D-04-0.282D-03
 Coeff-Com: -0.138D-02-0.952D-02-0.961D-02-0.658D-03 0.284D+00 0.737D+00
 Coeff:     -0.327D-06 0.230D-05 0.819D-05 0.104D-04-0.367D-04-0.282D-03
 Coeff:     -0.138D-02-0.952D-02-0.961D-02-0.658D-03 0.284D+00 0.737D+00
 Gap=     0.173 Goal=   None    Shift=    0.000
 RMSDP=1.17D-08 MaxDP=3.14D-07 DE=-2.11D-11 OVMax= 1.11D-06

 Cycle  13  Pass 1  IDiag  1:
 RMSU=  5.66D-09    CP:  9.65D-01  1.06D+00  6.89D-01  6.65D-01  5.96D-01
                    CP:  7.16D-01  6.37D-01  9.21D-01  7.75D-01  9.60D-01
                    CP:  9.17D-01  8.79D-01
 E= -514.273880097139     Delta-E=       -0.000000000008 Rises=F Damp=F
 DIIS: error= 1.22D-08 at cycle  13 NSaved=  13.
 NSaved=13 IEnMin=13 EnMin= -514.273880097139     IErMin=13 ErrMin= 1.22D-08
 ErrMax= 1.22D-08  0.00D+00 EMaxC= 1.00D-01 BMatC= 7.83D-14 BMatP= 3.55D-12
 IDIUse=1 WtCom= 1.00D+00 WtEn= 0.00D+00
 Coeff-Com: -0.224D-06 0.719D-06 0.511D-05 0.112D-04 0.129D-04-0.253D-04
 Coeff-Com: -0.305D-03-0.284D-02-0.464D-02-0.143D-01 0.650D-01 0.205D+00
 Coeff-Com:  0.752D+00
 Coeff:     -0.224D-06 0.719D-06 0.511D-05 0.112D-04 0.129D-04-0.253D-04
 Coeff:     -0.305D-03-0.284D-02-0.464D-02-0.143D-01 0.650D-01 0.205D+00
 Coeff:      0.752D+00
 Gap=     0.173 Goal=   None    Shift=    0.000
 RMSDP=2.60D-09 MaxDP=7.56D-08 DE=-7.50D-12 OVMax= 2.70D-07

 Error on total polarization charges =  0.01565
 SCF Done:  E(RB3LYP) =  -514.273880097     A.U. after   13 cycles
            NFock= 13  Conv=0.26D-08     -V/T= 2.0089
 KE= 5.097331592976D+02 PE=-2.533462926262D+03 EE= 8.329402224629D+02
 Leave Link  502 at Sun Jul 11 16:25:25 2021, MaxMem=   104857600 cpu:             117.5 elap:              29.4
 (Enter /prod/apps/gaussian/g16b1/l601.exe)
 Copying SCF densities to generalized density rwf, IOpCl= 0 IROHF=0.

 **********************************************************************

            Population analysis using the SCF Density.

 **********************************************************************

 Orbital symmetries:
       Occupied  (A) (A) (A) (A) (A) (A) (A) (A) (A) (A) (A) (A)
                 (A) (A) (A) (A) (A) (A) (A) (A) (A) (A) (A) (A)
                 (A) (A) (A) (A) (A) (A) (A) (A) (A) (A) (A) (A)
                 (A) (A) (A) (A) (A) (A) (A)
       Virtual   (A) (A) (A) (A) (A) (A) (A) (A) (A) (A) (A) (A)
                 (A) (A) (A) (A) (A) (A) (A) (A) (A) (A) (A) (A)
                 (A) (A) (A) (A) (A) (A) (A) (A) (A) (A) (A) (A)
                 (A) (A) (A) (A) (A) (A) (A) (A) (A) (A) (A) (A)
                 (A) (A) (A) (A) (A) (A) (A) (A) (A) (A) (A) (A)
                 (A) (A) (A) (A) (A) (A) (A) (A) (A) (A) (A) (A)
                 (A) (A) (A) (A) (A) (A) (A) (A) (A) (A) (A) (A)
                 (A) (A) (A) (A) (A) (A) (A) (A) (A) (A) (A) (A)
                 (A) (A) (A) (A) (A) (A) (A) (A) (A) (A) (A) (A)
                 (A) (A) (A) (A) (A) (A) (A) (A) (A) (A) (A) (A)
                 (A) (A) (A) (A) (A) (A) (A) (A) (A) (A) (A) (A)
                 (A) (A) (A) (A) (A) (A) (A) (A) (A) (A) (A) (A)
                 (A) (A) (A) (A) (A) (A) (A) (A) (A) (A) (A) (A)
                 (A) (A) (A) (A) (A)
 The electronic state is 1-A.
 Alpha  occ. eigenvalues --  -14.44575 -14.41872 -14.32473 -10.25154 -10.25058
 Alpha  occ. eigenvalues --  -10.24753 -10.21649 -10.20753 -10.20683 -10.20195
 Alpha  occ. eigenvalues --  -10.19982 -10.19718  -1.05134  -1.01018  -0.92237
 Alpha  occ. eigenvalues --   -0.83450  -0.81088  -0.76053  -0.72953  -0.67126
 Alpha  occ. eigenvalues --   -0.64837  -0.61540  -0.60369  -0.59184  -0.56384
 Alpha  occ. eigenvalues --   -0.53438  -0.51400  -0.50225  -0.47619  -0.47133
 Alpha  occ. eigenvalues --   -0.46670  -0.44489  -0.43703  -0.41130  -0.39761
 Alpha  occ. eigenvalues --   -0.38171  -0.36732  -0.36096  -0.34086  -0.32165
 Alpha  occ. eigenvalues --   -0.30322  -0.24328  -0.21050
 Alpha virt. eigenvalues --   -0.03720   0.00236   0.04791   0.05435   0.09875
 Alpha virt. eigenvalues --    0.10776   0.10799   0.12136   0.13392   0.13633
 Alpha virt. eigenvalues --    0.14729   0.15746   0.15833   0.16510   0.16942
 Alpha virt. eigenvalues --    0.18192   0.19439   0.20422   0.23777   0.25379
 Alpha virt. eigenvalues --    0.26423   0.27695   0.29836   0.30932   0.32200
 Alpha virt. eigenvalues --    0.39945   0.42928   0.45156   0.47190   0.47530
 Alpha virt. eigenvalues --    0.49327   0.50379   0.52693   0.54081   0.54266
 Alpha virt. eigenvalues --    0.56078   0.56484   0.56797   0.57716   0.57879
 Alpha virt. eigenvalues --    0.60074   0.62248   0.63206   0.63356   0.65317
 Alpha virt. eigenvalues --    0.66241   0.66890   0.69031   0.70006   0.71044
 Alpha virt. eigenvalues --    0.73940   0.77634   0.78739   0.80138   0.81857
 Alpha virt. eigenvalues --    0.82636   0.83205   0.84181   0.84798   0.85180
 Alpha virt. eigenvalues --    0.85769   0.85999   0.87717   0.88914   0.90228
 Alpha virt. eigenvalues --    0.91213   0.92538   0.93105   0.94642   0.96437
 Alpha virt. eigenvalues --    0.97360   0.98936   1.00664   1.06087   1.07123
 Alpha virt. eigenvalues --    1.12060   1.14015   1.16641   1.18695   1.20324
 Alpha virt. eigenvalues --    1.22070   1.27145   1.32826   1.33198   1.34367
 Alpha virt. eigenvalues --    1.36088   1.39716   1.40659   1.43666   1.46888
 Alpha virt. eigenvalues --    1.50203   1.51649   1.53672   1.55575   1.56475
 Alpha virt. eigenvalues --    1.60750   1.64384   1.69488   1.71632   1.76638
 Alpha virt. eigenvalues --    1.82074   1.83493   1.85556   1.89148   1.90290
 Alpha virt. eigenvalues --    1.91068   1.92930   1.93840   1.96820   1.99023
 Alpha virt. eigenvalues --    2.00385   2.02887   2.04589   2.06114   2.07126
 Alpha virt. eigenvalues --    2.12551   2.15134   2.15820   2.19200   2.21513
 Alpha virt. eigenvalues --    2.24442   2.26171   2.26772   2.29391   2.31196
 Alpha virt. eigenvalues --    2.34566   2.36294   2.39198   2.42697   2.43261
 Alpha virt. eigenvalues --    2.48183   2.51502   2.53583   2.56351   2.59382
 Alpha virt. eigenvalues --    2.61084   2.61538   2.65708   2.68635   2.69622
 Alpha virt. eigenvalues --    2.72655   2.80398   2.81559   2.84908   2.91850
 Alpha virt. eigenvalues --    3.01402   3.13865   3.20690   3.43793   3.77440
 Alpha virt. eigenvalues --    4.06128   4.06773   4.15558   4.18579   4.23252
 Alpha virt. eigenvalues --    4.25260   4.32023   4.37410   4.45769   4.53827
 Alpha virt. eigenvalues --    4.67932
          Condensed to atoms (all electrons):
               1          2          3          4          5          6
     1  N    6.717345   0.302810   0.306124   0.204074  -0.021013  -0.039296
     2  H    0.302810   0.274338  -0.011151  -0.017365  -0.002611   0.003864
     3  H    0.306124  -0.011151   0.271892  -0.021319   0.002641  -0.002362
     4  C    0.204074  -0.017365  -0.021319   5.045518   0.378509   0.388538
     5  H   -0.021013  -0.002611   0.002641   0.378509   0.476393  -0.026948
     6  H   -0.039296   0.003864  -0.002362   0.388538  -0.026948   0.504178
     7  C   -0.056819  -0.001435  -0.001665   0.359071  -0.039590  -0.041790
     8  H   -0.002230  -0.000532   0.006636  -0.044336   0.004941  -0.005877
     9  H   -0.001961   0.002683  -0.000458  -0.031775  -0.003668   0.004863
    10  C    0.004620  -0.000133   0.000206  -0.052006   0.000706  -0.002615
    11  C    0.000164   0.000002   0.000012  -0.004796   0.000041   0.004380
    12  H   -0.000019  -0.000000   0.000002   0.000276  -0.000005   0.000578
    13  N   -0.000000  -0.000000  -0.000000   0.000033  -0.000054  -0.000140
    14  C   -0.000000   0.000000  -0.000000   0.000002  -0.000003  -0.000003
    15  H   -0.000000   0.000000  -0.000000  -0.000000   0.000000   0.000000
    16  C    0.000000  -0.000000   0.000000  -0.000000   0.000000  -0.000000
    17  H   -0.000000   0.000000  -0.000000  -0.000000   0.000000   0.000000
    18  C    0.000000   0.000000  -0.000000   0.000000  -0.000000   0.000000
    19  H   -0.000000   0.000000   0.000000   0.000000  -0.000000   0.000000
    20  C   -0.000000  -0.000000   0.000000   0.000008   0.000003  -0.000000
    21  H   -0.000000   0.000000  -0.000000  -0.000000   0.000003   0.000000
    22  C   -0.000008   0.000000   0.000000   0.000038   0.000232  -0.000034
    23  N   -0.000014   0.000007  -0.000002  -0.004347   0.005180   0.000003
    24  H    0.303841  -0.009976  -0.010684  -0.014946  -0.000840  -0.003107
               7          8          9         10         11         12
     1  N   -0.056819  -0.002230  -0.001961   0.004620   0.000164  -0.000019
     2  H   -0.001435  -0.000532   0.002683  -0.000133   0.000002  -0.000000
     3  H   -0.001665   0.006636  -0.000458   0.000206   0.000012   0.000002
     4  C    0.359071  -0.044336  -0.031775  -0.052006  -0.004796   0.000276
     5  H   -0.039590   0.004941  -0.003668   0.000706   0.000041  -0.000005
     6  H   -0.041790  -0.005877   0.004863  -0.002615   0.004380   0.000578
     7  C    5.184764   0.367585   0.357611   0.356416  -0.074717  -0.000044
     8  H    0.367585   0.530481  -0.034995  -0.010667  -0.002139   0.001084
     9  H    0.357611  -0.034995   0.544625  -0.028202   0.005415  -0.000098
    10  C    0.356416  -0.010667  -0.028202   4.706349   0.557743  -0.034270
    11  C   -0.074717  -0.002139   0.005415   0.557743   5.071206   0.365692
    12  H   -0.000044   0.001084  -0.000098  -0.034270   0.365692   0.516120
    13  N    0.006591  -0.000049  -0.000116  -0.038115   0.321538  -0.042341
    14  C   -0.000055  -0.000006   0.000001   0.006576  -0.057073   0.000090
    15  H   -0.000000  -0.000000   0.000000   0.000040  -0.002494   0.001915
    16  C    0.000003   0.000000  -0.000000  -0.000503   0.004971   0.000172
    17  H   -0.000000  -0.000000   0.000000   0.000008  -0.000153  -0.000004
    18  C    0.000010  -0.000000  -0.000000  -0.000064   0.001542   0.000009
    19  H   -0.000000   0.000000  -0.000000   0.000001   0.000011  -0.000000
    20  C   -0.000803   0.000006   0.000013   0.000006   0.017183  -0.000439
    21  H   -0.000001   0.000000   0.000003   0.000215  -0.000345   0.000003
    22  C    0.001329   0.000021   0.000779  -0.085337  -0.092113   0.004486
    23  N   -0.059873   0.002085   0.001472   0.427786  -0.088818   0.005132
    24  H    0.003938  -0.000093  -0.000005  -0.000117  -0.000002   0.000000
              13         14         15         16         17         18
     1  N   -0.000000  -0.000000  -0.000000   0.000000  -0.000000   0.000000
     2  H   -0.000000   0.000000   0.000000  -0.000000   0.000000   0.000000
     3  H   -0.000000  -0.000000  -0.000000   0.000000  -0.000000  -0.000000
     4  C    0.000033   0.000002  -0.000000  -0.000000  -0.000000   0.000000
     5  H   -0.000054  -0.000003   0.000000   0.000000   0.000000  -0.000000
     6  H   -0.000140  -0.000003   0.000000  -0.000000   0.000000   0.000000
     7  C    0.006591  -0.000055  -0.000000   0.000003  -0.000000   0.000010
     8  H   -0.000049  -0.000006  -0.000000   0.000000  -0.000000  -0.000000
     9  H   -0.000116   0.000001   0.000000  -0.000000   0.000000  -0.000000
    10  C   -0.038115   0.006576   0.000040  -0.000503   0.000008  -0.000064
    11  C    0.321538  -0.057073  -0.002494   0.004971  -0.000153   0.001542
    12  H   -0.042341   0.000090   0.001915   0.000172  -0.000004   0.000009
    13  N    6.803743   0.319388  -0.036251  -0.017536   0.003325  -0.041187
    14  C    0.319388   4.867110   0.372685   0.552136  -0.036282  -0.041870
    15  H   -0.036251   0.372685   0.475672  -0.032835  -0.001965   0.002425
    16  C   -0.017536   0.552136  -0.032835   4.959487   0.365016   0.475090
    17  H    0.003325  -0.036282  -0.001965   0.365016   0.535667  -0.034538
    18  C   -0.041187  -0.041870   0.002425   0.475090  -0.034538   4.900315
    19  H   -0.000193   0.004402  -0.000096  -0.039319  -0.004505   0.369268
    20  C   -0.040168  -0.035095   0.000203  -0.015653   0.004110   0.539343
    21  H    0.006532   0.000221   0.000015   0.005173  -0.000146  -0.042234
    22  C    0.312177  -0.023270   0.001432  -0.033845   0.000755  -0.014783
    23  N   -0.093769   0.005406  -0.000102  -0.000169   0.000003   0.004567
    24  H   -0.000000   0.000000   0.000000  -0.000000   0.000000  -0.000000
              19         20         21         22         23         24
     1  N   -0.000000  -0.000000  -0.000000  -0.000008  -0.000014   0.303841
     2  H    0.000000  -0.000000   0.000000   0.000000   0.000007  -0.009976
     3  H    0.000000   0.000000  -0.000000   0.000000  -0.000002  -0.010684
     4  C    0.000000   0.000008  -0.000000   0.000038  -0.004347  -0.014946
     5  H   -0.000000   0.000003   0.000003   0.000232   0.005180  -0.000840
     6  H    0.000000  -0.000000   0.000000  -0.000034   0.000003  -0.003107
     7  C   -0.000000  -0.000803  -0.000001   0.001329  -0.059873   0.003938
     8  H    0.000000   0.000006   0.000000   0.000021   0.002085  -0.000093
     9  H   -0.000000   0.000013   0.000003   0.000779   0.001472  -0.000005
    10  C    0.000001   0.000006   0.000215  -0.085337   0.427786  -0.000117
    11  C    0.000011   0.017183  -0.000345  -0.092113  -0.088818  -0.000002
    12  H   -0.000000  -0.000439   0.000003   0.004486   0.005132   0.000000
    13  N   -0.000193  -0.040168   0.006532   0.312177  -0.093769  -0.000000
    14  C    0.004402  -0.035095   0.000221  -0.023270   0.005406   0.000000
    15  H   -0.000096   0.000203   0.000015   0.001432  -0.000102   0.000000
    16  C   -0.039319  -0.015653   0.005173  -0.033845  -0.000169  -0.000000
    17  H   -0.004505   0.004110  -0.000146   0.000755   0.000003   0.000000
    18  C    0.369268   0.539343  -0.042234  -0.014783   0.004567  -0.000000
    19  H    0.544663  -0.038011  -0.006135   0.003674  -0.000104   0.000000
    20  C   -0.038011   5.052909   0.355289   0.457076  -0.076473   0.000000
    21  H   -0.006135   0.355289   0.563048  -0.038525  -0.001551   0.000000
    22  C    0.003674   0.457076  -0.038525   4.468760   0.473913   0.000000
    23  N   -0.000104  -0.076473  -0.001551   0.473913   6.996651   0.000001
    24  H    0.000000   0.000000   0.000000   0.000000   0.000001   0.269552
 Mulliken charges:
               1
     1  N   -0.717618
     2  H    0.459500
     3  H    0.460129
     4  C   -0.185178
     5  H    0.226083
     6  H    0.215768
     7  C   -0.360525
     8  H    0.188088
     9  H    0.183812
    10  C    0.191356
    11  C   -0.027250
    12  H    0.181659
    13  N   -0.463410
    14  C    0.065639
    15  H    0.219355
    16  C   -0.222187
    17  H    0.168709
    18  C   -0.117893
    19  H    0.166342
    20  C   -0.219509
    21  H    0.158436
    22  C    0.563241
    23  N   -0.596985
    24  H    0.462438
 Sum of Mulliken charges =   1.00000
 Mulliken charges with hydrogens summed into heavy atoms:
               1
     1  N    0.664449
     4  C    0.256673
     7  C    0.011375
    10  C    0.191356
    11  C    0.154409
    13  N   -0.463410
    14  C    0.284993
    16  C   -0.053477
    18  C    0.048449
    20  C   -0.061073
    22  C    0.563241
    23  N   -0.596985
 Electronic spatial extent (au):  <R**2>=           2510.1451
 Charge=              1.0000 electrons
 Dipole moment (field-independent basis, Debye):
    X=            -17.4249    Y=              4.2388    Z=              2.9025  Tot=             18.1664
 Quadrupole moment (field-independent basis, Debye-Ang):
   XX=             34.0615   YY=            -61.4530   ZZ=            -67.7040
   XY=             -1.0328   XZ=             -7.9686   YZ=             -0.9843
 Traceless Quadrupole moment (field-independent basis, Debye-Ang):
   XX=             65.7600   YY=            -29.7545   ZZ=            -36.0055
   XY=             -1.0328   XZ=             -7.9686   YZ=             -0.9843
 Octapole moment (field-independent basis, Debye-Ang**2):
  XXX=           -405.3277  YYY=             21.0722  ZZZ=              7.6152  XYY=             -5.6541
  XXY=             10.1685  XXZ=             51.1647  XZZ=            -34.8332  YZZ=              1.3567
  YYZ=              4.2565  XYZ=             -0.5407
 Hexadecapole moment (field-independent basis, Debye-Ang**3):
 XXXX=           -482.0029 YYYY=           -386.5258 ZZZZ=           -161.8654 XXXY=            -24.9687
 XXXZ=           -184.5950 YYYX=              8.1664 YYYZ=             -6.8788 ZZZX=            -41.8164
 ZZZY=              2.0517 XXYY=           -407.4483 XXZZ=           -403.8456 YYZZ=           -103.7555
 XXYZ=              5.4209 YYXZ=             -3.2687 ZZXY=             -4.2291
 N-N= 6.765156644040D+02 E-N=-2.533462927133D+03  KE= 5.097331592976D+02
 No NMR shielding tensors so no spin-rotation constants.
 Leave Link  601 at Sun Jul 11 16:25:26 2021, MaxMem=   104857600 cpu:               0.5 elap:               0.2
 (Enter /prod/apps/gaussian/g16b1/l701.exe)
 ... and contract with generalized density number  0.
 Compute integral first derivatives.
 D1PCM: PCM CHGder 1st derivatives, ID1Alg=3 FixD1E=F DoIter=F DoCFld=F I1PDM=0.
 GePol: Maximum number of non-zero 1st derivatives   =     297
 Leave Link  701 at Sun Jul 11 16:25:27 2021, MaxMem=   104857600 cpu:               5.0 elap:               1.3
 (Enter /prod/apps/gaussian/g16b1/l702.exe)
 L702 exits ... SP integral derivatives will be done elsewhere.
 Leave Link  702 at Sun Jul 11 16:25:27 2021, MaxMem=   104857600 cpu:               0.1 elap:               0.0
 (Enter /prod/apps/gaussian/g16b1/l703.exe)
 Integral derivatives from FoFJK, PRISM(SPDF).
 Compute integral first derivatives, UseDBF=F ICtDFT=           0.
 Calling FoFJK, ICntrl=      2127 FMM=F ISym2X=0 I1Cent= 0 IOpClX= 0 NMat=1 NMatS=1 NMatT=0.
 FoFJK:  IHMeth= 1 ICntrl=    2127 DoSepK=F KAlg= 0 I1Cent=           0 FoldK=F
 IRaf=         0 NMat=       1 IRICut=       1 DoRegI=T DoRafI=F ISym2E= 0 IDoP0=0 IntGTp=1.
 FoFCou: FMM=F IPFlag=           0 FMFlag=      100000 FMFlg1=         800
         NFxFlg=           0 DoJE=F BraDBF=F KetDBF=F FulRan=T
         wScrn=  0.000000 ICntrl=      2127 IOpCl=  0 I1Cent=           0 NGrid=           0
         NMat0=    1 NMatS0=      1 NMatT0=    0 NMatD0=    1 NMtDS0=    0 NMtDT0=    0
 Symmetry not used in FoFCou.
 Leave Link  703 at Sun Jul 11 16:25:33 2021, MaxMem=   104857600 cpu:              24.6 elap:               6.2
 (Enter /prod/apps/gaussian/g16b1/l716.exe)
 Dipole        =-6.85549451D+00 1.66767460D+00 1.14191247D+00
 ***** Axes restored to original set *****
 -------------------------------------------------------------------
 Center     Atomic                   Forces (Hartrees/Bohr)
 Number     Number              X              Y              Z
 -------------------------------------------------------------------
      1        7           0.017162639   -0.014758702    0.029204893
      2        1          -0.027846707    0.002782728    0.009201415
      3        1          -0.003861304   -0.001359972   -0.025933467
      4        6           0.008596853    0.006106858   -0.012491241
      5        1          -0.008892120    0.012934891   -0.002494171
      6        1           0.001561347   -0.001175800    0.005260673
      7        6          -0.016269481   -0.011966845    0.003898217
      8        1           0.009568099   -0.011743509   -0.002405315
      9        1          -0.006489854    0.010924493    0.004242448
     10        6           0.006957816   -0.003050812   -0.018818182
     11        6          -0.015117676    0.026104193   -0.041231590
     12        1          -0.002164156   -0.008726078   -0.002810943
     13        7           0.018417017    0.037949222   -0.027722187
     14        6          -0.011760552   -0.038169423    0.054052458
     15        1          -0.005567462    0.007707317    0.002027885
     16        6           0.001743726    0.000346767   -0.009233520
     17        1          -0.001080538    0.000552442   -0.006409020
     18        6           0.002745326    0.009736340   -0.009040697
     19        1           0.008514996    0.003609679   -0.000042926
     20        6          -0.008796183   -0.012429785    0.013138251
     21        1           0.000204968   -0.003685812    0.000525443
     22        6           0.011278858   -0.053625352    0.066529379
     23        7           0.014439975    0.011275888   -0.031064120
     24        1           0.006654412    0.030661272    0.001616317
 -------------------------------------------------------------------
 Cartesian Forces:  Max     0.066529379 RMS     0.018677480
 Leave Link  716 at Sun Jul 11 16:25:33 2021, MaxMem=   104857600 cpu:               0.1 elap:               0.0
 (Enter /prod/apps/gaussian/g16b1/l103.exe)

 GradGradGradGradGradGradGradGradGradGradGradGradGradGradGradGradGradGrad
 Berny optimization.
 FormGI is forming the generalized inverse of G from B-inverse, IUseBI=4.
 Internal  Forces:  Max     0.048256905 RMS     0.012794299
 Search for a local minimum.
 Step number   1 out of a maximum of  138
 All quantities printed in internal units (Hartrees-Bohrs-Radians)
 RMS Force = .12794D-01 SwitMx=.10000D-02 MixMth= 1
 Mixed Optimization -- RFO/linear search
 Second derivative matrix not updated -- first step.
 ITU=  0
     Eigenvalues ---    0.00416   0.00877   0.01106   0.01706   0.01792
     Eigenvalues ---    0.01883   0.02017   0.02036   0.02146   0.02217
     Eigenvalues ---    0.02256   0.02304   0.02314   0.02381   0.02463
     Eigenvalues ---    0.03958   0.04947   0.05535   0.05788   0.05833
     Eigenvalues ---    0.05837   0.07594   0.08614   0.11697   0.12196
     Eigenvalues ---    0.15656   0.15683   0.15984   0.15997   0.15999
     Eigenvalues ---    0.16000   0.16000   0.16000   0.21571   0.21879
     Eigenvalues ---    0.21895   0.22298   0.23604   0.23671   0.24801
     Eigenvalues ---    0.24878   0.32755   0.33277   0.34465   0.34488
     Eigenvalues ---    0.34571   0.34613   0.35232   0.35320   0.35467
     Eigenvalues ---    0.35475   0.35577   0.35611   0.37593   0.42016
     Eigenvalues ---    0.42498   0.45647   0.46072   0.47052   0.47668
     Eigenvalues ---    0.47670   0.47719   0.49360   0.50370   0.53609
     Eigenvalues ---    0.59442
 RFO step:  Lambda=-6.51025826D-02 EMin= 4.16212908D-03
 Linear search not attempted -- first point.
 Maximum step size (   0.300) exceeded in Quadratic search.
    -- Step size scaled by   0.708
 Iteration  1 RMS(Cart)=  0.08073096 RMS(Int)=  0.00143056
 Iteration  2 RMS(Cart)=  0.00233009 RMS(Int)=  0.00065309
 Iteration  3 RMS(Cart)=  0.00000295 RMS(Int)=  0.00065309
 Iteration  4 RMS(Cart)=  0.00000000 RMS(Int)=  0.00065309
 ITry= 1 IFail=0 DXMaxC= 2.42D-01 DCOld= 1.00D+10 DXMaxT= 3.00D-01 DXLimC= 3.00D+00 Rises=F
 Variable       Old X    -DE/DX   Delta X   Delta X   Delta X     New X
                                 (Linear)    (Quad)   (Total)
    R1        1.88992   0.02889   0.00000   0.03777   0.03777   1.92769
    R2        1.88939   0.02601   0.00000   0.03397   0.03397   1.92337
    R3        2.82784   0.01095   0.00000   0.01976   0.01976   2.84760
    R4        1.88994   0.03074   0.00000   0.04020   0.04020   1.93014
    R5        2.06514  -0.00309   0.00000  -0.00534  -0.00534   2.05980
    R6        2.06552  -0.00103   0.00000  -0.00177  -0.00177   2.06375
    R7        2.81867   0.03094   0.00000   0.05508   0.05508   2.87375
    R8        2.06378   0.00115   0.00000   0.00198   0.00198   2.06575
    R9        2.06308   0.00413   0.00000   0.00712   0.00712   2.07019
   R10        2.78600   0.02296   0.00000   0.03896   0.03896   2.82496
   R11        2.60224   0.00202   0.00000   0.00162   0.00111   2.60335
   R12        2.60734   0.01299   0.00000   0.01418   0.01410   2.62144
   R13        2.04749  -0.00277   0.00000  -0.00467  -0.00467   2.04282
   R14        2.54158   0.04826   0.00000   0.05609   0.05582   2.59740
   R15        2.62192  -0.00596   0.00000  -0.00821  -0.00774   2.61418
   R16        2.58306   0.02072   0.00000   0.02885   0.02965   2.61271
   R17        2.04695  -0.00413   0.00000  -0.00695  -0.00695   2.04000
   R18        2.64341  -0.02251   0.00000  -0.03328  -0.03318   2.61023
   R19        2.05158  -0.00178   0.00000  -0.00301  -0.00301   2.04857
   R20        2.71869  -0.00948   0.00000  -0.01680  -0.01717   2.70152
   R21        2.04910  -0.00100   0.00000  -0.00168  -0.00168   2.04742
   R22        2.59139   0.00360   0.00000   0.00510   0.00459   2.59598
   R23        2.04923   0.00043   0.00000   0.00072   0.00072   2.04995
   R24        2.64737   0.01521   0.00000   0.02353   0.02343   2.67079
   R25        2.49766   0.01518   0.00000   0.01558   0.01606   2.51373
    A1        1.91003  -0.00410   0.00000  -0.01322  -0.01328   1.89675
    A2        1.91083   0.00588   0.00000   0.01883   0.01868   1.92951
    A3        1.91019  -0.00590   0.00000  -0.01762  -0.01787   1.89232
    A4        1.91060   0.00204   0.00000   0.00594   0.00587   1.91648
    A5        1.91122  -0.00474   0.00000  -0.01556  -0.01562   1.89560
    A6        1.91093   0.00682   0.00000   0.02162   0.02146   1.93239
    A7        2.03448  -0.02051   0.00000  -0.07893  -0.07892   1.95556
    A8        1.80855   0.00129   0.00000   0.01804   0.01707   1.82562
    A9        1.87576   0.02075   0.00000   0.05352   0.05339   1.92914
   A10        1.90420   0.00297   0.00000   0.00056   0.00032   1.90452
   A11        1.94051   0.00037   0.00000   0.00875   0.00978   1.95030
   A12        1.89201  -0.00426   0.00000   0.00254   0.00144   1.89345
   A13        1.87334   0.00357   0.00000   0.02164   0.02256   1.89590
   A14        2.01608  -0.01749   0.00000  -0.05750  -0.05792   1.95816
   A15        1.84471   0.02169   0.00000   0.05615   0.05661   1.90132
   A16        1.82883   0.00560   0.00000   0.01401   0.01429   1.84312
   A17        2.08535  -0.01983   0.00000  -0.06987  -0.07025   2.01510
   A18        1.82437   0.00336   0.00000   0.02556   0.02658   1.85095
   A19        2.17483   0.01433   0.00000   0.03411   0.03439   2.20922
   A20        2.14580  -0.00498   0.00000  -0.00943  -0.00920   2.13660
   A21        1.95814  -0.00916   0.00000  -0.02311  -0.02377   1.93437
   A22        2.22583   0.00856   0.00000   0.02171   0.02208   2.24790
   A23        1.88705  -0.01124   0.00000  -0.02402  -0.02483   1.86222
   A24        2.15723   0.00253   0.00000   0.00217   0.00265   2.15988
   A25        2.20346   0.01317   0.00000   0.02985   0.02958   2.23303
   A26        1.76680   0.02590   0.00000   0.06984   0.06920   1.83600
   A27        2.27539  -0.03753   0.00000  -0.08529  -0.08548   2.18990
   A28        2.13330  -0.02202   0.00000  -0.05570  -0.05613   2.07717
   A29        1.95116   0.02943   0.00000   0.06820   0.06885   2.02001
   A30        2.18485  -0.00686   0.00000  -0.00858  -0.00908   2.17577
   A31        2.12017  -0.00577   0.00000  -0.01438  -0.01434   2.10582
   A32        2.12386   0.00013   0.00000  -0.00725  -0.00735   2.11651
   A33        2.03907   0.00563   0.00000   0.02156   0.02161   2.06068
   A34        2.13724  -0.00804   0.00000  -0.02426  -0.02392   2.11332
   A35        2.08581   0.00253   0.00000   0.00588   0.00521   2.09102
   A36        2.05998   0.00552   0.00000   0.01836   0.01868   2.07866
   A37        2.12861   0.00317   0.00000   0.00238   0.00254   2.13115
   A38        2.11582  -0.01168   0.00000  -0.02118  -0.02174   2.09408
   A39        2.03790   0.00864   0.00000   0.01969   0.01986   2.05775
   A40        1.99105   0.01808   0.00000   0.04810   0.04817   2.03922
   A41        2.08134  -0.04575   0.00000  -0.10303  -0.10266   1.97868
   A42        2.20993   0.02774   0.00000   0.05559   0.05502   2.26495
   A43        1.71954   0.04112   0.00000   0.08842   0.08884   1.80838
    D1       -0.92773  -0.00387   0.00000  -0.01535  -0.01497  -0.94271
    D2       -3.01943   0.00310   0.00000   0.01573   0.01587  -3.00356
    D3        1.26297  -0.00122   0.00000  -0.01738  -0.01805   1.24492
    D4       -3.02149  -0.00369   0.00000  -0.01432  -0.01389  -3.03538
    D5        1.17000   0.00328   0.00000   0.01676   0.01695   1.18695
    D6       -0.83079  -0.00104   0.00000  -0.01636  -0.01697  -0.84776
    D7        1.16642  -0.00331   0.00000  -0.01216  -0.01168   1.15474
    D8       -0.92528   0.00366   0.00000   0.01892   0.01916  -0.90612
    D9       -2.92607  -0.00066   0.00000  -0.01419  -0.01476  -2.94083
   D10        0.89621   0.00942   0.00000   0.04802   0.04759   0.94380
   D11       -1.13595   0.01018   0.00000   0.04926   0.04882  -1.08713
   D12        3.13987   0.00109   0.00000   0.01153   0.01223  -3.13108
   D13       -3.14124  -0.00121   0.00000  -0.00734  -0.00754   3.13440
   D14        1.10978  -0.00044   0.00000  -0.00611  -0.00631   1.10347
   D15       -0.89758  -0.00953   0.00000  -0.04383  -0.04290  -0.94048
   D16       -1.04818  -0.00005   0.00000   0.00029  -0.00021  -1.04839
   D17       -3.08034   0.00071   0.00000   0.00152   0.00102  -3.07932
   D18        1.19548  -0.00838   0.00000  -0.03620  -0.03557   1.15991
   D19       -1.46455  -0.00691   0.00000  -0.02916  -0.02798  -1.49254
   D20        1.56825  -0.00507   0.00000  -0.01119  -0.01015   1.55811
   D21        0.64652   0.00257   0.00000  -0.00052  -0.00099   0.64554
   D22       -2.60386   0.00441   0.00000   0.01745   0.01685  -2.58701
   D23        2.68334   0.00094   0.00000  -0.00316  -0.00366   2.67968
   D24       -0.56704   0.00279   0.00000   0.01481   0.01417  -0.55286
   D25        0.16636  -0.00234   0.00000  -0.02063  -0.02046   0.14589
   D26        3.13809  -0.00338   0.00000  -0.02222  -0.02180   3.11630
   D27       -2.87668  -0.00406   0.00000  -0.03723  -0.03690  -2.91357
   D28        0.09506  -0.00510   0.00000  -0.03882  -0.03823   0.05683
   D29       -3.05105  -0.00194   0.00000  -0.01154  -0.01113  -3.06218
   D30       -0.00611   0.00102   0.00000   0.00761   0.00741   0.00130
   D31       -3.00675   0.00417   0.00000   0.00616   0.00389  -3.00286
   D32       -0.13270   0.00317   0.00000   0.04198   0.04410  -0.08859
   D33       -0.02681   0.00398   0.00000   0.00713   0.00516  -0.02164
   D34        2.84725   0.00297   0.00000   0.04295   0.04538   2.89263
   D35       -0.31741   0.00876   0.00000   0.06424   0.06364  -0.25377
   D36        2.99392   0.00567   0.00000   0.04021   0.03994   3.03386
   D37       -3.11173  -0.00332   0.00000  -0.01432  -0.01330  -3.12503
   D38        0.19960  -0.00642   0.00000  -0.03836  -0.03700   0.16260
   D39       -3.03459  -0.00491   0.00000  -0.03534  -0.03509  -3.06968
   D40        0.14868  -0.00740   0.00000  -0.05281  -0.05181   0.09687
   D41       -0.17661   0.00613   0.00000   0.03026   0.02851  -0.14809
   D42        3.00667   0.00365   0.00000   0.01280   0.01179   3.01846
   D43        3.12402  -0.00048   0.00000   0.00620   0.00690   3.13092
   D44       -0.03224  -0.00140   0.00000   0.00055   0.00149  -0.03076
   D45        0.15816  -0.00209   0.00000  -0.01354  -0.01349   0.14467
   D46       -2.99810  -0.00300   0.00000  -0.01919  -0.01891  -3.01701
   D47        2.99122   0.00262   0.00000   0.02434   0.02446   3.01568
   D48       -0.13138   0.00196   0.00000   0.02542   0.02584  -0.10554
   D49       -0.16439   0.00165   0.00000   0.01866   0.01890  -0.14549
   D50        2.99619   0.00099   0.00000   0.01975   0.02028   3.01647
   D51       -3.02754  -0.00131   0.00000  -0.01475  -0.01498  -3.04252
   D52        0.16009  -0.00483   0.00000  -0.03907  -0.03908   0.12101
   D53        0.13221  -0.00179   0.00000  -0.01326  -0.01317   0.11904
   D54       -2.96334  -0.00532   0.00000  -0.03757  -0.03728  -3.00062
   D55       -0.02189   0.00380   0.00000   0.02019   0.01962  -0.00228
   D56        3.07439   0.00440   0.00000   0.03469   0.03511   3.10950
   D57       -3.11974   0.00055   0.00000  -0.00254  -0.00311  -3.12285
   D58       -0.02346   0.00116   0.00000   0.01196   0.01239  -0.01107
   D59       -0.09087   0.00438   0.00000   0.03099   0.02975  -0.06113
   D60        3.09813   0.00215   0.00000   0.01205   0.01131   3.10945
         Item               Value     Threshold  Converged?
 Maximum Force            0.048257     0.000450     NO 
 RMS     Force            0.012794     0.000300     NO 
 Maximum Displacement     0.241503     0.001800     NO 
 RMS     Displacement     0.079778     0.001200     NO 
 Predicted change in Energy=-3.396456D-02
 Lowest energy point so far.  Saving SCF results.
 GradGradGradGradGradGradGradGradGradGradGradGradGradGradGradGradGradGrad

 Leave Link  103 at Sun Jul 11 16:25:33 2021, MaxMem=   104857600 cpu:               0.1 elap:               0.0
 (Enter /prod/apps/gaussian/g16b1/l202.exe)
                          Input orientation:                          
 ---------------------------------------------------------------------
 Center     Atomic      Atomic             Coordinates (Angstroms)
 Number     Number       Type             X           Y           Z
 ---------------------------------------------------------------------
      1          7           0       -2.222458    3.556510   -1.166796
      2          1           0       -3.132475    3.492294   -0.710369
      3          1           0       -2.346776    3.401008   -2.164937
      4          6           0       -1.274719    2.528952   -0.604105
      5          1           0       -1.197156    2.594798    0.481135
      6          1           0       -0.307387    2.774665   -1.047443
      7          6           0       -1.671894    1.132564   -1.056825
      8          1           0       -1.741731    1.125854   -2.147721
      9          1           0       -2.666352    0.847812   -0.696143
     10          6           0       -0.719390    0.142329   -0.467832
     11          6           0        0.498284   -0.235995   -0.989382
     12          1           0        1.037061    0.185639   -1.826361
[...]
                 (A) (A) (A) (A) (A) (A) (A) (A) (A) (A) (A) (A)
                 (A) (A) (A) (A) (A) (A) (A) (A) (A) (A) (A) (A)
                 (A) (A) (A) (A) (A) (A) (A) (A) (A) (A) (A) (A)
                 (A) (A) (A) (A) (A) (A) (A) (A) (A) (A) (A) (A)
                 (A) (A) (A) (A) (A) (A) (A) (A) (A) (A) (A) (A)
                 (A) (A) (A) (A) (A) (A) (A) (A) (A) (A) (A) (A)
                 (A) (A) (A) (A) (A) (A) (A) (A) (A) (A) (A) (A)
                 (A) (A) (A) (A) (A) (A) (A) (A) (A) (A) (A) (A)
                 (A) (A) (A) (A) (A) (A) (A) (A) (A) (A) (A) (A)
                 (A) (A) (A) (A) (A) (A) (A) (A) (A) (A) (A) (A)
                 (A) (A) (A) (A) (A) (A) (A) (A) (A) (A) (A) (A)
                 (A) (A) (A) (A) (A) (A) (A) (A) (A) (A) (A) (A)
                 (A) (A) (A) (A) (A) (A) (A) (A) (A) (A) (A) (A)
                 (A) (A) (A) (A) (A) (A) (A) (A) (A) (A) (A) (A)
                 (A) (A) (A) (A) (A) (A) (A) (A) (A) (A) (A) (A)
                 (A) (A) (A) (A) (A) (A) (A) (A) (A) (A) (A) (A)
                 (A) (A) (A) (A) (A) (A) (A) (A) (A) (A) (A) (A)
                 (A) (A) (A) (A) (A) (A) (A) (A) (A) (A) (A) (A)
                 (A) (A) (A) (A) (A) (A) (A) (A) (A) (A) (A) (A)
                 (A) (A) (A) (A) (A) (A) (A) (A) (A) (A) (A) (A)
                 (A) (A) (A) (A) (A) (A) (A) (A) (A) (A) (A) (A)
                 (A) (A) (A) (A) (A) (A) (A) (A) (A) (A) (A) (A)
                 (A) (A) (A) (A) (A) (A) (A) (A) (A) (A) (A) (A)
                 (A) (A) (A) (A) (A) (A) (A) (A) (A) (A) (A) (A)
                 (A) (A) (A) (A) (A) (A) (A) (A) (A) (A) (A) (A)
                 (A) (A) (A) (A) (A) (A) (A) (A) (A) (A) (A) (A)
                 (A) (A) (A) (A) (A)
 The electronic state is 1-A.
 Alpha  occ. eigenvalues --  -15.89184 -15.75646 -15.65602 -11.46583 -11.41652
 Alpha  occ. eigenvalues --  -11.40013 -11.39829 -11.38631 -11.37461 -11.35554
 Alpha  occ. eigenvalues --  -11.34548 -11.34467  -1.49929  -1.46670  -1.31926
 Alpha  occ. eigenvalues --   -1.22386  -1.21363  -1.12676  -1.10886  -1.04828
 Alpha  occ. eigenvalues --   -0.96934  -0.95794  -0.94838  -0.94061  -0.89582
 Alpha  occ. eigenvalues --   -0.83846  -0.81900  -0.80215  -0.76690  -0.76104
 Alpha  occ. eigenvalues --   -0.73503  -0.72910  -0.71426  -0.70021  -0.67692
 Alpha  occ. eigenvalues --   -0.67124  -0.63780  -0.62238  -0.56986  -0.54495
 Alpha  occ. eigenvalues --   -0.53629  -0.43053  -0.39119
 Alpha virt. eigenvalues --   -0.10808  -0.07155  -0.07088  -0.05556  -0.03821
 Alpha virt. eigenvalues --   -0.03361  -0.02969  -0.02831  -0.01835  -0.01533
 Alpha virt. eigenvalues --   -0.01431  -0.01016  -0.00460   0.00657   0.01383
 Alpha virt. eigenvalues --    0.01602   0.01981   0.02485   0.03479   0.04049
 Alpha virt. eigenvalues --    0.04168   0.04599   0.04695   0.05270   0.05796
 Alpha virt. eigenvalues --    0.06396   0.06628   0.06718   0.07126   0.07322
 Alpha virt. eigenvalues --    0.07488   0.08093   0.08282   0.08447   0.09002
 Alpha virt. eigenvalues --    0.09393   0.09832   0.10333   0.10963   0.11492
 Alpha virt. eigenvalues --    0.12181   0.12433   0.12954   0.13053   0.13482
 Alpha virt. eigenvalues --    0.13835   0.14530   0.15124   0.15543   0.16855
 Alpha virt. eigenvalues --    0.17907   0.18528   0.18903   0.19650   0.20093
 Alpha virt. eigenvalues --    0.20705   0.20918   0.21831   0.22106   0.22661
 Alpha virt. eigenvalues --    0.23226   0.23776   0.23963   0.24281   0.24954
 Alpha virt. eigenvalues --    0.25292   0.25607   0.26844   0.27107   0.27645
 Alpha virt. eigenvalues --    0.28335   0.29042   0.29585   0.30188   0.30272
 Alpha virt. eigenvalues --    0.30882   0.31701   0.31877   0.32549   0.32837
 Alpha virt. eigenvalues --    0.33408   0.33927   0.34080   0.34200   0.34415
 Alpha virt. eigenvalues --    0.35368   0.35423   0.36221   0.37120   0.37788
 Alpha virt. eigenvalues --    0.38396   0.38905   0.39497   0.40158   0.41011
 Alpha virt. eigenvalues --    0.41266   0.42025   0.42571   0.43424   0.44109
 Alpha virt. eigenvalues --    0.45286   0.45996   0.46185   0.46450   0.46712
 Alpha virt. eigenvalues --    0.47375   0.47963   0.48665   0.49083   0.50038
 Alpha virt. eigenvalues --    0.51100   0.51679   0.52018   0.52923   0.53302
 Alpha virt. eigenvalues --    0.54120   0.54513   0.54767   0.56712   0.57327
 Alpha virt. eigenvalues --    0.57659   0.58338   0.58735   0.58804   0.59156
 Alpha virt. eigenvalues --    0.59965   0.60453   0.60779   0.61845   0.62040
 Alpha virt. eigenvalues --    0.63331   0.63700   0.64644   0.64948   0.64976
 Alpha virt. eigenvalues --    0.65955   0.66756   0.67151   0.68010   0.68088
 Alpha virt. eigenvalues --    0.68244   0.68928   0.69780   0.70842   0.71563
 Alpha virt. eigenvalues --    0.74249   0.74651   0.75396   0.75952   0.77000
 Alpha virt. eigenvalues --    0.77357   0.77568   0.78674   0.79222   0.79422
 Alpha virt. eigenvalues --    0.79782   0.80982   0.81938   0.82514   0.83233
 Alpha virt. eigenvalues --    0.83458   0.84102   0.84479   0.85050   0.85810
 Alpha virt. eigenvalues --    0.86354   0.87118   0.89341   0.90323   0.90991
 Alpha virt. eigenvalues --    0.91644   0.93323   0.93757   0.94201   0.94922
 Alpha virt. eigenvalues --    0.96104   0.97616   0.98664   0.99566   1.00633
 Alpha virt. eigenvalues --    1.02158   1.03194   1.05412   1.06128   1.06816
 Alpha virt. eigenvalues --    1.08383   1.09007   1.09696   1.10696   1.13214
 Alpha virt. eigenvalues --    1.14062   1.14906   1.15347   1.18078   1.19989
 Alpha virt. eigenvalues --    1.21325   1.25105   1.26569   1.28481   1.29498
 Alpha virt. eigenvalues --    1.30742   1.31609   1.34061   1.34745   1.37344
 Alpha virt. eigenvalues --    1.38287   1.40170   1.42689   1.45074   1.46503
 Alpha virt. eigenvalues --    1.47934   1.49598   1.50473   1.51121   1.52354
 Alpha virt. eigenvalues --    1.52499   1.53859   1.54186   1.55899   1.57479
 Alpha virt. eigenvalues --    1.57786   1.58386   1.59673   1.60800   1.62279
 Alpha virt. eigenvalues --    1.63988   1.64970   1.66073   1.66989   1.67801
 Alpha virt. eigenvalues --    1.68620   1.69540   1.70307   1.71007   1.73292
 Alpha virt. eigenvalues --    1.74665   1.76489   1.77761   1.79236   1.81781
 Alpha virt. eigenvalues --    1.82311   1.83154   1.84101   1.84982   1.85547
 Alpha virt. eigenvalues --    1.86423   1.88319   1.89591   1.90405   1.91934
 Alpha virt. eigenvalues --    1.92278   1.92726   1.94596   1.95710   1.97647
 Alpha virt. eigenvalues --    1.99235   2.00766   2.01523   2.01954   2.03048
 Alpha virt. eigenvalues --    2.05262   2.05608   2.07099   2.08079   2.08394
 Alpha virt. eigenvalues --    2.09070   2.10693   2.12529   2.13837   2.15046
 Alpha virt. eigenvalues --    2.16327   2.17494   2.19474   2.20663   2.21662
 Alpha virt. eigenvalues --    2.22756   2.23942   2.25536   2.26522   2.27734
 Alpha virt. eigenvalues --    2.28342   2.30566   2.31513   2.33915   2.34595
 Alpha virt. eigenvalues --    2.35635   2.35869   2.38022   2.39928   2.42437
 Alpha virt. eigenvalues --    2.45038   2.47086   2.48201   2.50490   2.51031
 Alpha virt. eigenvalues --    2.53341   2.54137   2.56405   2.59173   2.60354
 Alpha virt. eigenvalues --    2.61612   2.64846   2.67525   2.68940   2.69690
 Alpha virt. eigenvalues --    2.71163   2.72574   2.73435   2.77434   2.79419
 Alpha virt. eigenvalues --    2.80076   2.81746   2.82088   2.82843   2.84331
 Alpha virt. eigenvalues --    2.86920   2.89280   2.89623   2.91883   2.97290
 Alpha virt. eigenvalues --    2.97939   2.99976   3.04268   3.04767   3.09329
 Alpha virt. eigenvalues --    3.11112   3.13574   3.22491   3.25352   3.35046
 Alpha virt. eigenvalues --    3.36755   3.38003   3.39457   3.41777   3.49404
 Alpha virt. eigenvalues --    3.51177   3.57767   3.64479   3.81889   4.23876
 Alpha virt. eigenvalues --    4.45461
          Condensed to atoms (all electrons):
               1          2          3          4          5          6
     1  N    6.702094   0.415748   0.416781  -0.204644  -0.142151  -0.122528
     2  H    0.415748   0.506256  -0.046587  -0.045261  -0.029449   0.024478
     3  H    0.416781  -0.046587   0.514698  -0.038014   0.019386  -0.028134
     4  C   -0.204644  -0.045261  -0.038014   4.770485   0.321713   0.191760
     5  H   -0.142151  -0.029449   0.019386   0.321713   1.147573  -0.121321
     6  H   -0.122528   0.024478  -0.028134   0.191760  -0.121321   1.255317
     7  C   -0.075406  -0.016544  -0.038002   0.583752  -0.120938   0.019825
     8  H   -0.031914  -0.013338   0.010155  -0.046108   0.070339  -0.081000
     9  H   -0.011730   0.013699  -0.010870  -0.176829  -0.038610   0.063489
    10  C    0.157525   0.002471   0.022792  -0.198345   0.033909  -0.115036
    11  C   -0.026624   0.004819  -0.003231  -0.019214   0.004756   0.053955
    12  H   -0.000590  -0.000087  -0.000095   0.009236  -0.000167   0.006262
    13  N    0.001911  -0.000311  -0.000031   0.000699   0.003412   0.001320
    14  C   -0.001274  -0.000111   0.000139   0.016911  -0.000508   0.002606
    15  H    0.000092   0.000002  -0.000015   0.000251   0.000293  -0.000496
    16  C   -0.000911   0.000105  -0.000043  -0.001143   0.002047  -0.000835
    17  H   -0.000021   0.000000  -0.000003  -0.000122   0.000037   0.000039
    18  C    0.001010  -0.000103   0.000156   0.003876  -0.001548  -0.000066
    19  H    0.000004  -0.000004   0.000003   0.000300   0.000019   0.000015
    20  C   -0.002900   0.000171  -0.000289  -0.051509   0.009648  -0.003559
    21  H   -0.000255   0.000006  -0.000007   0.001349   0.000354   0.000273
    22  C    0.034559  -0.000471   0.002161  -0.085256  -0.021964   0.007463
    23  N    0.013924   0.002037   0.000371  -0.040377  -0.015485   0.010518
    24  H    0.443466  -0.063761  -0.064418  -0.052287  -0.025971  -0.035494
               7          8          9         10         11         12
     1  N   -0.075406  -0.031914  -0.011730   0.157525  -0.026624  -0.000590
     2  H   -0.016544  -0.013338   0.013699   0.002471   0.004819  -0.000087
     3  H   -0.038002   0.010155  -0.010870   0.022792  -0.003231  -0.000095
     4  C    0.583752  -0.046108  -0.176829  -0.198345  -0.019214   0.009236
     5  H   -0.120938   0.070339  -0.038610   0.033909   0.004756  -0.000167
     6  H    0.019825  -0.081000   0.063489  -0.115036   0.053955   0.006262
     7  C    5.633410  -0.020534   0.305929  -0.312589   0.080249  -0.014762
     8  H   -0.020534   1.217535  -0.094699   0.234777  -0.111976  -0.005828
     9  H    0.305929  -0.094699   1.001742  -0.279169   0.163722   0.009824
    10  C   -0.312589   0.234777  -0.279169   8.045629  -1.894992   0.082446
    11  C    0.080249  -0.111976   0.163722  -1.894992   9.257425  -0.444503
    12  H   -0.014762  -0.005828   0.009824   0.082446  -0.444503   1.580586
    13  N   -0.013746   0.026453  -0.008419   0.399598  -0.106141   0.023458
    14  C   -0.046599  -0.001489   0.003554  -0.120612  -0.801283   0.142358
    15  H    0.019093   0.002185  -0.000414   0.001169  -0.004993  -0.055692
    16  C    0.061652  -0.000858   0.000549  -0.082685   0.352284  -0.022297
    17  H   -0.000078   0.000118   0.000064   0.001992   0.021083  -0.001496
    18  C   -0.037634  -0.001570  -0.001106  -0.308959  -0.080241   0.032835
    19  H    0.000125  -0.000040   0.000117   0.023801  -0.010867   0.001273
    20  C   -0.033999   0.015304  -0.010315   0.597876  -0.703828  -0.034624
    21  H    0.002115  -0.000020   0.001188  -0.048935   0.078138   0.002920
    22  C   -0.314369  -0.025410   0.023117  -0.594842  -1.031912   0.146578
    23  N   -0.035363  -0.053060   0.041277   0.054975   0.189547   0.013026
    24  H    0.035194   0.001805  -0.002897  -0.009423  -0.001990  -0.000072
              13         14         15         16         17         18
     1  N    0.001911  -0.001274   0.000092  -0.000911  -0.000021   0.001010
     2  H   -0.000311  -0.000111   0.000002   0.000105   0.000000  -0.000103
     3  H   -0.000031   0.000139  -0.000015  -0.000043  -0.000003   0.000156
     4  C    0.000699   0.016911   0.000251  -0.001143  -0.000122   0.003876
     5  H    0.003412  -0.000508   0.000293   0.002047   0.000037  -0.001548
     6  H    0.001320   0.002606  -0.000496  -0.000835   0.000039  -0.000066
     7  C   -0.013746  -0.046599   0.019093   0.061652  -0.000078  -0.037634
     8  H    0.026453  -0.001489   0.002185  -0.000858   0.000118  -0.001570
     9  H   -0.008419   0.003554  -0.000414   0.000549   0.000064  -0.001106
    10  C    0.399598  -0.120612   0.001169  -0.082685   0.001992  -0.308959
    11  C   -0.106141  -0.801283  -0.004993   0.352284   0.021083  -0.080241
    12  H    0.023458   0.142358  -0.055692  -0.022297  -0.001496   0.032835
    13  N    7.907200  -0.063683  -0.052188  -0.166453   0.031797  -0.378925
    14  C   -0.063683   7.383878  -0.367910  -1.387084   0.272253   0.801271
    15  H   -0.052188  -0.367910   1.722288   0.357598  -0.066678   0.021901
    16  C   -0.166453  -1.387084   0.357598   7.388225  -0.550208  -1.049931
    17  H    0.031797   0.272253  -0.066678  -0.550208   1.609816   0.250810
    18  C   -0.378925   0.801271   0.021901  -1.049931   0.250810   7.491596
    19  H    0.007742  -0.124300  -0.009439   0.254165  -0.062015  -0.411164
    20  C    0.106538  -0.602134   0.027851   1.082341  -0.081010  -1.417633
    21  H    0.037709   0.012065  -0.002728  -0.128837  -0.007926   0.269013
    22  C    0.163729   0.308242  -0.109157  -1.011225   0.012387   0.958254
    23  N   -0.174422  -0.095208   0.005925   0.113434  -0.000517  -0.090473
    24  H   -0.000017   0.000039  -0.000001  -0.000124  -0.000003   0.000100
              19         20         21         22         23         24
     1  N    0.000004  -0.002900  -0.000255   0.034559   0.013924   0.443466
     2  H   -0.000004   0.000171   0.000006  -0.000471   0.002037  -0.063761
     3  H    0.000003  -0.000289  -0.000007   0.002161   0.000371  -0.064418
     4  C    0.000300  -0.051509   0.001349  -0.085256  -0.040377  -0.052287
     5  H    0.000019   0.009648   0.000354  -0.021964  -0.015485  -0.025971
     6  H    0.000015  -0.003559   0.000273   0.007463   0.010518  -0.035494
     7  C    0.000125  -0.033999   0.002115  -0.314369  -0.035363   0.035194
     8  H   -0.000040   0.015304  -0.000020  -0.025410  -0.053060   0.001805
     9  H    0.000117  -0.010315   0.001188   0.023117   0.041277  -0.002897
    10  C    0.023801   0.597876  -0.048935  -0.594842   0.054975  -0.009423
    11  C   -0.010867  -0.703828   0.078138  -1.031912   0.189547  -0.001990
    12  H    0.001273  -0.034624   0.002920   0.146578   0.013026  -0.000072
    13  N    0.007742   0.106538   0.037709   0.163729  -0.174422  -0.000017
    14  C   -0.124300  -0.602134   0.012065   0.308242  -0.095208   0.000039
    15  H   -0.009439   0.027851  -0.002728  -0.109157   0.005925  -0.000001
    16  C    0.254165   1.082341  -0.128837  -1.011225   0.113434  -0.000124
    17  H   -0.062015  -0.081010  -0.007926   0.012387  -0.000517  -0.000003
    18  C   -0.411164  -1.417633   0.269013   0.958254  -0.090473   0.000100
    19  H    1.510321   0.314122  -0.058487  -0.028821   0.003423   0.000002
    20  C    0.314122   9.494433  -0.987457  -3.381751   0.213752  -0.000533
    21  H   -0.058487  -0.987457   1.640682   0.741568  -0.075491  -0.000008
    22  C   -0.028821  -3.381751   0.741568  10.464620   0.066843   0.000296
    23  N    0.003423   0.213752  -0.075491   0.066843   7.899458  -0.000586
    24  H    0.000002  -0.000533  -0.000008   0.000296  -0.000586   0.592417
 Mulliken charges:
               1
     1  N   -0.566166
     2  H    0.246232
     3  H    0.243099
     4  C    1.058777
     5  H   -0.095373
     6  H   -0.128849
     7  C    0.339218
     8  H   -0.090826
     9  H    0.006788
    10  C    0.306625
    11  C    1.035817
    12  H   -0.470588
    13  N   -0.747231
    14  C    0.668879
    15  H   -0.488938
    16  C    0.790233
    17  H   -0.430318
    18  C   -0.051469
    19  H   -0.410294
    20  C    1.449507
    21  H   -0.477229
    22  C   -0.324637
    23  N   -1.047527
    24  H    0.184268
 Sum of Mulliken charges =   1.00000
 Mulliken charges with hydrogens summed into heavy atoms:
               1
     1  N    0.107433
     4  C    0.834555
     7  C    0.255181
    10  C    0.306625
    11  C    0.565229
    13  N   -0.747231
    14  C    0.179941
    16  C    0.359915
    18  C   -0.461763
    20  C    0.972278
    22  C   -0.324637
    23  N   -1.047527
 Electronic spatial extent (au):  <R**2>=           2660.3625
 Charge=              1.0000 electrons
 Dipole moment (field-independent basis, Debye):
    X=            -14.8510    Y=              1.4209    Z=              1.9355  Tot=             15.0438
 Quadrupole moment (field-independent basis, Debye-Ang):
   XX=             37.7319   YY=            -60.2787   ZZ=            -71.2175
   XY=              3.6299   XZ=             -4.2705   YZ=             -0.4311
 Traceless Quadrupole moment (field-independent basis, Debye-Ang):
   XX=             68.9867   YY=            -29.0240   ZZ=            -39.9627
   XY=              3.6299   XZ=             -4.2705   YZ=             -0.4311
 Octapole moment (field-independent basis, Debye-Ang**2):
  XXX=           -402.5369  YYY=              9.6666  ZZZ=              4.3047  XYY=             -5.0637
  XXY=            -26.8764  XXZ=             36.5379  XZZ=            -34.5515  YZZ=             -1.8246
  YYZ=              3.6714  XYZ=              4.4993
 Hexadecapole moment (field-independent basis, Debye-Ang**3):
 XXXX=           -449.5108 YYYY=           -393.7983 ZZZZ=           -142.3695 XXXY=            111.0239
 XXXZ=           -111.1612 YYYX=              6.8380 YYYZ=              2.0030 ZZZX=            -24.1715
 ZZZY=             -0.9279 XXYY=           -437.9158 XXZZ=           -464.0079 YYZZ=           -109.1892
 XXYZ=             -3.5009 YYXZ=             -3.5938 ZZXY=             15.1241
 N-N= 6.661601564340D+02 E-N=-2.511651954394D+03  KE= 5.102643128706D+02
 Leave Link  601 at Sun Jul 11 16:46:17 2021, MaxMem=   262144000 cpu:               0.5 elap:               0.2
 (Enter /prod/apps/gaussian/g16b1/l9999.exe)
 1\1\GINC-PIRINEUS48\SP\RMP2-FC\Aug-CC-pVDZ\C9H12N3(1+)\UBATOR02\11-Jul
 -2021\0\\#p mp2/aug-cc-pVDZ scf=tight maxdisk=180GB geom=allcheck\\SET
 _328_BBB315_conf1.geo_180_090 geometry\\1,1\N,0,-2.4098730359,3.531486
 3169,-1.0646530507\H,0,-3.3731833536,3.1757123776,-0.9490789671\H,0,-2
 .2521028118,3.6827823581,-2.0731168645\C,0,-1.4002623318,2.5829213959,
 -0.4843556951\H,0,-1.6274636208,2.4893759203,0.5769584828\H,0,-0.42322
 71139,3.0531635443,-0.5994588434\C,0,-1.4621785302,1.2267134154,-1.187
 4549089\H,0,-1.2157226029,1.345761501,-2.2454051356\H,0,-2.4860004816,
 0.8389027737,-1.1281650442\C,0,-0.5184820147,0.2487077425,-0.552319155
 2\C,0,0.5856478834,-0.342554334,-1.1294833448\H,0,1.0191418395,-0.2656
 40892,-2.1132677441\N,0,1.1275817351,-1.1523617345,-0.1531270033\C,0,2
 .2263809785,-1.9761892161,-0.17316189\H,0,2.7815085354,-2.0161571299,-
 1.1003170393\C,0,2.5479854986,-2.6813246214,0.9522072802\H,0,3.4142327
 126,-3.3297022006,0.9361599868\C,0,1.7542181088,-2.5632715786,2.126555
 9624\H,0,2.0233587854,-3.1301646862,3.0098219621\C,0,0.6548183009,-1.7
 398680913,2.1453323372\H,0,0.0313479447,-1.6303170043,3.0241948341\C,0
 ,0.3173984775,-1.0072266261,0.9842274188\N,0,-0.6841916996,-0.15730617
 69,0.7470346877\H,0,-2.3639332037,4.453556946,-0.6021282663\\Version=E
 S64L-G16RevB.01\State=1-A\HF=-510.991427\MP2=-512.74299\RMSD=9.151e-09
 \PG=C01 [X(C9H12N3)]\\@


 Fatherhood is pretending the present you love most is soap-on-a-rope.
 -- Bill Cosby
 Job cpu time:       0 days  0 hours 20 minutes 19.4 seconds.
 Elapsed time:       0 days  0 hours  5 minutes 17.6 seconds.
 File lengths (MBytes):  RWF=  15968 Int=      0 D2E=      0 Chk=     13 Scr=      1
 Normal termination of Gaussian 16 at Sun Jul 11 16:46:18 2021.
