 Entering Gaussian System, Link 0=g16
 Initial command:
 /prod/apps/gaussian/g16b1/l1.exe "/tmp/ubator02/1834542/Gau-40843.inp" -scrdir="/tmp/ubator02/1834542/"
 Entering Link 1 = /prod/apps/gaussian/g16b1/l1.exe PID=     40844.
  
 Copyright (c) 1988-2017, Gaussian, Inc.  All Rights Reserved.
  
 This is part of the Gaussian(R) 16 program.  It is based on
 the Gaussian(R) 09 system (copyright 2009, Gaussian, Inc.),
 the Gaussian(R) 03 system (copyright 2003, Gaussian, Inc.),
 the Gaussian(R) 98 system (copyright 1998, Gaussian, Inc.),
 the Gaussian(R) 94 system (copyright 1995, Gaussian, Inc.),
 the Gaussian 92(TM) system (copyright 1992, Gaussian, Inc.),
 the Gaussian 90(TM) system (copyright 1990, Gaussian, Inc.),
 the Gaussian 88(TM) system (copyright 1988, Gaussian, Inc.),
 the Gaussian 86(TM) system (copyright 1986, Carnegie Mellon
 University), and the Gaussian 82(TM) system (copyright 1983,
 Carnegie Mellon University). Gaussian is a federally registered
 trademark of Gaussian, Inc.
  
 This software contains proprietary and confidential information,
 including trade secrets, belonging to Gaussian, Inc.
  
 This software is provided under written license and may be
 used, copied, transmitted, or stored only in accord with that
 written license.
  
 The following legend is applicable only to US Government
 contracts under FAR:
  
                    RESTRICTED RIGHTS LEGEND
  
 Use, reproduction and disclosure by the US Government is
 subject to restrictions as set forth in subparagraphs (a)
 and (c) of the Commercial Computer Software - Restricted
 Rights clause in FAR 52.227-19.
  
 Gaussian, Inc.
 340 Quinnipiac St., Bldg. 40, Wallingford CT 06492
  
  
 ---------------------------------------------------------------
 Warning -- This program may not be used in any manner that
 competes with the business of Gaussian, Inc. or will provide
 assistance to any competitor of Gaussian, Inc.  The licensee
 of this program is prohibited from giving any competitor of
 Gaussian, Inc. access to this program.  By using this program,
 the user acknowledges that Gaussian, Inc. is engaged in the
 business of creating and licensing software in the field of
 computational chemistry and represents and warrants to the
 licensee that it is not a competitor of Gaussian, Inc. and that
 it will not use this program in any manner prohibited above.
 ---------------------------------------------------------------
  

 Cite this work as:
 Gaussian 16, Revision B.01,
 M. J. Frisch, G. W. Trucks, H. B. Schlegel, G. E. Scuseria, 
 M. A. Robb, J. R. Cheeseman, G. Scalmani, V. Barone, 
 G. A. Petersson, H. Nakatsuji, X. Li, M. Caricato, A. V. Marenich, 
 J. Bloino, B. G. Janesko, R. Gomperts, B. Mennucci, H. P. Hratchian, 
 J. V. Ortiz, A. F. Izmaylov, J. L. Sonnenberg, D. Williams-Young, 
 F. Ding, F. Lipparini, F. Egidi, J. Goings, B. Peng, A. Petrone, 
 T. Henderson, D. Ranasinghe, V. G. Zakrzewski, J. Gao, N. Rega, 
 G. Zheng, W. Liang, M. Hada, M. Ehara, K. Toyota, R. Fukuda, 
 J. Hasegawa, M. Ishida, T. Nakajima, Y. Honda, O. Kitao, H. Nakai, 
 T. Vreven, K. Throssell, J. A. Montgomery, Jr., J. E. Peralta, 
 F. Ogliaro, M. J. Bearpark, J. J. Heyd, E. N. Brothers, K. N. Kudin, 
 V. N. Staroverov, T. A. Keith, R. Kobayashi, J. Normand, 
 K. Raghavachari, A. P. Rendell, J. C. Burant, S. S. Iyengar, 
 J. Tomasi, M. Cossi, J. M. Millam, M. Klene, C. Adamo, R. Cammi, 
 J. W. Ochterski, R. L. Martin, K. Morokuma, O. Farkas, 
 J. B. Foresman, and D. J. Fox, Gaussian, Inc., Wallingford CT, 2016.
 
 ******************************************
 Gaussian 16:  ES64L-G16RevB.01 20-Dec-2017
                11-Jul-2021 
 ******************************************
 %mem=800MB
 %nproc=4
 Will use up to    4 processors via shared memory.
 %chk=SET_328_BBB277_conf1.geo_210_060.chk
 -----------------------------------------------------------
 #p b3lyp/6-31G(d) opt freq scrf=(iefpcm,read,solvent=water)
 -----------------------------------------------------------
 1/18=20,19=15,26=3,38=1,40=2/1,3;
 2/9=110,12=2,17=6,18=5,40=1/2;
 3/5=1,6=6,7=1,11=2,25=1,30=1,70=2203,71=1,72=1,74=-5/1,2,3;
 4//1;
 5/5=2,38=5,53=1/2;
 6/7=2,8=2,9=2,10=2,28=1/1;
 7//1,2,3,16;
 1/18=20,19=15,26=3/3(2);
 2/9=110/2;
 99//99;
 2/9=110/2;
 3/5=1,6=6,7=1,11=2,25=1,30=1,70=2205,71=1,72=1,74=-5/1,2,3;
 4/5=5,16=3,69=1/1;
 5/5=2,38=5,53=1/2;
 7//1,2,3,16;
 1/18=20,19=15,26=3/3(-5);
 2/9=110/2;
 6/7=2,8=2,9=2,10=2,19=2,28=1/1;
 99/9=1/99;
 Leave Link    1 at Sun Jul 11 15:59:43 2021, MaxMem=   104857600 cpu:               0.1 elap:               0.0
 (Enter /prod/apps/gaussian/g16b1/l101.exe)
 -----------------------------------------
 SET_328_BBB277_conf1.geo_210_060 geometry
 -----------------------------------------
 Symbolic Z-matrix:
 Charge = -1 Multiplicity = 1
 C                     2.38     -2.82     -0.947 
 H                     3.321    -2.435    -1.347 
 H                     2.284    -3.907    -0.99 
 H                     2.375    -2.796     0.145 
 C                     1.149    -2.102    -1.515 
 C                     0.392    -2.602    -2.77 
 N                    -0.746    -1.976    -2.897 
 C                    -1.305    -1.034    -2.162 
 O                    -2.406    -0.62     -2.473 
 O                     0.621    -3.544    -3.417 
 C                     0.71     -1.001    -0.762 
 H                     1.27     -0.53      0.036 
 N                    -0.511    -0.44     -1.122 
 C                    -1.009     0.738    -0.387 
 O                     0.112     1.582     0.062 
 H                    -1.563     1.424    -1.045 
 C                    -1.769     0.377     0.889 
 H                    -1.781    -0.693     1.107 
 H                    -2.829     0.628     0.809 
 C                    -1.197     1.271     2.018 
 F                    -1.166     0.629     3.278 
 H                    -1.805     2.175     2.105 
 C                     0.202     1.6       1.537 
 H                     0.874     0.795     1.844 
 C                     0.741     2.882     2.174 
 H                     1.793     2.975     1.891 
 H                     0.797     2.857     3.265 
 O                     0.007     4.037     1.908 
 H                     0.472     4.754     2.376 
 
 ITRead=  0  0  0  0  0  0  0  0  0  0  0  0  0  0  0  0  0  0  0  0
 ITRead=  0  0  0  0  0  0  0  0  0
 MicOpt= -1 -1 -1 -1 -1 -1 -1 -1 -1 -1 -1 -1 -1 -1 -1 -1 -1 -1 -1 -1
 MicOpt= -1 -1 -1 -1 -1 -1 -1 -1 -1
 NAtoms=     29 NQM=       29 NQMF=       0 NMMI=      0 NMMIF=      0
                NMic=       0 NMicF=      0.
                    Isotopes and Nuclear Properties:
 (Nuclear quadrupole moments (NQMom) in fm**2, nuclear magnetic moments (NMagM)
  in nuclear magnetons)

  Atom         1           2           3           4           5           6           7           8           9          10
 IAtWgt=          12           1           1           1          12          12          14          12          16          16
 AtmWgt=  12.0000000   1.0078250   1.0078250   1.0078250  12.0000000  12.0000000  14.0030740  12.0000000  15.9949146  15.9949146
 NucSpn=           0           1           1           1           0           0           2           0           0           0
 AtZEff=  -0.0000000  -0.0000000  -0.0000000  -0.0000000  -0.0000000  -0.0000000  -0.0000000  -0.0000000  -0.0000000  -0.0000000
 NQMom=    0.0000000   0.0000000   0.0000000   0.0000000   0.0000000   0.0000000   2.0440000   0.0000000   0.0000000   0.0000000
 NMagM=    0.0000000   2.7928460   2.7928460   2.7928460   0.0000000   0.0000000   0.4037610   0.0000000   0.0000000   0.0000000
 AtZNuc=   6.0000000   1.0000000   1.0000000   1.0000000   6.0000000   6.0000000   7.0000000   6.0000000   8.0000000   8.0000000

  Atom        11          12          13          14          15          16          17          18          19          20
 IAtWgt=          12           1          14          12          16           1          12           1           1          12
 AtmWgt=  12.0000000   1.0078250  14.0030740  12.0000000  15.9949146   1.0078250  12.0000000   1.0078250   1.0078250  12.0000000
 NucSpn=           0           1           2           0           0           1           0           1           1           0
 AtZEff=  -0.0000000  -0.0000000  -0.0000000  -0.0000000  -0.0000000  -0.0000000  -0.0000000  -0.0000000  -0.0000000  -0.0000000
 NQMom=    0.0000000   0.0000000   2.0440000   0.0000000   0.0000000   0.0000000   0.0000000   0.0000000   0.0000000   0.0000000
 NMagM=    0.0000000   2.7928460   0.4037610   0.0000000   0.0000000   2.7928460   0.0000000   2.7928460   2.7928460   0.0000000
 AtZNuc=   6.0000000   1.0000000   7.0000000   6.0000000   8.0000000   1.0000000   6.0000000   1.0000000   1.0000000   6.0000000

  Atom        21          22          23          24          25          26          27          28          29
 IAtWgt=          19           1          12           1          12           1           1          16           1
 AtmWgt=  18.9984033   1.0078250  12.0000000   1.0078250  12.0000000   1.0078250   1.0078250  15.9949146   1.0078250
 NucSpn=           1           1           0           1           0           1           1           0           1
 AtZEff=  -0.0000000  -0.0000000  -0.0000000  -0.0000000  -0.0000000  -0.0000000  -0.0000000  -0.0000000  -0.0000000
 NQMom=    0.0000000   0.0000000   0.0000000   0.0000000   0.0000000   0.0000000   0.0000000   0.0000000   0.0000000
 NMagM=    2.6288670   2.7928460   0.0000000   2.7928460   0.0000000   2.7928460   2.7928460   0.0000000   2.7928460
 AtZNuc=   9.0000000   1.0000000   6.0000000   1.0000000   6.0000000   1.0000000   1.0000000   8.0000000   1.0000000
 Leave Link  101 at Sun Jul 11 15:59:43 2021, MaxMem=   104857600 cpu:               0.5 elap:               0.1
 (Enter /prod/apps/gaussian/g16b1/l103.exe)

 GradGradGradGradGradGradGradGradGradGradGradGradGradGradGradGradGradGrad
 Berny optimization.
 Initialization pass.
                           ----------------------------
                           !    Initial Parameters    !
                           ! (Angstroms and Degrees)  !
 --------------------------                            --------------------------
 ! Name  Definition              Value          Derivative Info.                !
 --------------------------------------------------------------------------------
 ! R1    R(1,2)                  1.0926         estimate D2E/DX2                !
 ! R2    R(1,3)                  1.0921         estimate D2E/DX2                !
 ! R3    R(1,4)                  1.0923         estimate D2E/DX2                !
 ! R4    R(1,5)                  1.5341         estimate D2E/DX2                !
 ! R5    R(5,6)                  1.5486         estimate D2E/DX2                !
 ! R6    R(5,11)                 1.4043         estimate D2E/DX2                !
 ! R7    R(6,7)                  1.305          estimate D2E/DX2                !
 ! R8    R(6,10)                 1.1655         estimate D2E/DX2                !
 ! R9    R(7,8)                  1.3191         estimate D2E/DX2                !
 ! R10   R(8,9)                  1.2167         estimate D2E/DX2                !
 ! R11   R(8,13)                 1.437          estimate D2E/DX2                !
 ! R12   R(11,12)                1.0827         estimate D2E/DX2                !
 ! R13   R(11,13)                1.3911         estimate D2E/DX2                !
 ! R14   R(13,14)                1.4751         estimate D2E/DX2                !
 ! R15   R(14,15)                1.4733         estimate D2E/DX2                !
 ! R16   R(14,16)                1.1002         estimate D2E/DX2                !
 ! R17   R(14,17)                1.5284         estimate D2E/DX2                !
 ! R18   R(15,23)                1.4779         estimate D2E/DX2                !
 ! R19   R(17,18)                1.092          estimate D2E/DX2                !
 ! R20   R(17,19)                1.0922         estimate D2E/DX2                !
 ! R21   R(17,20)                1.5495         estimate D2E/DX2                !
 ! R22   R(20,21)                1.4145         estimate D2E/DX2                !
 ! R23   R(20,22)                1.0929         estimate D2E/DX2                !
 ! R24   R(20,23)                1.5155         estimate D2E/DX2                !
 ! R25   R(23,24)                1.0926         estimate D2E/DX2                !
 ! R26   R(23,25)                1.5296         estimate D2E/DX2                !
 ! R27   R(25,26)                1.0934         estimate D2E/DX2                !
 ! R28   R(25,27)                1.0927         estimate D2E/DX2                !
 ! R29   R(25,28)                1.3941         estimate D2E/DX2                !
 ! R30   R(28,29)                0.9743         estimate D2E/DX2                !
 ! A1    A(2,1,3)              114.3329         estimate D2E/DX2                !
 ! A2    A(2,1,4)              111.2364         estimate D2E/DX2                !
 ! A3    A(2,1,5)              112.9936         estimate D2E/DX2                !
 ! A4    A(3,1,4)               93.4876         estimate D2E/DX2                !
 ! A5    A(3,1,5)              112.379          estimate D2E/DX2                !
 ! A6    A(4,1,5)              110.8668         estimate D2E/DX2                !
 ! A7    A(1,5,6)              122.7649         estimate D2E/DX2                !
 ! A8    A(1,5,11)             114.7884         estimate D2E/DX2                !
 ! A9    A(6,5,11)             122.3373         estimate D2E/DX2                !
 ! A10   A(5,6,7)              110.5035         estimate D2E/DX2                !
 ! A11   A(5,6,10)             127.9372         estimate D2E/DX2                !
 ! A12   A(7,6,10)             120.3322         estimate D2E/DX2                !
 ! A13   A(6,7,8)              131.1373         estimate D2E/DX2                !
 ! A14   A(7,8,9)              118.9497         estimate D2E/DX2                !
 ! A15   A(7,8,13)             117.6652         estimate D2E/DX2                !
 ! A16   A(9,8,13)             122.9808         estimate D2E/DX2                !
 ! A17   A(5,11,12)            125.072          estimate D2E/DX2                !
 ! A18   A(5,11,13)            116.8601         estimate D2E/DX2                !
 ! A19   A(12,11,13)           117.9877         estimate D2E/DX2                !
 ! A20   A(8,13,11)            120.37           estimate D2E/DX2                !
 ! A21   A(8,13,14)            120.2778         estimate D2E/DX2                !
 ! A22   A(11,13,14)           119.3032         estimate D2E/DX2                !
 ! A23   A(13,14,15)           110.6381         estimate D2E/DX2                !
 ! A24   A(13,14,16)           111.7113         estimate D2E/DX2                !
 ! A25   A(13,14,17)           113.2804         estimate D2E/DX2                !
 ! A26   A(15,14,16)           102.0174         estimate D2E/DX2                !
 ! A27   A(15,14,17)           105.0239         estimate D2E/DX2                !
 ! A28   A(16,14,17)           113.3395         estimate D2E/DX2                !
 ! A29   A(14,15,23)           110.9459         estimate D2E/DX2                !
 ! A30   A(14,17,18)           113.7997         estimate D2E/DX2                !
 ! A31   A(14,17,19)           111.5393         estimate D2E/DX2                !
 ! A32   A(14,17,20)           106.7651         estimate D2E/DX2                !
 ! A33   A(18,17,19)           103.2452         estimate D2E/DX2                !
 ! A34   A(18,17,20)           115.0815         estimate D2E/DX2                !
 ! A35   A(19,17,20)           106.2021         estimate D2E/DX2                !
 ! A36   A(17,20,21)           113.2823         estimate D2E/DX2                !
 ! A37   A(17,20,22)           109.2605         estimate D2E/DX2                !
 ! A38   A(17,20,23)           103.5776         estimate D2E/DX2                !
 ! A39   A(21,20,22)           108.464          estimate D2E/DX2                !
 ! A40   A(21,20,23)           111.163          estimate D2E/DX2                !
 ! A41   A(22,20,23)           111.0537         estimate D2E/DX2                !
 ! A42   A(15,23,20)           104.946          estimate D2E/DX2                !
 ! A43   A(15,23,24)           107.9936         estimate D2E/DX2                !
 ! A44   A(15,23,25)           116.5706         estimate D2E/DX2                !
 ! A45   A(20,23,24)           108.5798         estimate D2E/DX2                !
 ! A46   A(20,23,25)           112.0273         estimate D2E/DX2                !
 ! A47   A(24,23,25)           106.4841         estimate D2E/DX2                !
 ! A48   A(23,25,26)           107.6102         estimate D2E/DX2                !
 ! A49   A(23,25,27)           114.4981         estimate D2E/DX2                !
 ! A50   A(23,25,28)           115.428          estimate D2E/DX2                !
 ! A51   A(26,25,27)           102.1847         estimate D2E/DX2                !
 ! A52   A(26,25,28)           112.751          estimate D2E/DX2                !
 ! A53   A(27,25,28)           103.6765         estimate D2E/DX2                !
 ! A54   A(25,28,29)           105.471          estimate D2E/DX2                !
 ! D1    D(2,1,5,6)             91.9759         estimate D2E/DX2                !
 ! D2    D(2,1,5,11)           -91.7492         estimate D2E/DX2                !
 ! D3    D(3,1,5,6)            -39.2307         estimate D2E/DX2                !
 ! D4    D(3,1,5,11)           137.0443         estimate D2E/DX2                !
 ! D5    D(4,1,5,6)           -142.3724         estimate D2E/DX2                !
 ! D6    D(4,1,5,11)            33.9026         estimate D2E/DX2                !
 ! D7    D(1,5,6,7)            168.1008         estimate D2E/DX2                !
 ! D8    D(1,5,6,10)             0.9045         estimate D2E/DX2                !
 ! D9    D(11,5,6,7)            -7.8961         estimate D2E/DX2                !
 ! D10   D(11,5,6,10)         -175.0925         estimate D2E/DX2                !
 ! D11   D(1,5,11,12)           12.5637         estimate D2E/DX2                !
 ! D12   D(1,5,11,13)         -170.7688         estimate D2E/DX2                !
 ! D13   D(6,5,11,12)         -171.1437         estimate D2E/DX2                !
 ! D14   D(6,5,11,13)            5.5239         estimate D2E/DX2                !
 ! D15   D(5,6,7,8)              0.4147         estimate D2E/DX2                !
 ! D16   D(10,6,7,8)           168.7314         estimate D2E/DX2                !
 ! D17   D(6,7,8,9)           -178.4198         estimate D2E/DX2                !
 ! D18   D(6,7,8,13)             8.6577         estimate D2E/DX2                !
 ! D19   D(7,8,13,11)          -10.848          estimate D2E/DX2                !
 ! D20   D(7,8,13,14)          171.718          estimate D2E/DX2                !
 ! D21   D(9,8,13,11)          176.5365         estimate D2E/DX2                !
 ! D22   D(9,8,13,14)           -0.8974         estimate D2E/DX2                !
 ! D23   D(5,11,13,8)            3.9322         estimate D2E/DX2                !
 ! D24   D(5,11,13,14)        -178.609          estimate D2E/DX2                !
 ! D25   D(12,11,13,8)        -179.1562         estimate D2E/DX2                !
 ! D26   D(12,11,13,14)         -1.6973         estimate D2E/DX2                !
 ! D27   D(8,13,14,15)        -150.0282         estimate D2E/DX2                !
 ! D28   D(8,13,14,16)         -37.1085         estimate D2E/DX2                !
 ! D29   D(8,13,14,17)          92.3521         estimate D2E/DX2                !
 ! D30   D(11,13,14,15)         32.5106         estimate D2E/DX2                !
 ! D31   D(11,13,14,16)        145.4303         estimate D2E/DX2                !
 ! D32   D(11,13,14,17)        -85.1091         estimate D2E/DX2                !
 ! D33   D(13,14,15,23)       -114.3589         estimate D2E/DX2                !
 ! D34   D(16,14,15,23)        126.6724         estimate D2E/DX2                !
 ! D35   D(17,14,15,23)          8.2137         estimate D2E/DX2                !
 ! D36   D(13,14,17,18)          3.6272         estimate D2E/DX2                !
 ! D37   D(13,14,17,19)       -112.6872         estimate D2E/DX2                !
 ! D38   D(13,14,17,20)        131.7057         estimate D2E/DX2                !
 ! D39   D(15,14,17,18)       -117.221          estimate D2E/DX2                !
 ! D40   D(15,14,17,19)        126.4646         estimate D2E/DX2                !
 ! D41   D(15,14,17,20)         10.8575         estimate D2E/DX2                !
 ! D42   D(16,14,17,18)        132.2551         estimate D2E/DX2                !
 ! D43   D(16,14,17,19)         15.9407         estimate D2E/DX2                !
 ! D44   D(16,14,17,20)        -99.6664         estimate D2E/DX2                !
 ! D45   D(14,15,23,20)        -24.325          estimate D2E/DX2                !
 ! D46   D(14,15,23,24)         91.3612         estimate D2E/DX2                !
 ! D47   D(14,15,23,25)       -148.9026         estimate D2E/DX2                !
 ! D48   D(14,17,20,21)       -145.6296         estimate D2E/DX2                !
 ! D49   D(14,17,20,22)         93.3339         estimate D2E/DX2                !
 ! D50   D(14,17,20,23)        -25.0822         estimate D2E/DX2                !
 ! D51   D(18,17,20,21)        -18.3048         estimate D2E/DX2                !
 ! D52   D(18,17,20,22)       -139.3413         estimate D2E/DX2                !
 ! D53   D(18,17,20,23)        102.2425         estimate D2E/DX2                !
 ! D54   D(19,17,20,21)         95.238          estimate D2E/DX2                !
 ! D55   D(19,17,20,22)        -25.7985         estimate D2E/DX2                !
 ! D56   D(19,17,20,23)       -144.2147         estimate D2E/DX2                !
 ! D57   D(17,20,23,15)         29.5193         estimate D2E/DX2                !
 ! D58   D(17,20,23,24)        -85.7603         estimate D2E/DX2                !
 ! D59   D(17,20,23,25)        156.9222         estimate D2E/DX2                !
 ! D60   D(21,20,23,15)        151.4931         estimate D2E/DX2                !
 ! D61   D(21,20,23,24)         36.2134         estimate D2E/DX2                !
 ! D62   D(21,20,23,25)        -81.1041         estimate D2E/DX2                !
 ! D63   D(22,20,23,15)        -87.6478         estimate D2E/DX2                !
 ! D64   D(22,20,23,24)        157.0725         estimate D2E/DX2                !
 ! D65   D(22,20,23,25)         39.755          estimate D2E/DX2                !
 ! D66   D(15,23,25,26)        -66.9312         estimate D2E/DX2                !
 ! D67   D(15,23,25,27)       -179.7606         estimate D2E/DX2                !
 ! D68   D(15,23,25,28)         59.9511         estimate D2E/DX2                !
 ! D69   D(20,23,25,26)        172.1775         estimate D2E/DX2                !
 ! D70   D(20,23,25,27)         59.3481         estimate D2E/DX2                !
 ! D71   D(20,23,25,28)        -60.9402         estimate D2E/DX2                !
 ! D72   D(24,23,25,26)         53.6117         estimate D2E/DX2                !
 ! D73   D(24,23,25,27)        -59.2177         estimate D2E/DX2                !
 ! D74   D(24,23,25,28)       -179.506          estimate D2E/DX2                !
 ! D75   D(23,25,28,29)       -179.9558         estimate D2E/DX2                !
 ! D76   D(26,25,28,29)        -55.718          estimate D2E/DX2                !
 ! D77   D(27,25,28,29)         54.0124         estimate D2E/DX2                !
 --------------------------------------------------------------------------------
 Trust Radius=3.00D-01 FncErr=1.00D-07 GrdErr=1.00D-06 EigMax=2.50D+02 EigMin=1.00D-04
 Number of steps in this run=    171 maximum allowed number of steps=    174.
 GradGradGradGradGradGradGradGradGradGradGradGradGradGradGradGradGradGrad

 Leave Link  103 at Sun Jul 11 15:59:43 2021, MaxMem=   104857600 cpu:               0.1 elap:               0.0
 (Enter /prod/apps/gaussian/g16b1/l202.exe)
                          Input orientation:                          
 ---------------------------------------------------------------------
 Center     Atomic      Atomic             Coordinates (Angstroms)
 Number     Number       Type             X           Y           Z
 ---------------------------------------------------------------------
      1          6           0        2.380000   -2.820000   -0.947000
      2          1           0        3.321000   -2.435000   -1.347000
      3          1           0        2.284000   -3.907000   -0.990000
      4          1           0        2.375000   -2.796000    0.145000
      5          6           0        1.149000   -2.102000   -1.515000
      6          6           0        0.392000   -2.602000   -2.770000
      7          7           0       -0.746000   -1.976000   -2.897000
      8          6           0       -1.305000   -1.034000   -2.162000
      9          8           0       -2.406000   -0.620000   -2.473000
     10          8           0        0.621000   -3.544000   -3.417000
     11          6           0        0.710000   -1.001000   -0.762000
     12          1           0        1.270000   -0.530000    0.036000
     13          7           0       -0.511000   -0.440000   -1.122000
     14          6           0       -1.009000    0.738000   -0.387000
     15          8           0        0.112000    1.582000    0.062000
     16          1           0       -1.563000    1.424000   -1.045000
     17          6           0       -1.769000    0.377000    0.889000
     18          1           0       -1.781000   -0.693000    1.107000
     19          1           0       -2.829000    0.628000    0.809000
     20          6           0       -1.197000    1.271000    2.018000
     21          9           0       -1.166000    0.629000    3.278000
     22          1           0       -1.805000    2.175000    2.105000
     23          6           0        0.202000    1.600000    1.537000
     24          1           0        0.874000    0.795000    1.844000
     25          6           0        0.741000    2.882000    2.174000
     26          1           0        1.793000    2.975000    1.891000
     27          1           0        0.797000    2.857000    3.265000
     28          8           0        0.007000    4.037000    1.908000
     29          1           0        0.472000    4.754000    2.376000
 ---------------------------------------------------------------------
                    Distance matrix (angstroms):
                    1          2          3          4          5
     1  C    0.000000
     2  H    1.092569   0.000000
     3  H    1.092078   1.835648   0.000000
     4  H    1.092275   1.803136   1.590857   0.000000
     5  C    1.534115   2.203792   2.195877   2.177226   0.000000
     6  C    2.706104   3.260653   2.907076   3.530885   1.548572
     7  N    3.779777   4.376491   4.067716   4.434727   2.348792
     8  C    4.271445   4.901724   4.744327   4.687141   2.753425
     9  O    5.484020   6.112334   5.916059   5.869145   3.968893
    10  O    3.117556   3.578377   2.964400   4.040280   2.444535
    11  C    2.476265   3.035770   3.312748   2.610919   1.404255
    12  H    2.728093   3.122229   3.672193   2.523423   2.211657
    13  N    3.748721   4.326069   4.455282   3.935101   2.381658
    14  C    4.945532   5.453295   5.725686   4.921751   3.740982
    15  O    5.053663   5.330971   5.996116   4.928990   4.139342
    16  H    5.793823   6.231897   6.574344   5.893415   4.473088
    17  C    5.550307   6.230180   6.189516   5.272021   4.520993
    18  H    5.104602   5.923435   5.590298   4.756090   4.176729
    19  H    6.488908   7.200889   7.067206   6.264686   5.355218
    20  C    6.190512   6.743144   6.926551   5.727810   5.418758
    21  F    6.505409   7.135257   7.119945   5.838236   5.982511
    22  H    7.195759   7.710012   7.955481   6.784161   6.334291
    23  C    5.518183   5.858911   6.406832   5.097490   4.890431
    24  H    4.808944   5.157828   5.668197   4.246750   4.444223
    25  C    6.703713   6.879268   7.647370   6.247118   6.214132
    26  H    6.479262   6.487490   7.476842   6.057366   6.147479
    27  H    7.243974   7.459650   8.128216   6.646871   6.896665
    28  O    7.797474   7.966455   8.757298   7.443486   7.120984
    29  H    8.488125   8.582497   9.467113   8.099461   7.912202
                    6          7          8          9         10
     6  C    0.000000
     7  N    1.305009   0.000000
     8  C    2.389162   1.319117   0.000000
     9  O    3.441706   2.184974   1.216683   0.000000
    10  O    1.165510   2.144228   3.403616   4.313194   0.000000
    11  C    2.587738   2.762026   2.453837   3.575212   3.677471
    12  H    3.596902   3.841570   3.422842   4.451534   4.629104
    13  N    2.864534   2.359056   1.436966   2.334229   4.022843
    14  C    4.335561   3.706085   2.525515   2.854325   5.493025
    15  O    5.060087   4.706507   3.714501   4.197065   6.215979
    16  H    4.796491   3.956942   2.712198   2.632066   5.922606
    17  C    5.189667   4.573503   3.393349   3.564102   6.295076
    18  H    4.837080   4.330050   3.321027   3.634880   5.862114
    19  H    5.798015   4.985393   3.729834   3.536659   6.867835
    20  C    6.360031   5.907930   4.774630   5.020622   7.485224
    21  F    7.031716   6.715136   5.690210   6.014283   8.088901
    22  H    7.170228   6.585764   5.362366   5.397343   8.311734
    23  C    6.020229   5.774672   4.784517   5.273534   7.153909
    24  H    5.749863   5.725375   4.913382   5.603313   6.824152
    25  C    7.391833   7.178187   6.190482   6.615302   8.518636
    26  H    7.402071   7.340563   6.488181   7.042735   8.487980
    27  H    8.147756   7.981791   7.000758   7.434607   9.254885
    28  O    8.130697   7.733770   6.633346   6.833987   9.284621
    29  H    8.977664   8.636026   7.566513   7.789452  10.121159
                   11         12         13         14         15
    11  C    0.000000
    12  H    1.082703   0.000000
    13  N    1.391101   2.126270   0.000000
    14  C    2.473804   2.642081   1.475098   0.000000
    15  O    2.776413   2.408772   2.424555   1.473288   0.000000
    16  H    3.335752   3.607293   2.141758   1.100216   2.013961
    17  C    3.281787   3.284171   2.508819   1.528430   2.382040
    18  H    3.129394   3.237624   2.577858   2.208117   3.138646
    19  H    4.200738   4.329006   3.200392   2.180577   3.180818
    20  C    4.065345   3.641156   3.641115   2.470518   2.374055
    21  F    4.743193   4.217575   4.575127   3.669980   3.589450
    22  H    4.963052   4.588400   4.350424   2.984736   2.863632
    23  C    3.508371   2.816119   3.426405   2.431325   1.477853
    24  H    3.169187   2.276248   3.498658   2.919983   2.091778
    25  C    4.868136   4.061112   4.844255   3.770671   2.558551
    26  H    4.901007   3.999947   5.103803   4.247900   2.848061
    27  H    5.577496   4.703397   5.641528   4.592265   3.514834
    28  O    5.744959   5.094805   5.430723   4.145200   3.073396
    29  H    6.559246   5.833786   6.338764   5.094682   3.942814
                   16         17         18         19         20
    16  H    0.000000
    17  C    2.208846   0.000000
    18  H    3.026602   1.092048   0.000000
    19  H    2.381950   1.092246   1.712352   0.000000
    20  C    3.088581   1.549536   2.242381   2.130388   0.000000
    21  F    4.413385   2.476779   2.615177   2.976832   1.414470
    22  H    3.247317   2.170888   3.036775   2.263051   1.092909
    23  C    3.132559   2.408417   3.061868   3.265230   1.515521
    24  H    3.831570   2.841161   3.131507   3.848548   2.132110
    25  C    4.218547   3.771783   4.503287   4.437188   2.524975
    26  H    4.721063   4.521222   5.180961   5.295471   3.443813
    27  H    5.118514   4.287206   4.889330   4.914087   2.836625
    28  O    4.244158   4.193821   5.119711   4.568586   3.018687
    29  H    5.189737   5.137254   6.029609   5.511440   3.878790
                   21         22         23         24         25
    21  F    0.000000
    22  H    2.043127   0.000000
    23  C    2.417715   2.163631   0.000000
    24  H    2.499102   3.024824   1.092638   0.000000
    25  C    3.151424   2.643242   1.529645   2.117111   0.000000
    26  H    4.022831   3.692073   2.132422   2.366257   1.093363
    27  H    2.969431   2.929356   2.218120   2.505397   1.092722
    28  O    3.855813   2.605609   2.472779   3.356538   1.394108
    29  H    4.529048   3.451001   3.274834   4.014761   1.901986
                   26         27         28         29
    26  H    0.000000
    27  H    1.701122   0.000000
    28  O    2.077963   1.964166   0.000000
    29  H    2.268283   2.120037   0.974340   0.000000
 Stoichiometry    C10H12FN2O4(1-)
 Framework group  C1[X(C10H12FN2O4)]
 Deg. of freedom    81
 Full point group                 C1      NOp   1
 Largest Abelian subgroup         C1      NOp   1
 Largest concise Abelian subgroup C1      NOp   1
                         Standard orientation:                         
 ---------------------------------------------------------------------
 Center     Atomic      Atomic             Coordinates (Angstroms)
 Number     Number       Type             X           Y           Z
 ---------------------------------------------------------------------
      1          6           0        2.697431    2.693488    0.343918
      2          1           0        2.781161    3.336663   -0.535298
      3          1           0        3.503056    2.817700    1.070674
      4          1           0        1.931269    3.060020    1.030733
      5          6           0        2.453407    1.221231   -0.011638
      6          6           0        3.604074    0.200444   -0.190618
      7          7           0        3.132940   -1.015591   -0.238984
      8          6           0        1.896779   -1.470721   -0.169471
      9          8           0        1.708310   -2.672014   -0.210611
     10          8           0        4.749181    0.383830   -0.074367
     11          6           0        1.101251    0.848950   -0.082432
     12          1           0        0.266362    1.538068   -0.100375
     13          7           0        0.829008   -0.509741   -0.204922
     14          6           0       -0.571924   -0.958298   -0.314920
     15          8           0       -1.384772    0.046248   -1.022553
     16          1           0       -0.668079   -1.835207   -0.972385
     17          6           0       -1.256457   -1.139089    1.039637
     18          1           0       -0.634151   -0.851643    1.889742
     19          1           0       -1.481684   -2.189268    1.238130
     20          6           0       -2.622584   -0.413275    0.950465
     21          9           0       -3.019496    0.183089    2.170111
     22          1           0       -3.391782   -1.128514    0.648445
     23          6           0       -2.400224    0.632904   -0.123252
     24          1           0       -1.966580    1.521764    0.341224
     25          6           0       -3.712490    1.078065   -0.771020
     26          1           0       -3.487699    1.924088   -1.426120
     27          1           0       -4.436892    1.510315   -0.076438
     28          8           0       -4.432801    0.073520   -1.415675
     29          1           0       -5.228065    0.510673   -1.770344
 ---------------------------------------------------------------------
 Rotational constants (GHZ):           0.9002890           0.2433095           0.2236017
 Leave Link  202 at Sun Jul 11 15:59:43 2021, MaxMem=   104857600 cpu:               0.1 elap:               0.0
 (Enter /prod/apps/gaussian/g16b1/l301.exe)
 Standard basis: 6-31G(d) (6D, 7F)
 Ernie: Thresh=  0.10000D-02 Tol=  0.10000D-05 Strict=F.
 There are   279 symmetry adapted cartesian basis functions of A   symmetry.
 There are   279 symmetry adapted basis functions of A   symmetry.
   279 basis functions,   524 primitive gaussians,   279 cartesian basis functions
    64 alpha electrons       64 beta electrons
       nuclear repulsion energy      1249.1479996224 Hartrees.
 IExCor=  402 DFT=T Ex+Corr=B3LYP ExCW=0 ScaHFX=  0.200000
 ScaDFX=  0.800000  0.720000  1.000000  0.810000 ScalE2=  1.000000  1.000000
 IRadAn=      5 IRanWt=     -1 IRanGd=            0 ICorTp=0 IEmpDi=  4
 NAtoms=   29 NActive=   29 NUniq=   29 SFac= 1.00D+00 NAtFMM=   60 NAOKFM=F Big=F
 Integral buffers will be    131072 words long.
 Raffenetti 2 integral format.
 Two-electron integral symmetry is turned on.
 Using the following non-standard input for PCM:
 MSTModel=DFT cav MSTCharged
 --- end of non-standard input.
 MST model for solvation energy: B3LYP parametrization.
 MST cavity parameters:
 ISph   IAn     Re0     Alpha   Atom Type   QCorr
 ------------------------------------------------
   1      6     1.50     1.25      CH3        F
   2      1     1.20     1.25      CH3        F
   3      1     1.20     1.25      CH3        F
   4      1     1.20     1.25      CH3        F
   5      6     1.50     1.25      C          F
   6      6     1.50     1.25      C          F
   7      7     1.40     1.15      N          T
   8      6     1.50     1.25      C          F
   9      8     1.40     1.25      O          F
  10      8     1.40     1.25      O          F
  11      6     1.50     1.25      CH         F
  12      1     1.20     1.25      CH         F
  13      7     1.40     1.25      N          F
  14      6     1.50     1.25      CH         F
  15      8     1.40     1.25      O          F
  16      1     1.20     1.25      CH         F
  17      6     1.50     1.25      CH2        F
  18      1     1.20     1.25      CH2        F
  19      1     1.20     1.25      CH2        F
  20      6     1.50     1.25      CH         F
  21      9     1.35     1.25      F          F
  22      1     1.20     1.25      CH         F
  23      6     1.50     1.25      CH         F
  24      1     1.20     1.25      CH         F
  25      6     1.50     1.25      CH2        F
  26      1     1.20     1.25      CH2        F
  27      1     1.20     1.25      CH2        F
  28      8     1.45     1.25      OH         F
  29      1     0.90     1.25      OH         F
 ------------------------------------------------------------------------------
 Polarizable Continuum Model (PCM)
 =================================
 Model                : PCM.
 Atomic radii         : MST.
 Polarization charges : Total charges.
 Charge compensation  : None.
 Solution method      : On-the-fly selection.
 Cavity type          : Scaled VdW (van der Waals Surface) (Alpha=1.250).
 Cavity algorithm     : GePol (No added spheres)
                        Default sphere list used, NSphG=   29.
                        Lebedev-Laikov grids with approx.  5.0 points / Ang**2.
                        Smoothing algorithm: York/Karplus (Gamma=1.0000).
                        Polarization charges: spherical gaussians, with
                                              point-specific exponents (IZeta= 3).
                        Self-potential: point-specific (ISelfS= 7).
                        Self-field    : sphere-specific E.n sum rule (ISelfD= 2).
 1st derivatives      : Analytical E(r).r(x)/FMM algorithm (CHGder, D1EAlg=3).
                        Cavity 1st derivative terms included.
 Solvent              : Water, Eps=  78.355300 Eps(inf)=   1.777849
 ------------------------------------------------------------------------------
 GePol: Number of generator spheres                  =      29
 GePol: Total number of spheres                      =      29
 GePol: Number of exposed spheres                    =      29 (100.00%)
 GePol: Number of points                             =    2134
 GePol: Average weight of points                     =       0.13
 GePol: Minimum weight of points                     =   0.18D-08
 GePol: Maximum weight of points                     =    0.22001
 GePol: Number of points with low weight             =     146
 GePol: Fraction of low-weight points (<1% of avg)   =       6.84%
 GePol: Cavity surface area                          =    285.062 Ang**2
 GePol: Cavity volume                                =    263.990 Ang**3
 PCM non-electrostatic energy =         0.0050548421 Hartrees.
 Nuclear repulsion after PCM non-electrostatic terms =     1249.1530544645 Hartrees.
 Leave Link  301 at Sun Jul 11 15:59:43 2021, MaxMem=   104857600 cpu:               0.3 elap:               0.1
 (Enter /prod/apps/gaussian/g16b1/l302.exe)
 NPDir=0 NMtPBC=     1 NCelOv=     1 NCel=       1 NClECP=     1 NCelD=      1
         NCelK=      1 NCelE2=     1 NClLst=     1 CellRange=     0.0.
 One-electron integrals computed using PRISM.
 One-electron integral symmetry used in STVInt
 NBasis=   279 RedAO= T EigKep=  1.28D-03  NBF=   279
 NBsUse=   279 1.00D-06 EigRej= -1.00D+00 NBFU=   279
 Precomputing XC quadrature grid using
 IXCGrd= 4 IRadAn=           5 IRanWt=          -1 IRanGd=           0 AccXCQ= 0.00D+00.
 Generated NRdTot=       0 NPtTot=           0 NUsed=           0 NTot=          32
 NSgBfM=   277   277   277   277   277 MxSgAt=    29 MxSgA2=    29.
 Leave Link  302 at Sun Jul 11 15:59:43 2021, MaxMem=   104857600 cpu:               1.4 elap:               0.4
 (Enter /prod/apps/gaussian/g16b1/l303.exe)
 DipDrv:  MaxL=1.
 Leave Link  303 at Sun Jul 11 15:59:43 2021, MaxMem=   104857600 cpu:               0.1 elap:               0.1
 (Enter /prod/apps/gaussian/g16b1/l401.exe)
 ExpMin= 1.61D-01 ExpMax= 7.00D+03 ExpMxC= 1.05D+03 IAcc=3 IRadAn=         5 AccDes= 0.00D+00
 Harris functional with IExCor=  402 and IRadAn=       5 diagonalized for initial guess.
 HarFok:  IExCor=  402 AccDes= 0.00D+00 IRadAn=         5 IDoV= 1 UseB2=F ITyADJ=14
 ICtDFT=  3500011 ScaDFX=  1.000000  1.000000  1.000000  1.000000
 FoFCou: FMM=F IPFlag=           0 FMFlag=      100000 FMFlg1=           0
         NFxFlg=           0 DoJE=T BraDBF=F KetDBF=T FulRan=T
         wScrn=  0.000000 ICntrl=       500 IOpCl=  0 I1Cent=   200000004 NGrid=           0
         NMat0=    1 NMatS0=      1 NMatT0=    0 NMatD0=    1 NMtDS0=    0 NMtDT0=    0
 Petite list used in FoFCou.
 Harris En= -898.660319586438    
 JPrj=0 DoOrth=F DoCkMO=F.
 Leave Link  401 at Sun Jul 11 15:59:45 2021, MaxMem=   104857600 cpu:               7.1 elap:               1.8
 (Enter /prod/apps/gaussian/g16b1/l502.exe)
 Integral symmetry usage will be decided dynamically.
 Closed shell SCF:
 Using DIIS extrapolation, IDIIS=  1040.
 NGot=   104857600 LenX=   104697134 LenY=   104618852
 Requested convergence on RMS density matrix=1.00D-08 within 128 cycles.
 Requested convergence on MAX density matrix=1.00D-06.
 Requested convergence on             energy=1.00D-06.
 No special actions if energy rises.
 Fock matrices will be formed incrementally for  20 cycles.

 Cycle   1  Pass 1  IDiag  1:
 FoFJK:  IHMeth= 1 ICntrl=       0 DoSepK=F KAlg= 0 I1Cent=           0 FoldK=F
 IRaf= 820000000 NMat=       1 IRICut=       1 DoRegI=T DoRafI=F ISym2E= 0 IDoP0=0 IntGTp=1.
 FoFCou: FMM=F IPFlag=           0 FMFlag=      100000 FMFlg1=           0
         NFxFlg=           0 DoJE=F BraDBF=F KetDBF=F FulRan=T
         wScrn=  0.000000 ICntrl=         0 IOpCl=  0 I1Cent=           0 NGrid=           0
         NMat0=    1 NMatS0=      1 NMatT0=    0 NMatD0=    1 NMtDS0=    0 NMtDT0=    0
 Symmetry not used in FoFCou.
 Inv3:  Mode=1 IEnd=    13661868.
 Iteration    1 A*A^-1 deviation from unit magnitude is 3.33D-15 for    362.
 Iteration    1 A*A^-1 deviation from orthogonality  is 2.22D-15 for   1920    244.
 Iteration    1 A^-1*A deviation from unit magnitude is 3.22D-15 for   1824.
 Iteration    1 A^-1*A deviation from orthogonality  is 6.02D-14 for   1905   1822.
 E= -898.173036852647    
 DIIS: error= 3.07D-02 at cycle   1 NSaved=   1.
 NSaved= 1 IEnMin= 1 EnMin= -898.173036852647     IErMin= 1 ErrMin= 3.07D-02
 ErrMax= 3.07D-02  0.00D+00 EMaxC= 1.00D-01 BMatC= 5.23D-01 BMatP= 5.23D-01
 IDIUse=3 WtCom= 6.93D-01 WtEn= 3.07D-01
 Coeff-Com:  0.100D+01
 Coeff-En:   0.100D+01
 Coeff:      0.100D+01
 Gap=     0.193 Goal=   None    Shift=    0.000
 GapD=    0.193 DampG=1.000 DampE=0.500 DampFc=0.5000 IDamp=-1.
 Damping current iteration by 5.00D-01
 RMSDP=5.97D-03 MaxDP=2.20D-01              OVMax= 2.48D-01

 Cycle   2  Pass 1  IDiag  1:
 RMSU=  2.98D-03    CP:  9.89D-01
 E= -898.329536222627     Delta-E=       -0.156499369980 Rises=F Damp=T
 DIIS: error= 8.18D-03 at cycle   2 NSaved=   2.
 NSaved= 2 IEnMin= 2 EnMin= -898.329536222627     IErMin= 2 ErrMin= 8.18D-03
 ErrMax= 8.18D-03  0.00D+00 EMaxC= 1.00D-01 BMatC= 5.23D-02 BMatP= 5.23D-01
 IDIUse=3 WtCom= 9.18D-01 WtEn= 8.18D-02
 Coeff-Com:  0.155D+00 0.845D+00
 Coeff-En:   0.248D+00 0.752D+00
 Coeff:      0.162D+00 0.838D+00
 Gap=     0.235 Goal=   None    Shift=    0.000
 RMSDP=1.64D-03 MaxDP=1.02D-01 DE=-1.56D-01 OVMax= 2.25D-01

 Cycle   3  Pass 1  IDiag  1:
 RMSU=  1.47D-03    CP:  9.82D-01  7.56D-01
 E= -898.566200177423     Delta-E=       -0.236663954796 Rises=F Damp=F
 DIIS: error= 1.03D-02 at cycle   3 NSaved=   3.
 NSaved= 3 IEnMin= 3 EnMin= -898.566200177423     IErMin= 2 ErrMin= 8.18D-03
 ErrMax= 1.03D-02  0.00D+00 EMaxC= 1.00D-01 BMatC= 4.32D-02 BMatP= 5.23D-02
 IDIUse=3 WtCom= 8.97D-01 WtEn= 1.03D-01
 Coeff-Com:  0.325D-01 0.473D+00 0.494D+00
 Coeff-En:   0.000D+00 0.000D+00 0.100D+01
 Coeff:      0.292D-01 0.424D+00 0.547D+00
 Gap=     0.196 Goal=   None    Shift=    0.000
 RMSDP=1.06D-03 MaxDP=5.75D-02 DE=-2.37D-01 OVMax= 8.86D-02

 Cycle   4  Pass 1  IDiag  1:
 RMSU=  5.66D-04    CP:  9.86D-01  8.68D-01  4.41D-01
 E= -898.597186675161     Delta-E=       -0.030986497738 Rises=F Damp=F
 DIIS: error= 4.66D-03 at cycle   4 NSaved=   4.
 NSaved= 4 IEnMin= 4 EnMin= -898.597186675161     IErMin= 4 ErrMin= 4.66D-03
 ErrMax= 4.66D-03  0.00D+00 EMaxC= 1.00D-01 BMatC= 9.17D-03 BMatP= 4.32D-02
 IDIUse=3 WtCom= 9.53D-01 WtEn= 4.66D-02
 Coeff-Com:  0.248D-02 0.105D+00 0.329D+00 0.563D+00
 Coeff-En:   0.000D+00 0.000D+00 0.188D+00 0.812D+00
 Coeff:      0.236D-02 0.100D+00 0.323D+00 0.575D+00
 Gap=     0.196 Goal=   None    Shift=    0.000
 RMSDP=3.61D-04 MaxDP=2.03D-02 DE=-3.10D-02 OVMax= 3.23D-02

 Cycle   5  Pass 1  IDiag  1:
 RMSU=  1.59D-04    CP:  9.85D-01  8.24D-01  5.89D-01  6.47D-01
 E= -898.604415190965     Delta-E=       -0.007228515804 Rises=F Damp=F
 DIIS: error= 7.04D-04 at cycle   5 NSaved=   5.
 NSaved= 5 IEnMin= 5 EnMin= -898.604415190965     IErMin= 5 ErrMin= 7.04D-04
 ErrMax= 7.04D-04  0.00D+00 EMaxC= 1.00D-01 BMatC= 4.80D-04 BMatP= 9.17D-03
 IDIUse=3 WtCom= 9.93D-01 WtEn= 7.04D-03
 Coeff-Com: -0.162D-03 0.114D-01 0.121D+00 0.296D+00 0.572D+00
 Coeff-En:   0.000D+00 0.000D+00 0.000D+00 0.000D+00 0.100D+01
 Coeff:     -0.161D-03 0.113D-01 0.120D+00 0.294D+00 0.575D+00
 Gap=     0.196 Goal=   None    Shift=    0.000
 RMSDP=8.73D-05 MaxDP=4.11D-03 DE=-7.23D-03 OVMax= 6.97D-03

 Cycle   6  Pass 1  IDiag  1:
 RMSU=  4.36D-05    CP:  9.85D-01  8.29D-01  5.91D-01  6.88D-01  5.57D-01
 E= -898.604796030103     Delta-E=       -0.000380839138 Rises=F Damp=F
 DIIS: error= 1.80D-04 at cycle   6 NSaved=   6.
 NSaved= 6 IEnMin= 6 EnMin= -898.604796030103     IErMin= 6 ErrMin= 1.80D-04
 ErrMax= 1.80D-04  0.00D+00 EMaxC= 1.00D-01 BMatC= 3.56D-05 BMatP= 4.80D-04
 IDIUse=3 WtCom= 9.98D-01 WtEn= 1.80D-03
 Coeff-Com: -0.231D-03-0.463D-03 0.432D-01 0.116D+00 0.303D+00 0.538D+00
 Coeff-En:   0.000D+00 0.000D+00 0.000D+00 0.000D+00 0.000D+00 0.100D+01
 Coeff:     -0.230D-03-0.462D-03 0.431D-01 0.116D+00 0.303D+00 0.539D+00
 Gap=     0.196 Goal=   None    Shift=    0.000
 RMSDP=2.55D-05 MaxDP=1.43D-03 DE=-3.81D-04 OVMax= 2.47D-03

 Cycle   7  Pass 1  IDiag  1:
 RMSU=  1.52D-05    CP:  9.85D-01  8.29D-01  5.92D-01  6.87D-01  6.14D-01
                    CP:  5.79D-01
 E= -898.604825237608     Delta-E=       -0.000029207505 Rises=F Damp=F
 DIIS: error= 7.73D-05 at cycle   7 NSaved=   7.
 NSaved= 7 IEnMin= 7 EnMin= -898.604825237608     IErMin= 7 ErrMin= 7.73D-05
 ErrMax= 7.73D-05  0.00D+00 EMaxC= 1.00D-01 BMatC= 3.77D-06 BMatP= 3.56D-05
 IDIUse=1 WtCom= 1.00D+00 WtEn= 0.00D+00
 Coeff-Com: -0.628D-04-0.136D-02 0.119D-01 0.338D-01 0.116D+00 0.305D+00
 Coeff-Com:  0.535D+00
 Coeff:     -0.628D-04-0.136D-02 0.119D-01 0.338D-01 0.116D+00 0.305D+00
 Coeff:      0.535D+00
 Gap=     0.196 Goal=   None    Shift=    0.000
 RMSDP=7.76D-06 MaxDP=3.90D-04 DE=-2.92D-05 OVMax= 8.02D-04

 Cycle   8  Pass 1  IDiag  1:
 RMSU=  4.47D-06    CP:  9.85D-01  8.29D-01  5.92D-01  6.88D-01  6.15D-01
                    CP:  6.52D-01  6.44D-01
 E= -898.604828175892     Delta-E=       -0.000002938284 Rises=F Damp=F
 DIIS: error= 2.63D-05 at cycle   8 NSaved=   8.
 NSaved= 8 IEnMin= 8 EnMin= -898.604828175892     IErMin= 8 ErrMin= 2.63D-05
 ErrMax= 2.63D-05  0.00D+00 EMaxC= 1.00D-01 BMatC= 3.41D-07 BMatP= 3.77D-06
 IDIUse=1 WtCom= 1.00D+00 WtEn= 0.00D+00
 Coeff-Com: -0.829D-05-0.712D-03 0.270D-02 0.763D-02 0.380D-01 0.122D+00
 Coeff-Com:  0.295D+00 0.535D+00
 Coeff:     -0.829D-05-0.712D-03 0.270D-02 0.763D-02 0.380D-01 0.122D+00
 Coeff:      0.295D+00 0.535D+00
 Gap=     0.196 Goal=   None    Shift=    0.000
 RMSDP=2.45D-06 MaxDP=1.12D-04 DE=-2.94D-06 OVMax= 1.70D-04

 Cycle   9  Pass 1  IDiag  1:
 RMSU=  1.59D-06    CP:  9.85D-01  8.28D-01  5.92D-01  6.88D-01  6.17D-01
                    CP:  6.56D-01  6.93D-01  6.42D-01
 E= -898.604828464881     Delta-E=       -0.000000288988 Rises=F Damp=F
 DIIS: error= 9.31D-06 at cycle   9 NSaved=   9.
 NSaved= 9 IEnMin= 9 EnMin= -898.604828464881     IErMin= 9 ErrMin= 9.31D-06
 ErrMax= 9.31D-06  0.00D+00 EMaxC= 1.00D-01 BMatC= 2.95D-08 BMatP= 3.41D-07
 IDIUse=1 WtCom= 1.00D+00 WtEn= 0.00D+00
 Coeff-Com:  0.740D-05-0.113D-03-0.182D-03-0.102D-02 0.301D-02 0.148D-01
 Coeff-Com:  0.594D-01 0.252D+00 0.672D+00
 Coeff:      0.740D-05-0.113D-03-0.182D-03-0.102D-02 0.301D-02 0.148D-01
 Coeff:      0.594D-01 0.252D+00 0.672D+00
 Gap=     0.196 Goal=   None    Shift=    0.000
 RMSDP=7.38D-07 MaxDP=4.29D-05 DE=-2.89D-07 OVMax= 5.86D-05

 Cycle  10  Pass 1  IDiag  1:
 RMSU=  4.77D-07    CP:  9.85D-01  8.28D-01  5.92D-01  6.88D-01  6.18D-01
                    CP:  6.58D-01  6.96D-01  7.31D-01  8.00D-01
 E= -898.604828487705     Delta-E=       -0.000000022825 Rises=F Damp=F
 DIIS: error= 2.41D-06 at cycle  10 NSaved=  10.
 NSaved=10 IEnMin=10 EnMin= -898.604828487705     IErMin=10 ErrMin= 2.41D-06
 ErrMax= 2.41D-06  0.00D+00 EMaxC= 1.00D-01 BMatC= 4.40D-09 BMatP= 2.95D-08
 IDIUse=1 WtCom= 1.00D+00 WtEn= 0.00D+00
 Coeff-Com:  0.431D-05-0.204D-04-0.327D-03-0.126D-02-0.108D-02-0.845D-03
 Coeff-Com:  0.113D-01 0.103D+00 0.384D+00 0.505D+00
 Coeff:      0.431D-05-0.204D-04-0.327D-03-0.126D-02-0.108D-02-0.845D-03
 Coeff:      0.113D-01 0.103D+00 0.384D+00 0.505D+00
 Gap=     0.196 Goal=   None    Shift=    0.000
 RMSDP=2.35D-07 MaxDP=1.03D-05 DE=-2.28D-08 OVMax= 1.25D-05

 Cycle  11  Pass 1  IDiag  1:
 RMSU=  1.44D-07    CP:  9.85D-01  8.28D-01  5.92D-01  6.88D-01  6.18D-01
                    CP:  6.58D-01  7.00D-01  7.38D-01  8.42D-01  6.83D-01
 E= -898.604828491021     Delta-E=       -0.000000003316 Rises=F Damp=F
 DIIS: error= 4.56D-07 at cycle  11 NSaved=  11.
 NSaved=11 IEnMin=11 EnMin= -898.604828491021     IErMin=11 ErrMin= 4.56D-07
 ErrMax= 4.56D-07  0.00D+00 EMaxC= 1.00D-01 BMatC= 2.31D-10 BMatP= 4.40D-09
 IDIUse=1 WtCom= 1.00D+00 WtEn= 0.00D+00
 Coeff-Com:  0.765D-06 0.709D-05-0.120D-03-0.465D-03-0.849D-03-0.253D-02
 Coeff-Com: -0.300D-02 0.118D-01 0.866D-01 0.211D+00 0.697D+00
 Coeff:      0.765D-06 0.709D-05-0.120D-03-0.465D-03-0.849D-03-0.253D-02
 Coeff:     -0.300D-02 0.118D-01 0.866D-01 0.211D+00 0.697D+00
 Gap=     0.196 Goal=   None    Shift=    0.000
 RMSDP=6.94D-08 MaxDP=2.60D-06 DE=-3.32D-09 OVMax= 4.31D-06

 Cycle  12  Pass 1  IDiag  1:
 RMSU=  4.27D-08    CP:  9.85D-01  8.28D-01  5.92D-01  6.88D-01  6.18D-01
                    CP:  6.59D-01  7.00D-01  7.42D-01  8.55D-01  7.45D-01
                    CP:  8.07D-01
 E= -898.604828491204     Delta-E=       -0.000000000183 Rises=F Damp=F
 DIIS: error= 1.31D-07 at cycle  12 NSaved=  12.
 NSaved=12 IEnMin=12 EnMin= -898.604828491204     IErMin=12 ErrMin= 1.31D-07
 ErrMax= 1.31D-07  0.00D+00 EMaxC= 1.00D-01 BMatC= 2.75D-11 BMatP= 2.31D-10
 IDIUse=1 WtCom= 1.00D+00 WtEn= 0.00D+00
 Coeff-Com:  0.101D-06 0.458D-05-0.280D-04-0.123D-03-0.274D-03-0.106D-02
 Coeff-Com: -0.198D-02-0.195D-02 0.132D-01 0.575D-01 0.329D+00 0.606D+00
 Coeff:      0.101D-06 0.458D-05-0.280D-04-0.123D-03-0.274D-03-0.106D-02
 Coeff:     -0.198D-02-0.195D-02 0.132D-01 0.575D-01 0.329D+00 0.606D+00
 Gap=     0.196 Goal=   None    Shift=    0.000
 RMSDP=2.40D-08 MaxDP=9.91D-07 DE=-1.83D-10 OVMax= 1.76D-06

 Cycle  13  Pass 1  IDiag  1:
 RMSU=  1.51D-08    CP:  9.85D-01  8.28D-01  5.92D-01  6.88D-01  6.18D-01
                    CP:  6.59D-01  7.01D-01  7.42D-01  8.59D-01  7.50D-01
                    CP:  8.64D-01  7.11D-01
 E= -898.604828491220     Delta-E=       -0.000000000015 Rises=F Damp=F
 DIIS: error= 7.01D-08 at cycle  13 NSaved=  13.
 NSaved=13 IEnMin=13 EnMin= -898.604828491220     IErMin=13 ErrMin= 7.01D-08
 ErrMax= 7.01D-08  0.00D+00 EMaxC= 1.00D-01 BMatC= 3.66D-12 BMatP= 2.75D-11
 IDIUse=1 WtCom= 1.00D+00 WtEn= 0.00D+00
 Coeff-Com: -0.184D-07 0.102D-05 0.371D-05 0.389D-05-0.146D-04-0.191D-03
 Coeff-Com: -0.596D-03-0.294D-02-0.643D-02-0.394D-02 0.575D-01 0.301D+00
 Coeff-Com:  0.656D+00
 Coeff:     -0.184D-07 0.102D-05 0.371D-05 0.389D-05-0.146D-04-0.191D-03
 Coeff:     -0.596D-03-0.294D-02-0.643D-02-0.394D-02 0.575D-01 0.301D+00
 Coeff:      0.656D+00
 Gap=     0.196 Goal=   None    Shift=    0.000
 RMSDP=8.30D-09 MaxDP=3.64D-07 DE=-1.55D-11 OVMax= 7.88D-07

 Error on total polarization charges =  0.01736
 SCF Done:  E(RB3LYP) =  -898.604828491     A.U. after   13 cycles
            NFock= 13  Conv=0.83D-08     -V/T= 2.0083
 KE= 8.911947558373D+02 PE=-4.620703921679D+03 EE= 1.581751282886D+03
 Leave Link  502 at Sun Jul 11 16:00:36 2021, MaxMem=   104857600 cpu:             201.6 elap:              50.5
 (Enter /prod/apps/gaussian/g16b1/l601.exe)
 Copying SCF densities to generalized density rwf, IOpCl= 0 IROHF=0.

 **********************************************************************

            Population analysis using the SCF Density.

 **********************************************************************

 Orbital symmetries:
       Occupied  (A) (A) (A) (A) (A) (A) (A) (A) (A) (A) (A) (A)
                 (A) (A) (A) (A) (A) (A) (A) (A) (A) (A) (A) (A)
                 (A) (A) (A) (A) (A) (A) (A) (A) (A) (A) (A) (A)
                 (A) (A) (A) (A) (A) (A) (A) (A) (A) (A) (A) (A)
                 (A) (A) (A) (A) (A) (A) (A) (A) (A) (A) (A) (A)
                 (A) (A) (A) (A)
       Virtual   (A) (A) (A) (A) (A) (A) (A) (A) (A) (A) (A) (A)
                 (A) (A) (A) (A) (A) (A) (A) (A) (A) (A) (A) (A)
                 (A) (A) (A) (A) (A) (A) (A) (A) (A) (A) (A) (A)
                 (A) (A) (A) (A) (A) (A) (A) (A) (A) (A) (A) (A)
                 (A) (A) (A) (A) (A) (A) (A) (A) (A) (A) (A) (A)
                 (A) (A) (A) (A) (A) (A) (A) (A) (A) (A) (A) (A)
                 (A) (A) (A) (A) (A) (A) (A) (A) (A) (A) (A) (A)
                 (A) (A) (A) (A) (A) (A) (A) (A) (A) (A) (A) (A)
                 (A) (A) (A) (A) (A) (A) (A) (A) (A) (A) (A) (A)
                 (A) (A) (A) (A) (A) (A) (A) (A) (A) (A) (A) (A)
                 (A) (A) (A) (A) (A) (A) (A) (A) (A) (A) (A) (A)
                 (A) (A) (A) (A) (A) (A) (A) (A) (A) (A) (A) (A)
                 (A) (A) (A) (A) (A) (A) (A) (A) (A) (A) (A) (A)
                 (A) (A) (A) (A) (A) (A) (A) (A) (A) (A) (A) (A)
                 (A) (A) (A) (A) (A) (A) (A) (A) (A) (A) (A) (A)
                 (A) (A) (A) (A) (A) (A) (A) (A) (A) (A) (A) (A)
                 (A) (A) (A) (A) (A) (A) (A) (A) (A) (A) (A) (A)
                 (A) (A) (A) (A) (A) (A) (A) (A) (A) (A) (A)
 The electronic state is 1-A.
 Alpha  occ. eigenvalues --  -24.68160 -19.16248 -19.14187 -19.08163 -19.08124
 Alpha  occ. eigenvalues --  -14.36365 -14.25555 -10.28005 -10.27814 -10.26541
 Alpha  occ. eigenvalues --  -10.24553 -10.24502 -10.23164 -10.22248 -10.18924
 Alpha  occ. eigenvalues --  -10.17461 -10.16855  -1.18024  -1.04111  -1.03478
 Alpha  occ. eigenvalues --   -1.02274  -1.01615  -0.92914  -0.85700  -0.78876
 Alpha  occ. eigenvalues --   -0.77246  -0.74986  -0.68267  -0.65993  -0.61925
 Alpha  occ. eigenvalues --   -0.60440  -0.59631  -0.57336  -0.53154  -0.51564
 Alpha  occ. eigenvalues --   -0.50942  -0.49515  -0.48180  -0.46037  -0.45915
 Alpha  occ. eigenvalues --   -0.44217  -0.43190  -0.42529  -0.42371  -0.41359
 Alpha  occ. eigenvalues --   -0.40957  -0.40566  -0.39864  -0.38055  -0.37497
 Alpha  occ. eigenvalues --   -0.36793  -0.35375  -0.34264  -0.34044  -0.33299
 Alpha  occ. eigenvalues --   -0.31380  -0.30589  -0.27686  -0.26206  -0.25252
 Alpha  occ. eigenvalues --   -0.23655  -0.21593  -0.21376  -0.19085
 Alpha virt. eigenvalues --    0.00533   0.04737   0.06205   0.08227   0.09694
 Alpha virt. eigenvalues --    0.11397   0.12602   0.12994   0.13323   0.15254
 Alpha virt. eigenvalues --    0.16408   0.16519   0.17119   0.17640   0.19010
 Alpha virt. eigenvalues --    0.19916   0.21269   0.21703   0.22941   0.23496
 Alpha virt. eigenvalues --    0.24892   0.25480   0.26758   0.27765   0.29273
 Alpha virt. eigenvalues --    0.29553   0.31802   0.33411   0.36807   0.37879
 Alpha virt. eigenvalues --    0.39638   0.41781   0.48221   0.49855   0.51627
 Alpha virt. eigenvalues --    0.52489   0.54053   0.54686   0.55758   0.56726
 Alpha virt. eigenvalues --    0.57081   0.58130   0.58663   0.60972   0.61577
 Alpha virt. eigenvalues --    0.62195   0.63094   0.63712   0.64842   0.67073
 Alpha virt. eigenvalues --    0.68388   0.69119   0.69490   0.71948   0.72352
 Alpha virt. eigenvalues --    0.73548   0.75052   0.75479   0.77819   0.78411
 Alpha virt. eigenvalues --    0.79877   0.80457   0.81410   0.83064   0.84094
 Alpha virt. eigenvalues --    0.85265   0.86186   0.86524   0.86951   0.87856
 Alpha virt. eigenvalues --    0.89318   0.90016   0.91131   0.91932   0.92677
 Alpha virt. eigenvalues --    0.94439   0.95463   0.96106   0.97278   0.98015
 Alpha virt. eigenvalues --    0.98912   1.01014   1.03208   1.04125   1.04950
 Alpha virt. eigenvalues --    1.05438   1.07542   1.07841   1.09386   1.11232
 Alpha virt. eigenvalues --    1.12751   1.15523   1.16920   1.18431   1.18545
 Alpha virt. eigenvalues --    1.23239   1.24486   1.26507   1.27975   1.30737
 Alpha virt. eigenvalues --    1.35651   1.36843   1.37509   1.39516   1.40713
 Alpha virt. eigenvalues --    1.42709   1.43788   1.45743   1.50082   1.50512
 Alpha virt. eigenvalues --    1.52829   1.56789   1.57023   1.58256   1.59005
 Alpha virt. eigenvalues --    1.61393   1.63079   1.64974   1.66746   1.69377
 Alpha virt. eigenvalues --    1.72514   1.72898   1.74352   1.76266   1.78438
 Alpha virt. eigenvalues --    1.79351   1.81264   1.82116   1.83560   1.84244
 Alpha virt. eigenvalues --    1.84976   1.86351   1.86859   1.87311   1.88670
 Alpha virt. eigenvalues --    1.90005   1.90524   1.92264   1.93198   1.94649
 Alpha virt. eigenvalues --    1.95545   1.96372   1.96888   2.00422   2.02838
 Alpha virt. eigenvalues --    2.03739   2.04639   2.06063   2.07037   2.09006
 Alpha virt. eigenvalues --    2.09759   2.11756   2.13481   2.14389   2.17004
 Alpha virt. eigenvalues --    2.20111   2.21355   2.23364   2.24206   2.30380
 Alpha virt. eigenvalues --    2.31245   2.32712   2.34050   2.35619   2.36594
 Alpha virt. eigenvalues --    2.39169   2.40536   2.42669   2.43169   2.43640
 Alpha virt. eigenvalues --    2.45429   2.48485   2.51062   2.53308   2.54292
 Alpha virt. eigenvalues --    2.57416   2.60584   2.64382   2.66565   2.68000
 Alpha virt. eigenvalues --    2.72314   2.73501   2.74749   2.76944   2.79350
 Alpha virt. eigenvalues --    2.80276   2.83781   2.85637   2.88717   2.93252
 Alpha virt. eigenvalues --    2.97699   2.98744   3.03981   3.07113   3.10898
 Alpha virt. eigenvalues --    3.12264   3.36738   3.45480   3.75320   4.01362
 Alpha virt. eigenvalues --    4.02106   4.05526   4.13934   4.16893   4.19458
 Alpha virt. eigenvalues --    4.23202   4.30337   4.33700   4.37008   4.44160
 Alpha virt. eigenvalues --    4.53010   4.64448   4.66204   4.69115   4.74024
          Condensed to atoms (all electrons):
               1          2          3          4          5          6
     1  C    5.204290   0.365513   0.366950   0.367156   0.314448  -0.029818
     2  H    0.365513   0.563832  -0.027310  -0.026348  -0.028279  -0.000174
     3  H    0.366950  -0.027310   0.590002  -0.050513  -0.034456  -0.001863
     4  H    0.367156  -0.026348  -0.050513   0.583347  -0.029552   0.002089
     5  C    0.314448  -0.028279  -0.034456  -0.029552   5.239276   0.352636
     6  C   -0.029818  -0.000174  -0.001863   0.002089   0.352636   4.331687
     7  N    0.008235  -0.000130   0.000292  -0.000200  -0.131365   0.336871
     8  C    0.000377   0.000004  -0.000035  -0.000031   0.002955  -0.035193
     9  O    0.000003  -0.000000  -0.000000  -0.000000   0.000006   0.001902
    10  O    0.003087  -0.000157   0.005126   0.000050  -0.107074   0.631251
    11  C   -0.064730  -0.002034   0.002416  -0.003757   0.549932  -0.013862
    12  H   -0.005915   0.000832  -0.000121   0.003950  -0.034068   0.002465
    13  N    0.004685  -0.000048  -0.000066   0.000143  -0.044186  -0.010806
    14  C   -0.000163   0.000005   0.000002  -0.000014   0.004933   0.000130
    15  O   -0.000011  -0.000001  -0.000000   0.000002   0.000820  -0.000001
    16  H    0.000002  -0.000000  -0.000000   0.000000  -0.000049  -0.000034
    17  C    0.000004   0.000000  -0.000000  -0.000003  -0.000186   0.000012
    18  H    0.000003   0.000000  -0.000000   0.000004  -0.000137   0.000007
    19  H   -0.000000  -0.000000   0.000000  -0.000000   0.000009  -0.000001
    20  C   -0.000000  -0.000000   0.000000   0.000001  -0.000011  -0.000000
    21  F    0.000000   0.000000  -0.000000   0.000000   0.000000  -0.000000
    22  H    0.000000   0.000000  -0.000000   0.000000   0.000000  -0.000000
    23  C   -0.000003  -0.000000   0.000000  -0.000005   0.000080  -0.000000
    24  H    0.000005   0.000002  -0.000000   0.000005  -0.000177  -0.000001
    25  C   -0.000000   0.000000  -0.000000   0.000000   0.000000  -0.000000
    26  H   -0.000000  -0.000000  -0.000000   0.000000  -0.000000   0.000000
    27  H    0.000000   0.000000  -0.000000  -0.000000  -0.000000   0.000000
    28  O    0.000000  -0.000000   0.000000   0.000000   0.000000  -0.000000
    29  H   -0.000000   0.000000  -0.000000  -0.000000  -0.000000  -0.000000
               7          8          9         10         11         12
     1  C    0.008235   0.000377   0.000003   0.003087  -0.064730  -0.005915
     2  H   -0.000130   0.000004  -0.000000  -0.000157  -0.002034   0.000832
     3  H    0.000292  -0.000035  -0.000000   0.005126   0.002416  -0.000121
     4  H   -0.000200  -0.000031  -0.000000   0.000050  -0.003757   0.003950
     5  C   -0.131365   0.002955   0.000006  -0.107074   0.549932  -0.034068
     6  C    0.336871  -0.035193   0.001902   0.631251  -0.013862   0.002465
     7  N    7.406375   0.415208  -0.125286  -0.136132  -0.033705  -0.001109
     8  C    0.415208   4.207895   0.589384   0.002259  -0.039585   0.001662
     9  O   -0.125286   0.589384   8.248281   0.000003   0.001077  -0.000100
    10  O   -0.136132   0.002259   0.000003   8.165771   0.002685  -0.000046
    11  C   -0.033705  -0.039585   0.001077   0.002685   4.947035   0.363716
    12  H   -0.001109   0.001662  -0.000100  -0.000046   0.363716   0.523945
    13  N   -0.107571   0.222666  -0.106665  -0.000064   0.293258  -0.048209
    14  C    0.004171  -0.013615   0.008739   0.000004  -0.034482  -0.005738
    15  O   -0.000051   0.001007   0.000084  -0.000000   0.007019   0.007948
    16  H    0.000227   0.000276   0.010458  -0.000000   0.004487   0.000197
    17  C   -0.000180  -0.001898   0.000447  -0.000000  -0.000395   0.001116
    18  H   -0.000096   0.000085  -0.000087  -0.000000   0.002727   0.000301
    19  H    0.000013   0.000546   0.000436   0.000000  -0.000039  -0.000031
    20  C    0.000002   0.000104   0.000035   0.000000   0.000208  -0.000170
    21  F   -0.000000  -0.000000  -0.000000  -0.000000   0.000007  -0.000022
    22  H   -0.000000  -0.000005   0.000000  -0.000000  -0.000007   0.000003
    23  C    0.000001   0.000007  -0.000001  -0.000000  -0.001465   0.000998
    24  H    0.000000  -0.000006   0.000000  -0.000000  -0.000570   0.001808
    25  C   -0.000000   0.000001   0.000000  -0.000000   0.000072   0.000037
    26  H   -0.000000  -0.000000  -0.000000  -0.000000   0.000004   0.000019
    27  H    0.000000  -0.000000   0.000000   0.000000  -0.000000  -0.000006
    28  O    0.000000   0.000000  -0.000000   0.000000  -0.000000   0.000000
    29  H   -0.000000   0.000000   0.000000  -0.000000   0.000000   0.000000
              13         14         15         16         17         18
     1  C    0.004685  -0.000163  -0.000011   0.000002   0.000004   0.000003
     2  H   -0.000048   0.000005  -0.000001  -0.000000   0.000000   0.000000
     3  H   -0.000066   0.000002  -0.000000  -0.000000  -0.000000  -0.000000
     4  H    0.000143  -0.000014   0.000002   0.000000  -0.000003   0.000004
     5  C   -0.044186   0.004933   0.000820  -0.000049  -0.000186  -0.000137
     6  C   -0.010806   0.000130  -0.000001  -0.000034   0.000012   0.000007
     7  N   -0.107571   0.004171  -0.000051   0.000227  -0.000180  -0.000096
     8  C    0.222666  -0.013615   0.001007   0.000276  -0.001898   0.000085
     9  O   -0.106665   0.008739   0.000084   0.010458   0.000447  -0.000087
    10  O   -0.000064   0.000004  -0.000000  -0.000000  -0.000000  -0.000000
    11  C    0.293258  -0.034482   0.007019   0.004487  -0.000395   0.002727
    12  H   -0.048209  -0.005738   0.007948   0.000197   0.001116   0.000301
    13  N    7.222781   0.241656  -0.052361  -0.056416  -0.056636  -0.005400
    14  C    0.241656   4.701620   0.223026   0.384052   0.312141  -0.023716
    15  O   -0.052361   0.223026   8.363621  -0.037606  -0.049582   0.001361
    16  H   -0.056416   0.384052  -0.037606   0.562329  -0.043737   0.003569
    17  C   -0.056636   0.312141  -0.049582  -0.043737   5.338274   0.358887
    18  H   -0.005400  -0.023716   0.001361   0.003569   0.358887   0.529526
    19  H    0.002649  -0.021332   0.002775  -0.005079   0.349433  -0.032634
    20  C    0.001850  -0.045945  -0.036892   0.001440   0.319335  -0.020945
    21  F   -0.000003   0.001368   0.000731  -0.000027  -0.024502   0.000088
    22  H   -0.000019   0.004476   0.003136  -0.000084  -0.056358   0.004267
    23  C   -0.000422  -0.029052   0.196052   0.003939  -0.080428  -0.000734
    24  H    0.001521   0.003761  -0.042626  -0.000411  -0.005689   0.000869
    25  C   -0.000098   0.001187  -0.025681   0.000023   0.006796  -0.000068
    26  H   -0.000004  -0.000134  -0.002320   0.000006  -0.000281   0.000001
    27  H    0.000002  -0.000072   0.002378   0.000002   0.000321  -0.000002
    28  O    0.000001   0.000112   0.002351   0.000015  -0.000102  -0.000002
    29  H   -0.000000   0.000003  -0.000063  -0.000001   0.000008   0.000000
              19         20         21         22         23         24
     1  C   -0.000000  -0.000000   0.000000   0.000000  -0.000003   0.000005
     2  H   -0.000000  -0.000000   0.000000   0.000000  -0.000000   0.000002
     3  H    0.000000   0.000000  -0.000000  -0.000000   0.000000  -0.000000
     4  H   -0.000000   0.000001   0.000000   0.000000  -0.000005   0.000005
     5  C    0.000009  -0.000011   0.000000   0.000000   0.000080  -0.000177
     6  C   -0.000001  -0.000000  -0.000000  -0.000000  -0.000000  -0.000001
     7  N    0.000013   0.000002  -0.000000  -0.000000   0.000001   0.000000
     8  C    0.000546   0.000104  -0.000000  -0.000005   0.000007  -0.000006
     9  O    0.000436   0.000035  -0.000000   0.000000  -0.000001   0.000000
    10  O    0.000000   0.000000  -0.000000  -0.000000  -0.000000  -0.000000
    11  C   -0.000039   0.000208   0.000007  -0.000007  -0.001465  -0.000570
    12  H   -0.000031  -0.000170  -0.000022   0.000003   0.000998   0.001808
    13  N    0.002649   0.001850  -0.000003  -0.000019  -0.000422   0.001521
    14  C   -0.021332  -0.045945   0.001368   0.004476  -0.029052   0.003761
    15  O    0.002775  -0.036892   0.000731   0.003136   0.196052  -0.042626
    16  H   -0.005079   0.001440  -0.000027  -0.000084   0.003939  -0.000411
    17  C    0.349433   0.319335  -0.024502  -0.056358  -0.080428  -0.005689
    18  H   -0.032634  -0.020945   0.000088   0.004267  -0.000734   0.000869
    19  H    0.551964  -0.024401   0.001553  -0.008111   0.005767  -0.000128
    20  C   -0.024401   4.779514   0.236978   0.368444   0.306903  -0.049651
    21  F    0.001553   0.236978   9.180258  -0.030695  -0.025746   0.003507
    22  H   -0.008111   0.368444  -0.030695   0.601908  -0.058867   0.006927
    23  C    0.005767   0.306903  -0.025746  -0.058867   4.988955   0.349482
    24  H   -0.000128  -0.049651   0.003507   0.006927   0.349482   0.622576
    25  C   -0.000158  -0.025350   0.000180  -0.012807   0.347089  -0.052093
    26  H    0.000004   0.007077  -0.000047   0.000578  -0.038185  -0.003220
    27  H   -0.000010  -0.009203   0.003002   0.000111  -0.027755   0.003763
    28  O   -0.000002  -0.003864   0.000005   0.012440  -0.046005   0.002557
    29  H   -0.000000   0.000095  -0.000002  -0.000435   0.005825  -0.000224
              25         26         27         28         29
     1  C   -0.000000  -0.000000   0.000000   0.000000  -0.000000
     2  H    0.000000  -0.000000   0.000000  -0.000000   0.000000
     3  H   -0.000000  -0.000000  -0.000000   0.000000  -0.000000
     4  H    0.000000   0.000000  -0.000000   0.000000  -0.000000
     5  C    0.000000  -0.000000  -0.000000   0.000000  -0.000000
     6  C   -0.000000   0.000000   0.000000  -0.000000  -0.000000
     7  N   -0.000000  -0.000000   0.000000   0.000000  -0.000000
     8  C    0.000001  -0.000000  -0.000000   0.000000   0.000000
     9  O    0.000000  -0.000000   0.000000  -0.000000   0.000000
    10  O   -0.000000  -0.000000   0.000000   0.000000  -0.000000
    11  C    0.000072   0.000004  -0.000000  -0.000000   0.000000
    12  H    0.000037   0.000019  -0.000006   0.000000   0.000000
    13  N   -0.000098  -0.000004   0.000002   0.000001  -0.000000
    14  C    0.001187  -0.000134  -0.000072   0.000112   0.000003
    15  O   -0.025681  -0.002320   0.002378   0.002351  -0.000063
    16  H    0.000023   0.000006   0.000002   0.000015  -0.000001
    17  C    0.006796  -0.000281   0.000321  -0.000102   0.000008
    18  H   -0.000068   0.000001  -0.000002  -0.000002   0.000000
    19  H   -0.000158   0.000004  -0.000010  -0.000002  -0.000000
    20  C   -0.025350   0.007077  -0.009203  -0.003864   0.000095
    21  F    0.000180  -0.000047   0.003002   0.000005  -0.000002
    22  H   -0.012807   0.000578   0.000111   0.012440  -0.000435
    23  C    0.347089  -0.038185  -0.027755  -0.046005   0.005825
    24  H   -0.052093  -0.003220   0.003763   0.002557  -0.000224
    25  C    4.868000   0.357002   0.368083   0.242464  -0.020890
    26  H    0.357002   0.643229  -0.060602  -0.038056  -0.004352
    27  H    0.368083  -0.060602   0.622449  -0.048776  -0.004578
    28  O    0.242464  -0.038056  -0.048776   8.290448   0.247485
    29  H   -0.020890  -0.004352  -0.004578   0.247485   0.328988
 Mulliken charges:
               1
     1  C   -0.534116
     2  H    0.154293
     3  H    0.149580
     4  H    0.153677
     5  C   -0.055555
     6  C    0.432704
     7  N   -0.635571
     8  C    0.645932
     9  O   -0.628715
    10  O   -0.566762
    11  C    0.019989
    12  H    0.186537
    13  N   -0.502236
    14  C    0.282877
    15  O   -0.565117
    16  H    0.172422
    17  C   -0.366795
    18  H    0.182126
    19  H    0.176778
    20  C    0.194445
    21  F   -0.346632
    22  H    0.165098
    23  C    0.103571
    24  H    0.158012
    25  C   -0.053788
    26  H    0.139282
    27  H    0.150893
    28  O   -0.661072
    29  H    0.448142
 Sum of Mulliken charges =  -1.00000
 Mulliken charges with hydrogens summed into heavy atoms:
               1
     1  C   -0.076567
     5  C   -0.055555
     6  C    0.432704
     7  N   -0.635571
     8  C    0.645932
     9  O   -0.628715
    10  O   -0.566762
    11  C    0.206526
    13  N   -0.502236
    14  C    0.455300
    15  O   -0.565117
    17  C   -0.007891
    20  C    0.359542
    21  F   -0.346632
    23  C    0.261583
    25  C    0.236387
    28  O   -0.212929
 Electronic spatial extent (au):  <R**2>=           4922.2490
 Charge=             -1.0000 electrons
 Dipole moment (field-independent basis, Debye):
    X=            -20.1052    Y=              7.9073    Z=              1.1071  Tot=             21.6326
 Quadrupole moment (field-independent basis, Debye-Ang):
   XX=           -159.7861   YY=           -112.9350   ZZ=           -102.6740
   XY=              6.7285   XZ=              9.3686   YZ=             -4.8352
 Traceless Quadrupole moment (field-independent basis, Debye-Ang):
   XX=            -34.6544   YY=             12.1967   ZZ=             22.4577
   XY=              6.7285   XZ=              9.3686   YZ=             -4.8352
 Octapole moment (field-independent basis, Debye-Ang**2):
  XXX=           -467.1634  YYY=             51.0822  ZZZ=             -1.6583  XYY=            -73.2501
  XXY=             61.8936  XXZ=            -29.8161  XZZ=             -3.0468  YZZ=              0.1275
  YYZ=              6.0124  XYZ=             12.8613
 Hexadecapole moment (field-independent basis, Debye-Ang**3):
 XXXX=          -5401.5569 YYYY=          -1236.3563 ZZZZ=           -490.6229 XXXY=           -201.1524
 XXXZ=            271.5638 YYYX=             81.4020 YYYZ=            -12.0059 ZZZX=             33.4902
 ZZZY=             -5.5269 XXYY=          -1000.6803 XXZZ=           -807.6822 YYZZ=           -248.9699
 XXYZ=            -80.7887 YYXZ=             13.3443 ZZXY=            -16.4087
 N-N= 1.249153054465D+03 E-N=-4.620703914100D+03  KE= 8.911947558373D+02
 No NMR shielding tensors so no spin-rotation constants.
 Leave Link  601 at Sun Jul 11 16:00:36 2021, MaxMem=   104857600 cpu:               0.4 elap:               0.1
 (Enter /prod/apps/gaussian/g16b1/l701.exe)
 ... and contract with generalized density number  0.
 Compute integral first derivatives.
 D1PCM: PCM CHGder 1st derivatives, ID1Alg=3 FixD1E=F DoIter=F DoCFld=F I1PDM=0.
 GePol: Maximum number of non-zero 1st derivatives   =     231
 Leave Link  701 at Sun Jul 11 16:00:38 2021, MaxMem=   104857600 cpu:               7.6 elap:               1.9
 (Enter /prod/apps/gaussian/g16b1/l702.exe)
 L702 exits ... SP integral derivatives will be done elsewhere.
 Leave Link  702 at Sun Jul 11 16:00:38 2021, MaxMem=   104857600 cpu:               0.1 elap:               0.0
 (Enter /prod/apps/gaussian/g16b1/l703.exe)
 Integral derivatives from FoFJK, PRISM(SPDF).
 Compute integral first derivatives, UseDBF=F ICtDFT=           0.
 Calling FoFJK, ICntrl=      2127 FMM=F ISym2X=0 I1Cent= 0 IOpClX= 0 NMat=1 NMatS=1 NMatT=0.
 FoFJK:  IHMeth= 1 ICntrl=    2127 DoSepK=F KAlg= 0 I1Cent=           0 FoldK=F
 IRaf=         0 NMat=       1 IRICut=       1 DoRegI=T DoRafI=F ISym2E= 0 IDoP0=0 IntGTp=1.
 FoFCou: FMM=F IPFlag=           0 FMFlag=      100000 FMFlg1=         800
         NFxFlg=           0 DoJE=F BraDBF=F KetDBF=F FulRan=T
         wScrn=  0.000000 ICntrl=      2127 IOpCl=  0 I1Cent=           0 NGrid=           0
         NMat0=    1 NMatS0=      1 NMatT0=    0 NMatD0=    1 NMtDS0=    0 NMtDT0=    0
 Symmetry not used in FoFCou.
 Leave Link  703 at Sun Jul 11 16:00:51 2021, MaxMem=   104857600 cpu:              53.7 elap:              13.4
 (Enter /prod/apps/gaussian/g16b1/l716.exe)
 Dipole        =-7.90998979D+00 3.11095244D+00 4.35560526D-01
 ***** Axes restored to original set *****
 -------------------------------------------------------------------
 Center     Atomic                   Forces (Hartrees/Bohr)
 Number     Number              X              Y              Z
 -------------------------------------------------------------------
      1        6          -0.017828911   -0.004210759    0.005524745
      2        1           0.003654027   -0.007880115    0.000538773
      3        1           0.005020272   -0.004065194   -0.022969763
      4        1           0.005329505    0.019836400    0.003926511
      5        6           0.020112392    0.010376942    0.024943604
      6        6          -0.005274599    0.096857899    0.134582949
      7        7          -0.048593381    0.007170095   -0.032401414
      8        6           0.047027153    0.005580640   -0.000616161
      9        8          -0.047640988    0.032967281    0.014311426
     10        8           0.059603563   -0.115366402   -0.079431168
     11        6          -0.012232768   -0.040116853   -0.053468002
     12        1          -0.003756296   -0.003375365    0.001651042
     13        7          -0.004020983    0.018256251    0.006979922
     14        6           0.013975893    0.014284531    0.009449005
     15        8           0.000656929    0.000752589    0.018650983
     16        1          -0.001329403   -0.016071120   -0.001665480
     17        6          -0.025430157    0.006025221    0.012301194
     18        1           0.011484710    0.000628411    0.002999160
     19        1          -0.001281480   -0.000424945   -0.006646931
     20        6          -0.006115677   -0.016475378   -0.009104708
     21        9           0.000178303    0.006573553   -0.012465559
     22        1           0.002520560   -0.000425259    0.004821222
     23        6          -0.005761837   -0.000608855    0.000100686
     24        1           0.001500384   -0.002441299    0.001827670
     25        6           0.022449609   -0.000101573    0.000720398
     26        1           0.005193747    0.004013972   -0.009072872
     27        1          -0.002963355   -0.025384581    0.004665357
     28        8          -0.012349630    0.013953206   -0.017659734
     29        1          -0.004127583   -0.000329294   -0.002492854
 -------------------------------------------------------------------
 Cartesian Forces:  Max     0.134582949 RMS     0.028839973
 Leave Link  716 at Sun Jul 11 16:00:51 2021, MaxMem=   104857600 cpu:               0.1 elap:               0.1
 (Enter /prod/apps/gaussian/g16b1/l103.exe)

 GradGradGradGradGradGradGradGradGradGradGradGradGradGradGradGradGradGrad
 Berny optimization.
 FormGI is forming the generalized inverse of G from B-inverse, IUseBI=4.
 Internal  Forces:  Max     0.149047236 RMS     0.017604277
 Search for a local minimum.
 Step number   1 out of a maximum of  171
 All quantities printed in internal units (Hartrees-Bohrs-Radians)
 RMS Force = .17604D-01 SwitMx=.10000D-02 MixMth= 1
 Mixed Optimization -- RFO/linear search
 Second derivative matrix not updated -- first step.
 ITU=  0
     Eigenvalues ---    0.00315   0.00374   0.00410   0.00691   0.00698
     Eigenvalues ---    0.00739   0.00997   0.01185   0.01367   0.01652
     Eigenvalues ---    0.01770   0.01813   0.01939   0.02645   0.02717
     Eigenvalues ---    0.03311   0.04272   0.04328   0.04658   0.04718
     Eigenvalues ---    0.05139   0.05624   0.05672   0.05757   0.05985
     Eigenvalues ---    0.07190   0.07298   0.07456   0.07536   0.08553
     Eigenvalues ---    0.09239   0.12226   0.12382   0.14278   0.15506
     Eigenvalues ---    0.15972   0.16000   0.16000   0.16000   0.16000
     Eigenvalues ---    0.16086   0.19954   0.21339   0.21823   0.23428
     Eigenvalues ---    0.24460   0.24806   0.24890   0.24956   0.24980
[...]
 Alpha virt. eigenvalues --    1.11631   1.12217   1.12541   1.14262   1.15083
 Alpha virt. eigenvalues --    1.15664   1.16353   1.17512   1.18194   1.19081
 Alpha virt. eigenvalues --    1.20332   1.20968   1.21930   1.23056   1.23969
 Alpha virt. eigenvalues --    1.24320   1.24967   1.25921   1.26321   1.27292
 Alpha virt. eigenvalues --    1.28568   1.29170   1.29608   1.30338   1.31087
 Alpha virt. eigenvalues --    1.32303   1.32680   1.34240   1.35795   1.36953
 Alpha virt. eigenvalues --    1.37440   1.38715   1.39275   1.39892   1.40695
 Alpha virt. eigenvalues --    1.40889   1.42551   1.43612   1.45149   1.46054
 Alpha virt. eigenvalues --    1.47460   1.48324   1.48978   1.50233   1.51072
 Alpha virt. eigenvalues --    1.52096   1.52869   1.53564   1.55493   1.56344
 Alpha virt. eigenvalues --    1.57024   1.58086   1.58439   1.58980   1.60534
 Alpha virt. eigenvalues --    1.62640   1.63075   1.63400   1.65393   1.66050
 Alpha virt. eigenvalues --    1.67210   1.69064   1.69668   1.70038   1.71938
 Alpha virt. eigenvalues --    1.72256   1.74013   1.75123   1.75923   1.76768
 Alpha virt. eigenvalues --    1.77978   1.79582   1.80564   1.81924   1.82606
 Alpha virt. eigenvalues --    1.84031   1.84784   1.85303   1.87232   1.87939
 Alpha virt. eigenvalues --    1.88637   1.88942   1.90831   1.92141   1.93162
 Alpha virt. eigenvalues --    1.94090   1.94428   1.95620   1.96382   1.97140
 Alpha virt. eigenvalues --    1.97795   1.99236   1.99817   2.00670   2.01056
 Alpha virt. eigenvalues --    2.01237   2.02597   2.03521   2.04390   2.05564
 Alpha virt. eigenvalues --    2.05666   2.08554   2.09160   2.09770   2.10239
 Alpha virt. eigenvalues --    2.12313   2.13787   2.14508   2.15578   2.16312
 Alpha virt. eigenvalues --    2.17222   2.19354   2.19737   2.20562   2.21153
 Alpha virt. eigenvalues --    2.22877   2.23763   2.24175   2.25778   2.26104
 Alpha virt. eigenvalues --    2.26615   2.27428   2.28599   2.29394   2.30435
 Alpha virt. eigenvalues --    2.32226   2.32547   2.33457   2.34974   2.35306
 Alpha virt. eigenvalues --    2.36406   2.37067   2.39930   2.41180   2.41833
 Alpha virt. eigenvalues --    2.43405   2.43786   2.44515   2.46420   2.47266
 Alpha virt. eigenvalues --    2.48371   2.50522   2.50905   2.51575   2.52655
 Alpha virt. eigenvalues --    2.53151   2.54440   2.55135   2.55898   2.57419
 Alpha virt. eigenvalues --    2.57833   2.60580   2.61889   2.62906   2.64143
 Alpha virt. eigenvalues --    2.64821   2.65476   2.67199   2.67623   2.68621
 Alpha virt. eigenvalues --    2.70551   2.71671   2.73057   2.74444   2.75966
 Alpha virt. eigenvalues --    2.77546   2.77864   2.79934   2.80970   2.81820
 Alpha virt. eigenvalues --    2.82653   2.84367   2.85012   2.86536   2.89427
 Alpha virt. eigenvalues --    2.91099   2.93017   2.93375   2.95490   2.96977
 Alpha virt. eigenvalues --    2.98600   3.00665   3.01785   3.03227   3.04605
 Alpha virt. eigenvalues --    3.05475   3.07062   3.07839   3.10237   3.11658
 Alpha virt. eigenvalues --    3.13628   3.14830   3.16116   3.18117   3.19111
 Alpha virt. eigenvalues --    3.20416   3.23012   3.25055   3.26789   3.27167
 Alpha virt. eigenvalues --    3.28289   3.30452   3.34679   3.35498   3.42008
 Alpha virt. eigenvalues --    3.42616   3.48297   3.53205   3.57890   3.59169
 Alpha virt. eigenvalues --    3.62753   3.69182   3.72240   3.77667   3.85150
 Alpha virt. eigenvalues --    3.90600   3.92599   3.94453   3.95929   3.97572
 Alpha virt. eigenvalues --    3.98342   3.99150   4.01466   4.02433   4.04041
 Alpha virt. eigenvalues --    4.04981   4.07430   4.11555   4.13370   4.15664
 Alpha virt. eigenvalues --    4.20721   4.25175   4.27770   4.33370   4.36876
 Alpha virt. eigenvalues --    4.39403   4.43343   4.45175   4.48104   4.95424
 Alpha virt. eigenvalues --    5.17864   5.21564   5.25341   5.29995   5.44179
          Condensed to atoms (all electrons):
               1          2          3          4          5          6
     1  C    5.237665   0.309990   0.379958   0.131436   0.312885  -0.238209
     2  H    0.309990   0.821857  -0.118947  -0.111111   0.058539  -0.005031
     3  H    0.379958  -0.118947   0.819015  -0.093704  -0.045967   0.002813
     4  H    0.131436  -0.111111  -0.093704   1.152436   0.222789  -0.066982
     5  C    0.312885   0.058539  -0.045967   0.222789   7.950832  -1.389818
     6  C   -0.238209  -0.005031   0.002813  -0.066982  -1.389818   7.673380
     7  N   -0.006787   0.002052  -0.001753  -0.007541   0.265767  -0.159799
     8  C   -0.028709  -0.009133  -0.009204   0.015910   0.190208  -0.391640
     9  O    0.001738   0.000102   0.000131   0.000207   0.043734   0.043125
    10  O    0.004258   0.024442   0.024408  -0.006999  -0.102730   0.121472
    11  C   -0.572191  -0.024912   0.013122  -0.116417  -1.491423   0.026811
    12  H    0.067607   0.009172  -0.017691  -0.046326   0.011054  -0.029113
    13  N   -0.000836  -0.009919  -0.006819   0.053989  -0.084399   0.007826
    14  C   -0.079098  -0.013018  -0.010927   0.060695  -0.167182  -0.236706
    15  O   -0.004834  -0.000040   0.000348  -0.003035  -0.000988   0.006313
    16  H   -0.007213  -0.000580  -0.000540   0.002028   0.002142  -0.013449
    17  C   -0.005259  -0.000546   0.000339  -0.011645   0.082177  -0.016484
    18  H    0.010047  -0.001998   0.003365  -0.001532  -0.014972   0.004536
    19  H    0.002295   0.000164   0.000026  -0.000741  -0.019493   0.011999
    20  C    0.002064   0.000194  -0.000048   0.002834  -0.003052   0.001987
    21  F    0.000415   0.000027   0.000033  -0.000025   0.000516   0.000302
    22  H   -0.000098   0.000009  -0.000001  -0.000155  -0.003345   0.000355
    23  C   -0.003966  -0.001311  -0.000702  -0.003327  -0.027431  -0.017392
    24  H   -0.000986   0.000209  -0.000095  -0.001034  -0.008087  -0.000293
    25  C   -0.000328  -0.000188  -0.000004   0.000574   0.023330  -0.003953
    26  H   -0.000108  -0.000002   0.000003  -0.000118   0.000447  -0.000235
    27  H    0.000067  -0.000001  -0.000003   0.000046   0.001169  -0.000116
    28  O    0.000383   0.000025   0.000022   0.000097   0.001643   0.000816
    29  H    0.000030  -0.000003   0.000002   0.000008   0.000357  -0.000097
               7          8          9         10         11         12
     1  C   -0.006787  -0.028709   0.001738   0.004258  -0.572191   0.067607
     2  H    0.002052  -0.009133   0.000102   0.024442  -0.024912   0.009172
     3  H   -0.001753  -0.009204   0.000131   0.024408   0.013122  -0.017691
     4  H   -0.007541   0.015910   0.000207  -0.006999  -0.116417  -0.046326
     5  C    0.265767   0.190208   0.043734  -0.102730  -1.491423   0.011054
     6  C   -0.159799  -0.391640   0.043125   0.121472   0.026811  -0.029113
     7  N    8.188806   0.124966  -0.210368  -0.154931  -0.067344   0.021788
     8  C    0.124966   5.248214   0.206561   0.061334  -0.620919  -0.026712
     9  O   -0.210368   0.206561   8.955059  -0.006316  -0.065123   0.002874
    10  O   -0.154931   0.061334  -0.006316   9.050096   0.034255   0.003961
    11  C   -0.067344  -0.620919  -0.065123   0.034255  10.987918  -1.082095
    12  H    0.021788  -0.026712   0.002874   0.003961  -1.082095   2.662212
    13  N   -0.084741   0.212768  -0.163781   0.004043  -0.520396   0.032608
    14  C   -0.037356   0.181353   0.144290   0.006239  -1.653046  -0.001201
    15  O   -0.010480  -0.012104   0.003515   0.000515   0.226013   0.015225
    16  H   -0.020143   0.056821  -0.018702   0.000559  -0.092868   0.018271
    17  C    0.005369  -0.029544  -0.010085   0.003864  -0.270319   0.095915
    18  H   -0.003324  -0.018405  -0.002969   0.000558   0.107039  -0.042288
    19  H   -0.001590  -0.007087   0.000539   0.000070   0.172316   0.001014
    20  C    0.007797  -0.026019   0.005793  -0.000314   0.172631  -0.020138
    21  F   -0.000278   0.004845   0.000035  -0.000000  -0.002360  -0.010204
    22  H    0.000675  -0.005690  -0.000609  -0.000017   0.032583   0.007819
    23  C    0.008860  -0.121073  -0.004479   0.001165  -0.274836   0.005196
    24  H    0.000067   0.001549  -0.000496   0.000115   0.039413  -0.005755
    25  C   -0.001444   0.005855   0.003881   0.000013  -0.067121  -0.000460
    26  H   -0.000054  -0.001202  -0.000569   0.000009   0.002542   0.004069
    27  H   -0.000006   0.000532   0.000412   0.000001   0.003951   0.000414
    28  O   -0.000178   0.008656  -0.000704  -0.000004   0.012554  -0.001682
    29  H   -0.000061  -0.000616   0.000060   0.000001  -0.002605  -0.000240
              13         14         15         16         17         18
     1  C   -0.000836  -0.079098  -0.004834  -0.007213  -0.005259   0.010047
     2  H   -0.009919  -0.013018  -0.000040  -0.000580  -0.000546  -0.001998
     3  H   -0.006819  -0.010927   0.000348  -0.000540   0.000339   0.003365
     4  H    0.053989   0.060695  -0.003035   0.002028  -0.011645  -0.001532
     5  C   -0.084399  -0.167182  -0.000988   0.002142   0.082177  -0.014972
     6  C    0.007826  -0.236706   0.006313  -0.013449  -0.016484   0.004536
     7  N   -0.084741  -0.037356  -0.010480  -0.020143   0.005369  -0.003324
     8  C    0.212768   0.181353  -0.012104   0.056821  -0.029544  -0.018405
     9  O   -0.163781   0.144290   0.003515  -0.018702  -0.010085  -0.002969
    10  O    0.004043   0.006239   0.000515   0.000559   0.003864   0.000558
    11  C   -0.520396  -1.653046   0.226013  -0.092868  -0.270319   0.107039
    12  H    0.032608  -0.001201   0.015225   0.018271   0.095915  -0.042288
    13  N    8.790476  -0.418439   0.048407  -0.260652   0.082675  -0.089570
    14  C   -0.418439   9.496474  -0.393729  -0.274139  -0.565889  -0.218887
    15  O    0.048407  -0.393729   9.799980  -0.129864   0.000387   0.080790
    16  H   -0.260652  -0.274139  -0.129864   2.157330   0.193845   0.056531
    17  C    0.082675  -0.565889   0.000387   0.193845   6.011547   0.266785
    18  H   -0.089570  -0.218887   0.080790   0.056531   0.266785   1.240694
    19  H   -0.053598   0.134969   0.047752  -0.134895  -0.048054  -0.135121
    20  C    0.266693  -0.447103  -0.026249  -0.094890  -0.393062  -0.153586
    21  F   -0.025429   0.133184   0.015644   0.006576   0.174208   0.012991
    22  H    0.012145  -0.082258   0.014376   0.003304  -0.012482   0.063863
    23  C    0.057511  -0.842525  -0.424024  -0.147113   0.268970  -0.026043
    24  H   -0.018750   0.117462  -0.145257   0.010947  -0.030403   0.002440
    25  C   -0.009977  -0.066098   0.022359   0.114443   0.181934   0.027074
    26  H   -0.000006  -0.008699  -0.024224   0.003484  -0.004712  -0.001466
    27  H    0.003006   0.017450   0.093446   0.003694   0.005375   0.002799
    28  O    0.005936   0.014438   0.011187  -0.003785  -0.011905  -0.001076
    29  H   -0.000306  -0.015011  -0.011332   0.001600   0.008141   0.000077
              19         20         21         22         23         24
     1  C    0.002295   0.002064   0.000415  -0.000098  -0.003966  -0.000986
     2  H    0.000164   0.000194   0.000027   0.000009  -0.001311   0.000209
     3  H    0.000026  -0.000048   0.000033  -0.000001  -0.000702  -0.000095
     4  H   -0.000741   0.002834  -0.000025  -0.000155  -0.003327  -0.001034
     5  C   -0.019493  -0.003052   0.000516  -0.003345  -0.027431  -0.008087
     6  C    0.011999   0.001987   0.000302   0.000355  -0.017392  -0.000293
     7  N   -0.001590   0.007797  -0.000278   0.000675   0.008860   0.000067
     8  C   -0.007087  -0.026019   0.004845  -0.005690  -0.121073   0.001549
     9  O    0.000539   0.005793   0.000035  -0.000609  -0.004479  -0.000496
    10  O    0.000070  -0.000314  -0.000000  -0.000017   0.001165   0.000115
    11  C    0.172316   0.172631  -0.002360   0.032583  -0.274836   0.039413
    12  H    0.001014  -0.020138  -0.010204   0.007819   0.005196  -0.005755
    13  N   -0.053598   0.266693  -0.025429   0.012145   0.057511  -0.018750
    14  C    0.134969  -0.447103   0.133184  -0.082258  -0.842525   0.117462
    15  O    0.047752  -0.026249   0.015644   0.014376  -0.424024  -0.145257
    16  H   -0.134895  -0.094890   0.006576   0.003304  -0.147113   0.010947
    17  C   -0.048054  -0.393062   0.174208  -0.012482   0.268970  -0.030403
    18  H   -0.135121  -0.153586   0.012991   0.063863  -0.026043   0.002440
    19  H    1.372400  -0.052399   0.023161  -0.097796  -0.065665  -0.003611
    20  C   -0.052399   6.891344  -0.829275   0.108495  -0.496328   0.038155
    21  F    0.023161  -0.829275  10.200626  -0.124407   0.145663   0.023669
    22  H   -0.097796   0.108495  -0.124407   1.508492  -0.152623   0.037268
    23  C   -0.065665  -0.496328   0.145663  -0.152623   8.600259  -0.474599
    24  H   -0.003611   0.038155   0.023669   0.037268  -0.474599   1.767072
    25  C   -0.030567  -0.322525   0.028176  -0.036519  -0.109222  -0.047611
    26  H   -0.001169   0.026129  -0.001730   0.016271  -0.002063  -0.016302
    27  H   -0.002662  -0.015939   0.007873  -0.008430  -0.037043  -0.060221
    28  O    0.003102   0.003021   0.011938   0.005567  -0.282331   0.053720
    29  H    0.000028  -0.021812   0.000391  -0.004839   0.104345   0.006491
              25         26         27         28         29
     1  C   -0.000328  -0.000108   0.000067   0.000383   0.000030
     2  H   -0.000188  -0.000002  -0.000001   0.000025  -0.000003
     3  H   -0.000004   0.000003  -0.000003   0.000022   0.000002
     4  H    0.000574  -0.000118   0.000046   0.000097   0.000008
     5  C    0.023330   0.000447   0.001169   0.001643   0.000357
     6  C   -0.003953  -0.000235  -0.000116   0.000816  -0.000097
     7  N   -0.001444  -0.000054  -0.000006  -0.000178  -0.000061
     8  C    0.005855  -0.001202   0.000532   0.008656  -0.000616
     9  O    0.003881  -0.000569   0.000412  -0.000704   0.000060
    10  O    0.000013   0.000009   0.000001  -0.000004   0.000001
    11  C   -0.067121   0.002542   0.003951   0.012554  -0.002605
    12  H   -0.000460   0.004069   0.000414  -0.001682  -0.000240
    13  N   -0.009977  -0.000006   0.003006   0.005936  -0.000306
    14  C   -0.066098  -0.008699   0.017450   0.014438  -0.015011
    15  O    0.022359  -0.024224   0.093446   0.011187  -0.011332
    16  H    0.114443   0.003484   0.003694  -0.003785   0.001600
    17  C    0.181934  -0.004712   0.005375  -0.011905   0.008141
    18  H    0.027074  -0.001466   0.002799  -0.001076   0.000077
    19  H   -0.030567  -0.001169  -0.002662   0.003102   0.000028
    20  C   -0.322525   0.026129  -0.015939   0.003021  -0.021812
    21  F    0.028176  -0.001730   0.007873   0.011938   0.000391
    22  H   -0.036519   0.016271  -0.008430   0.005567  -0.004839
    23  C   -0.109222  -0.002063  -0.037043  -0.282331   0.104345
    24  H   -0.047611  -0.016302  -0.060221   0.053720   0.006491
    25  C    4.745599   0.266849   0.125059   0.145988  -0.110551
    26  H    0.266849   1.108461  -0.177872  -0.048727  -0.022587
    27  H    0.125059  -0.177872   1.249055  -0.057424  -0.027100
    28  O    0.145988  -0.048727  -0.057424   8.459123   0.399194
    29  H   -0.110551  -0.022587  -0.027100   0.399194   0.536251
 Mulliken charges:
               1
     1  C    0.487787
     2  H    0.069957
     3  H    0.062822
     4  H   -0.172357
     5  C    0.191298
     6  C    0.667579
     7  N   -0.857969
     8  C    0.988485
     9  O   -0.927856
    10  O   -1.070067
    11  C    1.092826
    12  H   -0.675293
    13  N   -0.830467
    14  C    1.224758
    15  O   -1.200098
    16  H   -0.432740
    17  C    0.028856
    18  H   -0.168351
    19  H   -0.115386
    20  C    1.375602
    21  F   -0.796562
    22  H   -0.281955
    23  C    0.322128
    24  H   -0.285075
    25  C    1.115434
    26  H   -0.116418
    27  H   -0.127530
    28  O   -0.729591
    29  H    0.160183
 Sum of Mulliken charges =  -1.00000
 Mulliken charges with hydrogens summed into heavy atoms:
               1
     1  C    0.448210
     5  C    0.191298
     6  C    0.667579
     7  N   -0.857969
     8  C    0.988485
     9  O   -0.927856
    10  O   -1.070067
    11  C    0.417533
    13  N   -0.830467
    14  C    0.792018
    15  O   -1.200098
    17  C   -0.254881
    20  C    1.093647
    21  F   -0.796562
    23  C    0.037053
    25  C    0.871485
    28  O   -0.569407
 Electronic spatial extent (au):  <R**2>=           4805.5532
 Charge=             -1.0000 electrons
 Dipole moment (field-independent basis, Debye):
    X=            -16.2405    Y=              6.6744    Z=             -1.6583  Tot=             17.6367
 Quadrupole moment (field-independent basis, Debye-Ang):
   XX=           -161.4136   YY=           -126.8718   ZZ=           -101.7368
   XY=             24.1282   XZ=              6.4403   YZ=              3.6075
 Traceless Quadrupole moment (field-independent basis, Debye-Ang):
   XX=            -31.4062   YY=              3.1356   ZZ=             28.2706
   XY=             24.1282   XZ=              6.4403   YZ=              3.6075
 Octapole moment (field-independent basis, Debye-Ang**2):
  XXX=           -402.6833  YYY=             40.0036  ZZZ=              2.5229  XYY=            -46.9484
  XXY=             -1.8918  XXZ=            -29.0093  XZZ=            -26.3466  YZZ=             -1.8091
  YYZ=            -23.9730  XYZ=              9.0713
 Hexadecapole moment (field-independent basis, Debye-Ang**3):
 XXXX=          -5876.5859 YYYY=          -1310.3975 ZZZZ=           -451.8949 XXXY=            335.5067
 XXXZ=            183.8511 YYYX=            115.4802 YYYZ=             55.8085 ZZZX=             -0.5108
 ZZZY=             22.5382 XXYY=          -1040.6277 XXZZ=           -822.5501 YYZZ=           -281.6430
 XXYZ=             30.6109 YYXZ=             28.5877 ZZXY=             16.0522
 N-N= 1.260441542808D+03 E-N=-4.640498526543D+03  KE= 8.923739207718D+02
 Leave Link  601 at Sun Jul 11 17:44:58 2021, MaxMem=   262144000 cpu:               0.5 elap:               0.2
 (Enter /prod/apps/gaussian/g16b1/l9999.exe)
 1\1\GINC-PIRINEUS10\SP\RMP2-FC\Aug-CC-pVDZ\C10H12F1N2O4(1-)\UBATOR02\1
 1-Jul-2021\0\\#p mp2/aug-cc-pVDZ scf=tight maxdisk=180GB geom=allcheck
 \\SET_328_BBB277_conf1.geo_210_060 geometry\\-1,1\C,0,1.9144798777,-3.
 4342011017,-1.1255341366\H,0,2.8529394088,-3.3858485216,-1.6895767959\
 H,0,1.4672259646,-4.4089189353,-1.3504764493\H,0,2.1574018653,-3.40616
 38634,-0.059855396\C,0,0.9906775592,-2.3114935922,-1.496673437\C,0,0.5
 113129784,-2.1850392132,-2.8826430296\N,0,-0.3095002609,-1.1399547075,
 -3.2162714496\C,0,-0.7076830594,-0.2197557295,-2.3134373319\O,0,-1.445
 9227528,0.7448011302,-2.5986726208\O,0,0.8581108114,-3.0263535129,-3.7
 45439787\C,0,0.5712981402,-1.3863371494,-0.6078939802\H,0,0.8868754431
 ,-1.3910070919,0.4289004879\N,0,-0.2761958682,-0.3610018016,-0.9623482
 051\C,0,-0.6513846559,0.6294524794,0.0207923164\O,0,0.539932072,1.2686
 819117,0.5188143608\H,0,-1.2717857801,1.3487197766,-0.5127556587\C,0,-
 1.3492362319,0.0879065137,1.2709621175\H,0,-0.8876123544,-0.853420451,
 1.5831755332\H,0,-2.4160317508,-0.0767639046,1.1153310162\C,0,-1.03105
 1564,1.1449755847,2.3190111055\F,0,-0.8904243847,0.5808827955,3.593559
 4154\H,0,-1.8011736266,1.9145664523,2.3892107068\C,0,0.3104784191,1.75
 25401577,1.8513925992\H,0,1.1123730404,1.377714312,2.4967488008\C,0,0.
 3214721826,3.2714543507,1.8807334222\H,0,1.2691271001,3.6344313915,1.4
 583051212\H,0,0.2726070911,3.5994136451,2.928933396\O,0,-0.7924557276,
 3.7418895366,1.134337552\H,0,-0.7928539367,4.7128295381,1.1813703267\\
 Version=ES64L-G16RevB.01\State=1-A\HF=-893.6183377\MP2=-896.3476537\RM
 SD=7.960e-09\PG=C01 [X(C10H12F1N2O4)]\\@


 At the touch of love, everyone becomes a poet.
                                -- Plato
 Job cpu time:       0 days  1 hours 34 minutes 10.1 seconds.
 Elapsed time:       0 days  0 hours 27 minutes  9.7 seconds.
 File lengths (MBytes):  RWF=  61595 Int=      0 D2E=      0 Chk=     21 Scr=      1
 Normal termination of Gaussian 16 at Sun Jul 11 17:45:00 2021.
