 Entering Gaussian System, Link 0=g16
 Initial command:
 /prod/apps/gaussian/g16b1/l1.exe "/tmp/ubator02/1834524/Gau-210471.inp" -scrdir="/tmp/ubator02/1834524/"
 Entering Link 1 = /prod/apps/gaussian/g16b1/l1.exe PID=    210473.
  
 Copyright (c) 1988-2017, Gaussian, Inc.  All Rights Reserved.
  
 This is part of the Gaussian(R) 16 program.  It is based on
 the Gaussian(R) 09 system (copyright 2009, Gaussian, Inc.),
 the Gaussian(R) 03 system (copyright 2003, Gaussian, Inc.),
 the Gaussian(R) 98 system (copyright 1998, Gaussian, Inc.),
 the Gaussian(R) 94 system (copyright 1995, Gaussian, Inc.),
 the Gaussian 92(TM) system (copyright 1992, Gaussian, Inc.),
 the Gaussian 90(TM) system (copyright 1990, Gaussian, Inc.),
 the Gaussian 88(TM) system (copyright 1988, Gaussian, Inc.),
 the Gaussian 86(TM) system (copyright 1986, Carnegie Mellon
 University), and the Gaussian 82(TM) system (copyright 1983,
 Carnegie Mellon University). Gaussian is a federally registered
 trademark of Gaussian, Inc.
  
 This software contains proprietary and confidential information,
 including trade secrets, belonging to Gaussian, Inc.
  
 This software is provided under written license and may be
 used, copied, transmitted, or stored only in accord with that
 written license.
  
 The following legend is applicable only to US Government
 contracts under FAR:
  
                    RESTRICTED RIGHTS LEGEND
  
 Use, reproduction and disclosure by the US Government is
 subject to restrictions as set forth in subparagraphs (a)
 and (c) of the Commercial Computer Software - Restricted
 Rights clause in FAR 52.227-19.
  
 Gaussian, Inc.
 340 Quinnipiac St., Bldg. 40, Wallingford CT 06492
  
  
 ---------------------------------------------------------------
 Warning -- This program may not be used in any manner that
 competes with the business of Gaussian, Inc. or will provide
 assistance to any competitor of Gaussian, Inc.  The licensee
 of this program is prohibited from giving any competitor of
 Gaussian, Inc. access to this program.  By using this program,
 the user acknowledges that Gaussian, Inc. is engaged in the
 business of creating and licensing software in the field of
 computational chemistry and represents and warrants to the
 licensee that it is not a competitor of Gaussian, Inc. and that
 it will not use this program in any manner prohibited above.
 ---------------------------------------------------------------
  

 Cite this work as:
 Gaussian 16, Revision B.01,
 M. J. Frisch, G. W. Trucks, H. B. Schlegel, G. E. Scuseria, 
 M. A. Robb, J. R. Cheeseman, G. Scalmani, V. Barone, 
 G. A. Petersson, H. Nakatsuji, X. Li, M. Caricato, A. V. Marenich, 
 J. Bloino, B. G. Janesko, R. Gomperts, B. Mennucci, H. P. Hratchian, 
 J. V. Ortiz, A. F. Izmaylov, J. L. Sonnenberg, D. Williams-Young, 
 F. Ding, F. Lipparini, F. Egidi, J. Goings, B. Peng, A. Petrone, 
 T. Henderson, D. Ranasinghe, V. G. Zakrzewski, J. Gao, N. Rega, 
 G. Zheng, W. Liang, M. Hada, M. Ehara, K. Toyota, R. Fukuda, 
 J. Hasegawa, M. Ishida, T. Nakajima, Y. Honda, O. Kitao, H. Nakai, 
 T. Vreven, K. Throssell, J. A. Montgomery, Jr., J. E. Peralta, 
 F. Ogliaro, M. J. Bearpark, J. J. Heyd, E. N. Brothers, K. N. Kudin, 
 V. N. Staroverov, T. A. Keith, R. Kobayashi, J. Normand, 
 K. Raghavachari, A. P. Rendell, J. C. Burant, S. S. Iyengar, 
 J. Tomasi, M. Cossi, J. M. Millam, M. Klene, C. Adamo, R. Cammi, 
 J. W. Ochterski, R. L. Martin, K. Morokuma, O. Farkas, 
 J. B. Foresman, and D. J. Fox, Gaussian, Inc., Wallingford CT, 2016.
 
 ******************************************
 Gaussian 16:  ES64L-G16RevB.01 20-Dec-2017
                11-Jul-2021 
 ******************************************
 %mem=800MB
 %nproc=4
 Will use up to    4 processors via shared memory.
 %chk=SET_328_BBB212_conf1.geo_060_045.chk
 -----------------------------------------------------------
 #p b3lyp/6-31G(d) opt freq scrf=(iefpcm,read,solvent=water)
 -----------------------------------------------------------
 1/18=20,19=15,26=3,38=1,40=2/1,3;
 2/9=110,12=2,17=6,18=5,40=1/2;
 3/5=1,6=6,7=1,11=2,25=1,30=1,70=2203,71=1,72=1,74=-5/1,2,3;
 4//1;
 5/5=2,38=5,53=1/2;
 6/7=2,8=2,9=2,10=2,28=1/1;
 7//1,2,3,16;
 1/18=20,19=15,26=3/3(2);
 2/9=110/2;
 99//99;
 2/9=110/2;
 3/5=1,6=6,7=1,11=2,25=1,30=1,70=2205,71=1,72=1,74=-5/1,2,3;
 4/5=5,16=3,69=1/1;
 5/5=2,38=5,53=1/2;
 7//1,2,3,16;
 1/18=20,19=15,26=3/3(-5);
 2/9=110/2;
 6/7=2,8=2,9=2,10=2,19=2,28=1/1;
 99/9=1/99;
 Leave Link    1 at Sun Jul 11 15:57:25 2021, MaxMem=   104857600 cpu:               0.1 elap:               0.0
 (Enter /prod/apps/gaussian/g16b1/l101.exe)
 -----------------------------------------
 SET_328_BBB212_conf1.geo_060_045 geometry
 -----------------------------------------
 Symbolic Z-matrix:
 Charge = -1 Multiplicity = 1
 C                    -1.421     0.815     1.862 
 H                    -1.034     1.479     2.638 
 H                    -2.064     0.106     2.387 
 H                    -2.11      1.268     1.147 
 C                    -0.251    -0.057     1.126 
 C                     0.421    -0.825     2.274 
 H                     0.634    -0.189     3.135 
 H                     1.326    -1.321     1.919 
 H                    -0.226    -1.62      2.652 
 C                     0.645     1.039     0.484 
 C                     0.201     1.883    -0.576 
 C                     0.931     2.924    -1.108 
 C                     2.222     3.08     -0.666 
 O                     3.071     4.006    -1.143 
 H                     2.432     4.501    -1.685 
 C                     2.806     2.207     0.234 
 C                     2.028     1.136     0.765 
 H                     2.425     0.458     1.515 
 H                     3.852     2.315     0.509 
 H                     0.509     3.587    -1.859 
 H                    -0.774     1.744    -1.036 
 C                    -0.702    -1.117     0.081 
 C                     0.127    -1.712    -0.868 
 H                     1.113    -1.266    -0.964 
 C                    -0.361    -2.562    -1.853 
 H                     0.279    -2.876    -2.674 
 C                    -1.627    -3.048    -1.749 
 O                    -2.159    -3.927    -2.685 
 C                    -2.46     -2.525    -0.772 
 H                    -3.503    -2.83     -0.771 
 C                    -2.025    -1.604     0.178 
 H                    -2.699    -1.304     0.976 
 
 ITRead=  0  0  0  0  0  0  0  0  0  0  0  0  0  0  0  0  0  0  0  0
 ITRead=  0  0  0  0  0  0  0  0  0  0  0  0
 MicOpt= -1 -1 -1 -1 -1 -1 -1 -1 -1 -1 -1 -1 -1 -1 -1 -1 -1 -1 -1 -1
 MicOpt= -1 -1 -1 -1 -1 -1 -1 -1 -1 -1 -1 -1
 NAtoms=     32 NQM=       32 NQMF=       0 NMMI=      0 NMMIF=      0
                NMic=       0 NMicF=      0.
                    Isotopes and Nuclear Properties:
 (Nuclear quadrupole moments (NQMom) in fm**2, nuclear magnetic moments (NMagM)
  in nuclear magnetons)

  Atom         1           2           3           4           5           6           7           8           9          10
 IAtWgt=          12           1           1           1          12          12           1           1           1          12
 AtmWgt=  12.0000000   1.0078250   1.0078250   1.0078250  12.0000000  12.0000000   1.0078250   1.0078250   1.0078250  12.0000000
 NucSpn=           0           1           1           1           0           0           1           1           1           0
 AtZEff=  -0.0000000  -0.0000000  -0.0000000  -0.0000000  -0.0000000  -0.0000000  -0.0000000  -0.0000000  -0.0000000  -0.0000000
 NQMom=    0.0000000   0.0000000   0.0000000   0.0000000   0.0000000   0.0000000   0.0000000   0.0000000   0.0000000   0.0000000
 NMagM=    0.0000000   2.7928460   2.7928460   2.7928460   0.0000000   0.0000000   2.7928460   2.7928460   2.7928460   0.0000000
 AtZNuc=   6.0000000   1.0000000   1.0000000   1.0000000   6.0000000   6.0000000   1.0000000   1.0000000   1.0000000   6.0000000

  Atom        11          12          13          14          15          16          17          18          19          20
 IAtWgt=          12          12          12          16           1          12          12           1           1           1
 AtmWgt=  12.0000000  12.0000000  12.0000000  15.9949146   1.0078250  12.0000000  12.0000000   1.0078250   1.0078250   1.0078250
 NucSpn=           0           0           0           0           1           0           0           1           1           1
 AtZEff=  -0.0000000  -0.0000000  -0.0000000  -0.0000000  -0.0000000  -0.0000000  -0.0000000  -0.0000000  -0.0000000  -0.0000000
 NQMom=    0.0000000   0.0000000   0.0000000   0.0000000   0.0000000   0.0000000   0.0000000   0.0000000   0.0000000   0.0000000
 NMagM=    0.0000000   0.0000000   0.0000000   0.0000000   2.7928460   0.0000000   0.0000000   2.7928460   2.7928460   2.7928460
 AtZNuc=   6.0000000   6.0000000   6.0000000   8.0000000   1.0000000   6.0000000   6.0000000   1.0000000   1.0000000   1.0000000

  Atom        21          22          23          24          25          26          27          28          29          30
 IAtWgt=           1          12          12           1          12           1          12          16          12           1
 AtmWgt=   1.0078250  12.0000000  12.0000000   1.0078250  12.0000000   1.0078250  12.0000000  15.9949146  12.0000000   1.0078250
 NucSpn=           1           0           0           1           0           1           0           0           0           1
 AtZEff=  -0.0000000  -0.0000000  -0.0000000  -0.0000000  -0.0000000  -0.0000000  -0.0000000  -0.0000000  -0.0000000  -0.0000000
 NQMom=    0.0000000   0.0000000   0.0000000   0.0000000   0.0000000   0.0000000   0.0000000   0.0000000   0.0000000   0.0000000
 NMagM=    2.7928460   0.0000000   0.0000000   2.7928460   0.0000000   2.7928460   0.0000000   0.0000000   0.0000000   2.7928460
 AtZNuc=   1.0000000   6.0000000   6.0000000   1.0000000   6.0000000   1.0000000   6.0000000   8.0000000   6.0000000   1.0000000

  Atom        31          32
 IAtWgt=          12           1
 AtmWgt=  12.0000000   1.0078250
 NucSpn=           0           1
 AtZEff=  -0.0000000  -0.0000000
 NQMom=    0.0000000   0.0000000
 NMagM=    0.0000000   2.7928460
 AtZNuc=   6.0000000   1.0000000
 Leave Link  101 at Sun Jul 11 15:57:25 2021, MaxMem=   104857600 cpu:               0.5 elap:               0.1
 (Enter /prod/apps/gaussian/g16b1/l103.exe)

 GradGradGradGradGradGradGradGradGradGradGradGradGradGradGradGradGradGrad
 Berny optimization.
 Initialization pass.
                           ----------------------------
                           !    Initial Parameters    !
                           ! (Angstroms and Degrees)  !
 --------------------------                            --------------------------
 ! Name  Definition              Value          Derivative Info.                !
 --------------------------------------------------------------------------------
 ! R1    R(1,2)                  1.0922         estimate D2E/DX2                !
 ! R2    R(1,3)                  1.0917         estimate D2E/DX2                !
 ! R3    R(1,4)                  1.0914         estimate D2E/DX2                !
 ! R4    R(1,5)                  1.6343         estimate D2E/DX2                !
 ! R5    R(5,6)                  1.536          estimate D2E/DX2                !
 ! R6    R(5,10)                 1.5544         estimate D2E/DX2                !
 ! R7    R(5,22)                 1.5553         estimate D2E/DX2                !
 ! R8    R(6,7)                  1.0914         estimate D2E/DX2                !
 ! R9    R(6,8)                  1.0914         estimate D2E/DX2                !
 ! R10   R(6,9)                  1.0925         estimate D2E/DX2                !
 ! R11   R(10,11)                1.4259         estimate D2E/DX2                !
 ! R12   R(10,17)                1.4146         estimate D2E/DX2                !
 ! R13   R(11,12)                1.3783         estimate D2E/DX2                !
 ! R14   R(11,21)                1.087          estimate D2E/DX2                !
 ! R15   R(12,13)                1.3735         estimate D2E/DX2                !
 ! R16   R(12,20)                1.087          estimate D2E/DX2                !
 ! R17   R(13,14)                1.3438         estimate D2E/DX2                !
 ! R18   R(13,16)                1.3832         estimate D2E/DX2                !
 ! R19   R(14,15)                0.9732         estimate D2E/DX2                !
 ! R20   R(16,17)                1.4263         estimate D2E/DX2                !
 ! R21   R(16,19)                1.0869         estimate D2E/DX2                !
 ! R22   R(17,18)                1.0862         estimate D2E/DX2                !
 ! R23   R(22,23)                1.3935         estimate D2E/DX2                !
 ! R24   R(22,31)                1.4131         estimate D2E/DX2                !
 ! R25   R(23,24)                1.0864         estimate D2E/DX2                !
 ! R26   R(23,25)                1.3896         estimate D2E/DX2                !
 ! R27   R(25,26)                1.0873         estimate D2E/DX2                !
 ! R28   R(25,27)                1.3601         estimate D2E/DX2                !
 ! R29   R(27,28)                1.3899         estimate D2E/DX2                !
 ! R30   R(27,29)                1.3863         estimate D2E/DX2                !
 ! R31   R(29,30)                1.0867         estimate D2E/DX2                !
 ! R32   R(29,31)                1.3928         estimate D2E/DX2                !
 ! R33   R(31,32)                1.0868         estimate D2E/DX2                !
 ! A1    A(2,1,3)              105.1806         estimate D2E/DX2                !
 ! A2    A(2,1,4)              115.9013         estimate D2E/DX2                !
 ! A3    A(2,1,5)              112.9971         estimate D2E/DX2                !
 ! A4    A(3,1,4)              102.2857         estimate D2E/DX2                !
 ! A5    A(3,1,5)              106.9607         estimate D2E/DX2                !
 ! A6    A(4,1,5)              112.2331         estimate D2E/DX2                !
 ! A7    A(1,5,6)              104.0872         estimate D2E/DX2                !
 ! A8    A(1,5,10)             102.8532         estimate D2E/DX2                !
 ! A9    A(1,5,22)             117.2984         estimate D2E/DX2                !
 ! A10   A(6,5,10)             114.1449         estimate D2E/DX2                !
 ! A11   A(6,5,22)             106.7539         estimate D2E/DX2                !
 ! A12   A(10,5,22)            111.7271         estimate D2E/DX2                !
 ! A13   A(5,6,7)              112.5584         estimate D2E/DX2                !
 ! A14   A(5,6,8)              110.2988         estimate D2E/DX2                !
 ! A15   A(5,6,9)              111.306          estimate D2E/DX2                !
 ! A16   A(7,6,8)              111.0765         estimate D2E/DX2                !
 ! A17   A(7,6,9)              105.4666         estimate D2E/DX2                !
 ! A18   A(8,6,9)              105.8383         estimate D2E/DX2                !
 ! A19   A(5,10,11)            123.0184         estimate D2E/DX2                !
 ! A20   A(5,10,17)            121.9958         estimate D2E/DX2                !
 ! A21   A(11,10,17)           114.3006         estimate D2E/DX2                !
 ! A22   A(10,11,12)           124.6877         estimate D2E/DX2                !
 ! A23   A(10,11,21)           121.2129         estimate D2E/DX2                !
 ! A24   A(12,11,21)           114.0994         estimate D2E/DX2                !
 ! A25   A(11,12,13)           117.35           estimate D2E/DX2                !
 ! A26   A(11,12,20)           121.4478         estimate D2E/DX2                !
 ! A27   A(13,12,20)           121.1956         estimate D2E/DX2                !
 ! A28   A(12,13,14)           123.9103         estimate D2E/DX2                !
 ! A29   A(12,13,16)           122.3153         estimate D2E/DX2                !
 ! A30   A(14,13,16)           113.5242         estimate D2E/DX2                !
 ! A31   A(13,14,15)            97.6632         estimate D2E/DX2                !
 ! A32   A(13,16,17)           119.0696         estimate D2E/DX2                !
 ! A33   A(13,16,19)           120.5461         estimate D2E/DX2                !
 ! A34   A(17,16,19)           120.3548         estimate D2E/DX2                !
 ! A35   A(10,17,16)           120.719          estimate D2E/DX2                !
 ! A36   A(10,17,18)           116.8527         estimate D2E/DX2                !
 ! A37   A(16,17,18)           121.7634         estimate D2E/DX2                !
 ! A38   A(5,22,23)            125.1739         estimate D2E/DX2                !
 ! A39   A(5,22,31)            117.4022         estimate D2E/DX2                !
 ! A40   A(23,22,31)           117.1653         estimate D2E/DX2                !
 ! A41   A(22,23,24)           115.1381         estimate D2E/DX2                !
 ! A42   A(22,23,25)           122.3443         estimate D2E/DX2                !
 ! A43   A(24,23,25)           120.478          estimate D2E/DX2                !
 ! A44   A(23,25,26)           120.3433         estimate D2E/DX2                !
 ! A45   A(23,25,27)           119.425          estimate D2E/DX2                !
 ! A46   A(26,25,27)           120.162          estimate D2E/DX2                !
 ! A47   A(25,27,28)           122.0588         estimate D2E/DX2                !
 ! A48   A(25,27,29)           118.5802         estimate D2E/DX2                !
 ! A49   A(28,27,29)           118.8939         estimate D2E/DX2                !
 ! A50   A(27,29,30)           118.13           estimate D2E/DX2                !
 ! A51   A(27,29,31)           122.8521         estimate D2E/DX2                !
 ! A52   A(30,29,31)           118.9945         estimate D2E/DX2                !
 ! A53   A(22,31,29)           118.2592         estimate D2E/DX2                !
 ! A54   A(22,31,32)           122.4051         estimate D2E/DX2                !
 ! A55   A(29,31,32)           119.319          estimate D2E/DX2                !
 ! D1    D(2,1,5,6)             57.6944         estimate D2E/DX2                !
 ! D2    D(2,1,5,10)           -61.6348         estimate D2E/DX2                !
 ! D3    D(2,1,5,22)           175.3373         estimate D2E/DX2                !
 ! D4    D(3,1,5,6)            -57.5731         estimate D2E/DX2                !
 ! D5    D(3,1,5,10)          -176.9023         estimate D2E/DX2                !
 ! D6    D(3,1,5,22)            60.0699         estimate D2E/DX2                !
 ! D7    D(4,1,5,6)           -168.9805         estimate D2E/DX2                !
 ! D8    D(4,1,5,10)            71.6904         estimate D2E/DX2                !
 ! D9    D(4,1,5,22)           -51.3375         estimate D2E/DX2                !
 ! D10   D(1,5,6,7)            -46.2103         estimate D2E/DX2                !
 ! D11   D(1,5,6,8)           -170.8802         estimate D2E/DX2                !
 ! D12   D(1,5,6,9)             71.9517         estimate D2E/DX2                !
 ! D13   D(10,5,6,7)            65.1253         estimate D2E/DX2                !
 ! D14   D(10,5,6,8)           -59.5447         estimate D2E/DX2                !
 ! D15   D(10,5,6,9)          -176.7127         estimate D2E/DX2                !
 ! D16   D(22,5,6,7)          -170.9153         estimate D2E/DX2                !
 ! D17   D(22,5,6,8)            64.4148         estimate D2E/DX2                !
 ! D18   D(22,5,6,9)           -52.7532         estimate D2E/DX2                !
 ! D19   D(1,5,10,11)          -66.5607         estimate D2E/DX2                !
 ! D20   D(1,5,10,17)          123.4698         estimate D2E/DX2                !
 ! D21   D(6,5,10,11)         -178.6388         estimate D2E/DX2                !
 ! D22   D(6,5,10,17)           11.3916         estimate D2E/DX2                !
 ! D23   D(22,5,10,11)          60.1169         estimate D2E/DX2                !
 ! D24   D(22,5,10,17)        -109.8526         estimate D2E/DX2                !
 ! D25   D(1,5,22,23)          163.4279         estimate D2E/DX2                !
 ! D26   D(1,5,22,31)          -22.5985         estimate D2E/DX2                !
 ! D27   D(6,5,22,23)          -80.378          estimate D2E/DX2                !
 ! D28   D(6,5,22,31)           93.5956         estimate D2E/DX2                !
 ! D29   D(10,5,22,23)          45.0592         estimate D2E/DX2                !
 ! D30   D(10,5,22,31)        -140.9671         estimate D2E/DX2                !
 ! D31   D(5,10,11,12)         175.3237         estimate D2E/DX2                !
 ! D32   D(5,10,11,21)          -4.6125         estimate D2E/DX2                !
 ! D33   D(17,10,11,12)        -14.0035         estimate D2E/DX2                !
 ! D34   D(17,10,11,21)        166.0602         estimate D2E/DX2                !
 ! D35   D(5,10,17,16)        -175.6407         estimate D2E/DX2                !
 ! D36   D(5,10,17,18)          -4.8237         estimate D2E/DX2                !
 ! D37   D(11,10,17,16)         13.5801         estimate D2E/DX2                !
 ! D38   D(11,10,17,18)       -175.6029         estimate D2E/DX2                !
 ! D39   D(10,11,12,13)          6.1362         estimate D2E/DX2                !
 ! D40   D(10,11,12,20)       -174.7933         estimate D2E/DX2                !
 ! D41   D(21,11,12,13)       -173.9235         estimate D2E/DX2                !
 ! D42   D(21,11,12,20)          5.147          estimate D2E/DX2                !
 ! D43   D(11,12,13,14)        176.5431         estimate D2E/DX2                !
 ! D44   D(11,12,13,16)          2.6655         estimate D2E/DX2                !
 ! D45   D(20,12,13,14)         -2.5299         estimate D2E/DX2                !
 ! D46   D(20,12,13,16)       -176.4075         estimate D2E/DX2                !
 ! D47   D(12,13,14,15)          8.7016         estimate D2E/DX2                !
 ! D48   D(16,13,14,15)       -176.94           estimate D2E/DX2                !
 ! D49   D(12,13,16,17)         -2.5295         estimate D2E/DX2                !
 ! D50   D(12,13,16,19)        175.5015         estimate D2E/DX2                !
 ! D51   D(14,13,16,17)       -176.9898         estimate D2E/DX2                !
 ! D52   D(14,13,16,19)          1.0411         estimate D2E/DX2                !
 ! D53   D(13,16,17,10)         -6.2246         estimate D2E/DX2                !
 ! D54   D(13,16,17,18)       -176.5843         estimate D2E/DX2                !
 ! D55   D(19,16,17,10)        175.7406         estimate D2E/DX2                !
 ! D56   D(19,16,17,18)          5.3808         estimate D2E/DX2                !
 ! D57   D(5,22,23,24)         -10.2012         estimate D2E/DX2                !
 ! D58   D(5,22,23,25)        -174.0057         estimate D2E/DX2                !
 ! D59   D(31,22,23,24)        175.8123         estimate D2E/DX2                !
 ! D60   D(31,22,23,25)         12.0078         estimate D2E/DX2                !
 ! D61   D(5,22,31,29)         178.1781         estimate D2E/DX2                !
 ! D62   D(5,22,31,32)          -3.3184         estimate D2E/DX2                !
 ! D63   D(23,22,31,29)         -7.357          estimate D2E/DX2                !
 ! D64   D(23,22,31,32)        171.1464         estimate D2E/DX2                !
 ! D65   D(22,23,25,26)        169.7213         estimate D2E/DX2                !
 ! D66   D(22,23,25,27)        -13.3101         estimate D2E/DX2                !
 ! D67   D(24,23,25,26)          6.7578         estimate D2E/DX2                !
 ! D68   D(24,23,25,27)       -176.2736         estimate D2E/DX2                !
 ! D69   D(23,25,27,28)       -178.4103         estimate D2E/DX2                !
 ! D70   D(23,25,27,29)          9.5216         estimate D2E/DX2                !
 ! D71   D(26,25,27,28)         -1.4361         estimate D2E/DX2                !
 ! D72   D(26,25,27,29)       -173.5042         estimate D2E/DX2                !
 ! D73   D(25,27,29,30)        172.7562         estimate D2E/DX2                !
 ! D74   D(25,27,29,31)         -5.4628         estimate D2E/DX2                !
 ! D75   D(28,27,29,30)          0.4327         estimate D2E/DX2                !
 ! D76   D(28,27,29,31)       -177.7862         estimate D2E/DX2                !
 ! D77   D(27,29,31,22)          4.4233         estimate D2E/DX2                !
 ! D78   D(27,29,31,32)       -174.1275         estimate D2E/DX2                !
 ! D79   D(30,29,31,22)       -173.7809         estimate D2E/DX2                !
 ! D80   D(30,29,31,32)          7.6682         estimate D2E/DX2                !
 --------------------------------------------------------------------------------
 Trust Radius=3.00D-01 FncErr=1.00D-07 GrdErr=1.00D-06 EigMax=2.50D+02 EigMin=1.00D-04
 Number of steps in this run=    178 maximum allowed number of steps=    192.
 GradGradGradGradGradGradGradGradGradGradGradGradGradGradGradGradGradGrad

 Leave Link  103 at Sun Jul 11 15:57:25 2021, MaxMem=   104857600 cpu:               0.1 elap:               0.0
 (Enter /prod/apps/gaussian/g16b1/l202.exe)
                          Input orientation:                          
 ---------------------------------------------------------------------
 Center     Atomic      Atomic             Coordinates (Angstroms)
 Number     Number       Type             X           Y           Z
 ---------------------------------------------------------------------
      1          6           0       -1.421000    0.815000    1.862000
      2          1           0       -1.034000    1.479000    2.638000
      3          1           0       -2.064000    0.106000    2.387000
      4          1           0       -2.110000    1.268000    1.147000
      5          6           0       -0.251000   -0.057000    1.126000
      6          6           0        0.421000   -0.825000    2.274000
      7          1           0        0.634000   -0.189000    3.135000
      8          1           0        1.326000   -1.321000    1.919000
      9          1           0       -0.226000   -1.620000    2.652000
     10          6           0        0.645000    1.039000    0.484000
     11          6           0        0.201000    1.883000   -0.576000
     12          6           0        0.931000    2.924000   -1.108000
     13          6           0        2.222000    3.080000   -0.666000
     14          8           0        3.071000    4.006000   -1.143000
     15          1           0        2.432000    4.501000   -1.685000
     16          6           0        2.806000    2.207000    0.234000
     17          6           0        2.028000    1.136000    0.765000
     18          1           0        2.425000    0.458000    1.515000
     19          1           0        3.852000    2.315000    0.509000
     20          1           0        0.509000    3.587000   -1.859000
     21          1           0       -0.774000    1.744000   -1.036000
     22          6           0       -0.702000   -1.117000    0.081000
     23          6           0        0.127000   -1.712000   -0.868000
     24          1           0        1.113000   -1.266000   -0.964000
     25          6           0       -0.361000   -2.562000   -1.853000
     26          1           0        0.279000   -2.876000   -2.674000
     27          6           0       -1.627000   -3.048000   -1.749000
     28          8           0       -2.159000   -3.927000   -2.685000
     29          6           0       -2.460000   -2.525000   -0.772000
     30          1           0       -3.503000   -2.830000   -0.771000
     31          6           0       -2.025000   -1.604000    0.178000
     32          1           0       -2.699000   -1.304000    0.976000
 ---------------------------------------------------------------------
                    Distance matrix (angstroms):
                    1          2          3          4          5
     1  C    0.000000
     2  H    1.092173   0.000000
     3  H    1.091675   1.734656   0.000000
     4  H    1.091400   1.850778   1.699988   0.000000
     5  C    1.634313   2.293148   2.214421   2.282969   0.000000
     6  C    2.500462   2.749170   2.656079   3.472282   1.536005
     7  H    2.617550   2.410696   2.815268   3.688432   2.199257
     8  H    3.480195   3.731831   3.707756   4.370927   2.171054
     9  H    2.825128   3.202633   2.535260   3.762316   2.184553
    10  C    2.493475   2.766289   3.439561   2.842892   1.554412
    11  C    3.116946   3.466733   4.131262   2.947486   2.620059
    12  C    4.335976   4.470097   5.396867   4.132196   3.908227
    13  C    4.979203   4.907255   6.044442   5.033541   4.378100
    14  O    6.276191   6.126395   7.351131   6.291542   5.717693
    15  H    6.404172   6.311416   7.490743   6.253181   5.989622
    16  C    4.738732   4.588551   5.724204   5.087470   3.907251
    17  C    3.633463   3.605776   4.520647   4.157691   2.597578
    18  H    3.878089   3.777334   4.586438   4.621444   2.752730
    19  H    5.646693   5.394862   6.588294   6.086764   4.779297
    20  H    5.025408   5.200723   6.063514   4.612262   4.771432
    21  H    3.111279   3.692709   4.008001   2.603260   2.862058
    22  C    2.724251   3.658919   2.944216   2.967667   1.555322
    23  C    4.029260   4.880823   4.324423   4.236130   2.618768
    24  H    4.328740   5.011890   4.817148   4.611421   2.773135
    25  C    5.131175   6.078790   5.291128   5.169903   3.893786
    26  H    6.090056   6.993378   6.324215   6.122099   4.761057
    27  C    5.291930   6.331757   5.219692   5.219958   4.370936
    28  O    6.611083   7.669732   6.480687   6.455591   5.756829
    29  C    4.378707   5.449183   4.130164   4.265198   3.817474
    30  H    4.955143   6.023680   4.545743   4.734213   4.675857
    31  C    3.008693   4.066764   2.793797   3.032255   2.537516
    32  H    2.628391   3.644113   2.093381   2.644115   2.751402
                    6          7          8          9         10
     6  C    0.000000
     7  H    1.091415   0.000000
     8  H    1.091360   1.799707   0.000000
     9  H    1.092482   1.738002   1.742238   0.000000
    10  C    2.593988   2.921627   2.844747   3.539653   0.000000
    11  C    3.937533   4.272259   4.213818   4.782606   1.425858
    12  C    5.074744   5.270866   5.228650   6.010340   2.483845
    13  C    5.209244   5.258869   5.182069   6.252346   2.824024
    14  O    6.483591   6.468252   6.387315   7.544807   4.163615
    15  H    6.934268   6.961415   6.935974   7.958717   4.459078
    16  C    4.363811   4.344445   4.180480   5.448456   2.469139
    17  C    2.950432   3.052173   2.803813   4.029494   1.414588
    18  H    2.497636   2.500138   2.129755   3.555088   2.137504
    19  H    4.974594   4.849888   4.646426   6.058610   3.451616
    20  H    6.046088   6.262095   6.247338   6.928362   3.464166
    21  H    4.357050   4.807930   4.747236   5.021767   2.195674
    22  C    2.481057   3.460202   2.744566   2.662635   2.573937
    23  C    3.278013   4.312840   3.059060   3.538852   3.108734
    24  H    3.340358   4.265111   2.891381   3.872169   2.762020
    25  C    4.545418   5.612602   4.314398   4.604412   4.409173
    26  H    5.358122   6.410185   4.960835   5.495347   5.043228
    27  C    5.031954   6.094215   5.015672   4.834334   5.181876
    28  O    6.393003   7.459617   6.335083   6.127178   6.524273
    29  C    4.524188   5.504033   4.798426   4.187309   4.890875
    30  H    5.356288   6.272678   5.729958   4.890783   5.809483
    31  C    3.314057   4.220942   3.786868   3.058976   3.769348
    32  H    3.413011   4.124730   4.134025   3.004091   4.112669
                   11         12         13         14         15
    11  C    0.000000
    12  C    1.378262   0.000000
    13  C    2.350606   1.373456   0.000000
    14  O    3.614626   2.398239   1.343803   0.000000
    15  H    3.614024   2.252301   1.761165   0.973196   0.000000
    16  C    2.747199   2.414680   1.383179   2.280955   3.014112
    17  C    2.386256   2.812202   2.421680   3.600724   4.181978
    18  H    3.368840   3.897861   3.416556   4.480021   5.156151
    19  H    3.833230   3.393790   2.150058   2.489688   3.407144
    20  H    2.155126   1.087039   2.148178   2.692965   2.136259
    21  H    1.086989   2.074755   3.301183   4.462300   4.277930
    22  C    3.201103   4.517753   5.169390   6.479108   6.671030
    23  C    3.607598   4.711317   5.233841   6.437258   6.676967
    24  H    3.301286   4.196422   4.495153   5.626703   5.959689
    25  C    4.658819   5.685111   6.317675   7.444552   7.597042
    26  H    5.201516   6.042968   6.578849   7.582951   7.748139
    27  C    5.388161   6.528325   7.317108   8.496903   8.571288
    28  O    6.616161   7.679273   8.506913   9.626170   9.649273
    29  C    5.152650   6.426770   7.303998   8.566421   8.609873
    30  H    5.997500   7.272031   8.228897   9.491404   9.476454
    31  C    4.205088   5.558284   6.378809   7.693267   7.785027
    32  H    4.579921   5.949449   6.792044   8.122756   8.191832
                   16         17         18         19         20
    16  C    0.000000
    17  C    1.426284   0.000000
    18  H    2.201164   1.086183   0.000000
    19  H    1.086925   2.186905   2.548885   0.000000
    20  H    3.400185   3.898735   4.984533   4.289645   0.000000
    21  H    3.826705   3.385922   4.288939   4.910493   2.391666
    22  C    4.835127   3.605103   3.783531   5.718455   5.230462
    23  C    4.873398   3.793625   3.958332   5.655836   5.404388
    24  H    4.045143   3.097785   3.292258   4.742933   4.971665
    25  C    6.093342   5.122153   5.312779   6.863931   6.210245
    26  H    6.378016   5.566136   5.767893   7.060050   6.518243
    27  C    7.155334   6.097957   6.274108   7.992482   6.971214
    28  O    8.414139   7.420744   7.607975   9.235601   8.016277
    29  C    7.150847   5.992281   6.163756   8.056544   6.881357
    30  H    8.135409   6.977135   7.153875   9.066722   7.645769
    31  C    6.153488   4.927370   5.083494   7.071581   6.125113
    32  H    6.571355   5.323782   5.445231   7.498723   6.500028
                   21         22         23         24         25
    21  H    0.000000
    22  C    3.072164   0.000000
    23  C    3.575467   1.393509   0.000000
    24  H    3.553316   2.099631   1.086429   0.000000
    25  C    4.402237   2.438168   1.389557   2.154672   0.000000
    26  H    5.013607   3.412692   2.153981   2.492339   1.087307
    27  C    4.919273   2.816609   2.374357   3.361450   1.360062
    28  O    6.066108   4.203535   3.665175   4.555079   2.405879
    29  C    4.597462   2.408451   2.713440   3.793188   2.361299
    30  H    5.332836   3.392031   3.799504   4.877581   3.333873
    31  C    3.774639   1.413120   2.395179   3.356405   2.794928
    32  H    4.128447   2.196361   3.398982   4.277428   3.879697
                   26         27         28         29         30
    26  H    0.000000
    27  C    2.125569   0.000000
    28  O    2.654914   1.389878   0.000000
    29  C    3.353047   1.386343   2.390768   0.000000
    30  H    4.234035   2.126825   2.583242   1.086681   0.000000
    31  C    3.880761   2.440670   3.689316   1.392827   2.141999
    32  H    4.966102   3.408276   4.535929   2.145569   2.455015
                   31         32
    31  C    0.000000
    32  H    1.086775   0.000000
 Stoichiometry    C15H15O2(1-)
 Framework group  C1[X(C15H15O2)]
 Deg. of freedom    90
 Full point group                 C1      NOp   1
 Largest Abelian subgroup         C1      NOp   1
 Largest concise Abelian subgroup C1      NOp   1
                         Standard orientation:                         
 ---------------------------------------------------------------------
 Center     Atomic      Atomic             Coordinates (Angstroms)
 Number     Number       Type             X           Y           Z
 ---------------------------------------------------------------------
      1          6           0       -0.072892    2.382054    1.245578
      2          1           0       -0.932636    3.050901    1.166040
      3          1           0        0.800110    3.037509    1.246301
      4          1           0        0.033266    1.852822    2.194155
      5          6           0        0.081021    1.384429   -0.039737
      6          6           0        0.186810    2.335876   -1.240932
      7          1           0       -0.563561    3.127997   -1.214988
      8          1           0        0.132216    1.773992   -2.174941
      9          1           0        1.151323    2.848673   -1.257403
     10          6           0       -1.235431    0.559036    0.003593
     11          6           0       -1.542290   -0.359825    1.049826
     12          6           0       -2.734941   -1.039751    1.171855
     13          6           0       -3.641584   -0.912242    0.148078
     14          8           0       -4.813685   -1.567640    0.098681
     15          1           0       -4.792073   -1.940122    0.997513
     16          6           0       -3.368783   -0.182038   -0.994536
     17          6           0       -2.124585    0.507945   -1.095431
     18          1           0       -1.887624    1.137935   -1.947930
     19          1           0       -4.077648   -0.159670   -1.818196
     20          1           0       -2.945504   -1.664964    2.035815
     21          1           0       -0.824040   -0.578951    1.835731
     22          6           0        1.335342    0.465852   -0.083553
     23          6           0        1.480495   -0.656342   -0.896867
     24          1           0        0.575975   -0.977639   -1.405728
     25          6           0        2.575853   -1.506148   -0.802588
     26          1           0        2.580216   -2.457162   -1.329647
     27          6           0        3.668744   -1.111607   -0.095697
     28          8           0        4.806183   -1.903689    0.007255
     29          6           0        3.581200    0.038139    0.673958
     30          1           0        4.414322    0.281677    1.327771
     31          6           0        2.461837    0.866977    0.669451
     32          1           0        2.490908    1.803508    1.220036
 ---------------------------------------------------------------------
 Rotational constants (GHZ):           0.8926787           0.2537473           0.2259024
 Leave Link  202 at Sun Jul 11 15:57:25 2021, MaxMem=   104857600 cpu:               0.0 elap:               0.0
 (Enter /prod/apps/gaussian/g16b1/l301.exe)
 Standard basis: 6-31G(d) (6D, 7F)
 Ernie: Thresh=  0.10000D-02 Tol=  0.10000D-05 Strict=F.
 There are   285 symmetry adapted cartesian basis functions of A   symmetry.
 There are   285 symmetry adapted basis functions of A   symmetry.
   285 basis functions,   536 primitive gaussians,   285 cartesian basis functions
    61 alpha electrons       61 beta electrons
       nuclear repulsion energy      1124.2294871404 Hartrees.
 IExCor=  402 DFT=T Ex+Corr=B3LYP ExCW=0 ScaHFX=  0.200000
 ScaDFX=  0.800000  0.720000  1.000000  0.810000 ScalE2=  1.000000  1.000000
 IRadAn=      5 IRanWt=     -1 IRanGd=            0 ICorTp=0 IEmpDi=  4
 NAtoms=   32 NActive=   32 NUniq=   32 SFac= 1.00D+00 NAtFMM=   60 NAOKFM=F Big=F
 Integral buffers will be    131072 words long.
 Raffenetti 2 integral format.
 Two-electron integral symmetry is turned on.
 Using the following non-standard input for PCM:
 MSTModel=DFT cav MSTCharged
 --- end of non-standard input.
 MST model for solvation energy: B3LYP parametrization.
 MST cavity parameters:
 ISph   IAn     Re0     Alpha   Atom Type   QCorr
 ------------------------------------------------
   1      6     1.50     1.25      CH3        F
   2      1     1.20     1.25      CH3        F
   3      1     1.20     1.25      CH3        F
   4      1     1.20     1.25      CH3        F
   5      6     1.50     1.25      C          F
   6      6     1.50     1.25      CH3        F
   7      1     1.20     1.25      CH3        F
   8      1     1.20     1.25      CH3        F
   9      1     1.20     1.25      CH3        F
  10      6     1.50     1.25      C          F
  11      6     1.50     1.25      CH         F
  12      6     1.50     1.25      CH         F
  13      6     1.50     1.25      C          F
  14      8     1.45     1.25      OH         F
  15      1     0.90     1.25      OH         F
  16      6     1.50     1.25      CH         F
  17      6     1.50     1.25      CH         F
  18      1     1.20     1.25      CH         F
  19      1     1.20     1.25      CH         F
  20      1     1.20     1.25      CH         F
  21      1     1.20     1.25      CH         F
  22      6     1.50     1.25      C          F
  23      6     1.50     1.25      CH         F
  24      1     1.20     1.25      CH         F
  25      6     1.50     1.25      CH         F
  26      1     1.20     1.25      CH         F
  27      6     1.50     1.25      C          F
  28      8     1.40     1.15      O          T
  29      6     1.50     1.25      CH         F
  30      1     1.20     1.25      CH         F
  31      6     1.50     1.25      CH         F
  32      1     1.20     1.25      CH         F
 ------------------------------------------------------------------------------
 Polarizable Continuum Model (PCM)
 =================================
 Model                : PCM.
 Atomic radii         : MST.
 Polarization charges : Total charges.
 Charge compensation  : None.
 Solution method      : On-the-fly selection.
 Cavity type          : Scaled VdW (van der Waals Surface) (Alpha=1.250).
 Cavity algorithm     : GePol (No added spheres)
                        Default sphere list used, NSphG=   32.
                        Lebedev-Laikov grids with approx.  5.0 points / Ang**2.
                        Smoothing algorithm: York/Karplus (Gamma=1.0000).
                        Polarization charges: spherical gaussians, with
                                              point-specific exponents (IZeta= 3).
                        Self-potential: point-specific (ISelfS= 7).
                        Self-field    : sphere-specific E.n sum rule (ISelfD= 2).
 1st derivatives      : Analytical E(r).r(x)/FMM algorithm (CHGder, D1EAlg=3).
                        Cavity 1st derivative terms included.
 Solvent              : Water, Eps=  78.355300 Eps(inf)=   1.777849
 ------------------------------------------------------------------------------
 GePol: Number of generator spheres                  =      32
 GePol: Total number of spheres                      =      32
 GePol: Number of exposed spheres                    =      32 (100.00%)
 GePol: Number of points                             =    2334
 GePol: Average weight of points                     =       0.13
 GePol: Minimum weight of points                     =   0.17D-09
 GePol: Maximum weight of points                     =    0.21416
 GePol: Number of points with low weight             =     163
 GePol: Fraction of low-weight points (<1% of avg)   =       6.98%
 GePol: Cavity surface area                          =    295.228 Ang**2
 GePol: Cavity volume                                =    283.861 Ang**3
 PCM non-electrostatic energy =         0.0020844693 Hartrees.
 Nuclear repulsion after PCM non-electrostatic terms =     1124.2315716097 Hartrees.
 Leave Link  301 at Sun Jul 11 15:57:25 2021, MaxMem=   104857600 cpu:               0.3 elap:               0.1
 (Enter /prod/apps/gaussian/g16b1/l302.exe)
 NPDir=0 NMtPBC=     1 NCelOv=     1 NCel=       1 NClECP=     1 NCelD=      1
         NCelK=      1 NCelE2=     1 NClLst=     1 CellRange=     0.0.
 One-electron integrals computed using PRISM.
 One-electron integral symmetry used in STVInt
 NBasis=   285 RedAO= T EigKep=  5.25D-04  NBF=   285
 NBsUse=   285 1.00D-06 EigRej= -1.00D+00 NBFU=   285
 Precomputing XC quadrature grid using
 IXCGrd= 4 IRadAn=           5 IRanWt=          -1 IRanGd=           0 AccXCQ= 0.00D+00.
 Generated NRdTot=       0 NPtTot=           0 NUsed=           0 NTot=          32
 NSgBfM=   283   283   283   283   283 MxSgAt=    32 MxSgA2=    32.
 Leave Link  302 at Sun Jul 11 15:57:26 2021, MaxMem=   104857600 cpu:               1.4 elap:               0.4
 (Enter /prod/apps/gaussian/g16b1/l303.exe)
 DipDrv:  MaxL=1.
 Leave Link  303 at Sun Jul 11 15:57:26 2021, MaxMem=   104857600 cpu:               0.1 elap:               0.1
 (Enter /prod/apps/gaussian/g16b1/l401.exe)
 ExpMin= 1.61D-01 ExpMax= 5.48D+03 ExpMxC= 8.25D+02 IAcc=3 IRadAn=         5 AccDes= 0.00D+00
 Harris functional with IExCor=  402 and IRadAn=       5 diagonalized for initial guess.
 HarFok:  IExCor=  402 AccDes= 0.00D+00 IRadAn=         5 IDoV= 1 UseB2=F ITyADJ=14
 ICtDFT=  3500011 ScaDFX=  1.000000  1.000000  1.000000  1.000000
 FoFCou: FMM=F IPFlag=           0 FMFlag=      100000 FMFlg1=           0
         NFxFlg=           0 DoJE=T BraDBF=F KetDBF=T FulRan=T
         wScrn=  0.000000 ICntrl=       500 IOpCl=  0 I1Cent=   200000004 NGrid=           0
         NMat0=    1 NMatS0=      1 NMatT0=    0 NMatD0=    1 NMtDS0=    0 NMtDT0=    0
 Petite list used in FoFCou.
 Harris En= -731.301921225645    
 JPrj=0 DoOrth=F DoCkMO=F.
 Leave Link  401 at Sun Jul 11 15:57:28 2021, MaxMem=   104857600 cpu:               7.3 elap:               1.8
 (Enter /prod/apps/gaussian/g16b1/l502.exe)
 Integral symmetry usage will be decided dynamically.
 Closed shell SCF:
 Using DIIS extrapolation, IDIIS=  1040.
 NGot=   104857600 LenX=   104690189 LenY=   104608523
 Requested convergence on RMS density matrix=1.00D-08 within 128 cycles.
 Requested convergence on MAX density matrix=1.00D-06.
 Requested convergence on             energy=1.00D-06.
 No special actions if energy rises.
 Fock matrices will be formed incrementally for  20 cycles.

 Cycle   1  Pass 1  IDiag  1:
 FoFJK:  IHMeth= 1 ICntrl=       0 DoSepK=F KAlg= 0 I1Cent=           0 FoldK=F
 IRaf= 840000000 NMat=       1 IRICut=       1 DoRegI=T DoRafI=F ISym2E= 0 IDoP0=0 IntGTp=1.
 FoFCou: FMM=F IPFlag=           0 FMFlag=      100000 FMFlg1=           0
         NFxFlg=           0 DoJE=F BraDBF=F KetDBF=F FulRan=T
         wScrn=  0.000000 ICntrl=         0 IOpCl=  0 I1Cent=           0 NGrid=           0
         NMat0=    1 NMatS0=      1 NMatT0=    0 NMatD0=    1 NMtDS0=    0 NMtDT0=    0
 Symmetry not used in FoFCou.
 Inv3:  Mode=1 IEnd=    16342668.
 Iteration    1 A*A^-1 deviation from unit magnitude is 2.78D-15 for    732.
 Iteration    1 A*A^-1 deviation from orthogonality  is 2.24D-15 for   2279    157.
 Iteration    1 A^-1*A deviation from unit magnitude is 3.11D-15 for   1636.
 Iteration    1 A^-1*A deviation from orthogonality  is 3.02D-13 for   1279   1127.
 E= -730.664293221960    
 DIIS: error= 2.94D-02 at cycle   1 NSaved=   1.
 NSaved= 1 IEnMin= 1 EnMin= -730.664293221960     IErMin= 1 ErrMin= 2.94D-02
 ErrMax= 2.94D-02  0.00D+00 EMaxC= 1.00D-01 BMatC= 4.85D-01 BMatP= 4.85D-01
 IDIUse=3 WtCom= 7.06D-01 WtEn= 2.94D-01
 Coeff-Com:  0.100D+01
 Coeff-En:   0.100D+01
 Coeff:      0.100D+01
 Gap=     0.142 Goal=   None    Shift=    0.000
 GapD=    0.142 DampG=1.000 DampE=0.500 DampFc=0.5000 IDamp=-1.
 Damping current iteration by 5.00D-01
 RMSDP=5.96D-03 MaxDP=2.02D-01              OVMax= 2.53D-01

 Cycle   2  Pass 1  IDiag  1:
 RMSU=  2.95D-03    CP:  9.80D-01
 E= -730.891971667980     Delta-E=       -0.227678446021 Rises=F Damp=T
 DIIS: error= 1.21D-02 at cycle   2 NSaved=   2.
 NSaved= 2 IEnMin= 2 EnMin= -730.891971667980     IErMin= 2 ErrMin= 1.21D-02
 ErrMax= 1.21D-02  0.00D+00 EMaxC= 1.00D-01 BMatC= 2.66D-02 BMatP= 4.85D-01
 IDIUse=3 WtCom= 8.79D-01 WtEn= 1.21D-01
 Coeff-Com:  0.449D-01 0.955D+00
 Coeff-En:   0.311D-01 0.969D+00
 Coeff:      0.432D-01 0.957D+00
 Gap=     0.210 Goal=   None    Shift=    0.000
 RMSDP=1.47D-03 MaxDP=5.77D-02 DE=-2.28D-01 OVMax= 1.63D-01

 Cycle   3  Pass 1  IDiag  1:
 RMSU=  1.36D-03    CP:  9.70D-01  8.27D-01
 E= -731.126374361203     Delta-E=       -0.234402693223 Rises=F Damp=F
 DIIS: error= 1.14D-02 at cycle   3 NSaved=   3.
 NSaved= 3 IEnMin= 3 EnMin= -731.126374361203     IErMin= 3 ErrMin= 1.14D-02
 ErrMax= 1.14D-02  0.00D+00 EMaxC= 1.00D-01 BMatC= 2.87D-02 BMatP= 2.66D-02
 IDIUse=3 WtCom= 8.86D-01 WtEn= 1.14D-01
 Coeff-Com: -0.203D-01 0.517D+00 0.503D+00
 Coeff-En:   0.000D+00 0.000D+00 0.100D+01
 Coeff:     -0.180D-01 0.458D+00 0.560D+00
 Gap=     0.155 Goal=   None    Shift=    0.000
 RMSDP=9.98D-04 MaxDP=4.87D-02 DE=-2.34D-01 OVMax= 9.00D-02

 Cycle   4  Pass 1  IDiag  1:
 RMSU=  6.74D-04    CP:  9.73D-01  9.30D-01  5.09D-01
 E= -731.143640534499     Delta-E=       -0.017266173296 Rises=F Damp=F
 DIIS: error= 5.90D-03 at cycle   4 NSaved=   4.
 NSaved= 4 IEnMin= 4 EnMin= -731.143640534499     IErMin= 4 ErrMin= 5.90D-03
 ErrMax= 5.90D-03  0.00D+00 EMaxC= 1.00D-01 BMatC= 7.56D-03 BMatP= 2.66D-02
 IDIUse=3 WtCom= 9.41D-01 WtEn= 5.90D-02
 Coeff-Com: -0.943D-02 0.750D-01 0.348D+00 0.586D+00
 Coeff-En:   0.000D+00 0.000D+00 0.245D+00 0.755D+00
 Coeff:     -0.887D-02 0.706D-01 0.342D+00 0.596D+00
 Gap=     0.155 Goal=   None    Shift=    0.000
 RMSDP=3.97D-04 MaxDP=1.83D-02 DE=-1.73D-02 OVMax= 3.45D-02

 Cycle   5  Pass 1  IDiag  1:
 RMSU=  1.17D-04    CP:  9.72D-01  8.89D-01  6.85D-01  6.02D-01
 E= -731.149707213015     Delta-E=       -0.006066678516 Rises=F Damp=F
 DIIS: error= 5.74D-04 at cycle   5 NSaved=   5.
 NSaved= 5 IEnMin= 5 EnMin= -731.149707213015     IErMin= 5 ErrMin= 5.74D-04
 ErrMax= 5.74D-04  0.00D+00 EMaxC= 1.00D-01 BMatC= 1.96D-04 BMatP= 7.56D-03
 IDIUse=3 WtCom= 9.94D-01 WtEn= 5.74D-03
 Coeff-Com: -0.321D-02 0.116D-01 0.134D+00 0.287D+00 0.570D+00
 Coeff-En:   0.000D+00 0.000D+00 0.000D+00 0.000D+00 0.100D+01
 Coeff:     -0.319D-02 0.115D-01 0.134D+00 0.285D+00 0.573D+00
 Gap=     0.154 Goal=   None    Shift=    0.000
 RMSDP=5.68D-05 MaxDP=2.05D-03 DE=-6.07D-03 OVMax= 3.47D-03

 Cycle   6  Pass 1  IDiag  1:
 RMSU=  3.60D-05    CP:  9.72D-01  8.95D-01  6.77D-01  6.28D-01  7.07D-01
 E= -731.149866978052     Delta-E=       -0.000159765037 Rises=F Damp=F
 DIIS: error= 1.74D-04 at cycle   6 NSaved=   6.
 NSaved= 6 IEnMin= 6 EnMin= -731.149866978052     IErMin= 6 ErrMin= 1.74D-04
 ErrMax= 1.74D-04  0.00D+00 EMaxC= 1.00D-01 BMatC= 1.45D-05 BMatP= 1.96D-04
 IDIUse=3 WtCom= 9.98D-01 WtEn= 1.74D-03
 Coeff-Com: -0.918D-03 0.265D-03 0.339D-01 0.875D-01 0.279D+00 0.601D+00
 Coeff-En:   0.000D+00 0.000D+00 0.000D+00 0.000D+00 0.000D+00 0.100D+01
 Coeff:     -0.916D-03 0.264D-03 0.338D-01 0.873D-01 0.278D+00 0.601D+00
 Gap=     0.154 Goal=   None    Shift=    0.000
 RMSDP=1.50D-05 MaxDP=5.78D-04 DE=-1.60D-04 OVMax= 9.08D-04

 Cycle   7  Pass 1  IDiag  1:
 RMSU=  8.21D-06    CP:  9.72D-01  8.95D-01  6.77D-01  6.36D-01  7.19D-01
                    CP:  6.92D-01
 E= -731.149879059755     Delta-E=       -0.000012081702 Rises=F Damp=F
 DIIS: error= 4.23D-05 at cycle   7 NSaved=   7.
 NSaved= 7 IEnMin= 7 EnMin= -731.149879059755     IErMin= 7 ErrMin= 4.23D-05
 ErrMax= 4.23D-05  0.00D+00 EMaxC= 1.00D-01 BMatC= 1.01D-06 BMatP= 1.45D-05
 IDIUse=1 WtCom= 1.00D+00 WtEn= 0.00D+00
 Coeff-Com: -0.325D-03-0.322D-03 0.101D-01 0.298D-01 0.113D+00 0.303D+00
 Coeff-Com:  0.545D+00
 Coeff:     -0.325D-03-0.322D-03 0.101D-01 0.298D-01 0.113D+00 0.303D+00
 Coeff:      0.545D+00
 Gap=     0.154 Goal=   None    Shift=    0.000
 RMSDP=4.32D-06 MaxDP=1.53D-04 DE=-1.21D-05 OVMax= 3.71D-04

 Cycle   8  Pass 1  IDiag  1:
 RMSU=  3.06D-06    CP:  9.72D-01  8.95D-01  6.77D-01  6.37D-01  7.23D-01
                    CP:  7.01D-01  6.53D-01
 E= -731.149879882918     Delta-E=       -0.000000823163 Rises=F Damp=F
 DIIS: error= 1.07D-05 at cycle   8 NSaved=   8.
 NSaved= 8 IEnMin= 8 EnMin= -731.149879882918     IErMin= 8 ErrMin= 1.07D-05
 ErrMax= 1.07D-05  0.00D+00 EMaxC= 1.00D-01 BMatC= 9.74D-08 BMatP= 1.01D-06
 IDIUse=1 WtCom= 1.00D+00 WtEn= 0.00D+00
 Coeff-Com: -0.296D-04-0.195D-03-0.324D-03 0.129D-02 0.126D-01 0.544D-01
 Coeff-Com:  0.263D+00 0.669D+00
 Coeff:     -0.296D-04-0.195D-03-0.324D-03 0.129D-02 0.126D-01 0.544D-01
 Coeff:      0.263D+00 0.669D+00
 Gap=     0.154 Goal=   None    Shift=    0.000
 RMSDP=1.29D-06 MaxDP=3.94D-05 DE=-8.23D-07 OVMax= 1.17D-04

 Cycle   9  Pass 1  IDiag  1:
 RMSU=  7.16D-07    CP:  9.72D-01  8.95D-01  6.77D-01  6.37D-01  7.26D-01
                    CP:  7.07D-01  7.22D-01  7.44D-01
 E= -731.149879972528     Delta-E=       -0.000000089611 Rises=F Damp=F
 DIIS: error= 2.78D-06 at cycle   9 NSaved=   9.
 NSaved= 9 IEnMin= 9 EnMin= -731.149879972528     IErMin= 9 ErrMin= 2.78D-06
 ErrMax= 2.78D-06  0.00D+00 EMaxC= 1.00D-01 BMatC= 5.55D-09 BMatP= 9.74D-08
 IDIUse=1 WtCom= 1.00D+00 WtEn= 0.00D+00
 Coeff-Com: -0.274D-05-0.610D-04-0.638D-03-0.832D-03 0.447D-03 0.106D-01
 Coeff-Com:  0.946D-01 0.305D+00 0.591D+00
 Coeff:     -0.274D-05-0.610D-04-0.638D-03-0.832D-03 0.447D-03 0.106D-01
 Coeff:      0.946D-01 0.305D+00 0.591D+00
 Gap=     0.154 Goal=   None    Shift=    0.000
 RMSDP=3.69D-07 MaxDP=1.52D-05 DE=-8.96D-08 OVMax= 3.40D-05

 Cycle  10  Pass 1  IDiag  1:
 RMSU=  2.74D-07    CP:  9.72D-01  8.95D-01  6.77D-01  6.37D-01  7.26D-01
                    CP:  7.08D-01  7.19D-01  7.92D-01  7.48D-01
 E= -731.149879977084     Delta-E=       -0.000000004556 Rises=F Damp=F
 DIIS: error= 1.32D-06 at cycle  10 NSaved=  10.
 NSaved=10 IEnMin=10 EnMin= -731.149879977084     IErMin=10 ErrMin= 1.32D-06
 ErrMax= 1.32D-06  0.00D+00 EMaxC= 1.00D-01 BMatC= 1.06D-09 BMatP= 5.55D-09
 IDIUse=1 WtCom= 1.00D+00 WtEn= 0.00D+00
 Coeff-Com:  0.145D-05-0.469D-05-0.311D-03-0.619D-03-0.140D-02-0.138D-02
 Coeff-Com:  0.177D-01 0.811D-01 0.336D+00 0.569D+00
 Coeff:      0.145D-05-0.469D-05-0.311D-03-0.619D-03-0.140D-02-0.138D-02
 Coeff:      0.177D-01 0.811D-01 0.336D+00 0.569D+00
 Gap=     0.154 Goal=   None    Shift=    0.000
 RMSDP=1.48D-07 MaxDP=5.58D-06 DE=-4.56D-09 OVMax= 1.57D-05

 Cycle  11  Pass 1  IDiag  1:
 RMSU=  6.67D-08    CP:  9.72D-01  8.95D-01  6.77D-01  6.37D-01  7.26D-01
                    CP:  7.08D-01  7.26D-01  7.91D-01  7.97D-01  5.87D-01
 E= -731.149879978102     Delta-E=       -0.000000001018 Rises=F Damp=F
 DIIS: error= 2.36D-07 at cycle  11 NSaved=  11.
 NSaved=11 IEnMin=11 EnMin= -731.149879978102     IErMin=11 ErrMin= 2.36D-07
 ErrMax= 2.36D-07  0.00D+00 EMaxC= 1.00D-01 BMatC= 5.09D-11 BMatP= 1.06D-09
 IDIUse=1 WtCom= 1.00D+00 WtEn= 0.00D+00
 Coeff-Com:  0.357D-06 0.235D-05-0.116D-03-0.249D-03-0.703D-03-0.124D-02
 Coeff-Com:  0.312D-02 0.210D-01 0.122D+00 0.267D+00 0.589D+00
 Coeff:      0.357D-06 0.235D-05-0.116D-03-0.249D-03-0.703D-03-0.124D-02
 Coeff:      0.312D-02 0.210D-01 0.122D+00 0.267D+00 0.589D+00
 Gap=     0.154 Goal=   None    Shift=    0.000
 RMSDP=3.63D-08 MaxDP=1.09D-06 DE=-1.02D-09 OVMax= 3.41D-06

 Cycle  12  Pass 1  IDiag  1:
 RMSU=  2.35D-08    CP:  9.72D-01  8.95D-01  6.77D-01  6.37D-01  7.26D-01
                    CP:  7.08D-01  7.25D-01  7.92D-01  8.03D-01  6.40D-01
                    CP:  6.89D-01
 E= -731.149879978146     Delta-E=       -0.000000000045 Rises=F Damp=F
 DIIS: error= 1.05D-07 at cycle  12 NSaved=  12.
 NSaved=12 IEnMin=12 EnMin= -731.149879978146     IErMin=12 ErrMin= 1.05D-07
 ErrMax= 1.05D-07  0.00D+00 EMaxC= 1.00D-01 BMatC= 8.71D-12 BMatP= 5.09D-11
 IDIUse=1 WtCom= 1.00D+00 WtEn= 0.00D+00
 Coeff-Com: -0.205D-06 0.211D-05-0.925D-05-0.227D-04-0.143D-03-0.463D-03
 Coeff-Com: -0.167D-02-0.350D-02 0.661D-02 0.453D-01 0.313D+00 0.641D+00
 Coeff:     -0.205D-06 0.211D-05-0.925D-05-0.227D-04-0.143D-03-0.463D-03
 Coeff:     -0.167D-02-0.350D-02 0.661D-02 0.453D-01 0.313D+00 0.641D+00
 Gap=     0.154 Goal=   None    Shift=    0.000
 RMSDP=1.28D-08 MaxDP=4.76D-07 DE=-4.46D-11 OVMax= 9.90D-07

 Cycle  13  Pass 1  IDiag  1:
 RMSU=  7.01D-09    CP:  9.72D-01  8.95D-01  6.77D-01  6.37D-01  7.26D-01
                    CP:  7.08D-01  7.25D-01  7.93D-01  8.05D-01  6.38D-01
                    CP:  7.87D-01  7.04D-01
 E= -731.149879978157     Delta-E=       -0.000000000010 Rises=F Damp=F
 DIIS: error= 3.85D-08 at cycle  13 NSaved=  13.
 NSaved=13 IEnMin=13 EnMin= -731.149879978157     IErMin=13 ErrMin= 3.85D-08
 ErrMax= 3.85D-08  0.00D+00 EMaxC= 1.00D-01 BMatC= 7.86D-13 BMatP= 8.71D-12
 IDIUse=1 WtCom= 1.00D+00 WtEn= 0.00D+00
 Coeff-Com: -0.158D-06 0.110D-05 0.669D-06 0.126D-05-0.412D-04-0.179D-03
 Coeff-Com: -0.105D-02-0.297D-02-0.317D-02 0.951D-02 0.136D+00 0.354D+00
 Coeff-Com:  0.508D+00
 Coeff:     -0.158D-06 0.110D-05 0.669D-06 0.126D-05-0.412D-04-0.179D-03
 Coeff:     -0.105D-02-0.297D-02-0.317D-02 0.951D-02 0.136D+00 0.354D+00
 Coeff:      0.508D+00
 Gap=     0.154 Goal=   None    Shift=    0.000
 RMSDP=4.34D-09 MaxDP=1.48D-07 DE=-1.02D-11 OVMax= 3.15D-07

 Error on total polarization charges =  0.02232
 SCF Done:  E(RB3LYP) =  -731.149879978     A.U. after   13 cycles
            NFock= 13  Conv=0.43D-08     -V/T= 2.0092
 KE= 7.244683453623D+02 PE=-3.965296919118D+03 EE= 1.385447122168D+03
 Leave Link  502 at Sun Jul 11 15:58:25 2021, MaxMem=   104857600 cpu:             230.2 elap:              57.6
 (Enter /prod/apps/gaussian/g16b1/l601.exe)
 Copying SCF densities to generalized density rwf, IOpCl= 0 IROHF=0.

 **********************************************************************

            Population analysis using the SCF Density.

 **********************************************************************

 Orbital symmetries:
       Occupied  (A) (A) (A) (A) (A) (A) (A) (A) (A) (A) (A) (A)
                 (A) (A) (A) (A) (A) (A) (A) (A) (A) (A) (A) (A)
                 (A) (A) (A) (A) (A) (A) (A) (A) (A) (A) (A) (A)
                 (A) (A) (A) (A) (A) (A) (A) (A) (A) (A) (A) (A)
                 (A) (A) (A) (A) (A) (A) (A) (A) (A) (A) (A) (A)
                 (A)
       Virtual   (A) (A) (A) (A) (A) (A) (A) (A) (A) (A) (A) (A)
                 (A) (A) (A) (A) (A) (A) (A) (A) (A) (A) (A) (A)
                 (A) (A) (A) (A) (A) (A) (A) (A) (A) (A) (A) (A)
                 (A) (A) (A) (A) (A) (A) (A) (A) (A) (A) (A) (A)
                 (A) (A) (A) (A) (A) (A) (A) (A) (A) (A) (A) (A)
                 (A) (A) (A) (A) (A) (A) (A) (A) (A) (A) (A) (A)
                 (A) (A) (A) (A) (A) (A) (A) (A) (A) (A) (A) (A)
                 (A) (A) (A) (A) (A) (A) (A) (A) (A) (A) (A) (A)
                 (A) (A) (A) (A) (A) (A) (A) (A) (A) (A) (A) (A)
                 (A) (A) (A) (A) (A) (A) (A) (A) (A) (A) (A) (A)
                 (A) (A) (A) (A) (A) (A) (A) (A) (A) (A) (A) (A)
                 (A) (A) (A) (A) (A) (A) (A) (A) (A) (A) (A) (A)
                 (A) (A) (A) (A) (A) (A) (A) (A) (A) (A) (A) (A)
                 (A) (A) (A) (A) (A) (A) (A) (A) (A) (A) (A) (A)
                 (A) (A) (A) (A) (A) (A) (A) (A) (A) (A) (A) (A)
                 (A) (A) (A) (A) (A) (A) (A) (A) (A) (A) (A) (A)
                 (A) (A) (A) (A) (A) (A) (A) (A) (A) (A) (A) (A)
                 (A) (A) (A) (A) (A) (A) (A) (A) (A) (A) (A) (A)
                 (A) (A) (A) (A) (A) (A) (A) (A)
 The electronic state is 1-A.
 Alpha  occ. eigenvalues --  -19.17155 -19.02853 -10.23761 -10.20563 -10.18879
 Alpha  occ. eigenvalues --  -10.18818 -10.18652 -10.18643 -10.18223 -10.17861
 Alpha  occ. eigenvalues --  -10.17229 -10.16671 -10.16634 -10.16596 -10.16578
 Alpha  occ. eigenvalues --  -10.14903 -10.14798  -1.06761  -0.88708  -0.84915
 Alpha  occ. eigenvalues --   -0.82210  -0.78283  -0.74262  -0.72274  -0.71468
 Alpha  occ. eigenvalues --   -0.68830  -0.67523  -0.61961  -0.60423  -0.58220
 Alpha  occ. eigenvalues --   -0.56913  -0.53787  -0.52830  -0.48324  -0.47179
 Alpha  occ. eigenvalues --   -0.44701  -0.44210  -0.42725  -0.42457  -0.41608
 Alpha  occ. eigenvalues --   -0.41224  -0.41012  -0.40314  -0.39332  -0.38577
 Alpha  occ. eigenvalues --   -0.37921  -0.36717  -0.35784  -0.34415  -0.34116
 Alpha  occ. eigenvalues --   -0.33276  -0.32365  -0.31910  -0.30497  -0.29133
 Alpha  occ. eigenvalues --   -0.26157  -0.24755  -0.22994  -0.21011  -0.18201
 Alpha  occ. eigenvalues --   -0.15679
 Alpha virt. eigenvalues --   -0.00288   0.01559   0.01952   0.04641   0.09862
 Alpha virt. eigenvalues --    0.10129   0.11595   0.13191   0.14057   0.14381
 Alpha virt. eigenvalues --    0.15417   0.15583   0.16331   0.17429   0.18029
 Alpha virt. eigenvalues --    0.18602   0.19148   0.19907   0.20692   0.21811
 Alpha virt. eigenvalues --    0.23283   0.23975   0.25062   0.25897   0.26986
 Alpha virt. eigenvalues --    0.27199   0.28559   0.32328   0.32868   0.34307
 Alpha virt. eigenvalues --    0.35775   0.37087   0.37337   0.39279   0.40340
 Alpha virt. eigenvalues --    0.49703   0.50029   0.50135   0.51200   0.52269
 Alpha virt. eigenvalues --    0.52553   0.53522   0.53866   0.54835   0.55894
 Alpha virt. eigenvalues --    0.56802   0.57781   0.58548   0.59770   0.60432
 Alpha virt. eigenvalues --    0.60908   0.61755   0.62044   0.62258   0.62835
 Alpha virt. eigenvalues --    0.63542   0.64789   0.66228   0.66352   0.66769
 Alpha virt. eigenvalues --    0.68421   0.69287   0.70415   0.72310   0.73783
 Alpha virt. eigenvalues --    0.74831   0.75702   0.77592   0.78479   0.79587
 Alpha virt. eigenvalues --    0.81167   0.82736   0.83837   0.84814   0.85348
 Alpha virt. eigenvalues --    0.86320   0.87213   0.88176   0.89048   0.89783
 Alpha virt. eigenvalues --    0.90418   0.90867   0.91274   0.91887   0.93131
 Alpha virt. eigenvalues --    0.94775   0.94926   0.96717   0.98246   0.98433
 Alpha virt. eigenvalues --    0.98922   1.00237   1.00804   1.01415   1.03113
 Alpha virt. eigenvalues --    1.04302   1.05055   1.06824   1.07336   1.09532
 Alpha virt. eigenvalues --    1.11545   1.13335   1.15271   1.15879   1.16672
 Alpha virt. eigenvalues --    1.18847   1.20155   1.22801   1.24304   1.25578
 Alpha virt. eigenvalues --    1.27897   1.28756   1.30460   1.32339   1.35044
 Alpha virt. eigenvalues --    1.36092   1.39486   1.40663   1.42164   1.46237
 Alpha virt. eigenvalues --    1.47250   1.48966   1.50496   1.51727   1.53533
 Alpha virt. eigenvalues --    1.55605   1.57563   1.62142   1.65006   1.66565
 Alpha virt. eigenvalues --    1.66860   1.70629   1.72555   1.74266   1.76069
 Alpha virt. eigenvalues --    1.77833   1.79109   1.81919   1.84902   1.85424
 Alpha virt. eigenvalues --    1.86691   1.87496   1.88246   1.89419   1.90031
 Alpha virt. eigenvalues --    1.90354   1.92858   1.94795   1.96456   1.96740
 Alpha virt. eigenvalues --    1.99989   2.00552   2.02000   2.03018   2.06484
 Alpha virt. eigenvalues --    2.06720   2.07864   2.09126   2.10520   2.11560
 Alpha virt. eigenvalues --    2.14182   2.15089   2.16284   2.18532   2.20003
 Alpha virt. eigenvalues --    2.21969   2.24805   2.25753   2.28290   2.28870
 Alpha virt. eigenvalues --    2.30453   2.31600   2.32663   2.33900   2.35338
 Alpha virt. eigenvalues --    2.35781   2.36720   2.40029   2.41721   2.43028
 Alpha virt. eigenvalues --    2.47615   2.51537   2.54007   2.56034   2.59037
 Alpha virt. eigenvalues --    2.61388   2.63449   2.64487   2.64676   2.65536
 Alpha virt. eigenvalues --    2.68506   2.68978   2.71510   2.76517   2.78459
 Alpha virt. eigenvalues --    2.79943   2.83674   2.89894   2.93763   2.94206
 Alpha virt. eigenvalues --    2.95491   3.00146   3.00698   3.15437   3.18771
 Alpha virt. eigenvalues --    3.39407   3.43883   3.92867   3.95627   4.11756
 Alpha virt. eigenvalues --    4.12069   4.14088   4.15402   4.22282   4.27512
 Alpha virt. eigenvalues --    4.28179   4.32351   4.34459   4.37867   4.45475
 Alpha virt. eigenvalues --    4.51337   4.66033   4.74158   4.77850
          Condensed to atoms (all electrons):
               1          2          3          4          5          6
     1  C    5.218051   0.368835   0.349998   0.363556   0.341276  -0.064133
     2  H    0.368835   0.549007  -0.033286  -0.021970  -0.020850  -0.003715
     3  H    0.349998  -0.033286   0.599241  -0.037784  -0.026172  -0.005156
     4  H    0.363556  -0.021970  -0.037784   0.563380  -0.024235   0.005257
     5  C    0.341276  -0.020850  -0.026172  -0.024235   5.012234   0.351312
     6  C   -0.064133  -0.003715  -0.005156   0.005257   0.351312   5.209232
     7  H   -0.006524   0.003912   0.000183   0.000051  -0.026147   0.351049
     8  H    0.006456  -0.000067  -0.000057  -0.000191  -0.025820   0.358617
     9  H   -0.005655  -0.000031   0.003747  -0.000075  -0.025633   0.365974
    10  C   -0.058414  -0.002401   0.005774  -0.006496   0.357639  -0.039218
    11  C   -0.007962   0.000070   0.000260   0.003706  -0.057358   0.005546
    12  C    0.000058  -0.000029   0.000002   0.000017   0.004790  -0.000131
    13  C    0.000022  -0.000014  -0.000000  -0.000007   0.000150  -0.000007
    14  O   -0.000000   0.000000   0.000000  -0.000000   0.000000  -0.000000
    15  H    0.000000   0.000000  -0.000000   0.000000  -0.000001   0.000000
    16  C   -0.000287  -0.000012   0.000002   0.000008   0.005857   0.000186
    17  C    0.002209   0.000506  -0.000046  -0.000088  -0.045578  -0.011111
    18  H    0.000370  -0.000029  -0.000012  -0.000009  -0.015556   0.008039
    19  H    0.000003   0.000001  -0.000000   0.000000  -0.000107   0.000002
    20  H    0.000002   0.000000  -0.000000   0.000001  -0.000094   0.000001
    21  H    0.000633   0.000080  -0.000084   0.002022  -0.006611   0.000118
    22  C   -0.026599   0.002444  -0.006210  -0.000659   0.352053  -0.062258
    23  C    0.004154  -0.000044  -0.000309  -0.000006  -0.057867  -0.005676
    24  H    0.000101  -0.000005  -0.000008  -0.000002  -0.010905   0.000170
    25  C   -0.000069   0.000001   0.000005  -0.000005   0.005321   0.000063
    26  H    0.000001  -0.000000   0.000000   0.000000  -0.000121   0.000002
    27  C   -0.000005   0.000000  -0.000004  -0.000003   0.000339  -0.000007
    28  O    0.000000  -0.000000  -0.000000   0.000000   0.000000  -0.000000
    29  C    0.000306  -0.000003   0.000187  -0.000130   0.006251  -0.000156
    30  H   -0.000002  -0.000000   0.000004   0.000001  -0.000185   0.000001
    31  C   -0.012422   0.000297   0.000906   0.001943  -0.048578  -0.002857
    32  H    0.003604  -0.000030   0.003013   0.000671  -0.013126   0.000480
               7          8          9         10         11         12
     1  C   -0.006524   0.006456  -0.005655  -0.058414  -0.007962   0.000058
     2  H    0.003912  -0.000067  -0.000031  -0.002401   0.000070  -0.000029
     3  H    0.000183  -0.000057   0.003747   0.005774   0.000260   0.000002
     4  H    0.000051  -0.000191  -0.000075  -0.006496   0.003706   0.000017
     5  C   -0.026147  -0.025820  -0.025633   0.357639  -0.057358   0.004790
     6  C    0.351049   0.358617   0.365974  -0.039218   0.005546  -0.000131
     7  H    0.590650  -0.027982  -0.032897  -0.002748  -0.000190  -0.000005
     8  H   -0.027982   0.575215  -0.031216  -0.008076  -0.000190   0.000003
     9  H   -0.032897  -0.031216   0.571672   0.003944  -0.000084   0.000002
    10  C   -0.002748  -0.008076   0.003944   4.800821   0.498523  -0.029719
    11  C   -0.000190  -0.000190  -0.000084   0.498523   5.069206   0.467174
    12  C   -0.000005   0.000003   0.000002  -0.029719   0.467174   5.102701
    13  C    0.000002  -0.000008   0.000000  -0.032450  -0.003004   0.505313
    14  O    0.000000   0.000000  -0.000000   0.000380   0.005142  -0.059095
    15  H   -0.000000  -0.000000   0.000000  -0.000038   0.000786  -0.003646
    16  C   -0.000047   0.000108  -0.000001  -0.029013  -0.049309  -0.069187
    17  C    0.000730   0.001487   0.000398   0.525934  -0.040521  -0.040860
    18  H    0.001121   0.002810  -0.000194  -0.043624   0.006965   0.000441
    19  H   -0.000001   0.000006  -0.000000   0.003594   0.000040   0.006680
    20  H    0.000000   0.000000  -0.000000   0.003028  -0.032921   0.354030
    21  H   -0.000008   0.000001  -0.000005  -0.044774   0.350518  -0.040243
    22  C    0.006179  -0.004867  -0.003280  -0.048906  -0.002069   0.000373
    23  C    0.000060   0.004636  -0.000111  -0.007154  -0.000848   0.000028
    24  H   -0.000056   0.000946   0.000066   0.008782   0.001867  -0.000138
    25  C    0.000002   0.000020  -0.000063   0.000174  -0.000190  -0.000013
    26  H   -0.000000   0.000002   0.000000  -0.000007   0.000000  -0.000000
    27  C   -0.000000  -0.000013   0.000001   0.000025   0.000006   0.000000
    28  O    0.000000  -0.000000  -0.000000  -0.000000   0.000000   0.000000
    29  C    0.000003   0.000019  -0.000144  -0.000168  -0.000043  -0.000000
    30  H   -0.000000   0.000000   0.000005   0.000002   0.000000  -0.000000
    31  C    0.000032  -0.000164   0.003603   0.002824   0.000852   0.000010
    32  H   -0.000075  -0.000017   0.000385   0.000221  -0.000028   0.000000
              13         14         15         16         17         18
     1  C    0.000022  -0.000000   0.000000  -0.000287   0.002209   0.000370
     2  H   -0.000014   0.000000   0.000000  -0.000012   0.000506  -0.000029
     3  H   -0.000000   0.000000  -0.000000   0.000002  -0.000046  -0.000012
     4  H   -0.000007  -0.000000   0.000000   0.000008  -0.000088  -0.000009
     5  C    0.000150   0.000000  -0.000001   0.005857  -0.045578  -0.015556
     6  C   -0.000007  -0.000000   0.000000   0.000186  -0.011111   0.008039
     7  H    0.000002   0.000000  -0.000000  -0.000047   0.000730   0.001121
     8  H   -0.000008   0.000000  -0.000000   0.000108   0.001487   0.002810
     9  H    0.000000  -0.000000   0.000000  -0.000001   0.000398  -0.000194
    10  C   -0.032450   0.000380  -0.000038  -0.029013   0.525934  -0.043624
    11  C   -0.003004   0.005142   0.000786  -0.049309  -0.040521   0.006965
    12  C    0.505313  -0.059095  -0.003646  -0.069187  -0.040860   0.000441
    13  C    4.492919   0.282512  -0.039910   0.553560  -0.015809   0.004319
    14  O    0.282512   8.248592   0.250876  -0.065360   0.003115  -0.000067
    15  H   -0.039910   0.250876   0.327281   0.007335  -0.000247   0.000008
    16  C    0.553560  -0.065360   0.007335   5.056126   0.477922  -0.042350
    17  C   -0.015809   0.003115  -0.000247   0.477922   5.044147   0.353382
    18  H    0.004319  -0.000067   0.000008  -0.042350   0.353382   0.588543
    19  H   -0.039343  -0.001724  -0.000219   0.351432  -0.036972  -0.004709
    20  H   -0.041804  -0.005039   0.007561   0.004856   0.000298   0.000014
    21  H    0.004095  -0.000090  -0.000021   0.000765   0.005765  -0.000189
    22  C   -0.000003   0.000000   0.000000  -0.000035  -0.002381   0.000205
    23  C    0.000006  -0.000000   0.000000  -0.000067   0.000772  -0.000093
    24  H   -0.000054   0.000000  -0.000000   0.000130   0.003360  -0.000131
    25  C    0.000000   0.000000  -0.000000  -0.000000   0.000073   0.000000
    26  H   -0.000000   0.000000   0.000000   0.000000  -0.000000  -0.000000
    27  C    0.000000   0.000000  -0.000000  -0.000000  -0.000001   0.000000
    28  O   -0.000000  -0.000000   0.000000   0.000000  -0.000000   0.000000
    29  C    0.000000  -0.000000  -0.000000  -0.000000   0.000002   0.000000
    30  H    0.000000   0.000000  -0.000000   0.000000  -0.000000  -0.000000
    31  C   -0.000000   0.000000  -0.000000   0.000003  -0.000200  -0.000008
    32  H   -0.000000   0.000000  -0.000000   0.000000  -0.000002  -0.000000
              19         20         21         22         23         24
     1  C    0.000003   0.000002   0.000633  -0.026599   0.004154   0.000101
     2  H    0.000001   0.000000   0.000080   0.002444  -0.000044  -0.000005
     3  H   -0.000000  -0.000000  -0.000084  -0.006210  -0.000309  -0.000008
     4  H    0.000000   0.000001   0.002022  -0.000659  -0.000006  -0.000002
     5  C   -0.000107  -0.000094  -0.006611   0.352053  -0.057867  -0.010905
     6  C    0.000002   0.000001   0.000118  -0.062258  -0.005676   0.000170
     7  H   -0.000001   0.000000  -0.000008   0.006179   0.000060  -0.000056
     8  H    0.000006   0.000000   0.000001  -0.004867   0.004636   0.000946
     9  H   -0.000000  -0.000000  -0.000005  -0.003280  -0.000111   0.000066
    10  C    0.003594   0.003028  -0.044774  -0.048906  -0.007154   0.008782
    11  C    0.000040  -0.032921   0.350518  -0.002069  -0.000848   0.001867
    12  C    0.006680   0.354030  -0.040243   0.000373   0.000028  -0.000138
    13  C   -0.039343  -0.041804   0.004095  -0.000003   0.000006  -0.000054
    14  O   -0.001724  -0.005039  -0.000090   0.000000  -0.000000   0.000000
    15  H   -0.000219   0.007561  -0.000021   0.000000   0.000000  -0.000000
    16  C    0.351432   0.004856   0.000765  -0.000035  -0.000067   0.000130
    17  C   -0.036972   0.000298   0.005765  -0.002381   0.000772   0.003360
    18  H   -0.004709   0.000014  -0.000189   0.000205  -0.000093  -0.000131
    19  H    0.578792  -0.000159   0.000018   0.000000   0.000001  -0.000002
    20  H   -0.000159   0.554728  -0.006570   0.000001   0.000000  -0.000001
    21  H    0.000018  -0.006570   0.592585   0.004175   0.000954  -0.000097
    22  C    0.000000   0.000001   0.004175   4.832337   0.516842  -0.051267
    23  C    0.000001   0.000000   0.000954   0.516842   5.194038   0.340378
    24  H   -0.000002  -0.000001  -0.000097  -0.051267   0.340378   0.629895
    25  C    0.000000  -0.000000  -0.000057  -0.014101   0.354257  -0.038916
    26  H   -0.000000   0.000000   0.000000   0.004863  -0.049164  -0.006648
    27  C    0.000000   0.000000  -0.000008  -0.045895   0.024076   0.003582
    28  O    0.000000   0.000000   0.000000   0.000030   0.006716  -0.000070
    29  C    0.000000  -0.000000  -0.000015  -0.014021  -0.062219   0.000070
    30  H   -0.000000  -0.000000  -0.000001   0.005286  -0.000164   0.000026
    31  C   -0.000000  -0.000000   0.000208   0.493354  -0.043758   0.007759
    32  H   -0.000000   0.000000  -0.000007  -0.043716   0.006553  -0.000207
              25         26         27         28         29         30
     1  C   -0.000069   0.000001  -0.000005   0.000000   0.000306  -0.000002
     2  H    0.000001  -0.000000   0.000000  -0.000000  -0.000003  -0.000000
     3  H    0.000005   0.000000  -0.000004  -0.000000   0.000187   0.000004
     4  H   -0.000005   0.000000  -0.000003   0.000000  -0.000130   0.000001
     5  C    0.005321  -0.000121   0.000339   0.000000   0.006251  -0.000185
     6  C    0.000063   0.000002  -0.000007  -0.000000  -0.000156   0.000001
     7  H    0.000002  -0.000000  -0.000000   0.000000   0.000003  -0.000000
     8  H    0.000020   0.000002  -0.000013  -0.000000   0.000019   0.000000
     9  H   -0.000063   0.000000   0.000001  -0.000000  -0.000144   0.000005
    10  C    0.000174  -0.000007   0.000025  -0.000000  -0.000168   0.000002
    11  C   -0.000190   0.000000   0.000006   0.000000  -0.000043   0.000000
    12  C   -0.000013  -0.000000   0.000000   0.000000  -0.000000  -0.000000
    13  C    0.000000  -0.000000   0.000000  -0.000000   0.000000   0.000000
    14  O    0.000000   0.000000   0.000000  -0.000000  -0.000000   0.000000
    15  H   -0.000000   0.000000  -0.000000   0.000000  -0.000000  -0.000000
    16  C   -0.000000   0.000000  -0.000000   0.000000  -0.000000   0.000000
    17  C    0.000073  -0.000000  -0.000001  -0.000000   0.000002  -0.000000
    18  H    0.000000  -0.000000   0.000000   0.000000   0.000000  -0.000000
    19  H    0.000000  -0.000000   0.000000   0.000000   0.000000  -0.000000
    20  H   -0.000000   0.000000   0.000000   0.000000  -0.000000  -0.000000
    21  H   -0.000057   0.000000  -0.000008   0.000000  -0.000015  -0.000001
    22  C   -0.014101   0.004863  -0.045895   0.000030  -0.014021   0.005286
    23  C    0.354257  -0.049164   0.024076   0.006716  -0.062219  -0.000164
    24  H   -0.038916  -0.006648   0.003582  -0.000070   0.000070   0.000026
    25  C    5.332855   0.339293   0.429019  -0.072596  -0.046371   0.011090
    26  H    0.339293   0.648685  -0.046369   0.000554   0.010793  -0.000216
    27  C    0.429019  -0.046369   4.456584   0.388279   0.431347  -0.045753
    28  O   -0.072596   0.000554   0.388279   8.652966  -0.071101   0.001355
    29  C   -0.046371   0.010793   0.431347  -0.071101   5.329060   0.333298
    30  H    0.011090  -0.000216  -0.045753   0.001355   0.333298   0.662172
    31  C   -0.056448  -0.000362   0.017500   0.007371   0.366418  -0.049892
    32  H    0.000068   0.000021   0.003407  -0.000070  -0.037896  -0.006609
              31         32
     1  C   -0.012422   0.003604
     2  H    0.000297  -0.000030
     3  H    0.000906   0.003013
     4  H    0.001943   0.000671
     5  C   -0.048578  -0.013126
     6  C   -0.002857   0.000480
     7  H    0.000032  -0.000075
     8  H   -0.000164  -0.000017
     9  H    0.003603   0.000385
    10  C    0.002824   0.000221
    11  C    0.000852  -0.000028
    12  C    0.000010   0.000000
    13  C   -0.000000  -0.000000
    14  O    0.000000   0.000000
    15  H   -0.000000  -0.000000
    16  C    0.000003   0.000000
    17  C   -0.000200  -0.000002
    18  H   -0.000008  -0.000000
    19  H   -0.000000  -0.000000
    20  H   -0.000000   0.000000
    21  H    0.000208  -0.000007
    22  C    0.493354  -0.043716
    23  C   -0.043758   0.006553
    24  H    0.007759  -0.000207
    25  C   -0.056448   0.000068
    26  H   -0.000362   0.000021
    27  C    0.017500   0.003407
    28  O    0.007371  -0.000070
    29  C    0.366418  -0.037896
    30  H   -0.049892  -0.006609
    31  C    5.174056   0.348778
    32  H    0.348778   0.610989
 Mulliken charges:
               1
     1  C   -0.477566
     2  H    0.157332
     3  H    0.145804
     4  H    0.151046
     5  C   -0.032282
     6  C   -0.461624
     7  H    0.142705
     8  H    0.148342
     9  H    0.149590
    10  C    0.141538
    11  C   -0.215943
    12  C   -0.198555
    13  C    0.329516
    14  O   -0.659242
    15  H    0.450236
    16  C   -0.202623
    17  C   -0.226288
    18  H    0.140755
    19  H    0.142670
    20  H    0.162068
    21  H    0.136840
    22  C    0.108124
    23  C   -0.225991
    24  H    0.111376
    25  C   -0.243414
    26  H    0.098671
    27  C    0.383894
    28  O   -0.913435
    29  C   -0.245490
    30  H    0.089580
    31  C   -0.211226
    32  H    0.123591
 Sum of Mulliken charges =  -1.00000
 Mulliken charges with hydrogens summed into heavy atoms:
               1
     1  C   -0.023384
     5  C   -0.032282
     6  C   -0.020987
    10  C    0.141538
    11  C   -0.079103
    12  C   -0.036487
    13  C    0.329516
    14  O   -0.209007
    16  C   -0.059953
    17  C   -0.085532
    22  C    0.108124
    23  C   -0.114615
    25  C   -0.144743
    27  C    0.383894
    28  O   -0.913435
    29  C   -0.155910
    31  C   -0.087635
 Electronic spatial extent (au):  <R**2>=           4917.2059
 Charge=             -1.0000 electrons
 Dipole moment (field-independent basis, Debye):
    X=            -19.3253    Y=              6.9508    Z=              2.0771  Tot=             20.6421
 Quadrupole moment (field-independent basis, Debye-Ang):
   XX=           -196.7638   YY=           -111.7520   ZZ=            -97.4199
   XY=             38.4613   XZ=             -6.5922   YZ=             -4.6645
 Traceless Quadrupole moment (field-independent basis, Debye-Ang):
   XX=            -61.4519   YY=             23.5599   ZZ=             37.8920
   XY=             38.4613   XZ=             -6.5922   YZ=             -4.6645
 Octapole moment (field-independent basis, Debye-Ang**2):
  XXX=           -437.5650  YYY=             18.5958  ZZZ=              6.2058  XYY=            -82.9239
  XXY=            152.3296  XXZ=             41.3665  XZZ=            -28.3021  YZZ=             -9.4948
  YYZ=             10.3024  XYZ=             26.9785
 Hexadecapole moment (field-independent basis, Debye-Ang**3):
 XXXX=          -6972.5173 YYYY=          -1257.7613 ZZZZ=           -577.5549 XXXY=            899.0092
 XXXZ=           -160.5558 YYYX=            185.9015 YYYZ=            -15.1529 ZZZX=             -8.2938
 ZZZY=            -20.6836 XXYY=          -1279.7153 XXZZ=           -815.2370 YYZZ=           -290.7732
[...]
     32          1           0        2.259004    1.359527    1.756412
 ---------------------------------------------------------------------
 Rotational constants (GHZ):           0.8585874           0.2619283           0.2326491
 Leave Link  202 at Sun Jul 11 16:22:16 2021, MaxMem=   262144000 cpu:               0.1 elap:               0.0
 (Enter /prod/apps/gaussian/g16b1/l301.exe)
 Standard basis: Aug-CC-pVDZ (5D, 7F)
 Ernie: Thresh=  0.10000D-02 Tol=  0.10000D-05 Strict=F.
 Ernie:  34 primitive shells out of 530 were deleted.
 There are   560 symmetry adapted cartesian basis functions of A   symmetry.
 There are   526 symmetry adapted basis functions of A   symmetry.
   526 basis functions,   896 primitive gaussians,   560 cartesian basis functions
    61 alpha electrons       61 beta electrons
       nuclear repulsion energy      1129.2897989910 Hartrees.
 IExCor=    0 DFT=F Ex=HF Corr=None ExCW=0 ScaHFX=  1.000000
 ScaDFX=  1.000000  1.000000  1.000000  1.000000 ScalE2=  1.000000  1.000000
 IRadAn=      5 IRanWt=     -1 IRanGd=            0 ICorTp=0 IEmpDi=  4
 NAtoms=   32 NActive=   32 NUniq=   32 SFac= 1.00D+00 NAtFMM=   60 NAOKFM=F Big=F
 Integral buffers will be    131072 words long.
 Raffenetti 1 integral format.
 Two-electron integral symmetry is turned on.
 Leave Link  301 at Sun Jul 11 16:22:16 2021, MaxMem=   262144000 cpu:               0.2 elap:               0.1
 (Enter /prod/apps/gaussian/g16b1/l302.exe)
 NPDir=0 NMtPBC=     1 NCelOv=     1 NCel=       1 NClECP=     1 NCelD=      1
         NCelK=      1 NCelE2=     1 NClLst=     1 CellRange=     0.0.
 One-electron integrals computed using PRISM.
 One-electron integral symmetry used in STVInt
 NBasis=   526 RedAO= T EigKep=  1.35D-06  NBF=   526
 NBsUse=   526 1.00D-06 EigRej= -1.00D+00 NBFU=   526
 Leave Link  302 at Sun Jul 11 16:22:16 2021, MaxMem=   262144000 cpu:               1.3 elap:               0.3
 (Enter /prod/apps/gaussian/g16b1/l303.exe)
 DipDrv:  MaxL=1.
 Leave Link  303 at Sun Jul 11 16:22:17 2021, MaxMem=   262144000 cpu:               0.3 elap:               0.1
 (Enter /prod/apps/gaussian/g16b1/l401.exe)
 ExpMin= 2.97D-02 ExpMax= 1.17D+04 ExpMxC= 4.01D+02 IAcc=3 IRadAn=         5 AccDes= 0.00D+00
 Harris functional with IExCor=  205 and IRadAn=       5 diagonalized for initial guess.
 HarFok:  IExCor=  205 AccDes= 0.00D+00 IRadAn=         5 IDoV= 1 UseB2=F ITyADJ=14
 ICtDFT=  3500011 ScaDFX=  1.000000  1.000000  1.000000  1.000000
 FoFCou: FMM=F IPFlag=           0 FMFlag=      100000 FMFlg1=           0
         NFxFlg=           0 DoJE=T BraDBF=F KetDBF=T FulRan=T
         wScrn=  0.000000 ICntrl=       500 IOpCl=  0 I1Cent=   200000004 NGrid=           0
         NMat0=    1 NMatS0=      1 NMatT0=    0 NMatD0=    1 NMtDS0=    0 NMtDT0=    0
 Petite list used in FoFCou.
 Harris En= -727.770658436056    
 JPrj=0 DoOrth=F DoCkMO=F.
 Leave Link  401 at Sun Jul 11 16:22:20 2021, MaxMem=   262144000 cpu:              12.1 elap:               3.0
 (Enter /prod/apps/gaussian/g16b1/l502.exe)
 Integral symmetry usage will be decided dynamically.
 Closed shell SCF:
 Using DIIS extrapolation, IDIIS=  1040.
 NGot=   262144000 LenX=   261508168 LenY=   261194008
 Requested convergence on RMS density matrix=1.00D-08 within 128 cycles.
 Requested convergence on MAX density matrix=1.00D-06.
 Requested convergence on             energy=1.00D-06.
 No special actions if energy rises.
 Fock matrices will be formed incrementally for  20 cycles.

 Cycle   1  Pass 1  IDiag  1:
 FoFJK:  IHMeth= 1 ICntrl=       0 DoSepK=F KAlg= 0 I1Cent=           0 FoldK=F
 IRaf= 950000000 NMat=       1 IRICut=       1 DoRegI=T DoRafI=F ISym2E= 0 IDoP0=0 IntGTp=1.
 FoFCou: FMM=F IPFlag=           0 FMFlag=      100000 FMFlg1=           0
         NFxFlg=           0 DoJE=F BraDBF=F KetDBF=F FulRan=T
         wScrn=  0.000000 ICntrl=         0 IOpCl=  0 I1Cent=           0 NGrid=           0
         NMat0=    1 NMatS0=      1 NMatT0=    0 NMatD0=    1 NMtDS0=    0 NMtDT0=    0
 Symmetry not used in FoFCou.
 E= -725.790392333707    
 DIIS: error= 1.99D-02 at cycle   1 NSaved=   1.
 NSaved= 1 IEnMin= 1 EnMin= -725.790392333707     IErMin= 1 ErrMin= 1.99D-02
 ErrMax= 1.99D-02  0.00D+00 EMaxC= 1.00D-01 BMatC= 9.01D-01 BMatP= 9.01D-01
 IDIUse=3 WtCom= 8.01D-01 WtEn= 1.99D-01
 Coeff-Com:  0.100D+01
 Coeff-En:   0.100D+01
 Coeff:      0.100D+01
 Gap=     0.283 Goal=   None    Shift=    0.000
 GapD=    0.283 DampG=1.000 DampE=0.500 DampFc=0.5000 IDamp=-1.
 Damping current iteration by 5.00D-01
 RMSDP=8.47D-02 MaxDP=6.26D+00              OVMax= 2.01D-01

 Cycle   2  Pass 1  IDiag  1:
 RMSU=  1.88D-02    CP:  7.66D-01
 E= -726.198937982617     Delta-E=       -0.408545648909 Rises=F Damp=T
 DIIS: error= 1.04D-02 at cycle   2 NSaved=   2.
 NSaved= 2 IEnMin= 2 EnMin= -726.198937982617     IErMin= 2 ErrMin= 1.04D-02
 ErrMax= 1.04D-02  0.00D+00 EMaxC= 1.00D-01 BMatC= 1.59D-01 BMatP= 9.01D-01
 IDIUse=3 WtCom= 8.96D-01 WtEn= 1.04D-01
 Coeff-Com: -0.532D+00 0.153D+01
 Coeff-En:   0.000D+00 0.100D+01
 Coeff:     -0.477D+00 0.148D+01
 Gap=     0.200 Goal=   None    Shift=    0.000
 RMSDP=4.45D-02 MaxDP=3.88D+00 DE=-4.09D-01 OVMax= 9.04D-02

 Cycle   3  Pass 1  IDiag  1:
 RMSU=  1.25D-02    CP:  5.12D-01  1.62D+00
 E= -726.563883325000     Delta-E=       -0.364945342383 Rises=F Damp=F
 DIIS: error= 1.81D-03 at cycle   3 NSaved=   3.
 NSaved= 3 IEnMin= 3 EnMin= -726.563883325000     IErMin= 3 ErrMin= 1.81D-03
 ErrMax= 1.81D-03  0.00D+00 EMaxC= 1.00D-01 BMatC= 5.50D-03 BMatP= 1.59D-01
 IDIUse=3 WtCom= 9.82D-01 WtEn= 1.81D-02
 Coeff-Com: -0.119D+00 0.208D+00 0.911D+00
 Coeff-En:   0.000D+00 0.000D+00 0.100D+01
 Coeff:     -0.117D+00 0.204D+00 0.912D+00
 Gap=     0.183 Goal=   None    Shift=    0.000
 RMSDP=2.38D-03 MaxDP=1.24D-01 DE=-3.65D-01 OVMax= 2.28D-02

 Cycle   4  Pass 1  IDiag  1:
 RMSU=  1.96D-03    CP:  5.04D-01  1.63D+00  9.86D-01
 E= -726.569012314785     Delta-E=       -0.005128989785 Rises=F Damp=F
 DIIS: error= 8.27D-04 at cycle   4 NSaved=   4.
 NSaved= 4 IEnMin= 4 EnMin= -726.569012314785     IErMin= 4 ErrMin= 8.27D-04
 ErrMax= 8.27D-04  0.00D+00 EMaxC= 1.00D-01 BMatC= 9.24D-04 BMatP= 5.50D-03
 IDIUse=3 WtCom= 9.92D-01 WtEn= 8.27D-03
 Coeff-Com: -0.196D-01 0.107D-01 0.307D+00 0.702D+00
 Coeff-En:   0.000D+00 0.000D+00 0.000D+00 0.100D+01
 Coeff:     -0.194D-01 0.106D-01 0.305D+00 0.704D+00
 Gap=     0.186 Goal=   None    Shift=    0.000
 RMSDP=7.35D-04 MaxDP=5.53D-02 DE=-5.13D-03 OVMax= 8.84D-03

 Cycle   5  Pass 1  IDiag  1:
 RMSU=  5.99D-04    CP:  5.02D-01  1.62D+00  9.90D-01  1.12D+00
 E= -726.570030866524     Delta-E=       -0.001018551739 Rises=F Damp=F
 DIIS: error= 2.71D-04 at cycle   5 NSaved=   5.
 NSaved= 5 IEnMin= 5 EnMin= -726.570030866524     IErMin= 5 ErrMin= 2.71D-04
 ErrMax= 2.71D-04  0.00D+00 EMaxC= 1.00D-01 BMatC= 7.35D-05 BMatP= 9.24D-04
 IDIUse=3 WtCom= 9.97D-01 WtEn= 2.71D-03
 Coeff-Com:  0.994D-02-0.193D-01-0.750D-01 0.793D-01 0.101D+01
 Coeff-En:   0.000D+00 0.000D+00 0.000D+00 0.000D+00 0.100D+01
 Coeff:      0.992D-02-0.193D-01-0.748D-01 0.790D-01 0.101D+01
 Gap=     0.188 Goal=   None    Shift=    0.000
 RMSDP=3.73D-04 MaxDP=3.39D-02 DE=-1.02D-03 OVMax= 5.11D-03

 Cycle   6  Pass 1  IDiag  1:
 RMSU=  2.42D-04    CP:  5.02D-01  1.62D+00  1.00D+00  1.24D+00  1.16D+00
 E= -726.570191731044     Delta-E=       -0.000160864520 Rises=F Damp=F
 DIIS: error= 9.03D-05 at cycle   6 NSaved=   6.
 NSaved= 6 IEnMin= 6 EnMin= -726.570191731044     IErMin= 6 ErrMin= 9.03D-05
 ErrMax= 9.03D-05  0.00D+00 EMaxC= 1.00D-01 BMatC= 9.75D-06 BMatP= 7.35D-05
 IDIUse=1 WtCom= 1.00D+00 WtEn= 0.00D+00
 Coeff-Com:  0.363D-02-0.407D-02-0.438D-01-0.688D-01 0.124D+00 0.989D+00
 Coeff:      0.363D-02-0.407D-02-0.438D-01-0.688D-01 0.124D+00 0.989D+00
 Gap=     0.188 Goal=   None    Shift=    0.000
 RMSDP=1.55D-04 MaxDP=9.70D-03 DE=-1.61D-04 OVMax= 4.16D-03

 Cycle   7  Pass 1  IDiag  1:
 RMSU=  7.19D-05    CP:  5.02D-01  1.62D+00  1.00D+00  1.29D+00  1.29D+00
                    CP:  1.27D+00
 E= -726.570226349158     Delta-E=       -0.000034618114 Rises=F Damp=F
 DIIS: error= 5.06D-05 at cycle   7 NSaved=   7.
 NSaved= 7 IEnMin= 7 EnMin= -726.570226349158     IErMin= 7 ErrMin= 5.06D-05
 ErrMax= 5.06D-05  0.00D+00 EMaxC= 1.00D-01 BMatC= 2.87D-06 BMatP= 9.75D-06
 IDIUse=1 WtCom= 1.00D+00 WtEn= 0.00D+00
 Coeff-Com: -0.999D-03 0.226D-02 0.717D-02-0.239D-01-0.151D+00 0.183D+00
 Coeff-Com:  0.983D+00
 Coeff:     -0.999D-03 0.226D-02 0.717D-02-0.239D-01-0.151D+00 0.183D+00
 Coeff:      0.983D+00
 Gap=     0.188 Goal=   None    Shift=    0.000
 RMSDP=6.18D-05 MaxDP=4.41D-03 DE=-3.46D-05 OVMax= 1.66D-03

 Cycle   8  Pass 1  IDiag  1:
 RMSU=  3.79D-05    CP:  5.02D-01  1.62D+00  1.00D+00  1.29D+00  1.31D+00
                    CP:  1.40D+00  1.41D+00
 E= -726.570237030671     Delta-E=       -0.000010681513 Rises=F Damp=F
 DIIS: error= 2.37D-05 at cycle   8 NSaved=   8.
 NSaved= 8 IEnMin= 8 EnMin= -726.570237030671     IErMin= 8 ErrMin= 2.37D-05
 ErrMax= 2.37D-05  0.00D+00 EMaxC= 1.00D-01 BMatC= 6.39D-07 BMatP= 2.87D-06
 IDIUse=1 WtCom= 1.00D+00 WtEn= 0.00D+00
 Coeff-Com: -0.134D-02 0.179D-02 0.148D-01 0.159D-01-0.527D-01-0.260D+00
 Coeff-Com:  0.218D-01 0.126D+01
 Coeff:     -0.134D-02 0.179D-02 0.148D-01 0.159D-01-0.527D-01-0.260D+00
 Coeff:      0.218D-01 0.126D+01
 Gap=     0.188 Goal=   None    Shift=    0.000
 RMSDP=4.93D-05 MaxDP=2.11D-03 DE=-1.07D-05 OVMax= 1.82D-03

 Cycle   9  Pass 1  IDiag  1:
 RMSU=  1.87D-05    CP:  5.02D-01  1.62D+00  1.00D+00  1.28D+00  1.31D+00
                    CP:  1.49D+00  1.81D+00  1.68D+00
 E= -726.570240989756     Delta-E=       -0.000003959085 Rises=F Damp=F
 DIIS: error= 1.02D-05 at cycle   9 NSaved=   9.
 NSaved= 9 IEnMin= 9 EnMin= -726.570240989756     IErMin= 9 ErrMin= 1.02D-05
 ErrMax= 1.02D-05  0.00D+00 EMaxC= 1.00D-01 BMatC= 1.40D-07 BMatP= 6.39D-07
 IDIUse=1 WtCom= 1.00D+00 WtEn= 0.00D+00
 Coeff-Com: -0.942D-04-0.777D-04 0.220D-02 0.752D-02 0.190D-01-0.953D-01
 Coeff-Com: -0.212D+00 0.327D+00 0.952D+00
 Coeff:     -0.942D-04-0.777D-04 0.220D-02 0.752D-02 0.190D-01-0.953D-01
 Coeff:     -0.212D+00 0.327D+00 0.952D+00
 Gap=     0.188 Goal=   None    Shift=    0.000
 RMSDP=1.74D-05 MaxDP=1.13D-03 DE=-3.96D-06 OVMax= 5.77D-04

 Cycle  10  Pass 1  IDiag  1:
 RMSU=  7.28D-06    CP:  5.02D-01  1.62D+00  1.00D+00  1.28D+00  1.31D+00
                    CP:  1.50D+00  1.93D+00  1.96D+00  1.28D+00
 E= -726.570241532617     Delta-E=       -0.000000542861 Rises=F Damp=F
 DIIS: error= 3.32D-06 at cycle  10 NSaved=  10.
 NSaved=10 IEnMin=10 EnMin= -726.570241532617     IErMin=10 ErrMin= 3.32D-06
 ErrMax= 3.32D-06  0.00D+00 EMaxC= 1.00D-01 BMatC= 1.32D-08 BMatP= 1.40D-07
 IDIUse=1 WtCom= 1.00D+00 WtEn= 0.00D+00
 Coeff-Com:  0.225D-03-0.290D-03-0.250D-02-0.375D-02 0.713D-02 0.514D-01
 Coeff-Com:  0.587D-02-0.213D+00-0.911D-01 0.125D+01
 Coeff:      0.225D-03-0.290D-03-0.250D-02-0.375D-02 0.713D-02 0.514D-01
 Coeff:      0.587D-02-0.213D+00-0.911D-01 0.125D+01
 Gap=     0.188 Goal=   None    Shift=    0.000
 RMSDP=6.16D-06 MaxDP=3.93D-04 DE=-5.43D-07 OVMax= 2.05D-04

 Cycle  11  Pass 1  IDiag  1:
 RMSU=  2.83D-06    CP:  5.02D-01  1.62D+00  1.00D+00  1.28D+00  1.31D+00
                    CP:  1.50D+00  1.94D+00  2.04D+00  1.42D+00  1.42D+00
 E= -726.570241596949     Delta-E=       -0.000000064332 Rises=F Damp=F
 DIIS: error= 1.54D-06 at cycle  11 NSaved=  11.
 NSaved=11 IEnMin=11 EnMin= -726.570241596949     IErMin=11 ErrMin= 1.54D-06
 ErrMax= 1.54D-06  0.00D+00 EMaxC= 1.00D-01 BMatC= 2.04D-09 BMatP= 1.32D-08
 IDIUse=1 WtCom= 1.00D+00 WtEn= 0.00D+00
 Coeff-Com:  0.512D-04-0.466D-04-0.606D-03-0.150D-02-0.113D-02 0.202D-01
 Coeff-Com:  0.256D-01-0.665D-01-0.150D+00 0.170D+00 0.100D+01
 Coeff:      0.512D-04-0.466D-04-0.606D-03-0.150D-02-0.113D-02 0.202D-01
 Coeff:      0.256D-01-0.665D-01-0.150D+00 0.170D+00 0.100D+01
 Gap=     0.188 Goal=   None    Shift=    0.000
 RMSDP=1.64D-06 MaxDP=1.15D-04 DE=-6.43D-08 OVMax= 4.71D-05

 Cycle  12  Pass 1  IDiag  1:
 RMSU=  9.45D-07    CP:  5.02D-01  1.62D+00  1.00D+00  1.28D+00  1.31D+00
                    CP:  1.51D+00  1.94D+00  2.05D+00  1.44D+00  1.53D+00
                    CP:  1.26D+00
 E= -726.570241602170     Delta-E=       -0.000000005221 Rises=F Damp=F
 DIIS: error= 4.92D-07 at cycle  12 NSaved=  12.
 NSaved=12 IEnMin=12 EnMin= -726.570241602170     IErMin=12 ErrMin= 4.92D-07
 ErrMax= 4.92D-07  0.00D+00 EMaxC= 1.00D-01 BMatC= 2.09D-10 BMatP= 2.04D-09
 IDIUse=1 WtCom= 1.00D+00 WtEn= 0.00D+00
 Coeff-Com: -0.150D-04 0.233D-04 0.173D-03 0.884D-04-0.115D-02-0.207D-02
 Coeff-Com:  0.408D-02 0.140D-01-0.254D-01-0.997D-01 0.213D+00 0.897D+00
 Coeff:     -0.150D-04 0.233D-04 0.173D-03 0.884D-04-0.115D-02-0.207D-02
 Coeff:      0.408D-02 0.140D-01-0.254D-01-0.997D-01 0.213D+00 0.897D+00
 Gap=     0.188 Goal=   None    Shift=    0.000
 RMSDP=5.77D-07 MaxDP=4.13D-05 DE=-5.22D-09 OVMax= 9.06D-06

 Cycle  13  Pass 1  IDiag  1:
 RMSU=  3.55D-07    CP:  5.02D-01  1.62D+00  1.00D+00  1.28D+00  1.31D+00
                    CP:  1.51D+00  1.94D+00  2.05D+00  1.43D+00  1.54D+00
                    CP:  1.29D+00  1.17D+00
 E= -726.570241602593     Delta-E=       -0.000000000423 Rises=F Damp=F
 DIIS: error= 1.32D-07 at cycle  13 NSaved=  13.
 NSaved=13 IEnMin=13 EnMin= -726.570241602593     IErMin=13 ErrMin= 1.32D-07
 ErrMax= 1.32D-07  0.00D+00 EMaxC= 1.00D-01 BMatC= 2.64D-11 BMatP= 2.09D-10
 IDIUse=1 WtCom= 1.00D+00 WtEn= 0.00D+00
 Coeff-Com: -0.774D-05 0.839D-05 0.913D-04 0.182D-03 0.555D-04-0.262D-02
 Coeff-Com: -0.250D-02 0.101D-01 0.136D-01-0.284D-01-0.112D+00 0.697D-01
 Coeff-Com:  0.105D+01
 Coeff:     -0.774D-05 0.839D-05 0.913D-04 0.182D-03 0.555D-04-0.262D-02
 Coeff:     -0.250D-02 0.101D-01 0.136D-01-0.284D-01-0.112D+00 0.697D-01
 Coeff:      0.105D+01
 Gap=     0.188 Goal=   None    Shift=    0.000
 RMSDP=2.87D-07 MaxDP=2.05D-05 DE=-4.23D-10 OVMax= 2.79D-06

 Cycle  14  Pass 1  IDiag  1:
 RMSU=  1.19D-07    CP:  5.02D-01  1.62D+00  1.00D+00  1.28D+00  1.31D+00
                    CP:  1.51D+00  1.94D+00  2.05D+00  1.43D+00  1.52D+00
                    CP:  1.31D+00  1.28D+00  1.28D+00
 E= -726.570241602707     Delta-E=       -0.000000000114 Rises=F Damp=F
 DIIS: error= 5.60D-08 at cycle  14 NSaved=  14.
 NSaved=14 IEnMin=14 EnMin= -726.570241602707     IErMin=14 ErrMin= 5.60D-08
 ErrMax= 5.60D-08  0.00D+00 EMaxC= 1.00D-01 BMatC= 3.02D-12 BMatP= 2.64D-11
 IDIUse=1 WtCom= 1.00D+00 WtEn= 0.00D+00
 Coeff-Com:  0.541D-06-0.118D-05-0.703D-05 0.238D-05 0.112D-03-0.453D-04
 Coeff-Com: -0.699D-03-0.350D-03 0.316D-02 0.870D-02-0.294D-01-0.914D-01
 Coeff-Com:  0.967D-01 0.101D+01
 Coeff:      0.541D-06-0.118D-05-0.703D-05 0.238D-05 0.112D-03-0.453D-04
 Coeff:     -0.699D-03-0.350D-03 0.316D-02 0.870D-02-0.294D-01-0.914D-01
 Coeff:      0.967D-01 0.101D+01
 Gap=     0.188 Goal=   None    Shift=    0.000
 RMSDP=9.54D-08 MaxDP=7.68D-06 DE=-1.14D-10 OVMax= 1.15D-06

 Cycle  15  Pass 1  IDiag  1:
 RMSU=  4.87D-08    CP:  5.02D-01  1.62D+00  1.00D+00  1.28D+00  1.31D+00
                    CP:  1.51D+00  1.94D+00  2.05D+00  1.42D+00  1.52D+00
                    CP:  1.30D+00  1.29D+00  1.36D+00  1.19D+00
 E= -726.570241602711     Delta-E=       -0.000000000004 Rises=F Damp=F
 DIIS: error= 1.95D-08 at cycle  15 NSaved=  15.
 NSaved=15 IEnMin=15 EnMin= -726.570241602711     IErMin=15 ErrMin= 1.95D-08
 ErrMax= 1.95D-08  0.00D+00 EMaxC= 1.00D-01 BMatC= 5.48D-13 BMatP= 3.02D-12
 IDIUse=1 WtCom= 1.00D+00 WtEn= 0.00D+00
 Coeff-Com:  0.114D-05-0.129D-05-0.118D-04-0.281D-04-0.148D-04 0.409D-03
 Coeff-Com:  0.377D-03-0.129D-02-0.264D-02 0.346D-02 0.214D-01-0.819D-02
 Coeff-Com: -0.173D+00-0.841D-01 0.124D+01
 Coeff:      0.114D-05-0.129D-05-0.118D-04-0.281D-04-0.148D-04 0.409D-03
 Coeff:      0.377D-03-0.129D-02-0.264D-02 0.346D-02 0.214D-01-0.819D-02
 Coeff:     -0.173D+00-0.841D-01 0.124D+01
 Gap=     0.188 Goal=   None    Shift=    0.000
 RMSDP=4.11D-08 MaxDP=3.18D-06 DE=-4.09D-12 OVMax= 8.36D-07

 Cycle  16  Pass 1  IDiag  1:
 RMSU=  2.04D-08    CP:  5.02D-01  1.62D+00  1.00D+00  1.28D+00  1.31D+00
                    CP:  1.51D+00  1.94D+00  2.05D+00  1.42D+00  1.52D+00
                    CP:  1.30D+00  1.29D+00  1.38D+00  1.33D+00  1.39D+00
 E= -726.570241602704     Delta-E=        0.000000000007 Rises=F Damp=F
 DIIS: error= 7.23D-09 at cycle  16 NSaved=  16.
 NSaved=16 IEnMin=15 EnMin= -726.570241602711     IErMin=16 ErrMin= 7.23D-09
 ErrMax= 7.23D-09  0.00D+00 EMaxC= 1.00D-01 BMatC= 9.27D-14 BMatP= 5.48D-13
 IDIUse=1 WtCom= 1.00D+00 WtEn= 0.00D+00
 Coeff-Com:  0.344D-07 0.133D-07 0.325D-06-0.264D-05-0.157D-04 0.315D-04
 Coeff-Com:  0.114D-03-0.443D-06-0.690D-03-0.105D-02 0.625D-02 0.993D-02
 Coeff-Com: -0.216D-01-0.143D+00 0.719D-01 0.108D+01
 Coeff:      0.344D-07 0.133D-07 0.325D-06-0.264D-05-0.157D-04 0.315D-04
 Coeff:      0.114D-03-0.443D-06-0.690D-03-0.105D-02 0.625D-02 0.993D-02
 Coeff:     -0.216D-01-0.143D+00 0.719D-01 0.108D+01
 Gap=     0.188 Goal=   None    Shift=    0.000
 RMSDP=1.43D-08 MaxDP=1.14D-06 DE= 6.82D-12 OVMax= 3.48D-07

 Cycle  17  Pass 1  IDiag  1:
 RMSU=  9.15D-09    CP:  5.02D-01  1.62D+00  1.00D+00  1.28D+00  1.31D+00
                    CP:  1.51D+00  1.94D+00  2.05D+00  1.42D+00  1.52D+00
                    CP:  1.30D+00  1.29D+00  1.38D+00  1.36D+00  1.48D+00
                    CP:  1.35D+00
 E= -726.570241602692     Delta-E=        0.000000000012 Rises=F Damp=F
 DIIS: error= 4.04D-09 at cycle  17 NSaved=  17.
 NSaved=17 IEnMin=15 EnMin= -726.570241602711     IErMin=17 ErrMin= 4.04D-09
 ErrMax= 4.04D-09  0.00D+00 EMaxC= 1.00D-01 BMatC= 1.83D-14 BMatP= 9.27D-14
 IDIUse=1 WtCom= 1.00D+00 WtEn= 0.00D+00
 Coeff-Com: -0.235D-06 0.257D-06 0.273D-05 0.630D-05 0.347D-05-0.940D-04
 Coeff-Com: -0.727D-04 0.287D-03 0.535D-03-0.855D-03-0.412D-02 0.916D-03
 Coeff-Com:  0.387D-01 0.144D-01-0.267D+00 0.262D-01 0.119D+01
 Coeff:     -0.235D-06 0.257D-06 0.273D-05 0.630D-05 0.347D-05-0.940D-04
 Coeff:     -0.727D-04 0.287D-03 0.535D-03-0.855D-03-0.412D-02 0.916D-03
 Coeff:      0.387D-01 0.144D-01-0.267D+00 0.262D-01 0.119D+01
 Gap=     0.188 Goal=   None    Shift=    0.000
 RMSDP=8.47D-09 MaxDP=5.14D-07 DE= 1.23D-11 OVMax= 2.29D-07

 SCF Done:  E(RHF) =  -726.570241603     A.U. after   17 cycles
            NFock= 17  Conv=0.85D-08     -V/T= 2.0011
 KE= 7.257962751778D+02 PE=-3.972606912885D+03 EE= 1.390950597113D+03
 Leave Link  502 at Sun Jul 11 16:33:23 2021, MaxMem=   262144000 cpu:            2652.3 elap:             663.2
 (Enter /prod/apps/gaussian/g16b1/l801.exe)
 ExpMin= 2.97D-02 ExpMax= 1.17D+04 ExpMxC= 4.01D+02 IAcc=3 IRadAn=         5 AccDes= 0.00D+00
 HarFok:  IExCor=  205 AccDes= 0.00D+00 IRadAn=         5 IDoV=-2 UseB2=F ITyADJ=14
 ICtDFT= 12500011 ScaDFX=  1.000000  1.000000  1.000000  1.000000
 Largest valence mixing into a core orbital is  1.14D-04
 Largest core mixing into a valence orbital is  4.34D-05
 Range of M.O.s used for correlation:    18   526
 NBasis=   526 NAE=    61 NBE=    61 NFC=    17 NFV=     0
 NROrb=    509 NOA=    44 NOB=    44 NVA=   465 NVB=   465

 **** Warning!!: The largest alpha MO coefficient is  0.12026381D+03

 Leave Link  801 at Sun Jul 11 16:33:23 2021, MaxMem=   262144000 cpu:               0.9 elap:               0.2
 (Enter /prod/apps/gaussian/g16b1/l906.exe)
 FulOut=F Deriv=F AODrv=F NAtomX=    32
   MMem=           5  MDisk=          44 MDiskD=          44
  W3Min=    11457600 MinDsk=    12229780 NBas6D=         560
 NBas2D=      157833    NTT=      157080    LW2=     2000000
    MDV=   260167885 MDiskM=        6402 NBas2p=      146950
 Disk-based method using OVN memory for 44 occupieds at a time.
 Estimated scratch disk usage=  9279428488 words.
 IMap=   1   2   3   4   5   6   7   8   9  10  11  12  13  14  15  16  17  18  19  20
 IMap=  21  22  23  24  25  26  27  28  29  30  31  32  33  34  35  36  37  38  39  40
 IMap=  41  42  43  44
 Actual    scratch disk usage=  9043378056 words.
 JobTyp=1 Pass  1:  I=   1 to  44 NPSUse=  4 ParTrn=T ParDer=T DoDerP=F.
Erroneous write. Write -1 instead of 5027016.
fd = 4
orig len = 8384512 left = 5027016
g_write
