 Entering Gaussian System, Link 0=g16
 Initial command:
 /prod/apps/gaussian/g16b1/l1.exe "/tmp/ubator02/1834516/Gau-37072.inp" -scrdir="/tmp/ubator02/1834516/"
 Entering Link 1 = /prod/apps/gaussian/g16b1/l1.exe PID=     37076.
  
 Copyright (c) 1988-2017, Gaussian, Inc.  All Rights Reserved.
  
 This is part of the Gaussian(R) 16 program.  It is based on
 the Gaussian(R) 09 system (copyright 2009, Gaussian, Inc.),
 the Gaussian(R) 03 system (copyright 2003, Gaussian, Inc.),
 the Gaussian(R) 98 system (copyright 1998, Gaussian, Inc.),
 the Gaussian(R) 94 system (copyright 1995, Gaussian, Inc.),
 the Gaussian 92(TM) system (copyright 1992, Gaussian, Inc.),
 the Gaussian 90(TM) system (copyright 1990, Gaussian, Inc.),
 the Gaussian 88(TM) system (copyright 1988, Gaussian, Inc.),
 the Gaussian 86(TM) system (copyright 1986, Carnegie Mellon
 University), and the Gaussian 82(TM) system (copyright 1983,
 Carnegie Mellon University). Gaussian is a federally registered
 trademark of Gaussian, Inc.
  
 This software contains proprietary and confidential information,
 including trade secrets, belonging to Gaussian, Inc.
  
 This software is provided under written license and may be
 used, copied, transmitted, or stored only in accord with that
 written license.
  
 The following legend is applicable only to US Government
 contracts under FAR:
  
                    RESTRICTED RIGHTS LEGEND
  
 Use, reproduction and disclosure by the US Government is
 subject to restrictions as set forth in subparagraphs (a)
 and (c) of the Commercial Computer Software - Restricted
 Rights clause in FAR 52.227-19.
  
 Gaussian, Inc.
 340 Quinnipiac St., Bldg. 40, Wallingford CT 06492
  
  
 ---------------------------------------------------------------
 Warning -- This program may not be used in any manner that
 competes with the business of Gaussian, Inc. or will provide
 assistance to any competitor of Gaussian, Inc.  The licensee
 of this program is prohibited from giving any competitor of
 Gaussian, Inc. access to this program.  By using this program,
 the user acknowledges that Gaussian, Inc. is engaged in the
 business of creating and licensing software in the field of
 computational chemistry and represents and warrants to the
 licensee that it is not a competitor of Gaussian, Inc. and that
 it will not use this program in any manner prohibited above.
 ---------------------------------------------------------------
  

 Cite this work as:
 Gaussian 16, Revision B.01,
 M. J. Frisch, G. W. Trucks, H. B. Schlegel, G. E. Scuseria, 
 M. A. Robb, J. R. Cheeseman, G. Scalmani, V. Barone, 
 G. A. Petersson, H. Nakatsuji, X. Li, M. Caricato, A. V. Marenich, 
 J. Bloino, B. G. Janesko, R. Gomperts, B. Mennucci, H. P. Hratchian, 
 J. V. Ortiz, A. F. Izmaylov, J. L. Sonnenberg, D. Williams-Young, 
 F. Ding, F. Lipparini, F. Egidi, J. Goings, B. Peng, A. Petrone, 
 T. Henderson, D. Ranasinghe, V. G. Zakrzewski, J. Gao, N. Rega, 
 G. Zheng, W. Liang, M. Hada, M. Ehara, K. Toyota, R. Fukuda, 
 J. Hasegawa, M. Ishida, T. Nakajima, Y. Honda, O. Kitao, H. Nakai, 
 T. Vreven, K. Throssell, J. A. Montgomery, Jr., J. E. Peralta, 
 F. Ogliaro, M. J. Bearpark, J. J. Heyd, E. N. Brothers, K. N. Kudin, 
 V. N. Staroverov, T. A. Keith, R. Kobayashi, J. Normand, 
 K. Raghavachari, A. P. Rendell, J. C. Burant, S. S. Iyengar, 
 J. Tomasi, M. Cossi, J. M. Millam, M. Klene, C. Adamo, R. Cammi, 
 J. W. Ochterski, R. L. Martin, K. Morokuma, O. Farkas, 
 J. B. Foresman, and D. J. Fox, Gaussian, Inc., Wallingford CT, 2016.
 
 ******************************************
 Gaussian 16:  ES64L-G16RevB.01 20-Dec-2017
                11-Jul-2021 
 ******************************************
 %mem=800MB
 %nproc=4
 Will use up to    4 processors via shared memory.
 %chk=SET_328_BBB2_conf1.geo_225_285.chk
 -----------------------------------------------------------
 #p b3lyp/6-31G(d) opt freq scrf=(iefpcm,read,solvent=water)
 -----------------------------------------------------------
 1/18=20,19=15,26=3,38=1,40=2/1,3;
 2/9=110,12=2,17=6,18=5,40=1/2;
 3/5=1,6=6,7=1,11=2,25=1,30=1,70=2203,71=1,72=1,74=-5/1,2,3;
 4//1;
 5/5=2,38=5,53=1/2;
 6/7=2,8=2,9=2,10=2,28=1/1;
 7//1,2,3,16;
 1/18=20,19=15,26=3/3(2);
 2/9=110/2;
 99//99;
 2/9=110/2;
 3/5=1,6=6,7=1,11=2,25=1,30=1,70=2205,71=1,72=1,74=-5/1,2,3;
 4/5=5,16=3,69=1/1;
 5/5=2,38=5,53=1/2;
 7//1,2,3,16;
 1/18=20,19=15,26=3/3(-5);
 2/9=110/2;
 6/7=2,8=2,9=2,10=2,19=2,28=1/1;
 99/9=1/99;
 Leave Link    1 at Sun Jul 11 15:54:11 2021, MaxMem=   104857600 cpu:               0.1 elap:               0.0
 (Enter /prod/apps/gaussian/g16b1/l101.exe)
 ---------------------------------------
 SET_328_BBB2_conf1.geo_225_285 geometry
 ---------------------------------------
 Symbolic Z-matrix:
 Charge =  1 Multiplicity = 1
 C                    -3.236     2.278     1.924 
 H                    -2.67      2.078     2.838 
 H                    -4.116     1.63      1.912 
 H                    -3.558     3.319     2.01 
 N                    -2.391     2.116     0.716 
 H                    -1.592     2.708     0.823 
 C                    -1.91      0.783     0.391 
 C                    -0.771     0.34      1.307 
 C                     0.517     0.193     0.838 
 C                     1.462    -0.408     1.695 
 C                     1.131    -0.809     2.994 
 C                    -0.141    -0.597     3.451 
 C                    -1.114    -0.126     2.587 
 H                    -2.147    -0.231     2.909 
 H                    -0.384    -0.836     4.483 
 H                     1.871    -1.215     3.68 
 H                     2.45     -0.583     1.275 
 H                    -2.782     0.143     0.549 
 C                    -1.536     0.867    -1.083 
 H                    -2.184     1.493    -1.7 
 H                    -1.564    -0.142    -1.499 
 C                    -0.065     1.458    -1.288 
 H                     0.017     2.408    -0.756 
 H                     0.297     1.728    -2.282 
 C                     0.981     0.561    -0.555 
 H                     1.888     1.133    -0.352 
 C                     1.464    -0.55     -1.412 
 C                     0.741    -1.751    -1.533 
 H                    -0.15     -1.926    -0.935 
 C                     1.182    -2.792    -2.415 
 Cl                    0.267    -4.266    -2.308 
 C                     2.365    -2.66     -3.132 
 Cl                    2.954    -3.746    -4.26 
 C                     3.07     -1.453    -2.977 
 H                     3.932    -1.342    -3.63 
 C                     2.626    -0.407    -2.149 
 H                     3.112     0.565    -2.157 
 H                    -2.916     2.448    -0.068 
 
 ITRead=  0  0  0  0  0  0  0  0  0  0  0  0  0  0  0  0  0  0  0  0
 ITRead=  0  0  0  0  0  0  0  0  0  0  0  0  0  0  0  0  0  0
 MicOpt= -1 -1 -1 -1 -1 -1 -1 -1 -1 -1 -1 -1 -1 -1 -1 -1 -1 -1 -1 -1
 MicOpt= -1 -1 -1 -1 -1 -1 -1 -1 -1 -1 -1 -1 -1 -1 -1 -1 -1 -1
 NAtoms=     38 NQM=       38 NQMF=       0 NMMI=      0 NMMIF=      0
                NMic=       0 NMicF=      0.
                    Isotopes and Nuclear Properties:
 (Nuclear quadrupole moments (NQMom) in fm**2, nuclear magnetic moments (NMagM)
  in nuclear magnetons)

  Atom         1           2           3           4           5           6           7           8           9          10
 IAtWgt=          12           1           1           1          14           1          12          12          12          12
 AtmWgt=  12.0000000   1.0078250   1.0078250   1.0078250  14.0030740   1.0078250  12.0000000  12.0000000  12.0000000  12.0000000
 NucSpn=           0           1           1           1           2           1           0           0           0           0
 AtZEff=  -0.0000000  -0.0000000  -0.0000000  -0.0000000  -0.0000000  -0.0000000  -0.0000000  -0.0000000  -0.0000000  -0.0000000
 NQMom=    0.0000000   0.0000000   0.0000000   0.0000000   2.0440000   0.0000000   0.0000000   0.0000000   0.0000000   0.0000000
 NMagM=    0.0000000   2.7928460   2.7928460   2.7928460   0.4037610   2.7928460   0.0000000   0.0000000   0.0000000   0.0000000
 AtZNuc=   6.0000000   1.0000000   1.0000000   1.0000000   7.0000000   1.0000000   6.0000000   6.0000000   6.0000000   6.0000000

  Atom        11          12          13          14          15          16          17          18          19          20
 IAtWgt=          12          12          12           1           1           1           1           1          12           1
 AtmWgt=  12.0000000  12.0000000  12.0000000   1.0078250   1.0078250   1.0078250   1.0078250   1.0078250  12.0000000   1.0078250
 NucSpn=           0           0           0           1           1           1           1           1           0           1
 AtZEff=  -0.0000000  -0.0000000  -0.0000000  -0.0000000  -0.0000000  -0.0000000  -0.0000000  -0.0000000  -0.0000000  -0.0000000
 NQMom=    0.0000000   0.0000000   0.0000000   0.0000000   0.0000000   0.0000000   0.0000000   0.0000000   0.0000000   0.0000000
 NMagM=    0.0000000   0.0000000   0.0000000   2.7928460   2.7928460   2.7928460   2.7928460   2.7928460   0.0000000   2.7928460
 AtZNuc=   6.0000000   6.0000000   6.0000000   1.0000000   1.0000000   1.0000000   1.0000000   1.0000000   6.0000000   1.0000000

  Atom        21          22          23          24          25          26          27          28          29          30
 IAtWgt=           1          12           1           1          12           1          12          12           1          12
 AtmWgt=   1.0078250  12.0000000   1.0078250   1.0078250  12.0000000   1.0078250  12.0000000  12.0000000   1.0078250  12.0000000
 NucSpn=           1           0           1           1           0           1           0           0           1           0
 AtZEff=  -0.0000000  -0.0000000  -0.0000000  -0.0000000  -0.0000000  -0.0000000  -0.0000000  -0.0000000  -0.0000000  -0.0000000
 NQMom=    0.0000000   0.0000000   0.0000000   0.0000000   0.0000000   0.0000000   0.0000000   0.0000000   0.0000000   0.0000000
 NMagM=    2.7928460   0.0000000   2.7928460   2.7928460   0.0000000   2.7928460   0.0000000   0.0000000   2.7928460   0.0000000
 AtZNuc=   1.0000000   6.0000000   1.0000000   1.0000000   6.0000000   1.0000000   6.0000000   6.0000000   1.0000000   6.0000000

  Atom        31          32          33          34          35          36          37          38
 IAtWgt=          35          12          35          12           1          12           1           1
 AtmWgt=  34.9688527  12.0000000  34.9688527  12.0000000   1.0078250  12.0000000   1.0078250   1.0078250
 NucSpn=           3           0           3           0           1           0           1           1
 AtZEff=  -0.0000000  -0.0000000  -0.0000000  -0.0000000  -0.0000000  -0.0000000  -0.0000000  -0.0000000
 NQMom=   -8.1650000   0.0000000  -8.1650000   0.0000000   0.0000000   0.0000000   0.0000000   0.0000000
 NMagM=    0.8218740   0.0000000   0.8218740   0.0000000   2.7928460   0.0000000   2.7928460   2.7928460
 AtZNuc=  17.0000000   6.0000000  17.0000000   6.0000000   1.0000000   6.0000000   1.0000000   1.0000000
 Leave Link  101 at Sun Jul 11 15:54:11 2021, MaxMem=   104857600 cpu:               0.5 elap:               0.1
 (Enter /prod/apps/gaussian/g16b1/l103.exe)

 GradGradGradGradGradGradGradGradGradGradGradGradGradGradGradGradGradGrad
 Berny optimization.
 Initialization pass.
                           ----------------------------
                           !    Initial Parameters    !
                           ! (Angstroms and Degrees)  !
 --------------------------                            --------------------------
 ! Name  Definition              Value          Derivative Info.                !
 --------------------------------------------------------------------------------
 ! R1    R(1,2)                  1.0935         estimate D2E/DX2                !
 ! R2    R(1,3)                  1.0929         estimate D2E/DX2                !
 ! R3    R(1,4)                  1.0931         estimate D2E/DX2                !
 ! R4    R(1,5)                  1.4831         estimate D2E/DX2                !
 ! R5    R(5,6)                  1.0002         estimate D2E/DX2                !
 ! R6    R(5,7)                  1.4539         estimate D2E/DX2                !
 ! R7    R(5,38)                 1.0003         estimate D2E/DX2                !
 ! R8    R(7,8)                  1.5273         estimate D2E/DX2                !
 ! R9    R(7,18)                 1.0931         estimate D2E/DX2                !
 ! R10   R(7,19)                 1.523          estimate D2E/DX2                !
 ! R11   R(8,9)                  1.3786         estimate D2E/DX2                !
 ! R12   R(8,13)                 1.4047         estimate D2E/DX2                !
 ! R13   R(9,10)                 1.4102         estimate D2E/DX2                !
 ! R14   R(9,25)                 1.5137         estimate D2E/DX2                !
 ! R15   R(10,11)                1.3992         estimate D2E/DX2                !
 ! R16   R(10,17)                1.0877         estimate D2E/DX2                !
 ! R17   R(11,12)                1.3681         estimate D2E/DX2                !
 ! R18   R(11,16)                1.0877         estimate D2E/DX2                !
 ! R19   R(12,13)                1.3839         estimate D2E/DX2                !
 ! R20   R(12,15)                1.0868         estimate D2E/DX2                !
 ! R21   R(13,14)                1.0871         estimate D2E/DX2                !
 ! R22   R(19,20)                1.092          estimate D2E/DX2                !
 ! R23   R(19,21)                1.0918         estimate D2E/DX2                !
 ! R24   R(19,22)                1.5985         estimate D2E/DX2                !
 ! R25   R(22,23)                1.0919         estimate D2E/DX2                !
 ! R26   R(22,24)                1.0918         estimate D2E/DX2                !
 ! R27   R(22,25)                1.5608         estimate D2E/DX2                !
 ! R28   R(25,26)                1.0913         estimate D2E/DX2                !
 ! R29   R(25,27)                1.4839         estimate D2E/DX2                !
 ! R30   R(27,28)                1.407          estimate D2E/DX2                !
 ! R31   R(27,36)                1.3834         estimate D2E/DX2                !
 ! R32   R(28,29)                1.0872         estimate D2E/DX2                !
 ! R33   R(28,30)                1.4339         estimate D2E/DX2                !
 ! R34   R(30,31)                1.7382         estimate D2E/DX2                !
 ! R35   R(30,32)                1.3896         estimate D2E/DX2                !
 ! R36   R(32,33)                1.6729         estimate D2E/DX2                !
 ! R37   R(32,34)                1.4064         estimate D2E/DX2                !
 ! R38   R(34,35)                1.0871         estimate D2E/DX2                !
 ! R39   R(34,36)                1.406          estimate D2E/DX2                !
 ! R40   R(36,37)                1.0868         estimate D2E/DX2                !
 ! A1    A(2,1,3)              108.512          estimate D2E/DX2                !
 ! A2    A(2,1,4)              105.1238         estimate D2E/DX2                !
 ! A3    A(2,1,5)              111.4645         estimate D2E/DX2                !
 ! A4    A(3,1,4)              109.1682         estimate D2E/DX2                !
 ! A5    A(3,1,5)              112.6473         estimate D2E/DX2                !
 ! A6    A(4,1,5)              109.6309         estimate D2E/DX2                !
 ! A7    A(1,5,6)              107.6602         estimate D2E/DX2                !
 ! A8    A(1,5,7)              118.0807         estimate D2E/DX2                !
 ! A9    A(1,5,38)             107.645          estimate D2E/DX2                !
 ! A10   A(6,5,7)              107.596          estimate D2E/DX2                !
 ! A11   A(6,5,38)             107.8601         estimate D2E/DX2                !
 ! A12   A(7,5,38)             107.6227         estimate D2E/DX2                !
 ! A13   A(5,7,8)              112.2463         estimate D2E/DX2                !
 ! A14   A(5,7,18)             103.9199         estimate D2E/DX2                !
 ! A15   A(5,7,19)             104.3008         estimate D2E/DX2                !
 ! A16   A(8,7,18)             109.779          estimate D2E/DX2                !
 ! A17   A(8,7,19)             114.4131         estimate D2E/DX2                !
 ! A18   A(18,7,19)            111.5962         estimate D2E/DX2                !
 ! A19   A(7,8,9)              121.5773         estimate D2E/DX2                !
 ! A20   A(7,8,13)             117.4279         estimate D2E/DX2                !
 ! A21   A(9,8,13)             120.1827         estimate D2E/DX2                !
 ! A22   A(8,9,10)             117.6959         estimate D2E/DX2                !
 ! A23   A(8,9,25)             124.9987         estimate D2E/DX2                !
 ! A24   A(10,9,25)            117.2236         estimate D2E/DX2                !
 ! A25   A(9,10,11)            121.8575         estimate D2E/DX2                !
 ! A26   A(9,10,17)            116.269          estimate D2E/DX2                !
 ! A27   A(11,10,17)           121.8189         estimate D2E/DX2                !
 ! A28   A(10,11,12)           119.0547         estimate D2E/DX2                !
 ! A29   A(10,11,16)           122.1115         estimate D2E/DX2                !
 ! A30   A(12,11,16)           118.6667         estimate D2E/DX2                !
 ! A31   A(11,12,13)           119.8607         estimate D2E/DX2                !
 ! A32   A(11,12,15)           119.4052         estimate D2E/DX2                !
 ! A33   A(13,12,15)           120.6962         estimate D2E/DX2                !
 ! A34   A(8,13,12)            120.673          estimate D2E/DX2                !
 ! A35   A(8,13,14)            122.2742         estimate D2E/DX2                !
 ! A36   A(12,13,14)           116.7635         estimate D2E/DX2                !
 ! A37   A(7,19,20)            115.6408         estimate D2E/DX2                !
 ! A38   A(7,19,21)            108.1498         estimate D2E/DX2                !
 ! A39   A(7,19,22)            111.7458         estimate D2E/DX2                !
 ! A40   A(20,19,21)           107.4153         estimate D2E/DX2                !
 ! A41   A(20,19,22)           105.1692         estimate D2E/DX2                !
 ! A42   A(21,19,22)           108.4475         estimate D2E/DX2                !
 ! A43   A(19,22,23)           109.1657         estimate D2E/DX2                !
 ! A44   A(19,22,24)           120.8853         estimate D2E/DX2                !
 ! A45   A(19,22,25)           110.1217         estimate D2E/DX2                !
 ! A46   A(23,22,24)           101.7431         estimate D2E/DX2                !
 ! A47   A(23,22,25)           102.7606         estimate D2E/DX2                !
 ! A48   A(24,22,25)           110.3342         estimate D2E/DX2                !
 ! A49   A(9,25,22)            111.4992         estimate D2E/DX2                !
 ! A50   A(9,25,26)            102.1812         estimate D2E/DX2                !
 ! A51   A(9,25,27)            116.6948         estimate D2E/DX2                !
 ! A52   A(22,25,26)           110.0665         estimate D2E/DX2                !
 ! A53   A(22,25,27)           112.1597         estimate D2E/DX2                !
 ! A54   A(26,25,27)           103.2571         estimate D2E/DX2                !
 ! A55   A(25,27,28)           121.4306         estimate D2E/DX2                !
 ! A56   A(25,27,36)           120.2429         estimate D2E/DX2                !
 ! A57   A(28,27,36)           118.2954         estimate D2E/DX2                !
 ! A58   A(27,28,29)           120.7426         estimate D2E/DX2                !
 ! A59   A(27,28,30)           120.9667         estimate D2E/DX2                !
 ! A60   A(29,28,30)           118.2617         estimate D2E/DX2                !
 ! A61   A(28,30,31)           114.5747         estimate D2E/DX2                !
 ! A62   A(28,30,32)           120.6798         estimate D2E/DX2                !
 ! A63   A(31,30,32)           124.0873         estimate D2E/DX2                !
 ! A64   A(30,32,33)           125.8715         estimate D2E/DX2                !
 ! A65   A(30,32,34)           116.8345         estimate D2E/DX2                !
 ! A66   A(33,32,34)           117.0618         estimate D2E/DX2                !
 ! A67   A(32,34,35)           114.7664         estimate D2E/DX2                !
 ! A68   A(32,34,36)           123.0308         estimate D2E/DX2                !
 ! A69   A(35,34,36)           121.8829         estimate D2E/DX2                !
 ! A70   A(27,36,34)           120.1375         estimate D2E/DX2                !
 ! A71   A(27,36,37)           118.1641         estimate D2E/DX2                !
 ! A72   A(34,36,37)           121.3214         estimate D2E/DX2                !
 ! D1    D(2,1,5,6)            -55.2336         estimate D2E/DX2                !
 ! D2    D(2,1,5,7)             66.734          estimate D2E/DX2                !
 ! D3    D(2,1,5,38)          -171.2751         estimate D2E/DX2                !
 ! D4    D(3,1,5,6)           -177.4909         estimate D2E/DX2                !
 ! D5    D(3,1,5,7)            -55.5232         estimate D2E/DX2                !
 ! D6    D(3,1,5,38)            66.4676         estimate D2E/DX2                !
 ! D7    D(4,1,5,6)             60.7363         estimate D2E/DX2                !
 ! D8    D(4,1,5,7)           -177.2961         estimate D2E/DX2                !
 ! D9    D(4,1,5,38)           -55.3052         estimate D2E/DX2                !
 ! D10   D(1,5,7,8)            -75.089          estimate D2E/DX2                !
 ! D11   D(1,5,7,18)            43.4688         estimate D2E/DX2                !
 ! D12   D(1,5,7,19)           160.5018         estimate D2E/DX2                !
 ! D13   D(6,5,7,8)             46.9113         estimate D2E/DX2                !
 ! D14   D(6,5,7,18)           165.4691         estimate D2E/DX2                !
 ! D15   D(6,5,7,19)           -77.4979         estimate D2E/DX2                !
 ! D16   D(38,5,7,8)           162.9088         estimate D2E/DX2                !
 ! D17   D(38,5,7,18)          -78.5334         estimate D2E/DX2                !
 ! D18   D(38,5,7,19)           38.4996         estimate D2E/DX2                !
 ! D19   D(5,7,8,9)           -111.1614         estimate D2E/DX2                !
 ! D20   D(5,7,8,13)            79.1453         estimate D2E/DX2                !
 ! D21   D(18,7,8,9)           133.7956         estimate D2E/DX2                !
 ! D22   D(18,7,8,13)          -35.8978         estimate D2E/DX2                !
 ! D23   D(19,7,8,9)             7.4419         estimate D2E/DX2                !
 ! D24   D(19,7,8,13)         -162.2515         estimate D2E/DX2                !
 ! D25   D(5,7,19,20)          -36.4727         estimate D2E/DX2                !
 ! D26   D(5,7,19,21)         -156.9182         estimate D2E/DX2                !
 ! D27   D(5,7,19,22)           83.7889         estimate D2E/DX2                !
 ! D28   D(8,7,19,20)         -159.481          estimate D2E/DX2                !
 ! D29   D(8,7,19,21)           80.0735         estimate D2E/DX2                !
 ! D30   D(8,7,19,22)          -39.2194         estimate D2E/DX2                !
 ! D31   D(18,7,19,20)          75.114          estimate D2E/DX2                !
 ! D32   D(18,7,19,21)         -45.3315         estimate D2E/DX2                !
 ! D33   D(18,7,19,22)        -164.6244         estimate D2E/DX2                !
 ! D34   D(7,8,9,10)          -170.724          estimate D2E/DX2                !
 ! D35   D(7,8,9,25)             5.8849         estimate D2E/DX2                !
 ! D36   D(13,8,9,10)           -1.3099         estimate D2E/DX2                !
 ! D37   D(13,8,9,25)          175.299          estimate D2E/DX2                !
 ! D38   D(7,8,13,12)          177.2589         estimate D2E/DX2                !
 ! D39   D(7,8,13,14)            3.6375         estimate D2E/DX2                !
 ! D40   D(9,8,13,12)            7.415          estimate D2E/DX2                !
 ! D41   D(9,8,13,14)         -166.2064         estimate D2E/DX2                !
 ! D42   D(8,9,10,11)           -1.9535         estimate D2E/DX2                !
 ! D43   D(8,9,10,17)          175.4037         estimate D2E/DX2                !
 ! D44   D(25,9,10,11)        -178.8299         estimate D2E/DX2                !
 ! D45   D(25,9,10,17)          -1.4727         estimate D2E/DX2                !
 ! D46   D(8,9,25,22)           14.5122         estimate D2E/DX2                !
 ! D47   D(8,9,25,26)          132.0472         estimate D2E/DX2                !
 ! D48   D(8,9,25,27)         -116.1671         estimate D2E/DX2                !
 ! D49   D(10,9,25,22)        -168.8644         estimate D2E/DX2                !
 ! D50   D(10,9,25,26)         -51.3294         estimate D2E/DX2                !
 ! D51   D(10,9,25,27)          60.4563         estimate D2E/DX2                !
 ! D52   D(9,10,11,12)          -0.8162         estimate D2E/DX2                !
 ! D53   D(9,10,11,16)        -176.053          estimate D2E/DX2                !
 ! D54   D(17,10,11,12)       -178.0271         estimate D2E/DX2                !
 ! D55   D(17,10,11,16)          6.7361         estimate D2E/DX2                !
 ! D56   D(10,11,12,13)          6.8805         estimate D2E/DX2                !
 ! D57   D(10,11,12,15)       -175.3441         estimate D2E/DX2                !
 ! D58   D(16,11,12,13)       -177.7172         estimate D2E/DX2                !
 ! D59   D(16,11,12,15)          0.0582         estimate D2E/DX2                !
 ! D60   D(11,12,13,8)         -10.2553         estimate D2E/DX2                !
 ! D61   D(11,12,13,14)        163.7058         estimate D2E/DX2                !
 ! D62   D(15,12,13,8)         171.9985         estimate D2E/DX2                !
 ! D63   D(15,12,13,14)        -14.0403         estimate D2E/DX2                !
 ! D64   D(7,19,22,23)         -53.103          estimate D2E/DX2                !
 ! D65   D(7,19,22,24)        -170.4231         estimate D2E/DX2                !
 ! D66   D(7,19,22,25)          59.0066         estimate D2E/DX2                !
 ! D67   D(20,19,22,23)         73.1138         estimate D2E/DX2                !
 ! D68   D(20,19,22,24)        -44.2064         estimate D2E/DX2                !
 ! D69   D(20,19,22,25)       -174.7766         estimate D2E/DX2                !
 ! D70   D(21,19,22,23)       -172.2197         estimate D2E/DX2                !
 ! D71   D(21,19,22,24)         70.4601         estimate D2E/DX2                !
 ! D72   D(21,19,22,25)        -60.1101         estimate D2E/DX2                !
 ! D73   D(19,22,25,9)         -45.1546         estimate D2E/DX2                !
 ! D74   D(19,22,25,26)       -157.8185         estimate D2E/DX2                !
 ! D75   D(19,22,25,27)         87.8269         estimate D2E/DX2                !
 ! D76   D(23,22,25,9)          71.0431         estimate D2E/DX2                !
 ! D77   D(23,22,25,26)        -41.6207         estimate D2E/DX2                !
 ! D78   D(23,22,25,27)       -155.9754         estimate D2E/DX2                !
 ! D79   D(24,22,25,9)         178.89           estimate D2E/DX2                !
 ! D80   D(24,22,25,26)         66.2262         estimate D2E/DX2                !
 ! D81   D(24,22,25,27)        -48.1285         estimate D2E/DX2                !
 ! D82   D(9,25,27,28)          46.9744         estimate D2E/DX2                !
 ! D83   D(9,25,27,36)        -135.0898         estimate D2E/DX2                !
 ! D84   D(22,25,27,28)        -83.3954         estimate D2E/DX2                !
 ! D85   D(22,25,27,36)         94.5404         estimate D2E/DX2                !
 ! D86   D(26,25,27,28)        158.1428         estimate D2E/DX2                !
 ! D87   D(26,25,27,36)        -23.9213         estimate D2E/DX2                !
 ! D88   D(25,27,28,29)         -5.1211         estimate D2E/DX2                !
 ! D89   D(25,27,28,30)        176.8694         estimate D2E/DX2                !
 ! D90   D(36,27,28,29)        176.9041         estimate D2E/DX2                !
 ! D91   D(36,27,28,30)         -1.1054         estimate D2E/DX2                !
 ! D92   D(25,27,36,34)       -178.9674         estimate D2E/DX2                !
 ! D93   D(25,27,36,37)         -5.9226         estimate D2E/DX2                !
 ! D94   D(28,27,36,34)         -0.9677         estimate D2E/DX2                !
 ! D95   D(28,27,36,37)        172.0772         estimate D2E/DX2                !
 ! D96   D(27,28,30,31)        173.6636         estimate D2E/DX2                !
 ! D97   D(27,28,30,32)          2.5921         estimate D2E/DX2                !
 ! D98   D(29,28,30,31)         -4.3942         estimate D2E/DX2                !
 ! D99   D(29,28,30,32)       -175.4657         estimate D2E/DX2                !
 ! D100  D(28,30,32,33)       -176.1286         estimate D2E/DX2                !
 ! D101  D(28,30,32,34)         -1.8532         estimate D2E/DX2                !
 ! D102  D(31,30,32,33)         13.6839         estimate D2E/DX2                !
 ! D103  D(31,30,32,34)       -172.0407         estimate D2E/DX2                !
 ! D104  D(30,32,34,35)       -173.848          estimate D2E/DX2                !
 ! D105  D(30,32,34,36)         -0.2407         estimate D2E/DX2                !
 ! D106  D(33,32,34,35)          0.9443         estimate D2E/DX2                !
 ! D107  D(33,32,34,36)        174.5517         estimate D2E/DX2                !
 ! D108  D(32,34,36,27)          1.7007         estimate D2E/DX2                !
 ! D109  D(32,34,36,37)       -171.1205         estimate D2E/DX2                !
 ! D110  D(35,34,36,27)        174.8626         estimate D2E/DX2                !
 ! D111  D(35,34,36,37)          2.0414         estimate D2E/DX2                !
 --------------------------------------------------------------------------------
 Trust Radius=3.00D-01 FncErr=1.00D-07 GrdErr=1.00D-06 EigMax=2.50D+02 EigMin=1.00D-04
 Number of steps in this run=    228 maximum allowed number of steps=    228.
 GradGradGradGradGradGradGradGradGradGradGradGradGradGradGradGradGradGrad

 Leave Link  103 at Sun Jul 11 15:54:11 2021, MaxMem=   104857600 cpu:               0.1 elap:               0.0
 (Enter /prod/apps/gaussian/g16b1/l202.exe)
                          Input orientation:                          
 ---------------------------------------------------------------------
 Center     Atomic      Atomic             Coordinates (Angstroms)
 Number     Number       Type             X           Y           Z
 ---------------------------------------------------------------------
      1          6           0       -3.236000    2.278000    1.924000
      2          1           0       -2.670000    2.078000    2.838000
      3          1           0       -4.116000    1.630000    1.912000
      4          1           0       -3.558000    3.319000    2.010000
      5          7           0       -2.391000    2.116000    0.716000
      6          1           0       -1.592000    2.708000    0.823000
      7          6           0       -1.910000    0.783000    0.391000
      8          6           0       -0.771000    0.340000    1.307000
      9          6           0        0.517000    0.193000    0.838000
     10          6           0        1.462000   -0.408000    1.695000
     11          6           0        1.131000   -0.809000    2.994000
     12          6           0       -0.141000   -0.597000    3.451000
     13          6           0       -1.114000   -0.126000    2.587000
     14          1           0       -2.147000   -0.231000    2.909000
     15          1           0       -0.384000   -0.836000    4.483000
     16          1           0        1.871000   -1.215000    3.680000
     17          1           0        2.450000   -0.583000    1.275000
     18          1           0       -2.782000    0.143000    0.549000
     19          6           0       -1.536000    0.867000   -1.083000
     20          1           0       -2.184000    1.493000   -1.700000
     21          1           0       -1.564000   -0.142000   -1.499000
     22          6           0       -0.065000    1.458000   -1.288000
     23          1           0        0.017000    2.408000   -0.756000
     24          1           0        0.297000    1.728000   -2.282000
     25          6           0        0.981000    0.561000   -0.555000
     26          1           0        1.888000    1.133000   -0.352000
     27          6           0        1.464000   -0.550000   -1.412000
     28          6           0        0.741000   -1.751000   -1.533000
     29          1           0       -0.150000   -1.926000   -0.935000
     30          6           0        1.182000   -2.792000   -2.415000
     31         17           0        0.267000   -4.266000   -2.308000
     32          6           0        2.365000   -2.660000   -3.132000
     33         17           0        2.954000   -3.746000   -4.260000
     34          6           0        3.070000   -1.453000   -2.977000
     35          1           0        3.932000   -1.342000   -3.630000
     36          6           0        2.626000   -0.407000   -2.149000
     37          1           0        3.112000    0.565000   -2.157000
     38          1           0       -2.916000    2.448000   -0.068000
 ---------------------------------------------------------------------
                    Distance matrix (angstroms):
                    1          2          3          4          5
     1  C    0.000000
     2  H    1.093504   0.000000
     3  H    1.092908   1.774569   0.000000
     4  H    1.093051   1.736148   1.781485   0.000000
     5  N    1.483082   2.140600   2.154585   2.117436   0.000000
     6  H    2.024805   2.370487   2.952724   2.376436   1.000157
     7  C    2.518609   2.870964   2.810211   3.430504   1.453917
     8  C    3.195741   2.995130   3.635815   4.139567   2.475451
     9  C    4.428502   4.208348   4.968212   5.267930   3.488449
    10  C    5.416479   4.955812   5.942610   6.260204   4.708994
    11  C    5.453912   4.775637   5.886464   6.324189   5.113648
    12  C    4.491812   3.731921   4.809228   5.393276   4.461288
    13  C    3.274396   2.709567   3.542762   4.263108   3.187151
    14  H    2.907099   2.368555   2.886917   3.924490   3.221365
    15  H    4.937548   4.052557   5.159362   5.783946   5.189667
    16  H    6.431643   5.672168   6.860322   7.267744   6.168104
    17  H    6.398212   5.978151   6.958124   7.201520   5.570670
    18  H    2.579722   2.999382   2.418366   3.581016   2.018291
    19  C    3.731350   4.257548   4.025990   4.434798   2.351048
    20  H    3.854388   4.601289   4.098529   4.357322   2.503604
    21  H    4.513193   4.996119   4.613850   5.316732   3.269360
    22  C    4.587438   4.918770   5.165287   5.151813   3.139945
    23  H    4.216789   4.499523   4.980482   4.610998   2.837342
    24  H    5.520419   5.927899   6.088827   5.984444   4.045231
    25  C    5.184266   5.209946   5.762661   5.898162   3.924774
    26  H    5.722462   5.643092   6.435893   6.325864   4.518490
    27  C    6.420006   6.485279   6.851115   7.204147   5.147520
    28  C    6.633266   6.738086   6.847601   7.532539   5.460871
    29  H    5.947343   6.051276   6.039843   6.913575   4.907713
    30  C    8.003158   8.133192   8.145294   8.910249   6.830663
    31  Cl   8.544283   8.680646   8.472420   9.529322   7.545824
    32  C    9.017659   9.134592   9.265495   9.862583   7.761238
    33  Cl  10.622925  10.767077  10.815723  11.473154   9.364435
    34  C    8.815089   8.901112   9.222028   9.569354   7.496568
    35  H    9.763787   9.854838  10.213562  10.470655   8.415807
    36  C    7.626375   7.687198   8.129923   8.331999   6.304288
    37  H    7.738607   7.789141   8.362713   8.332905   6.398651
    38  H    2.024689   2.939771   2.455509   2.342838   1.000252
                    6          7          8          9         10
     6  H    0.000000
     7  C    1.998343   0.000000
     8  C    2.552591   1.527294   0.000000
     9  C    3.282275   2.537368   1.378591   0.000000
    10  C    4.449355   3.806479   2.386700   1.410204   0.000000
    11  C    4.949471   4.307871   2.789942   2.455471   1.399201
    12  C    4.464842   3.794385   2.423139   2.807994   2.385134
    13  C    3.372200   2.506454   1.404708   2.412659   2.740614
    14  H    3.646525   2.724828   2.187652   3.400840   3.811824
    15  H    5.235914   4.657714   3.408771   3.893156   3.371030
    16  H    5.961942   5.394950   3.876766   3.448586   2.181457
    17  H    5.231897   4.653709   3.350790   2.128294   1.087736
    18  H    2.840845   1.093137   2.158123   3.312012   4.430401
    19  C    2.650519   1.523026   2.564187   2.891250   4.281462
    20  H    2.862205   2.225187   3.516821   3.927702   5.332274
    21  H    3.676271   2.132473   2.955471   3.147119   4.407842
    22  C    2.889732   2.584316   2.912453   2.541422   3.835619
    23  H    2.274230   2.769398   3.025481   2.774358   4.003159
    24  H    3.764272   3.592882   3.993506   3.484110   4.662215
    25  C    3.623372   3.049931   2.566201   1.513661   2.496562
    26  H    3.996455   3.885789   3.232864   2.044344   2.597377
    27  C    4.994890   4.051120   3.630466   2.551736   3.110244
    28  C    5.556645   4.141344   3.837190   3.074240   3.569800
    29  H    5.161771   3.492071   3.247609   2.842284   3.437989
    30  C    6.959146   5.496792   5.241843   4.464802   4.759617
    31  Cl   7.867383   6.125058   5.946504   5.462829   5.686493
    32  C    7.753406   6.522377   6.207996   5.226434   5.402485
    33  Cl   9.389202   8.111852   7.846178   6.887982   6.987870
    34  C    7.313560   6.414321   6.026673   4.876613   5.050275
    35  H    8.169840   7.403582   7.022913   5.829363   5.943810
    36  C    6.027233   5.333198   4.903219   3.705408   4.016371
    37  H    5.966613   5.635629   5.208417   3.980256   4.301992
    38  H    1.616928   1.998735   3.306859   4.206109   5.516502
                   11         12         13         14         15
    11  C    0.000000
    12  C    1.368129   0.000000
    13  C    2.381630   1.383859   0.000000
    14  H    3.329654   2.109918   1.087105   0.000000
    15  H    2.124400   1.086827   2.152165   2.439604   0.000000
    16  H    1.087673   2.117194   3.360178   4.207971   2.423525
    17  H    2.178485   3.383556   3.825218   4.891449   4.287987
    18  H    4.711252   3.993005   2.647268   2.472388   4.710117
    19  C    5.152067   4.964522   3.825315   4.185091   5.933605
    20  H    6.190482   5.922394   4.705787   4.921019   6.847900
    21  H    5.281568   5.170537   4.110736   4.447277   6.136641
    22  C    4.990514   5.165939   4.315679   4.980186   6.218411
    23  H    5.064838   5.172411   4.344648   5.007938   6.175067
    24  H    5.913383   6.201996   5.397722   6.062780   7.266573
    25  C    3.807204   4.318320   3.838380   4.734020   5.403358
    26  H    3.942097   4.644626   4.385750   5.364312   5.693520
    27  C    4.426150   5.121231   4.776804   5.640224   6.184491
    28  C    4.640387   5.191329   4.801672   5.512015   6.188304
    29  H    4.280852   4.582938   4.071091   4.651599   5.531508
    30  C    5.761265   6.401430   6.115487   6.781293   7.338985
    31  Cl   6.388157   6.840622   6.558032   7.023226   7.635862
    32  C    6.517425   7.339748   7.157622   7.921608   8.298928
    33  Cl   8.035534   8.885648   8.748396   9.474702   9.800530
    34  C    6.310887   7.236190   7.086951   7.959609   8.243931
    35  H    7.211592   8.202738   8.098880   8.997060   9.203514
    36  C    5.370948   6.249191   6.041213   6.956714   7.295722
    37  H    5.687270   6.586495   6.390782   7.345410   7.633768
    38  H    6.030100   5.418119   4.113600   4.078104   6.156889
                   16         17         18         19         20
    16  H    0.000000
    17  H    2.553173   0.000000
    18  H    5.770419   5.331789   0.000000
    19  C    6.215186   4.852923   2.177181   0.000000
    20  H    7.260901   5.885096   2.690373   1.092002   0.000000
    21  H    6.306552   4.899158   2.399803   1.091751   1.760121
    22  C    5.964398   4.130360   3.533537   1.598483   2.158965
    23  H    6.020095   4.357813   3.829837   2.212107   2.563740
    24  H    6.832581   4.756930   4.472922   2.353468   2.559162
    25  C    4.677767   2.610670   3.943819   2.589925   3.492402
    26  H    4.665878   2.430561   4.858066   3.511252   4.304403
    27  C    5.151343   2.862386   4.728032   3.334086   4.191026
    28  C    5.360929   3.488520   4.509267   3.498736   4.371161
    29  H    5.088044   3.667117   3.662027   3.121498   4.051166
    30  C    6.333299   4.483704   5.754374   4.748687   5.495672
    31  Cl   6.909237   5.582819   6.074383   5.576659   6.288334
    32  C    6.981075   4.872659   6.920851   5.644106   6.323878
    33  Cl   8.403716   6.394905   8.435194   7.178663   7.771729
    34  C    6.768301   4.384154   7.016110   5.494076   6.157448
    35  H    7.596048   5.179906   8.046556   6.423855   7.011960
    36  C    5.932970   3.433035   6.068622   4.481258   5.191118
    37  H    6.227283   3.678963   6.499212   4.780019   5.396077
    38  H    7.097918   6.307501   2.389910   2.331134   2.027627
                   21         22         23         24         25
    21  H    0.000000
    22  C    2.202617   0.000000
    23  H    3.090972   1.091901   0.000000
    24  H    2.751965   1.091778   1.693953   0.000000
    25  C    2.803992   1.560774   2.093109   2.193690   0.000000
    26  H    3.854548   2.189961   2.299887   2.571032   1.091349
    27  C    3.056602   2.526911   3.357664   2.703345   1.483934
    28  C    2.811239   3.317731   4.292457   3.586304   2.521791
    29  H    2.345239   3.403423   4.340908   3.919941   2.758393
    30  C    3.924547   4.570300   5.581174   4.607745   3.839611
    31  Cl   4.584149   5.823641   6.856638   5.994131   5.184856
    32  C    4.944093   5.124760   6.069852   4.924801   4.351003
    33  Cl   6.405018   6.710347   7.666531   6.398188   6.014150
    34  C    5.037575   4.599442   5.400090   4.276835   3.779709
    35  H    6.015578   5.413037   6.135927   4.945223   4.667487
    36  C    4.248391   3.385414   4.083082   3.162302   2.486742
    37  H    4.774703   3.412615   3.865032   3.048347   2.666005
    38  H    3.253270   3.255257   3.012878   3.967816   4.357126
                   26         27         28         29         30
    26  H    0.000000
    27  C    2.033683   0.000000
    28  C    3.320817   1.407043   0.000000
    29  H    3.721668   2.173914   1.087249   0.000000
    30  C    4.489992   2.472266   1.433906   2.171308   0.000000
    31  Cl   5.966806   4.005531   2.674047   2.744926   1.738203
    32  C    4.726815   2.867455   2.453662   3.419180   1.389605
    33  Cl   6.341408   4.532728   4.039050   4.899269   2.730224
    34  C    3.869773   2.417410   2.756480   3.842121   2.381871
    35  H    4.587902   3.411424   3.840205   4.926135   3.337847
    36  C    2.479002   1.383424   2.395625   3.389297   2.800735
    37  H    2.253625   2.124654   3.372666   4.282407   3.880839
    38  H    4.988817   5.475284   5.757732   5.247316   7.054049
                   31         32         33         34         35
    31  Cl   0.000000
    32  C    2.767637   0.000000
    33  Cl   3.361647   1.672932   0.000000
    34  C    4.027076   1.406378   2.630094   0.000000
    35  H    4.871312   2.107277   2.670693   1.087094   0.000000
    36  C    4.525709   2.471926   3.963941   1.406000   2.184770
    37  H    5.608510   3.450979   4.799197   2.178644   2.545344
    38  H    7.760598   7.960447   9.507650   7.714420   8.599247
                   36         37         38
    36  C    0.000000
    37  H    1.086758   0.000000
    38  H    6.572317   6.651796   0.000000
 Stoichiometry    C17H18Cl2N(1+)
 Framework group  C1[X(C17H18Cl2N)]
 Deg. of freedom   108
 Full point group                 C1      NOp   1
 Largest Abelian subgroup         C1      NOp   1
 Largest concise Abelian subgroup C1      NOp   1
                         Standard orientation:                         
 ---------------------------------------------------------------------
 Center     Atomic      Atomic             Coordinates (Angstroms)
 Number     Number       Type             X           Y           Z
 ---------------------------------------------------------------------
      1          6           0       -5.291402   -1.088604    0.880168
      2          1           0       -5.502445   -0.102311    0.457748
      3          1           0       -5.343132   -1.017819    1.969554
      4          1           0       -6.100785   -1.730772    0.523405
      5          7           0       -3.989873   -1.616026    0.403324
      6          1           0       -4.008301   -1.610618   -0.596649
      7          6           0       -2.778330   -0.931327    0.824304
      8          6           0       -2.571605    0.387218    0.081788
      9          6           0       -1.548916    0.550674   -0.828104
     10          6           0       -1.307809    1.851453   -1.316488
     11          6           0       -2.096048    2.942105   -0.933185
     12          6           0       -3.140181    2.737609   -0.073102
     13          6           0       -3.316022    1.497091    0.514489
     14          1           0       -3.973100    1.453839    1.379460
     15          1           0       -3.802150    3.564939    0.168799
     16          1           0       -1.954023    3.934647   -1.354757
     17          1           0       -0.448048    1.967667   -1.972592
     18          1           0       -2.942714   -0.735518    1.887124
     19          6           0       -1.672504   -1.955911    0.607544
     20          1           0       -1.940818   -2.992883    0.820065
     21          1           0       -0.835131   -1.695227    1.257752
     22          6           0       -1.156305   -1.959051   -0.905293
     23          1           0       -2.009956   -2.081155   -1.575083
     24          1           0       -0.478922   -2.736196   -1.264708
     25          6           0       -0.614863   -0.546878   -1.290805
     26          1           0       -0.632297   -0.422280   -2.374878
     27          6           0        0.821169   -0.386598   -0.952898
     28          6           0        1.234241   -0.026649    0.343088
     29          1           0        0.504792    0.223824    1.109429
     30          6           0        2.626179    0.060680    0.676206
     31         17           0        2.951307    0.684057    2.265874
     32          6           0        3.601361   -0.156633   -0.289608
     33         17           0        5.253443   -0.177820   -0.027162
     34          6           0        3.153661   -0.500640   -1.577677
     35          1           0        3.941764   -0.765017   -2.278228
     36          6           0        1.792970   -0.632176   -1.906395
     37          1           0        1.479976   -1.035635   -2.865718
     38          1           0       -3.919914   -2.567538    0.703716
 ---------------------------------------------------------------------
 Rotational constants (GHZ):           0.5396974           0.1471803           0.1424371
 Leave Link  202 at Sun Jul 11 15:54:11 2021, MaxMem=   104857600 cpu:               0.1 elap:               0.0
 (Enter /prod/apps/gaussian/g16b1/l301.exe)
 Standard basis: 6-31G(d) (6D, 7F)
 Ernie: Thresh=  0.10000D-02 Tol=  0.10000D-05 Strict=F.
 There are   344 symmetry adapted cartesian basis functions of A   symmetry.
 There are   344 symmetry adapted basis functions of A   symmetry.
   344 basis functions,   680 primitive gaussians,   344 cartesian basis functions
    80 alpha electrons       80 beta electrons
       nuclear repulsion energy      1767.2717838527 Hartrees.
 IExCor=  402 DFT=T Ex+Corr=B3LYP ExCW=0 ScaHFX=  0.200000
 ScaDFX=  0.800000  0.720000  1.000000  0.810000 ScalE2=  1.000000  1.000000
 IRadAn=      5 IRanWt=     -1 IRanGd=            0 ICorTp=0 IEmpDi=  4
 NAtoms=   38 NActive=   38 NUniq=   38 SFac= 1.00D+00 NAtFMM=   60 NAOKFM=F Big=F
 Integral buffers will be    131072 words long.
 Raffenetti 2 integral format.
 Two-electron integral symmetry is turned on.
 Using the following non-standard input for PCM:
 MSTModel=DFT cav MSTCharged
 --- end of non-standard input.
 MST model for solvation energy: B3LYP parametrization.
 MST cavity parameters:
 ISph   IAn     Re0     Alpha   Atom Type   QCorr
 ------------------------------------------------
   1      6     1.50     1.25      CH3        F
   2      1     1.20     1.25      CH3        F
   3      1     1.20     1.25      CH3        F
   4      1     1.20     1.25      CH3        F
   5      7     1.55     1.15      NH         T
   6      1     0.90     1.15      NH         T
   7      6     1.50     1.25      CH         F
   8      6     1.50     1.25      C          F
   9      6     1.50     1.25      C          F
  10      6     1.50     1.25      CH         F
  11      6     1.50     1.25      CH         F
  12      6     1.50     1.25      CH         F
  13      6     1.50     1.25      CH         F
  14      1     1.20     1.25      CH         F
  15      1     1.20     1.25      CH         F
  16      1     1.20     1.25      CH         F
  17      1     1.20     1.25      CH         F
  18      1     1.20     1.25      CH         F
  19      6     1.50     1.25      CH2        F
  20      1     1.20     1.25      CH2        F
  21      1     1.20     1.25      CH2        F
  22      6     1.50     1.25      CH2        F
  23      1     1.20     1.25      CH2        F
  24      1     1.20     1.25      CH2        F
  25      6     1.50     1.25      CH         F
  26      1     1.20     1.25      CH         F
  27      6     1.50     1.25      C          F
  28      6     1.50     1.25      CH         F
  29      1     1.20     1.25      CH         F
  30      6     1.50     1.25      C          F
  31     17     1.80     1.25      Cl         F
  32      6     1.50     1.25      C          F
  33     17     1.80     1.25      Cl         F
  34      6     1.50     1.25      CH         F
  35      1     1.20     1.25      CH         F
  36      6     1.50     1.25      CH         F
  37      1     1.20     1.25      CH         F
  38      1     0.90     1.15      NH         T
 ------------------------------------------------------------------------------
 Polarizable Continuum Model (PCM)
 =================================
 Model                : PCM.
 Atomic radii         : MST.
 Polarization charges : Total charges.
 Charge compensation  : None.
 Solution method      : On-the-fly selection.
 Cavity type          : Scaled VdW (van der Waals Surface) (Alpha=1.250).
 Cavity algorithm     : GePol (No added spheres)
                        Default sphere list used, NSphG=   38.
                        Lebedev-Laikov grids with approx.  5.0 points / Ang**2.
                        Smoothing algorithm: York/Karplus (Gamma=1.0000).
                        Polarization charges: spherical gaussians, with
                                              point-specific exponents (IZeta= 3).
                        Self-potential: point-specific (ISelfS= 7).
                        Self-field    : sphere-specific E.n sum rule (ISelfD= 2).
 1st derivatives      : Analytical E(r).r(x)/FMM algorithm (CHGder, D1EAlg=3).
                        Cavity 1st derivative terms included.
 Solvent              : Water, Eps=  78.355300 Eps(inf)=   1.777849
 ------------------------------------------------------------------------------
 GePol: Number of generator spheres                  =      38
 GePol: Total number of spheres                      =      38
 GePol: Number of exposed spheres                    =      38 (100.00%)
 GePol: Number of points                             =    2890
 GePol: Average weight of points                     =       0.13
 GePol: Minimum weight of points                     =   0.18D-09
 GePol: Maximum weight of points                     =    0.21416
 GePol: Number of points with low weight             =     188
 GePol: Fraction of low-weight points (<1% of avg)   =       6.51%
 GePol: Cavity surface area                          =    363.769 Ang**2
 GePol: Cavity volume                                =    367.872 Ang**3
 PCM non-electrostatic energy =         0.0031286574 Hartrees.
 Nuclear repulsion after PCM non-electrostatic terms =     1767.2749125101 Hartrees.
 Leave Link  301 at Sun Jul 11 15:54:11 2021, MaxMem=   104857600 cpu:               0.4 elap:               0.1
 (Enter /prod/apps/gaussian/g16b1/l302.exe)
 NPDir=0 NMtPBC=     1 NCelOv=     1 NCel=       1 NClECP=     1 NCelD=      1
         NCelK=      1 NCelE2=     1 NClLst=     1 CellRange=     0.0.
 One-electron integrals computed using PRISM.
 One-electron integral symmetry used in STVInt
 NBasis=   344 RedAO= T EigKep=  4.16D-04  NBF=   344
 NBsUse=   344 1.00D-06 EigRej= -1.00D+00 NBFU=   344
 Precomputing XC quadrature grid using
 IXCGrd= 4 IRadAn=           5 IRanWt=          -1 IRanGd=           0 AccXCQ= 0.00D+00.
 Generated NRdTot=       0 NPtTot=           0 NUsed=           0 NTot=          32
 NSgBfM=   341   341   341   341   341 MxSgAt=    38 MxSgA2=    38.
 Leave Link  302 at Sun Jul 11 15:54:12 2021, MaxMem=   104857600 cpu:               2.0 elap:               0.5
 (Enter /prod/apps/gaussian/g16b1/l303.exe)
 DipDrv:  MaxL=1.
 Leave Link  303 at Sun Jul 11 15:54:12 2021, MaxMem=   104857600 cpu:               0.2 elap:               0.1
 (Enter /prod/apps/gaussian/g16b1/l401.exe)
 ExpMin= 1.43D-01 ExpMax= 2.52D+04 ExpMxC= 3.78D+03 IAcc=3 IRadAn=         5 AccDes= 0.00D+00
 Harris functional with IExCor=  402 and IRadAn=       5 diagonalized for initial guess.
 HarFok:  IExCor=  402 AccDes= 0.00D+00 IRadAn=         5 IDoV= 1 UseB2=F ITyADJ=14
 ICtDFT=  3500011 ScaDFX=  1.000000  1.000000  1.000000  1.000000
 FoFCou: FMM=F IPFlag=           0 FMFlag=      100000 FMFlg1=           0
         NFxFlg=           0 DoJE=T BraDBF=F KetDBF=T FulRan=T
         wScrn=  0.000000 ICntrl=       500 IOpCl=  0 I1Cent=   200000004 NGrid=           0
         NMat0=    1 NMatS0=      1 NMatT0=    0 NMatD0=    1 NMtDS0=    0 NMtDT0=    0
 Petite list used in FoFCou.
 Harris En= -1633.41810470718    
 JPrj=0 DoOrth=F DoCkMO=F.
 Leave Link  401 at Sun Jul 11 15:54:15 2021, MaxMem=   104857600 cpu:              10.9 elap:               2.7
 (Enter /prod/apps/gaussian/g16b1/l502.exe)
 Integral symmetry usage will be decided dynamically.
 Closed shell SCF:
 Using DIIS extrapolation, IDIIS=  1040.
 NGot=   104857600 LenX=   104614994 LenY=   104496217
 Requested convergence on RMS density matrix=1.00D-08 within 128 cycles.
 Requested convergence on MAX density matrix=1.00D-06.
 Requested convergence on             energy=1.00D-06.
 No special actions if energy rises.
 Fock matrices will be formed incrementally for  20 cycles.

 Cycle   1  Pass 1  IDiag  1:
 FoFJK:  IHMeth= 1 ICntrl=       0 DoSepK=F KAlg= 0 I1Cent=           0 FoldK=F
 IRaf= 820000000 NMat=       1 IRICut=       1 DoRegI=T DoRafI=F ISym2E= 0 IDoP0=0 IntGTp=1.
 FoFCou: FMM=F IPFlag=           0 FMFlag=      100000 FMFlg1=           0
         NFxFlg=           0 DoJE=F BraDBF=F KetDBF=F FulRan=T
         wScrn=  0.000000 ICntrl=         0 IOpCl=  0 I1Cent=           0 NGrid=           0
         NMat0=    1 NMatS0=      1 NMatT0=    0 NMatD0=    1 NMtDS0=    0 NMtDT0=    0
 Symmetry not used in FoFCou.
 Inv3:  Mode=1 IEnd=    25056300.
 Iteration    1 A*A^-1 deviation from unit magnitude is 3.55D-15 for    372.
 Iteration    1 A*A^-1 deviation from orthogonality  is 3.69D-15 for   1613    366.
 Iteration    1 A^-1*A deviation from unit magnitude is 4.00D-15 for    372.
 Iteration    1 A^-1*A deviation from orthogonality  is 5.25D-14 for   1940   1913.
 E= -1633.21480303898    
 DIIS: error= 3.51D-02 at cycle   1 NSaved=   1.
 NSaved= 1 IEnMin= 1 EnMin= -1633.21480303898     IErMin= 1 ErrMin= 3.51D-02
 ErrMax= 3.51D-02  0.00D+00 EMaxC= 1.00D-01 BMatC= 3.91D-01 BMatP= 3.91D-01
 IDIUse=3 WtCom= 6.49D-01 WtEn= 3.51D-01
 Coeff-Com:  0.100D+01
 Coeff-En:   0.100D+01
 Coeff:      0.100D+01
 Gap=     0.352 Goal=   None    Shift=    0.000
 GapD=    0.352 DampG=1.000 DampE=0.500 DampFc=0.5000 IDamp=-1.
 Damping current iteration by 5.00D-01
 RMSDP=4.46D-03 MaxDP=1.21D-01              OVMax= 2.79D-01

 Cycle   2  Pass 1  IDiag  1:
 RMSU=  2.21D-03    CP:  9.84D-01
 E= -1633.40684221833     Delta-E=       -0.192039179341 Rises=F Damp=T
 DIIS: error= 1.11D-02 at cycle   2 NSaved=   2.
 NSaved= 2 IEnMin= 2 EnMin= -1633.40684221833     IErMin= 2 ErrMin= 1.11D-02
 ErrMax= 1.11D-02  0.00D+00 EMaxC= 1.00D-01 BMatC= 2.72D-02 BMatP= 3.91D-01
 IDIUse=3 WtCom= 8.89D-01 WtEn= 1.11D-01
 Coeff-Com:  0.201D-01 0.980D+00
 Coeff-En:   0.679D-01 0.932D+00
 Coeff:      0.254D-01 0.975D+00
 Gap=     0.268 Goal=   None    Shift=    0.000
 RMSDP=1.34D-03 MaxDP=5.29D-02 DE=-1.92D-01 OVMax= 1.87D-01

 Cycle   3  Pass 1  IDiag  1:
 RMSU=  1.30D-03    CP:  9.73D-01  8.94D-01
 E= -1633.62047631185     Delta-E=       -0.213634093527 Rises=F Damp=F
 DIIS: error= 5.51D-03 at cycle   3 NSaved=   3.
 NSaved= 3 IEnMin= 3 EnMin= -1633.62047631185     IErMin= 3 ErrMin= 5.51D-03
 ErrMax= 5.51D-03  0.00D+00 EMaxC= 1.00D-01 BMatC= 1.43D-02 BMatP= 2.72D-02
 IDIUse=3 WtCom= 9.45D-01 WtEn= 5.51D-02
 Coeff-Com: -0.417D-01 0.413D+00 0.629D+00
 Coeff-En:   0.000D+00 0.000D+00 0.100D+01
 Coeff:     -0.394D-01 0.390D+00 0.649D+00
 Gap=     0.215 Goal=   None    Shift=    0.000
 RMSDP=6.52D-04 MaxDP=2.92D-02 DE=-2.14D-01 OVMax= 6.78D-02

 Cycle   4  Pass 1  IDiag  1:
 RMSU=  5.26D-04    CP:  9.75D-01  9.85D-01  7.50D-01
 E= -1633.62902742158     Delta-E=       -0.008551109726 Rises=F Damp=F
 DIIS: error= 3.72D-03 at cycle   4 NSaved=   4.
 NSaved= 4 IEnMin= 4 EnMin= -1633.62902742158     IErMin= 4 ErrMin= 3.72D-03
 ErrMax= 3.72D-03  0.00D+00 EMaxC= 1.00D-01 BMatC= 6.80D-03 BMatP= 1.43D-02
 IDIUse=3 WtCom= 9.63D-01 WtEn= 3.72D-02
 Coeff-Com: -0.275D-01 0.111D+00 0.424D+00 0.493D+00
 Coeff-En:   0.000D+00 0.000D+00 0.338D+00 0.662D+00
 Coeff:     -0.265D-01 0.107D+00 0.420D+00 0.499D+00
 Gap=     0.213 Goal=   None    Shift=    0.000
 RMSDP=3.15D-04 MaxDP=1.38D-02 DE=-8.55D-03 OVMax= 2.57D-02

 Cycle   5  Pass 1  IDiag  1:
 RMSU=  1.39D-04    CP:  9.74D-01  9.72D-01  8.31D-01  5.06D-01
 E= -1633.63610994303     Delta-E=       -0.007082521454 Rises=F Damp=F
 DIIS: error= 4.73D-04 at cycle   5 NSaved=   5.
 NSaved= 5 IEnMin= 5 EnMin= -1633.63610994303     IErMin= 5 ErrMin= 4.73D-04
 ErrMax= 4.73D-04  0.00D+00 EMaxC= 1.00D-01 BMatC= 2.15D-04 BMatP= 6.80D-03
 IDIUse=3 WtCom= 9.95D-01 WtEn= 4.73D-03
 Coeff-Com: -0.913D-02 0.215D-01 0.155D+00 0.239D+00 0.593D+00
 Coeff-En:   0.000D+00 0.000D+00 0.000D+00 0.000D+00 0.100D+01
 Coeff:     -0.909D-02 0.214D-01 0.155D+00 0.238D+00 0.595D+00
 Gap=     0.212 Goal=   None    Shift=    0.000
 RMSDP=6.47D-05 MaxDP=3.28D-03 DE=-7.08D-03 OVMax= 4.07D-03

 Cycle   6  Pass 1  IDiag  1:
 RMSU=  4.07D-05    CP:  9.74D-01  9.70D-01  8.35D-01  5.55D-01  6.94D-01
 E= -1633.63631970791     Delta-E=       -0.000209764873 Rises=F Damp=F
 DIIS: error= 1.17D-04 at cycle   6 NSaved=   6.
 NSaved= 6 IEnMin= 6 EnMin= -1633.63631970791     IErMin= 6 ErrMin= 1.17D-04
 ErrMax= 1.17D-04  0.00D+00 EMaxC= 1.00D-01 BMatC= 1.73D-05 BMatP= 2.15D-04
 IDIUse=3 WtCom= 9.99D-01 WtEn= 1.17D-03
 Coeff-Com: -0.259D-02 0.333D-02 0.471D-01 0.812D-01 0.295D+00 0.576D+00
 Coeff-En:   0.000D+00 0.000D+00 0.000D+00 0.000D+00 0.000D+00 0.100D+01
 Coeff:     -0.259D-02 0.333D-02 0.470D-01 0.811D-01 0.295D+00 0.576D+00
 Gap=     0.212 Goal=   None    Shift=    0.000
 RMSDP=1.75D-05 MaxDP=5.83D-04 DE=-2.10D-04 OVMax= 1.38D-03

 Cycle   7  Pass 1  IDiag  1:
 RMSU=  9.29D-06    CP:  9.74D-01  9.70D-01  8.39D-01  5.57D-01  7.23D-01
                    CP:  6.73D-01
 E= -1633.63633728809     Delta-E=       -0.000017580183 Rises=F Damp=F
 DIIS: error= 3.66D-05 at cycle   7 NSaved=   7.
 NSaved= 7 IEnMin= 7 EnMin= -1633.63633728809     IErMin= 7 ErrMin= 3.66D-05
 ErrMax= 3.66D-05  0.00D+00 EMaxC= 1.00D-01 BMatC= 1.30D-06 BMatP= 1.73D-05
 IDIUse=1 WtCom= 1.00D+00 WtEn= 0.00D+00
 Coeff-Com: -0.709D-03 0.161D-03 0.139D-01 0.250D-01 0.109D+00 0.285D+00
 Coeff-Com:  0.567D+00
 Coeff:     -0.709D-03 0.161D-03 0.139D-01 0.250D-01 0.109D+00 0.285D+00
 Coeff:      0.567D+00
 Gap=     0.212 Goal=   None    Shift=    0.000
 RMSDP=5.05D-06 MaxDP=1.62D-04 DE=-1.76D-05 OVMax= 5.94D-04

 Cycle   8  Pass 1  IDiag  1:
 RMSU=  3.63D-06    CP:  9.74D-01  9.70D-01  8.38D-01  5.57D-01  7.32D-01
                    CP:  7.21D-01  7.22D-01
 E= -1633.63633852397     Delta-E=       -0.000001235880 Rises=F Damp=F
 DIIS: error= 1.58D-05 at cycle   8 NSaved=   8.
 NSaved= 8 IEnMin= 8 EnMin= -1633.63633852397     IErMin= 8 ErrMin= 1.58D-05
 ErrMax= 1.58D-05  0.00D+00 EMaxC= 1.00D-01 BMatC= 2.13D-07 BMatP= 1.30D-06
 IDIUse=1 WtCom= 1.00D+00 WtEn= 0.00D+00
 Coeff-Com:  0.139D-03-0.560D-03-0.171D-02-0.303D-02 0.113D-03 0.413D-01
 Coeff-Com:  0.308D+00 0.656D+00
 Coeff:      0.139D-03-0.560D-03-0.171D-02-0.303D-02 0.113D-03 0.413D-01
 Coeff:      0.308D+00 0.656D+00
 Gap=     0.212 Goal=   None    Shift=    0.000
 RMSDP=1.85D-06 MaxDP=5.92D-05 DE=-1.24D-06 OVMax= 1.94D-04

 Cycle   9  Pass 1  IDiag  1:
 RMSU=  1.09D-06    CP:  9.74D-01  9.70D-01  8.39D-01  5.57D-01  7.34D-01
                    CP:  7.24D-01  8.25D-01  7.42D-01
 E= -1633.63633876802     Delta-E=       -0.000000244050 Rises=F Damp=F
 DIIS: error= 3.47D-06 at cycle   9 NSaved=   9.
 NSaved= 9 IEnMin= 9 EnMin= -1633.63633876802     IErMin= 9 ErrMin= 3.47D-06
 ErrMax= 3.47D-06  0.00D+00 EMaxC= 1.00D-01 BMatC= 1.17D-08 BMatP= 2.13D-07
 IDIUse=1 WtCom= 1.00D+00 WtEn= 0.00D+00
 Coeff-Com:  0.109D-03-0.268D-03-0.157D-02-0.292D-02-0.625D-02 0.212D-02
 Coeff-Com:  0.101D+00 0.297D+00 0.611D+00
 Coeff:      0.109D-03-0.268D-03-0.157D-02-0.292D-02-0.625D-02 0.212D-02
 Coeff:      0.101D+00 0.297D+00 0.611D+00
 Gap=     0.212 Goal=   None    Shift=    0.000
 RMSDP=4.58D-07 MaxDP=2.19D-05 DE=-2.44D-07 OVMax= 5.08D-05

 Cycle  10  Pass 1  IDiag  1:
 RMSU=  3.20D-07    CP:  9.74D-01  9.70D-01  8.39D-01  5.57D-01  7.34D-01
                    CP:  7.28D-01  8.33D-01  7.90D-01  8.48D-01
 E= -1633.63633878018     Delta-E=       -0.000000012160 Rises=F Damp=F
 DIIS: error= 1.18D-06 at cycle  10 NSaved=  10.
 NSaved=10 IEnMin=10 EnMin= -1633.63633878018     IErMin=10 ErrMin= 1.18D-06
 ErrMax= 1.18D-06  0.00D+00 EMaxC= 1.00D-01 BMatC= 1.51D-09 BMatP= 1.17D-08
 IDIUse=1 WtCom= 1.00D+00 WtEn= 0.00D+00
 Coeff-Com:  0.350D-04-0.570D-04-0.530D-03-0.104D-02-0.288D-02-0.365D-02
 Coeff-Com:  0.104D-01 0.651D-01 0.300D+00 0.632D+00
 Coeff:      0.350D-04-0.570D-04-0.530D-03-0.104D-02-0.288D-02-0.365D-02
 Coeff:      0.104D-01 0.651D-01 0.300D+00 0.632D+00
 Gap=     0.212 Goal=   None    Shift=    0.000
 RMSDP=1.57D-07 MaxDP=8.87D-06 DE=-1.22D-08 OVMax= 2.01D-05

 Cycle  11  Pass 1  IDiag  1:
 RMSU=  1.06D-07    CP:  9.74D-01  9.70D-01  8.39D-01  5.57D-01  7.34D-01
                    CP:  7.28D-01  8.39D-01  8.01D-01  8.92D-01  7.50D-01
 E= -1633.63633878186     Delta-E=       -0.000000001680 Rises=F Damp=F
 DIIS: error= 3.18D-07 at cycle  11 NSaved=  11.
 NSaved=11 IEnMin=11 EnMin= -1633.63633878186     IErMin=11 ErrMin= 3.18D-07
 ErrMax= 3.18D-07  0.00D+00 EMaxC= 1.00D-01 BMatC= 1.02D-10 BMatP= 1.51D-09
 IDIUse=1 WtCom= 1.00D+00 WtEn= 0.00D+00
 Coeff-Com:  0.190D-05 0.697D-05-0.394D-04-0.959D-04-0.421D-03-0.174D-02
 Coeff-Com: -0.767D-02-0.749D-02 0.530D-01 0.252D+00 0.713D+00
 Coeff:      0.190D-05 0.697D-05-0.394D-04-0.959D-04-0.421D-03-0.174D-02
 Coeff:     -0.767D-02-0.749D-02 0.530D-01 0.252D+00 0.713D+00
 Gap=     0.212 Goal=   None    Shift=    0.000
 RMSDP=5.28D-08 MaxDP=2.07D-06 DE=-1.68D-09 OVMax= 6.88D-06

 Cycle  12  Pass 1  IDiag  1:
 RMSU=  3.32D-08    CP:  9.74D-01  9.70D-01  8.39D-01  5.57D-01  7.34D-01
                    CP:  7.29D-01  8.39D-01  8.05D-01  9.14D-01  8.24D-01
                    CP:  8.53D-01
 E= -1633.63633878197     Delta-E=       -0.000000000110 Rises=F Damp=F
 DIIS: error= 1.26D-07 at cycle  12 NSaved=  12.
 NSaved=12 IEnMin=12 EnMin= -1633.63633878197     IErMin=12 ErrMin= 1.26D-07
 ErrMax= 1.26D-07  0.00D+00 EMaxC= 1.00D-01 BMatC= 1.53D-11 BMatP= 1.02D-10
 IDIUse=1 WtCom= 1.00D+00 WtEn= 0.00D+00
 Coeff-Com: -0.257D-05 0.912D-05 0.339D-04 0.592D-04 0.974D-04-0.500D-03
 Coeff-Com: -0.487D-02-0.104D-01-0.418D-02 0.621D-01 0.347D+00 0.611D+00
 Coeff:     -0.257D-05 0.912D-05 0.339D-04 0.592D-04 0.974D-04-0.500D-03
 Coeff:     -0.487D-02-0.104D-01-0.418D-02 0.621D-01 0.347D+00 0.611D+00
 Gap=     0.212 Goal=   None    Shift=    0.000
 RMSDP=1.80D-08 MaxDP=7.57D-07 DE=-1.10D-10 OVMax= 2.40D-06

 Cycle  13  Pass 1  IDiag  1:
 RMSU=  1.24D-08    CP:  9.74D-01  9.70D-01  8.39D-01  5.57D-01  7.34D-01
                    CP:  7.29D-01  8.39D-01  8.05D-01  9.19D-01  8.31D-01
                    CP:  9.14D-01  7.51D-01
 E= -1633.63633878201     Delta-E=       -0.000000000039 Rises=F Damp=F
 DIIS: error= 6.77D-08 at cycle  13 NSaved=  13.
 NSaved=13 IEnMin=13 EnMin= -1633.63633878201     IErMin=13 ErrMin= 6.77D-08
 ErrMax= 6.77D-08  0.00D+00 EMaxC= 1.00D-01 BMatC= 2.19D-12 BMatP= 1.53D-11
 IDIUse=1 WtCom= 1.00D+00 WtEn= 0.00D+00
 Coeff-Com: -0.145D-05 0.381D-05 0.200D-04 0.390D-04 0.888D-04-0.907D-04
 Coeff-Com: -0.167D-02-0.455D-02-0.764D-02 0.511D-02 0.997D-01 0.323D+00
 Coeff-Com:  0.586D+00
 Coeff:     -0.145D-05 0.381D-05 0.200D-04 0.390D-04 0.888D-04-0.907D-04
 Coeff:     -0.167D-02-0.455D-02-0.764D-02 0.511D-02 0.997D-01 0.323D+00
 Coeff:      0.586D+00
 Gap=     0.212 Goal=   None    Shift=    0.000
 RMSDP=6.37D-09 MaxDP=2.79D-07 DE=-3.91D-11 OVMax= 7.38D-07

 Error on total polarization charges =  0.01857
 SCF Done:  E(RB3LYP) =  -1633.63633878     A.U. after   13 cycles
            NFock= 13  Conv=0.64D-08     -V/T= 2.0058
 KE= 1.624171316591D+03 PE=-7.352181927256D+03 EE= 2.327099359374D+03
 Leave Link  502 at Sun Jul 11 15:55:43 2021, MaxMem=   104857600 cpu:             352.9 elap:              88.3
 (Enter /prod/apps/gaussian/g16b1/l601.exe)
 Copying SCF densities to generalized density rwf, IOpCl= 0 IROHF=0.

 **********************************************************************

            Population analysis using the SCF Density.

 **********************************************************************

 Orbital symmetries:
       Occupied  (A) (A) (A) (A) (A) (A) (A) (A) (A) (A) (A) (A)
                 (A) (A) (A) (A) (A) (A) (A) (A) (A) (A) (A) (A)
                 (A) (A) (A) (A) (A) (A) (A) (A) (A) (A) (A) (A)
                 (A) (A) (A) (A) (A) (A) (A) (A) (A) (A) (A) (A)
                 (A) (A) (A) (A) (A) (A) (A) (A) (A) (A) (A) (A)
                 (A) (A) (A) (A) (A) (A) (A) (A) (A) (A) (A) (A)
                 (A) (A) (A) (A) (A) (A) (A) (A)
       Virtual   (A) (A) (A) (A) (A) (A) (A) (A) (A) (A) (A) (A)
                 (A) (A) (A) (A) (A) (A) (A) (A) (A) (A) (A) (A)
                 (A) (A) (A) (A) (A) (A) (A) (A) (A) (A) (A) (A)
                 (A) (A) (A) (A) (A) (A) (A) (A) (A) (A) (A) (A)
                 (A) (A) (A) (A) (A) (A) (A) (A) (A) (A) (A) (A)
                 (A) (A) (A) (A) (A) (A) (A) (A) (A) (A) (A) (A)
                 (A) (A) (A) (A) (A) (A) (A) (A) (A) (A) (A) (A)
                 (A) (A) (A) (A) (A) (A) (A) (A) (A) (A) (A) (A)
                 (A) (A) (A) (A) (A) (A) (A) (A) (A) (A) (A) (A)
                 (A) (A) (A) (A) (A) (A) (A) (A) (A) (A) (A) (A)
                 (A) (A) (A) (A) (A) (A) (A) (A) (A) (A) (A) (A)
                 (A) (A) (A) (A) (A) (A) (A) (A) (A) (A) (A) (A)
                 (A) (A) (A) (A) (A) (A) (A) (A) (A) (A) (A) (A)
                 (A) (A) (A) (A) (A) (A) (A) (A) (A) (A) (A) (A)
                 (A) (A) (A) (A) (A) (A) (A) (A) (A) (A) (A) (A)
                 (A) (A) (A) (A) (A) (A) (A) (A) (A) (A) (A) (A)
                 (A) (A) (A) (A) (A) (A) (A) (A) (A) (A) (A) (A)
                 (A) (A) (A) (A) (A) (A) (A) (A) (A) (A) (A) (A)
                 (A) (A) (A) (A) (A) (A) (A) (A) (A) (A) (A) (A)
                 (A) (A) (A) (A) (A) (A) (A) (A) (A) (A) (A) (A)
                 (A) (A) (A) (A) (A) (A) (A) (A) (A) (A) (A) (A)
                 (A) (A) (A) (A) (A) (A) (A) (A) (A) (A) (A) (A)
 The electronic state is 1-A.
 Alpha  occ. eigenvalues -- -101.56619-101.56139 -14.44797 -10.26841 -10.26352
 Alpha  occ. eigenvalues --  -10.25803 -10.23989 -10.21237 -10.21209 -10.21177
 Alpha  occ. eigenvalues --  -10.21066 -10.20867 -10.20646 -10.20557 -10.20427
 Alpha  occ. eigenvalues --  -10.19960 -10.19943 -10.19657 -10.19595 -10.19212
 Alpha  occ. eigenvalues --   -9.48366  -9.47788  -7.24758  -7.24182  -7.23790
 Alpha  occ. eigenvalues --   -7.23738  -7.23220  -7.23174  -1.02703  -0.92782
 Alpha  occ. eigenvalues --   -0.88472  -0.87621  -0.85205  -0.82145  -0.79414
 Alpha  occ. eigenvalues --   -0.75772  -0.74869  -0.74198  -0.73148  -0.70562
 Alpha  occ. eigenvalues --   -0.66399  -0.63799  -0.63131  -0.61812  -0.60015
 Alpha  occ. eigenvalues --   -0.59124  -0.56256  -0.52963  -0.52396  -0.51180
 Alpha  occ. eigenvalues --   -0.50190  -0.49493  -0.48057  -0.47604  -0.45681
 Alpha  occ. eigenvalues --   -0.45271  -0.43745  -0.43240  -0.43091  -0.42153
 Alpha  occ. eigenvalues --   -0.41747  -0.41188  -0.41125  -0.40647  -0.39082
 Alpha  occ. eigenvalues --   -0.39050  -0.37476  -0.36896  -0.36224  -0.35895
 Alpha  occ. eigenvalues --   -0.34657  -0.33684  -0.33488  -0.32869  -0.31955
 Alpha  occ. eigenvalues --   -0.31894  -0.26418  -0.25864  -0.25085  -0.24278
 Alpha virt. eigenvalues --   -0.03094  -0.02636  -0.01928  -0.01010   0.01673
 Alpha virt. eigenvalues --    0.06288   0.06924   0.08761   0.10013   0.10253
 Alpha virt. eigenvalues --    0.10716   0.11735   0.12289   0.12624   0.13058
 Alpha virt. eigenvalues --    0.13790   0.14680   0.14774   0.15840   0.16045
 Alpha virt. eigenvalues --    0.16940   0.17382   0.18365   0.18752   0.19181
 Alpha virt. eigenvalues --    0.19690   0.20525   0.20995   0.22483   0.23011
 Alpha virt. eigenvalues --    0.23749   0.24757   0.25949   0.26866   0.27443
 Alpha virt. eigenvalues --    0.28447   0.29883   0.31523   0.32968   0.33322
 Alpha virt. eigenvalues --    0.34254   0.36278   0.36704   0.38520   0.40386
 Alpha virt. eigenvalues --    0.41074   0.41504   0.44392   0.45128   0.45474
 Alpha virt. eigenvalues --    0.45912   0.48292   0.49149   0.49807   0.50646
 Alpha virt. eigenvalues --    0.51059   0.51503   0.52495   0.52688   0.53292
 Alpha virt. eigenvalues --    0.53963   0.54286   0.55234   0.56553   0.56812
 Alpha virt. eigenvalues --    0.58159   0.58721   0.59384   0.59739   0.60265
 Alpha virt. eigenvalues --    0.60518   0.61271   0.62220   0.62652   0.63207
 Alpha virt. eigenvalues --    0.63484   0.64154   0.65471   0.65737   0.66715
 Alpha virt. eigenvalues --    0.68542   0.69895   0.72104   0.72439   0.73248
 Alpha virt. eigenvalues --    0.74460   0.75802   0.76809   0.77613   0.79197
 Alpha virt. eigenvalues --    0.80208   0.81182   0.81546   0.82096   0.82985
 Alpha virt. eigenvalues --    0.83535   0.83952   0.84103   0.84561   0.84974
 Alpha virt. eigenvalues --    0.85253   0.85553   0.85862   0.86263   0.87152
 Alpha virt. eigenvalues --    0.87186   0.88803   0.89744   0.90431   0.91264
 Alpha virt. eigenvalues --    0.91955   0.92707   0.93822   0.94364   0.95343
 Alpha virt. eigenvalues --    0.95754   0.96396   0.97210   0.97507   0.99028
 Alpha virt. eigenvalues --    1.00191   1.01789   1.02080   1.02713   1.03924
 Alpha virt. eigenvalues --    1.05301   1.06060   1.07550   1.08251   1.08968
 Alpha virt. eigenvalues --    1.12899   1.14262   1.15174   1.15974   1.16877
 Alpha virt. eigenvalues --    1.19480   1.19732   1.21215   1.23212   1.25814
 Alpha virt. eigenvalues --    1.27377   1.29491   1.30989   1.33139   1.34962
 Alpha virt. eigenvalues --    1.36975   1.37779   1.40475   1.41597   1.42472
 Alpha virt. eigenvalues --    1.44154   1.45147   1.47305   1.49777   1.50713
 Alpha virt. eigenvalues --    1.52476   1.53747   1.55254   1.56392   1.58796
 Alpha virt. eigenvalues --    1.59642   1.61615   1.64633   1.67397   1.70227
 Alpha virt. eigenvalues --    1.73996   1.75688   1.77282   1.78149   1.79974
 Alpha virt. eigenvalues --    1.80597   1.80991   1.82904   1.83653   1.84473
 Alpha virt. eigenvalues --    1.86460   1.88598   1.90175   1.90734   1.92370
 Alpha virt. eigenvalues --    1.92907   1.93722   1.96086   1.97667   1.98618
 Alpha virt. eigenvalues --    2.00385   2.01086   2.03053   2.03701   2.05134
 Alpha virt. eigenvalues --    2.06759   2.07911   2.09601   2.10474   2.11546
 Alpha virt. eigenvalues --    2.12964   2.14983   2.15591   2.17011   2.17526
 Alpha virt. eigenvalues --    2.18727   2.22614   2.23634   2.25281   2.26870
 Alpha virt. eigenvalues --    2.27327   2.27617   2.30489   2.30710   2.31805
 Alpha virt. eigenvalues --    2.32258   2.35142   2.36696   2.40125   2.41486
 Alpha virt. eigenvalues --    2.43755   2.49074   2.51664   2.52821   2.53822
 Alpha virt. eigenvalues --    2.56113   2.57534   2.58271   2.61465   2.63581
 Alpha virt. eigenvalues --    2.64924   2.66503   2.67789   2.68828   2.70255
 Alpha virt. eigenvalues --    2.73408   2.74399   2.75168   2.78264   2.78862
 Alpha virt. eigenvalues --    2.80910   2.83191   2.85289   2.92041   2.96174
 Alpha virt. eigenvalues --    3.06214   3.14204   3.32368   3.41403   3.92013
 Alpha virt. eigenvalues --    4.01217   4.07737   4.09897   4.12692   4.13552
 Alpha virt. eigenvalues --    4.16813   4.19424   4.24001   4.24922   4.27263
 Alpha virt. eigenvalues --    4.34219   4.35591   4.38588   4.39982   4.48467
 Alpha virt. eigenvalues --    4.53619   4.60603   4.70606   4.76375
          Condensed to atoms (all electrons):
               1          2          3          4          5          6
     1  C    5.035006   0.375205   0.383248   0.375267   0.257568  -0.019996
     2  H    0.375205   0.483239  -0.026019  -0.025813  -0.029597  -0.002539
     3  H    0.383248  -0.026019   0.474072  -0.023032  -0.030995   0.002896
     4  H    0.375267  -0.025813  -0.023032   0.484515  -0.025503  -0.001364
     5  N    0.257568  -0.029597  -0.030995  -0.025503   6.777842   0.291128
     6  H   -0.019996  -0.002539   0.002896  -0.001364   0.291128   0.284895
     7  C   -0.038647  -0.003314  -0.001293   0.003741   0.203317  -0.019374
     8  C   -0.002779   0.004380  -0.000600  -0.000047  -0.053391  -0.000647
     9  C    0.000101   0.000191  -0.000025   0.000004  -0.002418   0.000997
    10  C   -0.000003  -0.000006   0.000000  -0.000000  -0.000151  -0.000058
    11  C    0.000002  -0.000020  -0.000000   0.000000   0.000022  -0.000016
    12  C   -0.000151   0.000421   0.000002   0.000001  -0.000082  -0.000008
    13  C   -0.002720   0.005343   0.000071   0.000118  -0.000061   0.000470
    14  H   -0.000024   0.000639   0.000449   0.000087  -0.000468   0.000091
    15  H    0.000005  -0.000008  -0.000000  -0.000000   0.000001   0.000000
    16  H    0.000000  -0.000000  -0.000000  -0.000000   0.000000  -0.000000
    17  H    0.000000  -0.000000   0.000000   0.000000   0.000001   0.000002
    18  H   -0.003263  -0.000199   0.004796   0.000149  -0.053874   0.005050
    19  C    0.005695  -0.000021   0.000060  -0.000254  -0.057810  -0.003357
    20  H    0.000080  -0.000008   0.000025  -0.000020  -0.005888  -0.000249
    21  H   -0.000157   0.000005  -0.000011   0.000003   0.004728  -0.000021
    22  C   -0.000027  -0.000003  -0.000001   0.000008  -0.005301   0.004353
    23  H   -0.000051   0.000005  -0.000003   0.000005   0.001648   0.004524
    24  H    0.000002  -0.000000   0.000000  -0.000000   0.000013  -0.000108
    25  C   -0.000003  -0.000004  -0.000000  -0.000000   0.000577  -0.000249
    26  H   -0.000000   0.000000  -0.000000   0.000000   0.000024  -0.000050
    27  C    0.000000   0.000000  -0.000000  -0.000000  -0.000015   0.000015
    28  C    0.000000   0.000000  -0.000000   0.000000   0.000001  -0.000001
    29  H   -0.000000  -0.000000  -0.000000  -0.000000   0.000012  -0.000001
    30  C   -0.000000  -0.000000  -0.000000   0.000000   0.000000   0.000000
    31  Cl  -0.000000   0.000000  -0.000000   0.000000  -0.000000  -0.000000
    32  C   -0.000000  -0.000000   0.000000  -0.000000  -0.000000   0.000000
    33  Cl  -0.000000   0.000000  -0.000000   0.000000   0.000000   0.000000
    34  C    0.000000   0.000000  -0.000000   0.000000  -0.000000   0.000000
    35  H   -0.000000  -0.000000   0.000000   0.000000   0.000000  -0.000000
    36  C   -0.000000   0.000000  -0.000000   0.000000   0.000000  -0.000000
    37  H   -0.000000   0.000000   0.000000   0.000000   0.000000  -0.000000
    38  H   -0.020903   0.003210  -0.001946  -0.002991   0.299123  -0.011207
               7          8          9         10         11         12
     1  C   -0.038647  -0.002779   0.000101  -0.000003   0.000002  -0.000151
     2  H   -0.003314   0.004380   0.000191  -0.000006  -0.000020   0.000421
     3  H   -0.001293  -0.000600  -0.000025   0.000000  -0.000000   0.000002
     4  H    0.003741  -0.000047   0.000004  -0.000000   0.000000   0.000001
     5  N    0.203317  -0.053391  -0.002418  -0.000151   0.000022  -0.000082
     6  H   -0.019374  -0.000647   0.000997  -0.000058  -0.000016  -0.000008
     7  C    5.126539   0.318322  -0.037720   0.008641   0.000177   0.005512
     8  C    0.318322   4.823497   0.577573  -0.035513  -0.040547  -0.023036
     9  C   -0.037720   0.577573   4.748136   0.503351  -0.020604  -0.036820
    10  C    0.008641  -0.035513   0.503351   5.060605   0.513127  -0.026819
    11  C    0.000177  -0.040547  -0.020604   0.513127   4.875413   0.544707
    12  C    0.005512  -0.023036  -0.036820  -0.026819   0.544707   4.867543
    13  C   -0.067357   0.481374  -0.028104  -0.067383  -0.029764   0.523510
    14  H   -0.005528  -0.040931   0.002860   0.000854   0.004397  -0.036842
    15  H   -0.000173   0.003380   0.001024   0.004669  -0.041020   0.361235
    16  H    0.000011   0.000845   0.003153  -0.037396   0.362129  -0.042792
    17  H   -0.000197   0.005802  -0.046022   0.357307  -0.041098   0.004573
    18  H    0.398695  -0.039343   0.000494  -0.000086  -0.000004   0.000289
    19  C    0.346423  -0.031830  -0.014205   0.000064   0.000006  -0.000162
    20  H   -0.031717   0.002911   0.000534   0.000007  -0.000000   0.000001
    21  H   -0.033868   0.000081  -0.000471  -0.000157   0.000004   0.000000
    22  C   -0.024050  -0.018748  -0.024721   0.005821  -0.000221   0.000020
    23  H   -0.004397  -0.000305  -0.001377  -0.000203   0.000006  -0.000003
    24  H    0.002579   0.000478   0.003276  -0.000127   0.000002  -0.000000
    25  C   -0.026793  -0.039046   0.323538  -0.075195   0.006734  -0.000222
    26  H    0.000164   0.004198  -0.048704  -0.010002   0.000214   0.000001
    27  C    0.000164  -0.002911  -0.036289  -0.002509  -0.000061   0.000045
    28  C   -0.000050   0.001607  -0.007222  -0.001590  -0.000097   0.000010
    29  H   -0.000129   0.001288   0.005850   0.000589  -0.000030  -0.000043
    30  C    0.000004   0.000017   0.000227  -0.000088  -0.000005  -0.000000
    31  Cl  -0.000000  -0.000000  -0.000013   0.000009   0.000001  -0.000000
    32  C    0.000000   0.000000   0.000005   0.000000   0.000000  -0.000000
    33  Cl  -0.000000   0.000000  -0.000000   0.000000  -0.000000   0.000000
    34  C    0.000000   0.000003  -0.000173  -0.000048   0.000000  -0.000000
[...]
 Rotational constants (GHZ):           0.5427951           0.1525418           0.1424707
 Leave Link  202 at Sun Jul 11 17:11:24 2021, MaxMem=   262144000 cpu:               0.1 elap:               0.0
 (Enter /prod/apps/gaussian/g16b1/l301.exe)
 Standard basis: Aug-CC-pVDZ (5D, 7F)
 Ernie: Thresh=  0.10000D-02 Tol=  0.10000D-05 Strict=F.
 Ernie:  56 primitive shells out of 682 were deleted.
 There are   670 symmetry adapted cartesian basis functions of A   symmetry.
 There are   630 symmetry adapted basis functions of A   symmetry.
   630 basis functions,  1134 primitive gaussians,   670 cartesian basis functions
    80 alpha electrons       80 beta electrons
       nuclear repulsion energy      1769.5026639962 Hartrees.
 IExCor=    0 DFT=F Ex=HF Corr=None ExCW=0 ScaHFX=  1.000000
 ScaDFX=  1.000000  1.000000  1.000000  1.000000 ScalE2=  1.000000  1.000000
 IRadAn=      5 IRanWt=     -1 IRanGd=            0 ICorTp=0 IEmpDi=  4
 NAtoms=   38 NActive=   38 NUniq=   38 SFac= 1.00D+00 NAtFMM=   60 NAOKFM=F Big=F
 Integral buffers will be    131072 words long.
 Raffenetti 1 integral format.
 Two-electron integral symmetry is turned on.
 Leave Link  301 at Sun Jul 11 17:11:24 2021, MaxMem=   262144000 cpu:               0.3 elap:               0.1
 (Enter /prod/apps/gaussian/g16b1/l302.exe)
 NPDir=0 NMtPBC=     1 NCelOv=     1 NCel=       1 NClECP=     1 NCelD=      1
         NCelK=      1 NCelE2=     1 NClLst=     1 CellRange=     0.0.
 One-electron integrals computed using PRISM.
 One-electron integral symmetry used in STVInt
 NBasis=   630 RedAO= T EigKep=  1.03D-06  NBF=   630
 NBsUse=   628 1.00D-06 EigRej=  8.18D-07 NBFU=   628
 Leave Link  302 at Sun Jul 11 17:11:25 2021, MaxMem=   262144000 cpu:               3.0 elap:               0.8
 (Enter /prod/apps/gaussian/g16b1/l303.exe)
 DipDrv:  MaxL=1.
 Leave Link  303 at Sun Jul 11 17:11:25 2021, MaxMem=   262144000 cpu:               0.5 elap:               0.2
 (Enter /prod/apps/gaussian/g16b1/l401.exe)
 ExpMin= 2.97D-02 ExpMax= 1.28D+05 ExpMxC= 1.24D+03 IAcc=3 IRadAn=         5 AccDes= 0.00D+00
 Harris functional with IExCor=  205 and IRadAn=       5 diagonalized for initial guess.
 HarFok:  IExCor=  205 AccDes= 0.00D+00 IRadAn=         5 IDoV= 1 UseB2=F ITyADJ=14
 ICtDFT=  3500011 ScaDFX=  1.000000  1.000000  1.000000  1.000000
 FoFCou: FMM=F IPFlag=           0 FMFlag=      100000 FMFlg1=           0
         NFxFlg=           0 DoJE=T BraDBF=F KetDBF=T FulRan=T
         wScrn=  0.000000 ICntrl=       500 IOpCl=  0 I1Cent=   200000004 NGrid=           0
         NMat0=    1 NMatS0=      1 NMatT0=    0 NMatD0=    1 NMtDS0=    0 NMtDT0=    0
 Petite list used in FoFCou.
 Harris En= -1627.73833947528    
 JPrj=0 DoOrth=F DoCkMO=F.
 Leave Link  401 at Sun Jul 11 17:11:31 2021, MaxMem=   262144000 cpu:              25.5 elap:               6.4
 (Enter /prod/apps/gaussian/g16b1/l502.exe)
 Integral symmetry usage will be decided dynamically.
 Closed shell SCF:
 Using DIIS extrapolation, IDIIS=  1040.
 NGot=   262144000 LenX=   261235912 LenY=   260786342
 Requested convergence on RMS density matrix=1.00D-08 within 128 cycles.
 Requested convergence on MAX density matrix=1.00D-06.
 Requested convergence on             energy=1.00D-06.
 No special actions if energy rises.
 Fock matrices will be formed incrementally for  20 cycles.

 Cycle   1  Pass 1  IDiag  1:
 FoFJK:  IHMeth= 1 ICntrl=       0 DoSepK=F KAlg= 0 I1Cent=           0 FoldK=F
 IRaf= 940000000 NMat=       1 IRICut=       1 DoRegI=T DoRafI=F ISym2E= 0 IDoP0=0 IntGTp=1.
 FoFCou: FMM=F IPFlag=           0 FMFlag=      100000 FMFlg1=           0
         NFxFlg=           0 DoJE=F BraDBF=F KetDBF=F FulRan=T
         wScrn=  0.000000 ICntrl=         0 IOpCl=  0 I1Cent=           0 NGrid=           0
         NMat0=    1 NMatS0=      1 NMatT0=    0 NMatD0=    1 NMtDS0=    0 NMtDT0=    0
 Symmetry not used in FoFCou.
 E= -1626.83008015551    
 DIIS: error= 1.71D-02 at cycle   1 NSaved=   1.
 NSaved= 1 IEnMin= 1 EnMin= -1626.83008015551     IErMin= 1 ErrMin= 1.71D-02
 ErrMax= 1.71D-02  0.00D+00 EMaxC= 1.00D-01 BMatC= 9.38D-01 BMatP= 9.38D-01
 IDIUse=3 WtCom= 8.29D-01 WtEn= 1.71D-01
 Coeff-Com:  0.100D+01
 Coeff-En:   0.100D+01
 Coeff:      0.100D+01
 Gap=     0.561 Goal=   None    Shift=    0.000
 GapD=    0.561 DampG=2.000 DampE=0.500 DampFc=1.0000 IDamp=-1.
 RMSDP=7.74D-02 MaxDP=4.77D+00              OVMax= 1.89D-01

 Cycle   2  Pass 1  IDiag  1:
 RMSU=  3.92D-02    CP:  5.04D-01
 E= -1627.42539639332     Delta-E=       -0.595316237809 Rises=F Damp=F
 DIIS: error= 8.85D-03 at cycle   2 NSaved=   2.
 NSaved= 2 IEnMin= 2 EnMin= -1627.42539639332     IErMin= 2 ErrMin= 8.85D-03
 ErrMax= 8.85D-03  0.00D+00 EMaxC= 1.00D-01 BMatC= 1.35D-01 BMatP= 9.38D-01
 IDIUse=3 WtCom= 9.11D-01 WtEn= 8.85D-02
 Coeff-Com:  0.213D+00 0.787D+00
 Coeff-En:   0.000D+00 0.100D+01
 Coeff:      0.194D+00 0.806D+00
 Gap=     0.387 Goal=   None    Shift=    0.000
 RMSDP=8.78D-03 MaxDP=8.08D-01 DE=-5.95D-01 OVMax= 8.84D-02

 Cycle   3  Pass 1  IDiag  1:
 RMSU=  7.92D-03    CP:  4.93D-01  9.11D-01
 E= -1627.55718325142     Delta-E=       -0.131786858101 Rises=F Damp=F
 DIIS: error= 2.22D-03 at cycle   3 NSaved=   3.
 NSaved= 3 IEnMin= 3 EnMin= -1627.55718325142     IErMin= 3 ErrMin= 2.22D-03
 ErrMax= 2.22D-03  0.00D+00 EMaxC= 1.00D-01 BMatC= 1.26D-02 BMatP= 1.35D-01
 IDIUse=3 WtCom= 9.78D-01 WtEn= 2.22D-02
 Coeff-Com: -0.200D-01 0.191D+00 0.829D+00
 Coeff-En:   0.000D+00 0.000D+00 0.100D+01
 Coeff:     -0.195D-01 0.187D+00 0.832D+00
 Gap=     0.336 Goal=   None    Shift=    0.000
 RMSDP=2.85D-03 MaxDP=2.88D-01 DE=-1.32D-01 OVMax= 3.67D-02

 Cycle   4  Pass 1  IDiag  1:
 RMSU=  1.79D-03    CP:  4.89D-01  9.55D-01  8.47D-01
 E= -1627.57112907955     Delta-E=       -0.013945828137 Rises=F Damp=F
 DIIS: error= 7.47D-04 at cycle   4 NSaved=   4.
 NSaved= 4 IEnMin= 4 EnMin= -1627.57112907955     IErMin= 4 ErrMin= 7.47D-04
 ErrMax= 7.47D-04  0.00D+00 EMaxC= 1.00D-01 BMatC= 8.77D-04 BMatP= 1.26D-02
 IDIUse=3 WtCom= 9.93D-01 WtEn= 7.47D-03
 Coeff-Com: -0.134D-01 0.234D-01 0.240D+00 0.750D+00
 Coeff-En:   0.000D+00 0.000D+00 0.000D+00 0.100D+01
 Coeff:     -0.133D-01 0.232D-01 0.239D+00 0.751D+00
 Gap=     0.330 Goal=   None    Shift=    0.000
 RMSDP=6.41D-04 MaxDP=5.33D-02 DE=-1.39D-02 OVMax= 7.80D-03

 Cycle   5  Pass 1  IDiag  1:
 RMSU=  5.11D-04    CP:  4.86D-01  9.54D-01  8.75D-01  9.51D-01
 E= -1627.57215142597     Delta-E=       -0.001022346415 Rises=F Damp=F
 DIIS: error= 2.88D-04 at cycle   5 NSaved=   5.
 NSaved= 5 IEnMin= 5 EnMin= -1627.57215142597     IErMin= 5 ErrMin= 2.88D-04
 ErrMax= 2.88D-04  0.00D+00 EMaxC= 1.00D-01 BMatC= 9.58D-05 BMatP= 8.77D-04
 IDIUse=3 WtCom= 9.97D-01 WtEn= 2.88D-03
 Coeff-Com: -0.605D-03-0.183D-01-0.434D-01 0.167D+00 0.895D+00
 Coeff-En:   0.000D+00 0.000D+00 0.000D+00 0.000D+00 0.100D+01
 Coeff:     -0.603D-03-0.183D-01-0.433D-01 0.166D+00 0.896D+00
 Gap=     0.331 Goal=   None    Shift=    0.000
 RMSDP=2.32D-04 MaxDP=2.23D-02 DE=-1.02D-03 OVMax= 4.66D-03

 Cycle   6  Pass 1  IDiag  1:
 RMSU=  1.45D-04    CP:  4.86D-01  9.57D-01  8.82D-01  1.03D+00  9.09D-01
 E= -1627.57230718881     Delta-E=       -0.000155762845 Rises=F Damp=F
 DIIS: error= 9.98D-05 at cycle   6 NSaved=   6.
 NSaved= 6 IEnMin= 6 EnMin= -1627.57230718881     IErMin= 6 ErrMin= 9.98D-05
 ErrMax= 9.98D-05  0.00D+00 EMaxC= 1.00D-01 BMatC= 1.11D-05 BMatP= 9.58D-05
 IDIUse=1 WtCom= 1.00D+00 WtEn= 0.00D+00
 Coeff-Com:  0.131D-02-0.759D-02-0.361D-01-0.484D-01 0.206D+00 0.885D+00
 Coeff:      0.131D-02-0.759D-02-0.361D-01-0.484D-01 0.206D+00 0.885D+00
 Gap=     0.331 Goal=   None    Shift=    0.000
 RMSDP=8.44D-05 MaxDP=6.66D-03 DE=-1.56D-04 OVMax= 1.57D-03

 Cycle   7  Pass 1  IDiag  1:
 RMSU=  5.98D-05    CP:  4.86D-01  9.57D-01  8.85D-01  1.04D+00  9.84D-01
                    CP:  1.10D+00
 E= -1627.57233036128     Delta-E=       -0.000023172462 Rises=F Damp=F
 DIIS: error= 3.32D-05 at cycle   7 NSaved=   7.
 NSaved= 7 IEnMin= 7 EnMin= -1627.57233036128     IErMin= 7 ErrMin= 3.32D-05
 ErrMax= 3.32D-05  0.00D+00 EMaxC= 1.00D-01 BMatC= 1.25D-06 BMatP= 1.11D-05
 IDIUse=1 WtCom= 1.00D+00 WtEn= 0.00D+00
 Coeff-Com:  0.222D-03 0.593D-03 0.128D-03-0.239D-01-0.639D-01 0.970D-01
 Coeff-Com:  0.990D+00
 Coeff:      0.222D-03 0.593D-03 0.128D-03-0.239D-01-0.639D-01 0.970D-01
 Coeff:      0.990D+00
 Gap=     0.331 Goal=   None    Shift=    0.000
 RMSDP=2.90D-05 MaxDP=1.83D-03 DE=-2.32D-05 OVMax= 1.05D-03

 Cycle   8  Pass 1  IDiag  1:
 RMSU=  2.06D-05    CP:  4.86D-01  9.57D-01  8.86D-01  1.05D+00  9.92D-01
                    CP:  1.20D+00  1.13D+00
 E= -1627.57233474582     Delta-E=       -0.000004384548 Rises=F Damp=F
 DIIS: error= 1.37D-05 at cycle   8 NSaved=   8.
 NSaved= 8 IEnMin= 8 EnMin= -1627.57233474582     IErMin= 8 ErrMin= 1.37D-05
 ErrMax= 1.37D-05  0.00D+00 EMaxC= 1.00D-01 BMatC= 2.80D-07 BMatP= 1.25D-06
 IDIUse=1 WtCom= 1.00D+00 WtEn= 0.00D+00
 Coeff-Com: -0.204D-03 0.123D-02 0.616D-02 0.825D-02-0.287D-01-0.154D+00
 Coeff-Com: -0.172D-01 0.118D+01
 Coeff:     -0.204D-03 0.123D-02 0.616D-02 0.825D-02-0.287D-01-0.154D+00
 Coeff:     -0.172D-01 0.118D+01
 Gap=     0.331 Goal=   None    Shift=    0.000
 RMSDP=1.89D-05 MaxDP=1.01D-03 DE=-4.38D-06 OVMax= 6.25D-04

 Cycle   9  Pass 1  IDiag  1:
 RMSU=  1.16D-05    CP:  4.86D-01  9.57D-01  8.87D-01  1.05D+00  9.94D-01
                    CP:  1.24D+00  1.29D+00  1.32D+00
 E= -1627.57233617749     Delta-E=       -0.000001431668 Rises=F Damp=F
 DIIS: error= 5.94D-06 at cycle   9 NSaved=   9.
 NSaved= 9 IEnMin= 9 EnMin= -1627.57233617749     IErMin= 9 ErrMin= 5.94D-06
 ErrMax= 5.94D-06  0.00D+00 EMaxC= 1.00D-01 BMatC= 6.89D-08 BMatP= 2.80D-07
 IDIUse=1 WtCom= 1.00D+00 WtEn= 0.00D+00
 Coeff-Com: -0.907D-04 0.142D-03 0.126D-02 0.671D-02 0.890D-02-0.553D-01
 Coeff-Com: -0.226D+00 0.251D+00 0.101D+01
 Coeff:     -0.907D-04 0.142D-03 0.126D-02 0.671D-02 0.890D-02-0.553D-01
 Coeff:     -0.226D+00 0.251D+00 0.101D+01
 Gap=     0.331 Goal=   None    Shift=    0.000
 RMSDP=8.20D-06 MaxDP=4.60D-04 DE=-1.43D-06 OVMax= 3.68D-04

 Cycle  10  Pass 1  IDiag  1:
 RMSU=  4.78D-06    CP:  4.86D-01  9.57D-01  8.87D-01  1.05D+00  9.94D-01
                    CP:  1.26D+00  1.33D+00  1.54D+00  1.30D+00
 E= -1627.57233653117     Delta-E=       -0.000000353674 Rises=F Damp=F
 DIIS: error= 2.38D-06 at cycle  10 NSaved=  10.
 NSaved=10 IEnMin=10 EnMin= -1627.57233653117     IErMin=10 ErrMin= 2.38D-06
 ErrMax= 2.38D-06  0.00D+00 EMaxC= 1.00D-01 BMatC= 1.15D-08 BMatP= 6.89D-08
 IDIUse=1 WtCom= 1.00D+00 WtEn= 0.00D+00
 Coeff-Com:  0.444D-04-0.249D-03-0.135D-02-0.223D-02 0.541D-02 0.363D-01
 Coeff-Com:  0.168D-01-0.254D+00-0.785D-01 0.128D+01
 Coeff:      0.444D-04-0.249D-03-0.135D-02-0.223D-02 0.541D-02 0.363D-01
 Coeff:      0.168D-01-0.254D+00-0.785D-01 0.128D+01
 Gap=     0.331 Goal=   None    Shift=    0.000
 RMSDP=4.74D-06 MaxDP=2.18D-04 DE=-3.54D-07 OVMax= 1.76D-04

 Cycle  11  Pass 1  IDiag  1:
 RMSU=  2.24D-06    CP:  4.86D-01  9.57D-01  8.87D-01  1.05D+00  9.95D-01
                    CP:  1.26D+00  1.33D+00  1.63D+00  1.57D+00  1.29D+00
 E= -1627.57233660347     Delta-E=       -0.000000072307 Rises=F Damp=F
 DIIS: error= 9.45D-07 at cycle  11 NSaved=  11.
 NSaved=11 IEnMin=11 EnMin= -1627.57233660347     IErMin=11 ErrMin= 9.45D-07
 ErrMax= 9.45D-07  0.00D+00 EMaxC= 1.00D-01 BMatC= 1.84D-09 BMatP= 1.15D-08
 IDIUse=1 WtCom= 1.00D+00 WtEn= 0.00D+00
 Coeff-Com:  0.248D-04-0.730D-04-0.494D-03-0.162D-02-0.666D-03 0.167D-01
 Coeff-Com:  0.425D-01-0.880D-01-0.203D+00 0.210D+00 0.102D+01
 Coeff:      0.248D-04-0.730D-04-0.494D-03-0.162D-02-0.666D-03 0.167D-01
 Coeff:      0.425D-01-0.880D-01-0.203D+00 0.210D+00 0.102D+01
 Gap=     0.331 Goal=   None    Shift=    0.000
 RMSDP=1.67D-06 MaxDP=8.59D-05 DE=-7.23D-08 OVMax= 5.74D-05

 Cycle  12  Pass 1  IDiag  1:
 RMSU=  6.76D-07    CP:  4.86D-01  9.57D-01  8.87D-01  1.05D+00  9.95D-01
                    CP:  1.26D+00  1.33D+00  1.65D+00  1.64D+00  1.44D+00
                    CP:  1.29D+00
 E= -1627.57233661180     Delta-E=       -0.000000008326 Rises=F Damp=F
 DIIS: error= 2.39D-07 at cycle  12 NSaved=  12.
 NSaved=12 IEnMin=12 EnMin= -1627.57233661180     IErMin=12 ErrMin= 2.39D-07
 ErrMax= 2.39D-07  0.00D+00 EMaxC= 1.00D-01 BMatC= 1.80D-10 BMatP= 1.84D-09
 IDIUse=1 WtCom= 1.00D+00 WtEn= 0.00D+00
 Coeff-Com: -0.347D-05 0.262D-04 0.129D-03 0.209D-03-0.714D-03-0.378D-02
 Coeff-Com: -0.694D-04 0.308D-01-0.126D-03-0.167D+00 0.639D-01 0.108D+01
 Coeff:     -0.347D-05 0.262D-04 0.129D-03 0.209D-03-0.714D-03-0.378D-02
 Coeff:     -0.694D-04 0.308D-01-0.126D-03-0.167D+00 0.639D-01 0.108D+01
 Gap=     0.331 Goal=   None    Shift=    0.000
 RMSDP=4.92D-07 MaxDP=2.60D-05 DE=-8.33D-09 OVMax= 1.49D-05

 Cycle  13  Pass 1  IDiag  1:
 RMSU=  2.71D-07    CP:  4.86D-01  9.57D-01  8.87D-01  1.05D+00  9.95D-01
                    CP:  1.26D+00  1.33D+00  1.66D+00  1.65D+00  1.46D+00
                    CP:  1.41D+00  1.13D+00
 E= -1627.57233661234     Delta-E=       -0.000000000540 Rises=F Damp=F
 DIIS: error= 7.16D-08 at cycle  13 NSaved=  13.
 NSaved=13 IEnMin=13 EnMin= -1627.57233661234     IErMin=13 ErrMin= 7.16D-08
 ErrMax= 7.16D-08  0.00D+00 EMaxC= 1.00D-01 BMatC= 1.59D-11 BMatP= 1.80D-10
 IDIUse=1 WtCom= 1.00D+00 WtEn= 0.00D+00
 Coeff-Com: -0.236D-05 0.813D-05 0.502D-04 0.170D-03 0.292D-04-0.181D-02
 Coeff-Com: -0.417D-02 0.102D-01 0.187D-01-0.305D-01-0.845D-01 0.650D-01
 Coeff-Com:  0.103D+01
 Coeff:     -0.236D-05 0.813D-05 0.502D-04 0.170D-03 0.292D-04-0.181D-02
 Coeff:     -0.417D-02 0.102D-01 0.187D-01-0.305D-01-0.845D-01 0.650D-01
 Coeff:      0.103D+01
 Gap=     0.331 Goal=   None    Shift=    0.000
 RMSDP=1.34D-07 MaxDP=6.82D-06 DE=-5.40D-10 OVMax= 3.72D-06

 Cycle  14  Pass 1  IDiag  1:
 RMSU=  7.71D-08    CP:  4.86D-01  9.57D-01  8.87D-01  1.05D+00  9.95D-01
                    CP:  1.26D+00  1.33D+00  1.66D+00  1.65D+00  1.46D+00
                    CP:  1.42D+00  1.21D+00  1.16D+00
 E= -1627.57233661246     Delta-E=       -0.000000000125 Rises=F Damp=F
 DIIS: error= 3.69D-08 at cycle  14 NSaved=  14.
 NSaved=14 IEnMin=14 EnMin= -1627.57233661246     IErMin=14 ErrMin= 3.69D-08
 ErrMax= 3.69D-08  0.00D+00 EMaxC= 1.00D-01 BMatC= 2.90D-12 BMatP= 1.59D-11
 IDIUse=1 WtCom= 1.00D+00 WtEn= 0.00D+00
 Coeff-Com:  0.457D-06-0.326D-05-0.169D-04-0.287D-04 0.842D-04 0.515D-03
 Coeff-Com:  0.145D-03-0.401D-02-0.672D-03 0.211D-01-0.563D-02-0.140D+00
 Coeff-Com: -0.482D-03 0.113D+01
 Coeff:      0.457D-06-0.326D-05-0.169D-04-0.287D-04 0.842D-04 0.515D-03
 Coeff:      0.145D-03-0.401D-02-0.672D-03 0.211D-01-0.563D-02-0.140D+00
 Coeff:     -0.482D-03 0.113D+01
 Gap=     0.331 Goal=   None    Shift=    0.000
 RMSDP=6.02D-08 MaxDP=3.64D-06 DE=-1.25D-10 OVMax= 1.67D-06

 Cycle  15  Pass 1  IDiag  1:
 RMSU=  3.38D-08    CP:  4.86D-01  9.57D-01  8.87D-01  1.05D+00  9.95D-01
                    CP:  1.26D+00  1.33D+00  1.66D+00  1.65D+00  1.46D+00
                    CP:  1.42D+00  1.21D+00  1.29D+00  1.30D+00
 E= -1627.57233661243     Delta-E=        0.000000000033 Rises=F Damp=F
 DIIS: error= 2.35D-08 at cycle  15 NSaved=  15.
 NSaved=15 IEnMin=14 EnMin= -1627.57233661246     IErMin=15 ErrMin= 2.35D-08
 ErrMax= 2.35D-08  0.00D+00 EMaxC= 1.00D-01 BMatC= 6.38D-13 BMatP= 2.90D-12
 IDIUse=1 WtCom= 1.00D+00 WtEn= 0.00D+00
 Coeff-Com:  0.371D-06-0.113D-05-0.726D-05-0.289D-04-0.199D-04 0.284D-03
 Coeff-Com:  0.794D-03-0.146D-02-0.356D-02 0.392D-02 0.167D-01-0.361D-03
 Coeff-Com: -0.185D+00-0.918D-01 0.126D+01
 Coeff:      0.371D-06-0.113D-05-0.726D-05-0.289D-04-0.199D-04 0.284D-03
 Coeff:      0.794D-03-0.146D-02-0.356D-02 0.392D-02 0.167D-01-0.361D-03
 Coeff:     -0.185D+00-0.918D-01 0.126D+01
 Gap=     0.331 Goal=   None    Shift=    0.000
 RMSDP=3.27D-08 MaxDP=1.54D-06 DE= 3.27D-11 OVMax= 1.15D-06

 Cycle  16  Pass 1  IDiag  1:
 RMSU=  1.55D-08    CP:  4.86D-01  9.57D-01  8.87D-01  1.05D+00  9.95D-01
                    CP:  1.26D+00  1.33D+00  1.66D+00  1.65D+00  1.46D+00
                    CP:  1.42D+00  1.21D+00  1.32D+00  1.50D+00  1.46D+00
 E= -1627.57233661247     Delta-E=       -0.000000000035 Rises=F Damp=F
 DIIS: error= 1.06D-08 at cycle  16 NSaved=  16.
 NSaved=16 IEnMin=16 EnMin= -1627.57233661247     IErMin=16 ErrMin= 1.06D-08
 ErrMax= 1.06D-08  0.00D+00 EMaxC= 1.00D-01 BMatC= 1.34D-13 BMatP= 6.38D-13
 IDIUse=1 WtCom= 1.00D+00 WtEn= 0.00D+00
 Coeff-Com: -0.993D-07 0.749D-06 0.391D-05 0.614D-05-0.195D-04-0.115D-03
 Coeff-Com: -0.242D-04 0.854D-03 0.621D-04-0.445D-02 0.114D-02 0.302D-01
 Coeff-Com:  0.306D-03-0.244D+00-0.174D-01 0.123D+01
 Coeff:     -0.993D-07 0.749D-06 0.391D-05 0.614D-05-0.195D-04-0.115D-03
 Coeff:     -0.242D-04 0.854D-03 0.621D-04-0.445D-02 0.114D-02 0.302D-01
 Coeff:      0.306D-03-0.244D+00-0.174D-01 0.123D+01
 Gap=     0.331 Goal=   None    Shift=    0.000
 RMSDP=1.63D-08 MaxDP=9.38D-07 DE=-3.46D-11 OVMax= 6.02D-07

 Cycle  17  Pass 1  IDiag  1:
 RMSU=  7.32D-09    CP:  4.86D-01  9.57D-01  8.87D-01  1.05D+00  9.95D-01
                    CP:  1.26D+00  1.33D+00  1.66D+00  1.65D+00  1.46D+00
                    CP:  1.42D+00  1.21D+00  1.34D+00  1.55D+00  1.72D+00
                    CP:  1.39D+00
 E= -1627.57233661244     Delta-E=        0.000000000027 Rises=F Damp=F
 DIIS: error= 5.10D-09 at cycle  17 NSaved=  17.
 NSaved=17 IEnMin=16 EnMin= -1627.57233661247     IErMin=17 ErrMin= 5.10D-09
 ErrMax= 5.10D-09  0.00D+00 EMaxC= 1.00D-01 BMatC= 2.15D-14 BMatP= 1.34D-13
 IDIUse=1 WtCom= 1.00D+00 WtEn= 0.00D+00
 Coeff-Com: -0.846D-07 0.357D-06 0.213D-05 0.641D-05 0.295D-07-0.754D-04
 Coeff-Com: -0.142D-03 0.447D-03 0.657D-03-0.160D-02-0.303D-02 0.624D-02
 Coeff-Com:  0.340D-01-0.309D-01-0.243D+00 0.255D+00 0.982D+00
 Coeff:     -0.846D-07 0.357D-06 0.213D-05 0.641D-05 0.295D-07-0.754D-04
 Coeff:     -0.142D-03 0.447D-03 0.657D-03-0.160D-02-0.303D-02 0.624D-02
 Coeff:      0.340D-01-0.309D-01-0.243D+00 0.255D+00 0.982D+00
 Gap=     0.331 Goal=   None    Shift=    0.000
 RMSDP=6.80D-09 MaxDP=4.24D-07 DE= 2.73D-11 OVMax= 2.21D-07

 SCF Done:  E(RHF) =  -1627.57233661     A.U. after   17 cycles
            NFock= 17  Conv=0.68D-08     -V/T= 2.0005
 KE= 1.626834645888D+03 PE=-7.356909202978D+03 EE= 2.332999556481D+03
 Leave Link  502 at Sun Jul 11 17:33:50 2021, MaxMem=   262144000 cpu:            5349.2 elap:            1338.7
 (Enter /prod/apps/gaussian/g16b1/l801.exe)
 ExpMin= 2.97D-02 ExpMax= 1.28D+05 ExpMxC= 1.24D+03 IAcc=3 IRadAn=         5 AccDes= 0.00D+00
 HarFok:  IExCor=  205 AccDes= 0.00D+00 IRadAn=         5 IDoV=-2 UseB2=F ITyADJ=14
 ICtDFT= 12500011 ScaDFX=  1.000000  1.000000  1.000000  1.000000
 GSVD:  LWork=       -1008 too small for GESVD, short by        4340 words or        4340 for optimal perf.
 Largest valence mixing into a core orbital is  2.86D-04
 Largest core mixing into a valence orbital is  9.88D-05
 Range of M.O.s used for correlation:    29   628
 NBasis=   630 NAE=    80 NBE=    80 NFC=    28 NFV=     0
 NROrb=    600 NOA=    52 NOB=    52 NVA=   548 NVB=   548

 **** Warning!!: The largest alpha MO coefficient is  0.10769303D+03

 Leave Link  801 at Sun Jul 11 17:33:50 2021, MaxMem=   262144000 cpu:               1.0 elap:               0.3
 (Enter /prod/apps/gaussian/g16b1/l906.exe)
 FulOut=F Deriv=F AODrv=F NAtomX=    38
   MMem=           3  MDisk=          52 MDiskD=          52
  W3Min=    19092320 MinDsk=    19481793 NBas6D=         670
 NBas2D=      225679    NTT=      224785    LW2=     2000000
    MDV=   259302612 MDiskM=        5333 NBas2p=      207084
 Disk-based method using OVN memory for 52 occupieds at a time.
 Estimated scratch disk usage= 17962649024 words.
 IMap=   1   2   3   4   5   6   7   8   9  10  11  12  13  14  15  16  17  18  19  20
 IMap=  21  22  23  24  25  26  27  28  29  30  31  32  33  34  35  36  37  38  39  40
 IMap=  41  42  43  44  45  46  47  48  49  50  51  52
 Actual    scratch disk usage= 17749491136 words.
 JobTyp=1 Pass  1:  I=   1 to  52 NPSUse=  4 ParTrn=T ParDer=T DoDerP=F.
Erroneous write. Write -1 instead of 8348848.
fd = 4
orig len = 8384512 left = 8348848
