 Entering Gaussian System, Link 0=g16
 Initial command:
 /prod/apps/gaussian/g16b1/l1.exe "/tmp/ubator02/1834564/Gau-184040.inp" -scrdir="/tmp/ubator02/1834564/"
 Entering Link 1 = /prod/apps/gaussian/g16b1/l1.exe PID=    184041.
  
 Copyright (c) 1988-2017, Gaussian, Inc.  All Rights Reserved.
  
 This is part of the Gaussian(R) 16 program.  It is based on
 the Gaussian(R) 09 system (copyright 2009, Gaussian, Inc.),
 the Gaussian(R) 03 system (copyright 2003, Gaussian, Inc.),
 the Gaussian(R) 98 system (copyright 1998, Gaussian, Inc.),
 the Gaussian(R) 94 system (copyright 1995, Gaussian, Inc.),
 the Gaussian 92(TM) system (copyright 1992, Gaussian, Inc.),
 the Gaussian 90(TM) system (copyright 1990, Gaussian, Inc.),
 the Gaussian 88(TM) system (copyright 1988, Gaussian, Inc.),
 the Gaussian 86(TM) system (copyright 1986, Carnegie Mellon
 University), and the Gaussian 82(TM) system (copyright 1983,
 Carnegie Mellon University). Gaussian is a federally registered
 trademark of Gaussian, Inc.
  
 This software contains proprietary and confidential information,
 including trade secrets, belonging to Gaussian, Inc.
  
 This software is provided under written license and may be
 used, copied, transmitted, or stored only in accord with that
 written license.
  
 The following legend is applicable only to US Government
 contracts under FAR:
  
                    RESTRICTED RIGHTS LEGEND
  
 Use, reproduction and disclosure by the US Government is
 subject to restrictions as set forth in subparagraphs (a)
 and (c) of the Commercial Computer Software - Restricted
 Rights clause in FAR 52.227-19.
  
 Gaussian, Inc.
 340 Quinnipiac St., Bldg. 40, Wallingford CT 06492
  
  
 ---------------------------------------------------------------
 Warning -- This program may not be used in any manner that
 competes with the business of Gaussian, Inc. or will provide
 assistance to any competitor of Gaussian, Inc.  The licensee
 of this program is prohibited from giving any competitor of
 Gaussian, Inc. access to this program.  By using this program,
 the user acknowledges that Gaussian, Inc. is engaged in the
 business of creating and licensing software in the field of
 computational chemistry and represents and warrants to the
 licensee that it is not a competitor of Gaussian, Inc. and that
 it will not use this program in any manner prohibited above.
 ---------------------------------------------------------------
  

 Cite this work as:
 Gaussian 16, Revision B.01,
 M. J. Frisch, G. W. Trucks, H. B. Schlegel, G. E. Scuseria, 
 M. A. Robb, J. R. Cheeseman, G. Scalmani, V. Barone, 
 G. A. Petersson, H. Nakatsuji, X. Li, M. Caricato, A. V. Marenich, 
 J. Bloino, B. G. Janesko, R. Gomperts, B. Mennucci, H. P. Hratchian, 
 J. V. Ortiz, A. F. Izmaylov, J. L. Sonnenberg, D. Williams-Young, 
 F. Ding, F. Lipparini, F. Egidi, J. Goings, B. Peng, A. Petrone, 
 T. Henderson, D. Ranasinghe, V. G. Zakrzewski, J. Gao, N. Rega, 
 G. Zheng, W. Liang, M. Hada, M. Ehara, K. Toyota, R. Fukuda, 
 J. Hasegawa, M. Ishida, T. Nakajima, Y. Honda, O. Kitao, H. Nakai, 
 T. Vreven, K. Throssell, J. A. Montgomery, Jr., J. E. Peralta, 
 F. Ogliaro, M. J. Bearpark, J. J. Heyd, E. N. Brothers, K. N. Kudin, 
 V. N. Staroverov, T. A. Keith, R. Kobayashi, J. Normand, 
 K. Raghavachari, A. P. Rendell, J. C. Burant, S. S. Iyengar, 
 J. Tomasi, M. Cossi, J. M. Millam, M. Klene, C. Adamo, R. Cammi, 
 J. W. Ochterski, R. L. Martin, K. Morokuma, O. Farkas, 
 J. B. Foresman, and D. J. Fox, Gaussian, Inc., Wallingford CT, 2016.
 
 ******************************************
 Gaussian 16:  ES64L-G16RevB.01 20-Dec-2017
                11-Jul-2021 
 ******************************************
 %mem=800MB
 %nproc=4
 Will use up to    4 processors via shared memory.
 %chk=SET_328_BBB286_conf1.geo_000_090.chk
 -----------------------------------------------------------
 #p b3lyp/6-31G(d) opt freq scrf=(iefpcm,read,solvent=water)
 -----------------------------------------------------------
 1/18=20,19=15,26=3,38=1,40=2/1,3;
 2/9=110,12=2,17=6,18=5,40=1/2;
 3/5=1,6=6,7=1,11=2,25=1,30=1,70=2203,71=1,72=1,74=-5/1,2,3;
 4//1;
 5/5=2,38=5,53=1/2;
 6/7=2,8=2,9=2,10=2,28=1/1;
 7//1,2,3,16;
 1/18=20,19=15,26=3/3(2);
 2/9=110/2;
 99//99;
 2/9=110/2;
 3/5=1,6=6,7=1,11=2,25=1,30=1,70=2205,71=1,72=1,74=-5/1,2,3;
 4/5=5,16=3,69=1/1;
 5/5=2,38=5,53=1/2;
 7//1,2,3,16;
 1/18=20,19=15,26=3/3(-5);
 2/9=110/2;
 6/7=2,8=2,9=2,10=2,19=2,28=1/1;
 99/9=1/99;
 Leave Link    1 at Sun Jul 11 16:07:39 2021, MaxMem=   104857600 cpu:               0.1 elap:               0.0
 (Enter /prod/apps/gaussian/g16b1/l101.exe)
 -----------------------------------------
 SET_328_BBB286_conf1.geo_000_090 geometry
 -----------------------------------------
 Symbolic Z-matrix:
 Charge =  1 Multiplicity = 1
 C                    -2.407     3.3      -2.276 
 H                    -2.61      4.237    -1.753 
 H                    -3.068     2.475    -2. 
 H                    -2.496     3.473    -3.352 
 N                    -1.082     2.935    -1.87 
 C                     0.014     3.684    -2.163 
 C                     1.081     3.026    -1.68 
 C                     2.38      3.554    -1.647 
 C                     2.477     4.767    -2.236 
 C                     1.357     5.428    -2.777 
 C                     0.079     4.905    -2.768 
 H                    -0.808     5.392    -3.164 
 H                     1.426     6.37     -3.315 
 H                     3.433     5.281    -2.282 
 H                     3.263     2.974    -1.392 
 N                    -0.817     1.798    -1.234 
 C                     0.516     1.908    -1.013 
 C                     1.396     0.85     -0.391 
 O                     2.623     0.792    -0.332 
 N                     0.688    -0.263    -0.063 
 H                    -0.3      -0.16     -0.244 
 C                     1.155    -1.508     0.508 
 C                     0.454    -2.735    -0.154 
 H                     0.215    -2.538    -1.201 
 H                     1.215    -3.518    -0.138 
 H                     2.167    -1.551     0.095 
 C                     1.152    -1.554     2.058 
 H                     1.254    -0.571     2.523 
 H                     2.046    -2.091     2.383 
 C                    -0.059    -2.287     2.644 
 H                     0.277    -2.526     3.656 
 C                    -1.368    -1.465     2.695 
 H                    -1.134    -0.43      2.951 
 H                    -2.021    -1.861     3.475 
 C                    -2.093    -1.342     1.35 
 H                    -1.569    -0.579     0.771 
 H                    -3.07     -0.887     1.526 
 C                    -2.15     -2.65      0.502 
 H                    -2.541    -2.553    -0.513 
 H                    -2.782    -3.43      0.932 
 C                    -0.737    -3.467     0.588 
 H                    -0.877    -4.406     0.047 
 N                    -0.301    -3.605     1.998 
 C                     0.703    -4.625     2.293 
 H                     1.686    -4.161     2.18 
 H                     0.55     -5.337     1.478 
 H                     0.686    -5.047     3.301 
 H                    -1.119    -3.947     2.461 
 
 ITRead=  0  0  0  0  0  0  0  0  0  0  0  0  0  0  0  0  0  0  0  0
 ITRead=  0  0  0  0  0  0  0  0  0  0  0  0  0  0  0  0  0  0  0  0
 ITRead=  0  0  0  0  0  0  0  0
 MicOpt= -1 -1 -1 -1 -1 -1 -1 -1 -1 -1 -1 -1 -1 -1 -1 -1 -1 -1 -1 -1
 MicOpt= -1 -1 -1 -1 -1 -1 -1 -1 -1 -1 -1 -1 -1 -1 -1 -1 -1 -1 -1 -1
 MicOpt= -1 -1 -1 -1 -1 -1 -1 -1
 NAtoms=     48 NQM=       48 NQMF=       0 NMMI=      0 NMMIF=      0
                NMic=       0 NMicF=      0.
                    Isotopes and Nuclear Properties:
 (Nuclear quadrupole moments (NQMom) in fm**2, nuclear magnetic moments (NMagM)
  in nuclear magnetons)

  Atom         1           2           3           4           5           6           7           8           9          10
 IAtWgt=          12           1           1           1          14          12          12          12          12          12
 AtmWgt=  12.0000000   1.0078250   1.0078250   1.0078250  14.0030740  12.0000000  12.0000000  12.0000000  12.0000000  12.0000000
 NucSpn=           0           1           1           1           2           0           0           0           0           0
 AtZEff=  -0.0000000  -0.0000000  -0.0000000  -0.0000000  -0.0000000  -0.0000000  -0.0000000  -0.0000000  -0.0000000  -0.0000000
 NQMom=    0.0000000   0.0000000   0.0000000   0.0000000   2.0440000   0.0000000   0.0000000   0.0000000   0.0000000   0.0000000
 NMagM=    0.0000000   2.7928460   2.7928460   2.7928460   0.4037610   0.0000000   0.0000000   0.0000000   0.0000000   0.0000000
 AtZNuc=   6.0000000   1.0000000   1.0000000   1.0000000   7.0000000   6.0000000   6.0000000   6.0000000   6.0000000   6.0000000

  Atom        11          12          13          14          15          16          17          18          19          20
 IAtWgt=          12           1           1           1           1          14          12          12          16          14
 AtmWgt=  12.0000000   1.0078250   1.0078250   1.0078250   1.0078250  14.0030740  12.0000000  12.0000000  15.9949146  14.0030740
 NucSpn=           0           1           1           1           1           2           0           0           0           2
 AtZEff=  -0.0000000  -0.0000000  -0.0000000  -0.0000000  -0.0000000  -0.0000000  -0.0000000  -0.0000000  -0.0000000  -0.0000000
 NQMom=    0.0000000   0.0000000   0.0000000   0.0000000   0.0000000   2.0440000   0.0000000   0.0000000   0.0000000   2.0440000
 NMagM=    0.0000000   2.7928460   2.7928460   2.7928460   2.7928460   0.4037610   0.0000000   0.0000000   0.0000000   0.4037610
 AtZNuc=   6.0000000   1.0000000   1.0000000   1.0000000   1.0000000   7.0000000   6.0000000   6.0000000   8.0000000   7.0000000

  Atom        21          22          23          24          25          26          27          28          29          30
 IAtWgt=           1          12          12           1           1           1          12           1           1          12
 AtmWgt=   1.0078250  12.0000000  12.0000000   1.0078250   1.0078250   1.0078250  12.0000000   1.0078250   1.0078250  12.0000000
 NucSpn=           1           0           0           1           1           1           0           1           1           0
 AtZEff=  -0.0000000  -0.0000000  -0.0000000  -0.0000000  -0.0000000  -0.0000000  -0.0000000  -0.0000000  -0.0000000  -0.0000000
 NQMom=    0.0000000   0.0000000   0.0000000   0.0000000   0.0000000   0.0000000   0.0000000   0.0000000   0.0000000   0.0000000
 NMagM=    2.7928460   0.0000000   0.0000000   2.7928460   2.7928460   2.7928460   0.0000000   2.7928460   2.7928460   0.0000000
 AtZNuc=   1.0000000   6.0000000   6.0000000   1.0000000   1.0000000   1.0000000   6.0000000   1.0000000   1.0000000   6.0000000

  Atom        31          32          33          34          35          36          37          38          39          40
 IAtWgt=           1          12           1           1          12           1           1          12           1           1
 AtmWgt=   1.0078250  12.0000000   1.0078250   1.0078250  12.0000000   1.0078250   1.0078250  12.0000000   1.0078250   1.0078250
 NucSpn=           1           0           1           1           0           1           1           0           1           1
 AtZEff=  -0.0000000  -0.0000000  -0.0000000  -0.0000000  -0.0000000  -0.0000000  -0.0000000  -0.0000000  -0.0000000  -0.0000000
 NQMom=    0.0000000   0.0000000   0.0000000   0.0000000   0.0000000   0.0000000   0.0000000   0.0000000   0.0000000   0.0000000
 NMagM=    2.7928460   0.0000000   2.7928460   2.7928460   0.0000000   2.7928460   2.7928460   0.0000000   2.7928460   2.7928460
 AtZNuc=   1.0000000   6.0000000   1.0000000   1.0000000   6.0000000   1.0000000   1.0000000   6.0000000   1.0000000   1.0000000

  Atom        41          42          43          44          45          46          47          48
 IAtWgt=          12           1          14          12           1           1           1           1
 AtmWgt=  12.0000000   1.0078250  14.0030740  12.0000000   1.0078250   1.0078250   1.0078250   1.0078250
 NucSpn=           0           1           2           0           1           1           1           1
 AtZEff=  -0.0000000  -0.0000000  -0.0000000  -0.0000000  -0.0000000  -0.0000000  -0.0000000  -0.0000000
 NQMom=    0.0000000   0.0000000   2.0440000   0.0000000   0.0000000   0.0000000   0.0000000   0.0000000
 NMagM=    0.0000000   2.7928460   0.4037610   0.0000000   2.7928460   2.7928460   2.7928460   2.7928460
 AtZNuc=   6.0000000   1.0000000   7.0000000   6.0000000   1.0000000   1.0000000   1.0000000   1.0000000
 Leave Link  101 at Sun Jul 11 16:07:39 2021, MaxMem=   104857600 cpu:               0.8 elap:               0.2
 (Enter /prod/apps/gaussian/g16b1/l103.exe)

 GradGradGradGradGradGradGradGradGradGradGradGradGradGradGradGradGradGrad
 Berny optimization.
 Initialization pass.
                           ----------------------------
                           !    Initial Parameters    !
                           ! (Angstroms and Degrees)  !
 --------------------------                            --------------------------
 ! Name  Definition              Value          Derivative Info.                !
 --------------------------------------------------------------------------------
 ! R1    R(1,2)                  1.0921         estimate D2E/DX2                !
 ! R2    R(1,3)                  1.0926         estimate D2E/DX2                !
 ! R3    R(1,4)                  1.0934         estimate D2E/DX2                !
 ! R4    R(1,5)                  1.4331         estimate D2E/DX2                !
 ! R5    R(5,6)                  1.3594         estimate D2E/DX2                !
 ! R6    R(5,16)                 1.3295         estimate D2E/DX2                !
 ! R7    R(6,7)                  1.3434         estimate D2E/DX2                !
 ! R8    R(6,11)                 1.3642         estimate D2E/DX2                !
 ! R9    R(7,8)                  1.4026         estimate D2E/DX2                !
 ! R10   R(7,17)                 1.4192         estimate D2E/DX2                !
 ! R11   R(8,9)                  1.3519         estimate D2E/DX2                !
 ! R12   R(8,15)                 1.0868         estimate D2E/DX2                !
 ! R13   R(9,10)                 1.4085         estimate D2E/DX2                !
 ! R14   R(9,14)                 1.0864         estimate D2E/DX2                !
 ! R15   R(10,11)                1.3809         estimate D2E/DX2                !
 ! R16   R(10,13)                1.087          estimate D2E/DX2                !
 ! R17   R(11,12)                1.0866         estimate D2E/DX2                !
 ! R18   R(16,17)                1.3557         estimate D2E/DX2                !
 ! R19   R(17,18)                1.5102         estimate D2E/DX2                !
 ! R20   R(18,19)                1.2298         estimate D2E/DX2                !
 ! R21   R(18,20)                1.3593         estimate D2E/DX2                !
 ! R22   R(20,21)                1.0097         estimate D2E/DX2                !
 ! R23   R(20,22)                1.4471         estimate D2E/DX2                !
 ! R24   R(22,23)                1.5605         estimate D2E/DX2                !
 ! R25   R(22,26)                1.0939         estimate D2E/DX2                !
 ! R26   R(22,27)                1.5507         estimate D2E/DX2                !
 ! R27   R(23,24)                1.0919         estimate D2E/DX2                !
 ! R28   R(23,25)                1.092          estimate D2E/DX2                !
 ! R29   R(23,41)                1.5827         estimate D2E/DX2                !
 ! R30   R(27,28)                1.0922         estimate D2E/DX2                !
 ! R31   R(27,29)                1.0924         estimate D2E/DX2                !
 ! R32   R(27,30)                1.5321         estimate D2E/DX2                !
 ! R33   R(30,31)                1.0928         estimate D2E/DX2                !
 ! R34   R(30,32)                1.5465         estimate D2E/DX2                !
 ! R35   R(30,43)                1.4876         estimate D2E/DX2                !
 ! R36   R(32,33)                1.0916         estimate D2E/DX2                !
 ! R37   R(32,34)                1.0916         estimate D2E/DX2                !
 ! R38   R(32,35)                1.5329         estimate D2E/DX2                !
 ! R39   R(35,36)                1.0918         estimate D2E/DX2                !
 ! R40   R(35,37)                1.092          estimate D2E/DX2                !
 ! R41   R(35,38)                1.5599         estimate D2E/DX2                !
 ! R42   R(38,39)                1.092          estimate D2E/DX2                !
 ! R43   R(38,40)                1.0921         estimate D2E/DX2                !
 ! R44   R(38,41)                1.6345         estimate D2E/DX2                !
 ! R45   R(41,42)                1.0927         estimate D2E/DX2                !
 ! R46   R(41,43)                1.4823         estimate D2E/DX2                !
 ! R47   R(43,44)                1.4613         estimate D2E/DX2                !
 ! R48   R(43,48)                1.0002         estimate D2E/DX2                !
 ! R49   R(44,45)                1.0929         estimate D2E/DX2                !
 ! R50   R(44,46)                1.093          estimate D2E/DX2                !
 ! R51   R(44,47)                1.0929         estimate D2E/DX2                !
 ! A1    A(2,1,3)              114.4829         estimate D2E/DX2                !
 ! A2    A(2,1,4)              108.6856         estimate D2E/DX2                !
 ! A3    A(2,1,5)              104.7565         estimate D2E/DX2                !
 ! A4    A(3,1,4)              108.5909         estimate D2E/DX2                !
 ! A5    A(3,1,5)              107.1863         estimate D2E/DX2                !
 ! A6    A(4,1,5)              113.2249         estimate D2E/DX2                !
 ! A7    A(1,5,6)              122.9583         estimate D2E/DX2                !
 ! A8    A(1,5,16)             122.5239         estimate D2E/DX2                !
 ! A9    A(6,5,16)             114.4315         estimate D2E/DX2                !
 ! A10   A(5,6,7)              107.0367         estimate D2E/DX2                !
 ! A11   A(5,6,11)             128.8379         estimate D2E/DX2                !
 ! A12   A(7,6,11)             124.0545         estimate D2E/DX2                !
 ! A13   A(6,7,8)              124.0325         estimate D2E/DX2                !
 ! A14   A(6,7,17)             103.8056         estimate D2E/DX2                !
 ! A15   A(8,7,17)             130.8602         estimate D2E/DX2                !
 ! A16   A(7,8,9)              113.2012         estimate D2E/DX2                !
 ! A17   A(7,8,15)             123.855          estimate D2E/DX2                !
 ! A18   A(9,8,15)             121.5182         estimate D2E/DX2                !
 ! A19   A(8,9,10)             122.096          estimate D2E/DX2                !
 ! A20   A(8,9,14)             120.4039         estimate D2E/DX2                !
 ! A21   A(10,9,14)            117.4788         estimate D2E/DX2                !
 ! A22   A(9,10,11)            123.7559         estimate D2E/DX2                !
 ! A23   A(9,10,13)            123.1138         estimate D2E/DX2                !
 ! A24   A(11,10,13)           112.9663         estimate D2E/DX2                !
 ! A25   A(6,11,10)            112.7035         estimate D2E/DX2                !
 ! A26   A(6,11,12)            121.5909         estimate D2E/DX2                !
 ! A27   A(10,11,12)           125.6861         estimate D2E/DX2                !
 ! A28   A(5,16,17)            101.8053         estimate D2E/DX2                !
 ! A29   A(7,17,16)            112.2574         estimate D2E/DX2                !
 ! A30   A(7,17,18)            120.8968         estimate D2E/DX2                !
 ! A31   A(16,17,18)           125.6806         estimate D2E/DX2                !
 ! A32   A(17,18,19)           129.3601         estimate D2E/DX2                !
 ! A33   A(17,18,20)           111.686          estimate D2E/DX2                !
 ! A34   A(19,18,20)           118.0014         estimate D2E/DX2                !
 ! A35   A(18,20,21)           112.5125         estimate D2E/DX2                !
 ! A36   A(18,20,22)           129.1669         estimate D2E/DX2                !
 ! A37   A(21,20,22)           118.3115         estimate D2E/DX2                !
 ! A38   A(20,22,23)           111.3528         estimate D2E/DX2                !
 ! A39   A(20,22,26)           100.5679         estimate D2E/DX2                !
 ! A40   A(20,22,27)           114.7904         estimate D2E/DX2                !
 ! A41   A(23,22,26)           102.9743         estimate D2E/DX2                !
 ! A42   A(23,22,27)           113.5682         estimate D2E/DX2                !
 ! A43   A(26,22,27)           112.2107         estimate D2E/DX2                !
 ! A44   A(22,23,24)           111.3005         estimate D2E/DX2                !
 ! A45   A(22,23,25)           104.1538         estimate D2E/DX2                !
 ! A46   A(22,23,41)           120.1867         estimate D2E/DX2                !
 ! A47   A(24,23,25)           107.2155         estimate D2E/DX2                !
 ! A48   A(24,23,41)           111.6104         estimate D2E/DX2                !
 ! A49   A(25,23,41)           100.7148         estimate D2E/DX2                !
 ! A50   A(22,27,28)           113.4954         estimate D2E/DX2                !
 ! A51   A(22,27,29)           108.0828         estimate D2E/DX2                !
 ! A52   A(22,27,30)           113.456          estimate D2E/DX2                !
 ! A53   A(28,27,29)           103.848          estimate D2E/DX2                !
 ! A54   A(28,27,30)           109.973          estimate D2E/DX2                !
 ! A55   A(29,27,30)           107.332          estimate D2E/DX2                !
 ! A56   A(27,30,31)           102.4635         estimate D2E/DX2                !
 ! A57   A(27,30,32)           115.2996         estimate D2E/DX2                !
 ! A58   A(27,30,43)           112.7293         estimate D2E/DX2                !
 ! A59   A(31,30,32)           110.2401         estimate D2E/DX2                !
 ! A60   A(31,30,43)           104.9751         estimate D2E/DX2                !
 ! A61   A(32,30,43)           110.3368         estimate D2E/DX2                !
 ! A62   A(30,32,33)           109.2843         estimate D2E/DX2                !
 ! A63   A(30,32,34)           109.6983         estimate D2E/DX2                !
 ! A64   A(30,32,35)           114.4583         estimate D2E/DX2                !
 ! A65   A(33,32,34)           107.7356         estimate D2E/DX2                !
 ! A66   A(33,32,35)           103.3609         estimate D2E/DX2                !
 ! A67   A(34,32,35)           111.9092         estimate D2E/DX2                !
 ! A68   A(32,35,36)           107.1215         estimate D2E/DX2                !
 ! A69   A(32,35,37)           108.3705         estimate D2E/DX2                !
 ! A70   A(32,35,38)           115.277          estimate D2E/DX2                !
 ! A71   A(36,35,37)           102.9254         estimate D2E/DX2                !
 ! A72   A(36,35,38)           108.3757         estimate D2E/DX2                !
 ! A73   A(37,35,38)           113.8473         estimate D2E/DX2                !
 ! A74   A(35,38,39)           116.3523         estimate D2E/DX2                !
 ! A75   A(35,38,40)           113.9528         estimate D2E/DX2                !
 ! A76   A(35,38,41)           111.0358         estimate D2E/DX2                !
 ! A77   A(39,38,40)           102.8382         estimate D2E/DX2                !
 ! A78   A(39,38,41)           113.7561         estimate D2E/DX2                !
 ! A79   A(40,38,41)            97.04           estimate D2E/DX2                !
 ! A80   A(23,41,38)           113.2475         estimate D2E/DX2                !
 ! A81   A(23,41,42)           105.1738         estimate D2E/DX2                !
 ! A82   A(23,41,43)           105.5257         estimate D2E/DX2                !
 ! A83   A(38,41,42)           107.0217         estimate D2E/DX2                !
 ! A84   A(38,41,43)           110.5404         estimate D2E/DX2                !
 ! A85   A(42,41,43)           115.3809         estimate D2E/DX2                !
 ! A86   A(30,43,41)           112.2367         estimate D2E/DX2                !
 ! A87   A(30,43,44)           114.7705         estimate D2E/DX2                !
 ! A88   A(30,43,48)           103.5894         estimate D2E/DX2                !
 ! A89   A(41,43,44)           117.3287         estimate D2E/DX2                !
 ! A90   A(41,43,48)           103.3912         estimate D2E/DX2                !
 ! A91   A(44,43,48)           103.2837         estimate D2E/DX2                !
 ! A92   A(43,44,45)           107.5032         estimate D2E/DX2                !
 ! A93   A(43,44,46)           102.0049         estimate D2E/DX2                !
 ! A94   A(43,44,47)           116.4247         estimate D2E/DX2                !
 ! A95   A(45,44,46)           108.9894         estimate D2E/DX2                !
 ! A96   A(45,44,47)           105.8605         estimate D2E/DX2                !
 ! A97   A(46,44,47)           115.7237         estimate D2E/DX2                !
 ! D1    D(2,1,5,6)            -63.8021         estimate D2E/DX2                !
 ! D2    D(2,1,5,16)           119.7644         estimate D2E/DX2                !
 ! D3    D(3,1,5,6)            174.1888         estimate D2E/DX2                !
 ! D4    D(3,1,5,16)            -2.2447         estimate D2E/DX2                !
 ! D5    D(4,1,5,6)             54.4626         estimate D2E/DX2                !
 ! D6    D(4,1,5,16)          -121.9709         estimate D2E/DX2                !
 ! D7    D(1,5,6,7)           -177.6513         estimate D2E/DX2                !
 ! D8    D(1,5,6,11)             5.3541         estimate D2E/DX2                !
 ! D9    D(16,5,6,7)            -0.9539         estimate D2E/DX2                !
 ! D10   D(16,5,6,11)         -177.9485         estimate D2E/DX2                !
 ! D11   D(1,5,16,17)         -177.6737         estimate D2E/DX2                !
 ! D12   D(6,5,16,17)            5.6129         estimate D2E/DX2                !
 ! D13   D(5,6,7,8)           -172.2058         estimate D2E/DX2                !
 ! D14   D(5,6,7,17)            -4.0077         estimate D2E/DX2                !
 ! D15   D(11,6,7,8)             4.9688         estimate D2E/DX2                !
 ! D16   D(11,6,7,17)          173.1668         estimate D2E/DX2                !
 ! D17   D(5,6,11,10)          173.6569         estimate D2E/DX2                !
 ! D18   D(5,6,11,12)           -4.822          estimate D2E/DX2                !
 ! D19   D(7,6,11,10)           -2.8742         estimate D2E/DX2                !
 ! D20   D(7,6,11,12)          178.6469         estimate D2E/DX2                !
 ! D21   D(6,7,8,9)             -4.2492         estimate D2E/DX2                !
 ! D22   D(6,7,8,15)          -170.7631         estimate D2E/DX2                !
 ! D23   D(17,7,8,9)          -169.0237         estimate D2E/DX2                !
 ! D24   D(17,7,8,15)           24.4624         estimate D2E/DX2                !
 ! D25   D(6,7,17,16)            7.9012         estimate D2E/DX2                !
 ! D26   D(6,7,17,18)          176.2376         estimate D2E/DX2                !
 ! D27   D(8,7,17,16)          174.9505         estimate D2E/DX2                !
 ! D28   D(8,7,17,18)          -16.7131         estimate D2E/DX2                !
 ! D29   D(7,8,9,10)             2.1014         estimate D2E/DX2                !
 ! D30   D(7,8,9,14)          -179.6214         estimate D2E/DX2                !
 ! D31   D(15,8,9,10)          168.97           estimate D2E/DX2                !
 ! D32   D(15,8,9,14)          -12.7529         estimate D2E/DX2                !
 ! D33   D(8,9,10,11)           -0.5739         estimate D2E/DX2                !
 ! D34   D(8,9,10,13)         -175.5889         estimate D2E/DX2                !
 ! D35   D(14,9,10,11)        -178.899          estimate D2E/DX2                !
 ! D36   D(14,9,10,13)           6.086          estimate D2E/DX2                !
 ! D37   D(9,10,11,6)            0.7591         estimate D2E/DX2                !
 ! D38   D(9,10,11,12)         179.1638         estimate D2E/DX2                !
 ! D39   D(13,10,11,6)         176.2253         estimate D2E/DX2                !
 ! D40   D(13,10,11,12)         -5.37           estimate D2E/DX2                !
 ! D41   D(5,16,17,7)           -8.1755         estimate D2E/DX2                !
 ! D42   D(5,16,17,18)        -175.844          estimate D2E/DX2                !
 ! D43   D(7,17,18,19)           1.6881         estimate D2E/DX2                !
 ! D44   D(7,17,18,20)        -166.7362         estimate D2E/DX2                !
 ! D45   D(16,17,18,19)        168.371          estimate D2E/DX2                !
 ! D46   D(16,17,18,20)         -0.0534         estimate D2E/DX2                !
 ! D47   D(17,18,20,21)         -3.33           estimate D2E/DX2                !
 ! D48   D(17,18,20,22)        177.8072         estimate D2E/DX2                !
 ! D49   D(19,18,20,21)       -173.2096         estimate D2E/DX2                !
 ! D50   D(19,18,20,22)          7.9275         estimate D2E/DX2                !
 ! D51   D(18,20,22,23)       -139.0614         estimate D2E/DX2                !
 ! D52   D(18,20,22,26)        -30.5099         estimate D2E/DX2                !
 ! D53   D(18,20,22,27)         90.1364         estimate D2E/DX2                !
 ! D54   D(21,20,22,23)         42.1318         estimate D2E/DX2                !
 ! D55   D(21,20,22,26)        150.6834         estimate D2E/DX2                !
 ! D56   D(21,20,22,27)        -88.6704         estimate D2E/DX2                !
 ! D57   D(20,22,23,24)         31.9225         estimate D2E/DX2                !
 ! D58   D(20,22,23,25)        147.1324         estimate D2E/DX2                !
 ! D59   D(20,22,23,41)       -101.2435         estimate D2E/DX2                !
 ! D60   D(26,22,23,24)        -75.0641         estimate D2E/DX2                !
 ! D61   D(26,22,23,25)         40.1458         estimate D2E/DX2                !
 ! D62   D(26,22,23,41)        151.7699         estimate D2E/DX2                !
 ! D63   D(27,22,23,24)        163.3534         estimate D2E/DX2                !
 ! D64   D(27,22,23,25)        -81.4367         estimate D2E/DX2                !
 ! D65   D(27,22,23,41)         30.1874         estimate D2E/DX2                !
 ! D66   D(20,22,27,28)        -26.77           estimate D2E/DX2                !
 ! D67   D(20,22,27,29)       -141.383          estimate D2E/DX2                !
 ! D68   D(20,22,27,30)         99.7163         estimate D2E/DX2                !
 ! D69   D(23,22,27,28)       -156.4907         estimate D2E/DX2                !
 ! D70   D(23,22,27,29)         88.8962         estimate D2E/DX2                !
 ! D71   D(23,22,27,30)        -30.0044         estimate D2E/DX2                !
 ! D72   D(26,22,27,28)         87.2333         estimate D2E/DX2                !
 ! D73   D(26,22,27,29)        -27.3797         estimate D2E/DX2                !
 ! D74   D(26,22,27,30)       -146.2803         estimate D2E/DX2                !
 ! D75   D(22,23,41,38)         76.8394         estimate D2E/DX2                !
 ! D76   D(22,23,41,42)       -166.6339         estimate D2E/DX2                !
 ! D77   D(22,23,41,43)        -44.2033         estimate D2E/DX2                !
 ! D78   D(24,23,41,38)        -56.1964         estimate D2E/DX2                !
 ! D79   D(24,23,41,42)         60.3303         estimate D2E/DX2                !
 ! D80   D(24,23,41,43)       -177.2391         estimate D2E/DX2                !
 ! D81   D(25,23,41,38)       -169.7089         estimate D2E/DX2                !
 ! D82   D(25,23,41,42)        -53.1822         estimate D2E/DX2                !
 ! D83   D(25,23,41,43)         69.2484         estimate D2E/DX2                !
 ! D84   D(22,27,30,31)        160.749          estimate D2E/DX2                !
 ! D85   D(22,27,30,32)        -79.4909         estimate D2E/DX2                !
 ! D86   D(22,27,30,43)         48.4458         estimate D2E/DX2                !
 ! D87   D(28,27,30,31)        -70.928          estimate D2E/DX2                !
 ! D88   D(28,27,30,32)         48.8322         estimate D2E/DX2                !
 ! D89   D(28,27,30,43)        176.7688         estimate D2E/DX2                !
 ! D90   D(29,27,30,31)         41.4179         estimate D2E/DX2                !
 ! D91   D(29,27,30,32)        161.1781         estimate D2E/DX2                !
 ! D92   D(29,27,30,43)        -70.8853         estimate D2E/DX2                !
 ! D93   D(27,30,32,33)        -37.7736         estimate D2E/DX2                !
 ! D94   D(27,30,32,34)       -155.682          estimate D2E/DX2                !
 ! D95   D(27,30,32,35)         77.5736         estimate D2E/DX2                !
 ! D96   D(31,30,32,33)         77.6125         estimate D2E/DX2                !
 ! D97   D(31,30,32,34)        -40.2959         estimate D2E/DX2                !
 ! D98   D(31,30,32,35)       -167.0402         estimate D2E/DX2                !
 ! D99   D(43,30,32,33)       -166.8959         estimate D2E/DX2                !
 ! D100  D(43,30,32,34)         75.1957         estimate D2E/DX2                !
 ! D101  D(43,30,32,35)        -51.5487         estimate D2E/DX2                !
 ! D102  D(27,30,43,41)        -67.835          estimate D2E/DX2                !
 ! D103  D(27,30,43,44)         69.4634         estimate D2E/DX2                !
 ! D104  D(27,30,43,48)       -178.7045         estimate D2E/DX2                !
 ! D105  D(31,30,43,41)       -178.5835         estimate D2E/DX2                !
 ! D106  D(31,30,43,44)        -41.2852         estimate D2E/DX2                !
 ! D107  D(31,30,43,48)         70.5469         estimate D2E/DX2                !
 ! D108  D(32,30,43,41)         62.6615         estimate D2E/DX2                !
 ! D109  D(32,30,43,44)       -160.0402         estimate D2E/DX2                !
 ! D110  D(32,30,43,48)        -48.208          estimate D2E/DX2                !
 ! D111  D(30,32,35,36)        -78.4511         estimate D2E/DX2                !
 ! D112  D(30,32,35,37)        171.1275         estimate D2E/DX2                !
 ! D113  D(30,32,35,38)         42.2299         estimate D2E/DX2                !
 ! D114  D(33,32,35,36)         40.2957         estimate D2E/DX2                !
 ! D115  D(33,32,35,37)        -70.1257         estimate D2E/DX2                !
 ! D116  D(33,32,35,38)        160.9767         estimate D2E/DX2                !
 ! D117  D(34,32,35,36)        155.9536         estimate D2E/DX2                !
 ! D118  D(34,32,35,37)         45.5322         estimate D2E/DX2                !
 ! D119  D(34,32,35,38)        -83.3654         estimate D2E/DX2                !
 ! D120  D(32,35,38,39)       -172.0349         estimate D2E/DX2                !
 ! D121  D(32,35,38,40)         68.5327         estimate D2E/DX2                !
 ! D122  D(32,35,38,41)        -39.8001         estimate D2E/DX2                !
 ! D123  D(36,35,38,39)        -52.0399         estimate D2E/DX2                !
 ! D124  D(36,35,38,40)       -171.4723         estimate D2E/DX2                !
 ! D125  D(36,35,38,41)         80.1949         estimate D2E/DX2                !
 ! D126  D(37,35,38,39)         61.8225         estimate D2E/DX2                !
 ! D127  D(37,35,38,40)        -57.61           estimate D2E/DX2                !
 ! D128  D(37,35,38,41)       -165.9427         estimate D2E/DX2                !
 ! D129  D(35,38,41,23)        -69.3712         estimate D2E/DX2                !
 ! D130  D(35,38,41,42)        175.1966         estimate D2E/DX2                !
 ! D131  D(35,38,41,43)         48.797          estimate D2E/DX2                !
 ! D132  D(39,38,41,23)         64.1703         estimate D2E/DX2                !
 ! D133  D(39,38,41,42)        -51.2619         estimate D2E/DX2                !
 ! D134  D(39,38,41,43)       -177.6615         estimate D2E/DX2                !
 ! D135  D(40,38,41,23)        171.5658         estimate D2E/DX2                !
 ! D136  D(40,38,41,42)         56.1336         estimate D2E/DX2                !
 ! D137  D(40,38,41,43)        -70.266          estimate D2E/DX2                !
 ! D138  D(23,41,43,30)         61.1821         estimate D2E/DX2                !
 ! D139  D(23,41,43,44)        -74.9381         estimate D2E/DX2                !
 ! D140  D(23,41,43,48)        172.176          estimate D2E/DX2                !
 ! D141  D(38,41,43,30)        -61.6074         estimate D2E/DX2                !
 ! D142  D(38,41,43,44)        162.2723         estimate D2E/DX2                !
 ! D143  D(38,41,43,48)         49.3864         estimate D2E/DX2                !
 ! D144  D(42,41,43,30)        176.8073         estimate D2E/DX2                !
 ! D145  D(42,41,43,44)         40.687          estimate D2E/DX2                !
 ! D146  D(42,41,43,48)        -72.1989         estimate D2E/DX2                !
 ! D147  D(30,43,44,45)        -45.8106         estimate D2E/DX2                !
 ! D148  D(30,43,44,46)       -160.3853         estimate D2E/DX2                !
 ! D149  D(30,43,44,47)         72.6603         estimate D2E/DX2                !
 ! D150  D(41,43,44,45)         89.2297         estimate D2E/DX2                !
 ! D151  D(41,43,44,46)        -25.345          estimate D2E/DX2                !
 ! D152  D(41,43,44,47)       -152.2995         estimate D2E/DX2                !
 ! D153  D(48,43,44,45)       -157.8242         estimate D2E/DX2                !
 ! D154  D(48,43,44,46)         87.6011         estimate D2E/DX2                !
 ! D155  D(48,43,44,47)        -39.3533         estimate D2E/DX2                !
 --------------------------------------------------------------------------------
 Trust Radius=3.00D-01 FncErr=1.00D-07 GrdErr=1.00D-06 EigMax=2.50D+02 EigMin=1.00D-04
 Number of steps in this run=    288 maximum allowed number of steps=    288.
 GradGradGradGradGradGradGradGradGradGradGradGradGradGradGradGradGradGrad

 Leave Link  103 at Sun Jul 11 16:07:39 2021, MaxMem=   104857600 cpu:               0.0 elap:               0.0
 (Enter /prod/apps/gaussian/g16b1/l202.exe)
                          Input orientation:                          
 ---------------------------------------------------------------------
 Center     Atomic      Atomic             Coordinates (Angstroms)
 Number     Number       Type             X           Y           Z
 ---------------------------------------------------------------------
      1          6           0       -2.407000    3.300000   -2.276000
      2          1           0       -2.610000    4.237000   -1.753000
      3          1           0       -3.068000    2.475000   -2.000000
      4          1           0       -2.496000    3.473000   -3.352000
      5          7           0       -1.082000    2.935000   -1.870000
      6          6           0        0.014000    3.684000   -2.163000
      7          6           0        1.081000    3.026000   -1.680000
      8          6           0        2.380000    3.554000   -1.647000
      9          6           0        2.477000    4.767000   -2.236000
     10          6           0        1.357000    5.428000   -2.777000
     11          6           0        0.079000    4.905000   -2.768000
     12          1           0       -0.808000    5.392000   -3.164000
     13          1           0        1.426000    6.370000   -3.315000
     14          1           0        3.433000    5.281000   -2.282000
     15          1           0        3.263000    2.974000   -1.392000
     16          7           0       -0.817000    1.798000   -1.234000
     17          6           0        0.516000    1.908000   -1.013000
     18          6           0        1.396000    0.850000   -0.391000
     19          8           0        2.623000    0.792000   -0.332000
     20          7           0        0.688000   -0.263000   -0.063000
     21          1           0       -0.300000   -0.160000   -0.244000
     22          6           0        1.155000   -1.508000    0.508000
     23          6           0        0.454000   -2.735000   -0.154000
     24          1           0        0.215000   -2.538000   -1.201000
     25          1           0        1.215000   -3.518000   -0.138000
     26          1           0        2.167000   -1.551000    0.095000
     27          6           0        1.152000   -1.554000    2.058000
     28          1           0        1.254000   -0.571000    2.523000
     29          1           0        2.046000   -2.091000    2.383000
     30          6           0       -0.059000   -2.287000    2.644000
     31          1           0        0.277000   -2.526000    3.656000
     32          6           0       -1.368000   -1.465000    2.695000
     33          1           0       -1.134000   -0.430000    2.951000
     34          1           0       -2.021000   -1.861000    3.475000
     35          6           0       -2.093000   -1.342000    1.350000
     36          1           0       -1.569000   -0.579000    0.771000
     37          1           0       -3.070000   -0.887000    1.526000
     38          6           0       -2.150000   -2.650000    0.502000
     39          1           0       -2.541000   -2.553000   -0.513000
     40          1           0       -2.782000   -3.430000    0.932000
     41          6           0       -0.737000   -3.467000    0.588000
     42          1           0       -0.877000   -4.406000    0.047000
     43          7           0       -0.301000   -3.605000    1.998000
     44          6           0        0.703000   -4.625000    2.293000
     45          1           0        1.686000   -4.161000    2.180000
     46          1           0        0.550000   -5.337000    1.478000
     47          1           0        0.686000   -5.047000    3.301000
     48          1           0       -1.119000   -3.947000    2.461000
 ---------------------------------------------------------------------
                    Distance matrix (angstroms):
                    1          2          3          4          5
     1  C    0.000000
     2  H    1.092111   0.000000
     3  H    1.092576   1.837231   0.000000
     4  H    1.093447   1.775808   1.775132   0.000000
     5  N    1.433069   2.010890   2.042718   2.117821   0.000000
     6  C    2.453868   2.712800   3.314660   2.785380   1.359436
     7  C    3.549146   3.885271   4.197642   3.973704   2.173235
     8  C    4.834824   5.037641   5.565030   5.166136   3.523966
     9  C    5.099720   5.137291   6.004664   5.258386   4.019535
    10  C    4.352824   4.266632   5.376296   4.358699   3.603667
    11  C    2.999714   2.950791   4.049486   3.003715   2.456669
    12  H    2.778814   2.563620   3.869287   2.562664   2.790405
    13  H    5.019593   4.824814   6.090672   4.876070   4.491917
    14  H    6.166847   6.155293   7.086336   6.290215   5.104771
    15  H    5.747750   6.018108   6.379673   6.103825   4.371388
    16  N    2.422781   3.071308   2.472263   3.179715   1.329470
    17  C    3.475164   3.967835   3.760414   4.122171   2.083934
    18  C    4.900871   5.419857   5.015656   5.549353   3.560218
    19  O    5.947277   6.424294   6.164592   6.520147   4.548068
    20  N    5.212616   5.829486   5.035489   5.908729   4.077420
    21  H    4.532116   5.191030   4.205780   5.261252   3.582517
    22  C    6.599649   7.231346   6.323613   7.282840   5.513556
    23  C    7.007812   7.781625   6.554106   7.580829   6.119874
    24  H    6.489434   7.361111   6.045383   6.936025   5.664230
    25  H    8.010933   8.796526   7.597841   8.542564   7.065214
    26  H    7.076392   7.728892   6.928414   7.672415   5.877195
    27  C    7.416964   7.887461   7.106941   8.236913   6.369542
    28  H    7.170632   7.505434   6.958112   8.058043   6.086656
    29  H    8.402284   8.878537   8.137078   9.191196   7.289243
    30  C    7.806028   8.270658   7.300511   8.664213   6.977966
    31  H    8.736976   9.128539   8.257685   9.632736   7.887083
    32  C    6.963877   7.337579   6.360552   7.888120   6.346733
    33  H    6.546370   6.788747   6.057374   7.537656   5.879453
    34  H    7.736855   8.053851   7.062063   8.676699   7.242400
    35  C    5.898698   6.404775   5.171326   6.742065   5.448234
    36  H    5.003308   5.536074   4.387751   5.854670   4.422697
    37  H    5.694361   6.100723   4.871932   6.567645   5.485676
    38  C    6.571593   7.261363   5.776535   7.243215   6.161106
    39  H    6.114224   6.902642   5.269695   6.661428   5.838516
    40  H    7.464904   8.125374   6.599049   8.129321   7.159220
    41  C    7.535495   8.266803   6.887574   8.171981   6.866323
    42  H    8.192659   8.996929   7.505921   8.732297   7.589940
    43  N    8.389359   8.994356   7.785030   9.139946   7.638258
    44  C    9.661961  10.289856   9.113742  10.376764   8.813081
    45  H    9.605993  10.220103   9.171118  10.313588   8.626560
    46  H    9.870873  10.587088   9.285136  10.498720   9.071853
    47  H   10.504379  11.072452   9.938491  11.268449   9.673541
    48  H    8.753121   9.325167   8.058611   9.525938   8.131473
                    6          7          8          9         10
     6  C    0.000000
     7  C    1.343407   0.000000
     8  C    2.425100   1.402595   0.000000
     9  C    2.691577   2.299790   1.351924   0.000000
    10  C    2.285209   2.655031   2.415638   1.408546   0.000000
    11  C    1.364218   2.391315   2.894209   2.460177   1.380903
    12  H    2.143583   3.371726   3.980311   3.470307   2.199611
    13  H    3.245835   3.738260   3.409134   2.199648   1.087000
    14  H    3.775464   3.313508   2.120038   1.086392   2.139255
    15  H    3.413875   2.201539   1.086791   2.131896   3.401937
    16  N    2.260663   2.304193   3.670819   4.546361   4.503779
    17  C    2.174553   1.419168   2.566275   3.676293   4.026087
    18  C    3.616831   2.548671   3.139651   4.462676   5.162616
    19  O    4.303848   3.030779   3.068700   4.409893   5.391964
    20  N    4.521403   3.686009   4.465580   5.763970   6.340413
    21  H    4.307841   3.757639   4.790053   5.996259   6.355115
    22  C    5.949200   5.034876   5.636355   6.975159   7.677247
    23  C    6.740419   5.992573   6.744631   8.044082   8.621491
    24  H    6.299137   5.651327   6.480633   7.716923   8.200311
    25  H    7.577059   6.724556   7.324445   8.639182   9.328205
    26  H    6.094194   5.027818   5.398237   6.741423   7.590186
    27  C    6.822648   5.912198   6.428583   7.755585   8.495150
    28  H    6.449901   5.534758   5.972638   7.255209   8.005536
    29  H    7.625337   6.604762   6.943953   8.279679   9.145255
    30  C    7.665861   6.944389   7.647136   8.944530   9.534858
    31  H    8.514343   7.742352   8.337315   9.630343  10.286691
    32  C    7.212648   6.731070   7.621734   8.828171   9.213135
    33  H    6.663025   6.188402   7.025814   8.182487   8.563366
    34  H    8.165494   7.751077   8.655975   9.837576  10.179779
    35  C    6.483926   6.191494   7.277400   8.429957   8.646822
    36  H    5.411785   5.101561   6.206691   7.347917   7.565304
    37  H    6.634291   6.543761   7.713165   8.768670   8.831385
    38  C    7.204490   6.886034   7.976761   9.160658   9.397073
    39  H    6.939070   6.753222   7.924497   9.040545   9.166049
    40  H    8.246553   7.963997   9.059456  10.241295  10.457159
    41  C    7.698623   7.113930   8.000335   9.279199   9.738023
    42  H    8.433628   7.877240   8.765802  10.030221  10.472502
    43  N    8.398968   7.707644   8.469065   9.784397  10.351071
    44  C    9.453578   8.629335   9.232116  10.576794  11.278095
    45  H    9.121472   8.180379   8.639953   9.991793  10.799491
    46  H    9.742824   8.955149   9.600229  10.936084  11.603512
    47  H   10.321688   9.494194  10.066258  11.409673  12.129219
    48  H    8.994289   8.403012   9.240328  10.532180  11.020791
                   11         12         13         14         15
    11  C    0.000000
    12  H    1.086625   0.000000
    13  H    2.063939   2.443367   0.000000
    14  H    3.409822   4.333166   2.506204   0.000000
    15  H    3.969886   5.055665   4.313388   2.478558   0.000000
    16  N    3.579025   4.079438   5.501345   5.593934   4.249040
    17  C    3.500429   4.303258   5.102622   4.636419   2.970859
    18  C    4.881357   5.759940   6.246685   5.230584   2.999844
    19  O    5.415053   6.399374   6.437793   4.960819   2.508849
    20  N    5.864821   6.620668   7.424071   6.572284   4.344541
    21  H    5.671723   6.293581   7.419637   6.906027   4.882093
    22  C    7.281244   8.058967   8.760802   7.685304   5.304902
    23  C    8.083515   8.757903   9.686988   8.812439   6.481960
    24  H    7.607380   8.233152   9.235149   8.524133   6.301502
    25  H    8.896872   9.624828  10.387993   9.324090   6.921913
    26  H    7.364540   8.226600   8.655601   7.343644   4.887536
    27  C    8.133897   8.908300   9.577786   8.411646   6.071376
    28  H    7.704666   8.494185   9.071345   7.879211   5.650693
    29  H    8.907632   9.742167  10.219595   8.833594   6.433190
    30  C    9.001869   9.657169  10.614073   9.681641   7.416408
    31  H    9.824802  10.506396  11.360187  10.303855   8.040429
    32  C    8.515579   9.036588  10.262249   9.660675   7.606211
    33  H    7.914579   8.449567   9.594600   8.992069   7.055670
    34  H    9.442659   9.907255  11.213174  10.672269   8.659421
    35  C    7.791054   8.208177   9.675770   9.359072   7.404941
    36  H    6.731618   7.191397   8.599652   8.287365   6.375782
    37  H    7.867776   8.157119   9.813936   9.738280   7.970504
    38  C    8.528738   8.939479  10.426776  10.090654   8.032259
    39  H    8.220170   8.553018  10.159145  10.009475   8.062679
    40  H    9.557591   9.924796  11.479733  11.173072   9.107921
    41  C    9.056433   9.621041  10.801784  10.107092   7.836254
    42  H    9.774092  10.310969  11.520809  10.855336   8.583398
    43  N    9.761109  10.385052  11.432897  10.546191   8.214465
    44  C   10.808515  11.506618  12.363754  11.247771   8.824830
    45  H   10.452632  11.226673  11.881270  10.588334   8.133532
    46  H   11.097248  11.768762  12.680460  11.627176   9.201630
    47  H   11.672340  12.369357  13.216162  12.057507   9.643735
    48  H   10.350630  10.906616  12.094614  11.330169   9.052501
                   16         17         18         19         20
    16  N    0.000000
    17  C    1.355666   0.000000
    18  C    2.550828   1.510181   0.000000
    19  O    3.695841   2.479650   1.229786   0.000000
    20  N    2.807844   2.375989   1.359271   2.220273   0.000000
    21  H    2.254141   2.352412   1.979425   3.075382   1.009710
    22  C    4.225279   3.793523   2.535044   2.854930   1.447120
    23  C    4.830107   4.722200   3.714264   4.144391   2.484717
    24  H    4.457242   4.460141   3.678234   4.200301   2.587353
    25  H    5.795696   5.540370   4.379063   4.538304   3.298239
    26  H    4.678279   3.989755   2.568158   2.424853   1.967574
    27  C    5.094127   4.671293   3.440400   3.657821   2.525989
    28  H    4.900638   4.381025   3.245120   3.447166   2.665073
    29  H    6.033554   5.464954   4.094760   4.001980   3.341955
    30  C    5.683368   5.594846   4.600980   5.052716   3.461565
    31  H    6.618603   6.443372   5.387740   5.693591   4.372762
    32  C    5.136907   5.354984   4.745768   5.494075   3.643968
    33  H    4.751705   4.888971   4.382723   5.136772   3.525871
    34  H    6.083796   6.386225   5.828496   6.564937   4.733892
    35  C    4.262022   4.790945   4.473149   5.442769   3.300723
    36  H    3.199321   3.703384   3.490489   4.546330   2.426821
    37  H    4.461259   5.207489   5.161125   6.219442   4.127573
    38  C    4.957347   5.493464   5.061775   5.943437   3.751165
    39  H    4.735316   5.431001   5.205311   6.155378   3.984099
    40  H    5.990389   6.569176   6.125717   6.974024   4.802168
    41  C    5.571921   5.746637   4.913717   5.502280   3.566517
    42  H    6.335154   6.552148   5.743162   6.277965   4.430099
    43  N    6.317000   6.334570   5.332369   5.771680   4.049050
    44  C    7.483653   7.324254   6.136752   6.318300   4.957621
    45  H    7.309589   6.956789   5.639527   5.632080   4.606675
    46  H    7.754473   7.661349   6.518270   6.718487   5.304640
    47  H    8.347410   8.186056   6.993538   7.144549   5.848346
    48  H    6.837343   7.001637   6.121302   6.652934   4.817435
                   21         22         23         24         25
    21  H    0.000000
    22  C    2.121234   0.000000
    23  C    2.684631   1.560504   0.000000
    24  H    2.614567   2.205716   1.091851   0.000000
    25  H    3.685461   2.112112   1.092001   1.757945   0.000000
    26  H    2.852348   1.093875   2.097195   2.542457   2.197654
    27  C    3.057899   1.550685   2.602866   3.530907   2.946809
    28  H    3.200020   2.224409   3.534010   4.337832   3.970800
    29  H    4.016666   2.156246   3.063588   4.049374   3.013691
    30  C    3.594823   2.577428   2.879701   3.862914   3.298175
    31  H    4.597922   3.423027   3.819831   4.857411   4.032164
    32  C    3.388417   3.339214   3.612393   4.340050   4.348860
    33  H    3.313077   3.517080   4.180406   4.847945   4.959382
    34  H    4.436914   4.360582   4.478743   5.227141   5.125535
    35  C    2.674474   3.359468   3.269507   3.642098   4.229892
    36  H    1.678138   2.890049   3.097820   3.302896   4.149055
    37  H    3.366650   4.390056   4.319268   4.577505   5.296441
    38  C    3.190473   3.496745   2.686704   2.916501   3.533589
    39  H    3.289512   3.974278   3.021925   2.840617   3.896073
    40  H    4.270386   4.401571   3.483406   3.785150   4.138678
    41  C    3.437942   2.724655   1.582678   2.229320   2.083262
    42  H    4.294895   3.569307   2.145741   2.497877   2.280183
    43  N    4.110303   2.955917   2.440907   3.411502   2.620748
    44  C    5.232457   3.620251   3.101920   4.098994   2.719808
    45  H    5.082123   3.180559   2.999809   4.028540   2.451207
    46  H    5.521695   3.996019   3.072954   3.888916   2.522388
    47  H    6.117352   4.532696   4.163675   5.175416   3.800579
    48  H    4.725374   3.864454   3.283519   4.144283   3.519431
                   26         27         28         29         30
    26  H    0.000000
    27  C    2.209888   0.000000
    28  H    2.772932   1.092208   0.000000
    29  H    2.353972   1.092351   1.719670   0.000000
    30  C    3.463260   1.532059   2.164085   2.130155   0.000000
    31  H    4.147704   2.064949   2.461756   2.222412   1.092777
    32  C    4.389034   2.600786   2.775555   3.484913   1.546534
    33  H    4.506659   2.699374   2.430146   3.632347   2.167562
    34  H    5.390718   3.488562   3.646372   4.217328   2.172897
    35  C    4.445931   3.328098   3.629432   4.331214   2.589328
    36  H    3.919114   3.163990   3.322484   4.237088   2.950507
    37  H    5.469445   4.307342   4.448690   5.325178   3.503719
    38  C    4.473247   3.811241   4.471454   4.632176   3.015330
    39  H    4.851694   4.609370   5.248585   5.444339   4.024640
    40  H    5.359460   4.501512   5.195619   5.216120   3.413520
    41  C    3.513875   3.064113   4.011873   3.586153   2.465607
    42  H    4.173639   4.036690   5.037754   4.400006   3.450173
    43  N    3.732472   2.514241   3.449465   2.819367   1.487617
    44  C    4.052650   3.112534   4.097733   2.869304   2.483966
    45  H    3.375009   2.663924   3.632131   2.110855   2.602345
    46  H    4.342945   3.874260   4.929746   3.686944   3.321587
    47  H    4.969287   3.736744   4.578481   3.380867   2.933304
    48  H    4.704951   3.323597   4.127027   3.669884   1.978052
                   31         32         33         34         35
    31  H    0.000000
    32  C    2.180657   0.000000
    33  H    2.623197   1.091566   0.000000
    34  H    2.399123   1.091616   1.763266   0.000000
    35  C    3.512320   1.532899   2.077168   2.188646   0.000000
    36  H    3.939765   2.127715   2.227965   3.026457   1.091781
    37  H    4.292509   2.144166   2.446951   2.418197   1.092030
    38  C    3.981635   2.612470   3.458071   3.078618   1.559877
    39  H    5.032138   3.584820   4.299543   4.080859   2.266714
    40  H    4.194624   2.994794   3.973948   3.083461   2.238122
    41  C    3.365457   2.974158   3.868430   3.544384   2.633440
    42  H    4.229775   3.987790   4.930298   4.420062   3.544652
    43  N    2.060895   2.490763   3.418000   2.860326   2.958435
    44  C    2.538710   3.799506   4.626614   4.056722   4.414176
    45  H    2.614781   4.106161   4.739958   4.550700   4.787118
    46  H    3.566502   4.489120   5.392980   4.762418   4.791853
    47  H    2.578516   4.173353   4.975097   4.184342   5.025561
    48  H    2.322947   2.505410   3.551002   2.488613   2.994833
                   36         37         38         39         40
    36  H    0.000000
    37  H    1.708183   0.000000
    38  C    2.167709   2.236771   0.000000
    39  H    2.547571   2.685688   1.092023   0.000000
    40  H    3.102498   2.627285   1.092119   1.707406   0.000000
    41  C    3.011023   3.602656   1.634458   2.302610   2.074061
    42  H    3.955878   4.402278   2.216098   2.552666   2.316209
    43  N    3.502860   3.908666   2.562975   3.525539   2.705983
    44  C    4.883501   5.366234   3.904858   4.763440   3.927540
    45  H    5.040935   5.810880   4.451258   5.263596   4.696263
    46  H    5.256289   5.736654   3.932244   4.611835   3.877756
    47  H    5.607936   5.879095   4.650044   5.583920   4.500430
    48  H    3.795000   3.747563   2.565707   3.579105   2.317477
                   41         42         43         44         45
    41  C    0.000000
    42  H    1.092704   0.000000
    43  N    1.482309   2.186270   0.000000
    44  C    2.514277   2.754792   1.461315   0.000000
    45  H    2.981112   3.343454   2.071335   1.092865   0.000000
    46  H    2.438313   2.225051   1.998606   1.092968   1.779403
    47  H    3.446984   3.666383   2.179757   1.092903   1.744029
    48  H    1.970902   2.469138   1.000228   1.951305   2.827151
                   46         47         48
    46  H    0.000000
    47  H    1.850925   0.000000
    48  H    2.384104   2.274560   0.000000
 Stoichiometry    C18H25N4O(1+)
 Framework group  C1[X(C18H25N4O)]
 Deg. of freedom   138
 Full point group                 C1      NOp   1
 Largest Abelian subgroup         C1      NOp   1
 Largest concise Abelian subgroup C1      NOp   1
                         Standard orientation:                         
 ---------------------------------------------------------------------
 Center     Atomic      Atomic             Coordinates (Angstroms)
 Number     Number       Type             X           Y           Z
 ---------------------------------------------------------------------
      1          6           0        3.307121    2.982595   -0.169456
      2          1           0        3.848605    3.174361    0.759375
      3          1           0        2.383054    3.554718   -0.281252
      4          1           0        3.964352    3.213730   -1.012219
      5          7           0        2.942429    1.598436   -0.100265
      6          6           0        3.857063    0.593019   -0.074825
      7          6           0        3.171688   -0.562330   -0.061757
      8          6           0        3.760157   -1.822089    0.122592
      9          6           0        5.109174   -1.774024    0.197045
     10          6           0        5.819095   -0.558839    0.139265
     11          6           0        5.217153    0.675230   -0.007822
     12          1           0        5.732056    1.631458   -0.043256
     13          1           0        6.904713   -0.505298    0.127594
     14          1           0        5.685128   -2.685081    0.333056
     15          1           0        3.231593   -2.762436   -0.009626
     16          7           0        1.677356    1.190449   -0.125330
     17          6           0        1.815664   -0.150819    0.015031
     18          6           0        0.694660   -1.161646   -0.032160
     19          8           0        0.752756   -2.387818   -0.106329
     20          7           0       -0.510197   -0.566351   -0.236027
     21          1           0       -0.443898    0.440772   -0.264686
     22          6           0       -1.815491   -1.172782   -0.386371
     23          6           0       -2.643406   -0.468975   -1.506364
     24          1           0       -1.995952   -0.091414   -2.300334
     25          1           0       -3.247449   -1.270936   -1.935847
     26          1           0       -1.541700   -2.126846   -0.846113
     27          6           0       -2.600079   -1.363789    0.937473
     28          1           0       -1.956696   -1.464291    1.814329
     29          1           0       -3.123613   -2.321137    0.886222
     30          6           0       -3.654306   -0.279666    1.183417
     31          1           0       -4.310676   -0.751471    1.918767
     32          6           0       -3.109637    1.059178    1.733507
     33          1           0       -2.305934    0.856770    2.443865
     34          1           0       -3.901550    1.586460    2.268740
     35          6           0       -2.437703    1.950586    0.682948
     36          1           0       -1.437379    1.547914    0.512088
     37          1           0       -2.235328    2.923500    1.135731
     38          6           0       -3.174940    2.034623   -0.689145
     39          1           0       -2.646814    2.552915   -1.492246
     40          1           0       -4.130561    2.561666   -0.647467
     41          6           0       -3.769435    0.576145   -1.126031
     42          1           0       -4.342284    0.726261   -2.044352
     43          7           0       -4.517872   -0.037883   -0.003511
     44          6           0       -5.434971   -1.128954   -0.325897
     45          1           0       -4.867338   -2.061437   -0.274678
     46          1           0       -5.680205   -0.918774   -1.370053
     47          1           0       -6.288025   -1.261365    0.344331
     48          1           0       -5.129002    0.695149    0.295894
 ---------------------------------------------------------------------
 Rotational constants (GHZ):           0.6279124           0.1290849           0.1150832
 Leave Link  202 at Sun Jul 11 16:07:39 2021, MaxMem=   104857600 cpu:               0.0 elap:               0.0
 (Enter /prod/apps/gaussian/g16b1/l301.exe)
 Standard basis: 6-31G(d) (6D, 7F)
 Ernie: Thresh=  0.10000D-02 Tol=  0.10000D-05 Strict=F.
 There are   395 symmetry adapted cartesian basis functions of A   symmetry.
 There are   395 symmetry adapted basis functions of A   symmetry.
   395 basis functions,   744 primitive gaussians,   395 cartesian basis functions
    84 alpha electrons       84 beta electrons
       nuclear repulsion energy      1987.2946160776 Hartrees.
 IExCor=  402 DFT=T Ex+Corr=B3LYP ExCW=0 ScaHFX=  0.200000
 ScaDFX=  0.800000  0.720000  1.000000  0.810000 ScalE2=  1.000000  1.000000
 IRadAn=      5 IRanWt=     -1 IRanGd=            0 ICorTp=0 IEmpDi=  4
 NAtoms=   48 NActive=   48 NUniq=   48 SFac= 1.00D+00 NAtFMM=   60 NAOKFM=F Big=F
 Integral buffers will be    131072 words long.
 Raffenetti 2 integral format.
 Two-electron integral symmetry is turned on.
 Using the following non-standard input for PCM:
 MSTModel=DFT cav MSTCharged
 --- end of non-standard input.
 MST model for solvation energy: B3LYP parametrization.
 MST cavity parameters:
 ISph   IAn     Re0     Alpha   Atom Type   QCorr
 ------------------------------------------------
   1      6     1.50     1.25      CH3        F
   2      1     1.20     1.25      CH3        F
   3      1     1.20     1.25      CH3        F
   4      1     1.20     1.25      CH3        F
   5      7     1.40     1.25      N          F
   6      6     1.50     1.25      C          F
   7      6     1.50     1.25      C          F
   8      6     1.50     1.25      CH         F
   9      6     1.50     1.25      CH         F
  10      6     1.50     1.25      CH         F
  11      6     1.50     1.25      CH         F
  12      1     1.20     1.25      CH         F
  13      1     1.20     1.25      CH         F
  14      1     1.20     1.25      CH         F
  15      1     1.20     1.25      CH         F
  16      7     1.40     1.25      N          F
  17      6     1.50     1.25      C          F
  18      6     1.50     1.25      C          F
  19      8     1.40     1.25      O          F
  20      7     1.50     1.25      NH         F
  21      1     0.90     1.25      NH         F
  22      6     1.50     1.25      CH         F
  23      6     1.50     1.25      CH2        F
  24      1     1.20     1.25      CH2        F
  25      1     1.20     1.25      CH2        F
  26      1     1.20     1.25      CH         F
  27      6     1.50     1.25      CH2        F
  28      1     1.20     1.25      CH2        F
  29      1     1.20     1.25      CH2        F
  30      6     1.50     1.25      CH         F
  31      1     1.20     1.25      CH         F
  32      6     1.50     1.25      CH2        F
  33      1     1.20     1.25      CH2        F
  34      1     1.20     1.25      CH2        F
  35      6     1.50     1.25      CH2        F
  36      1     1.20     1.25      CH2        F
  37      1     1.20     1.25      CH2        F
  38      6     1.50     1.25      CH2        F
  39      1     1.20     1.25      CH2        F
  40      1     1.20     1.25      CH2        F
  41      6     1.50     1.25      CH         F
  42      1     1.20     1.25      CH         F
  43      7     1.50     1.15      NH         T
  44      6     1.50     1.25      CH3        F
  45      1     1.20     1.25      CH3        F
  46      1     1.20     1.25      CH3        F
  47      1     1.20     1.25      CH3        F
  48      1     0.90     1.15      NH         T
 ------------------------------------------------------------------------------
 Polarizable Continuum Model (PCM)
 =================================
 Model                : PCM.
 Atomic radii         : MST.
 Polarization charges : Total charges.
 Charge compensation  : None.
 Solution method      : On-the-fly selection.
 Cavity type          : Scaled VdW (van der Waals Surface) (Alpha=1.250).
 Cavity algorithm     : GePol (No added spheres)
                        Default sphere list used, NSphG=   48.
                        Lebedev-Laikov grids with approx.  5.0 points / Ang**2.
                        Smoothing algorithm: York/Karplus (Gamma=1.0000).
                        Polarization charges: spherical gaussians, with
                                              point-specific exponents (IZeta= 3).
                        Self-potential: point-specific (ISelfS= 7).
                        Self-field    : sphere-specific E.n sum rule (ISelfD= 2).
 1st derivatives      : Analytical E(r).r(x)/FMM algorithm (CHGder, D1EAlg=3).
                        Cavity 1st derivative terms included.
 Solvent              : Water, Eps=  78.355300 Eps(inf)=   1.777849
 ------------------------------------------------------------------------------
 GePol: Number of generator spheres                  =      48
 GePol: Total number of spheres                      =      48
 GePol: Number of exposed spheres                    =      48 (100.00%)
 GePol: Number of points                             =    3009
 GePol: Average weight of points                     =       0.13
 GePol: Minimum weight of points                     =   0.33D-09
 GePol: Maximum weight of points                     =    0.22001
 GePol: Number of points with low weight             =     214
 GePol: Fraction of low-weight points (<1% of avg)   =       7.11%
 GePol: Cavity surface area                          =    389.978 Ang**2
 GePol: Cavity volume                                =    389.383 Ang**3
 PCM non-electrostatic energy =         0.0040360062 Hartrees.
 Nuclear repulsion after PCM non-electrostatic terms =     1987.2986520838 Hartrees.
 Leave Link  301 at Sun Jul 11 16:07:40 2021, MaxMem=   104857600 cpu:               0.3 elap:               0.1
 (Enter /prod/apps/gaussian/g16b1/l302.exe)
 NPDir=0 NMtPBC=     1 NCelOv=     1 NCel=       1 NClECP=     1 NCelD=      1
         NCelK=      1 NCelE2=     1 NClLst=     1 CellRange=     0.0.
 One-electron integrals computed using PRISM.
 One-electron integral symmetry used in STVInt
 NBasis=   395 RedAO= T EigKep=  4.66D-04  NBF=   395
 NBsUse=   395 1.00D-06 EigRej= -1.00D+00 NBFU=   395
 Precomputing XC quadrature grid using
 IXCGrd= 4 IRadAn=           5 IRanWt=          -1 IRanGd=           0 AccXCQ= 0.00D+00.
 Generated NRdTot=       0 NPtTot=           0 NUsed=           0 NTot=          32
 NSgBfM=   391   391   391   391   391 MxSgAt=    48 MxSgA2=    48.
 Leave Link  302 at Sun Jul 11 16:07:40 2021, MaxMem=   104857600 cpu:               3.4 elap:               0.8
 (Enter /prod/apps/gaussian/g16b1/l303.exe)
 DipDrv:  MaxL=1.
 Leave Link  303 at Sun Jul 11 16:07:40 2021, MaxMem=   104857600 cpu:               0.2 elap:               0.1
 (Enter /prod/apps/gaussian/g16b1/l401.exe)
 ExpMin= 1.61D-01 ExpMax= 5.48D+03 ExpMxC= 8.25D+02 IAcc=3 IRadAn=         5 AccDes= 0.00D+00
 Harris functional with IExCor=  402 and IRadAn=       5 diagonalized for initial guess.
 HarFok:  IExCor=  402 AccDes= 0.00D+00 IRadAn=         5 IDoV= 1 UseB2=F ITyADJ=14
 ICtDFT=  3500011 ScaDFX=  1.000000  1.000000  1.000000  1.000000
 FoFCou: FMM=F IPFlag=           0 FMFlag=      100000 FMFlg1=           0
         NFxFlg=           0 DoJE=T BraDBF=F KetDBF=T FulRan=T
         wScrn=  0.000000 ICntrl=       500 IOpCl=  0 I1Cent=   200000004 NGrid=           0
         NMat0=    1 NMatS0=      1 NMatT0=    0 NMatD0=    1 NMtDS0=    0 NMtDT0=    0
 Petite list used in FoFCou.
 Harris En= -994.910177922213    
 JPrj=0 DoOrth=F DoCkMO=F.
 Leave Link  401 at Sun Jul 11 16:07:45 2021, MaxMem=   104857600 cpu:              16.8 elap:               4.2
 (Enter /prod/apps/gaussian/g16b1/l502.exe)
 Integral symmetry usage will be decided dynamically.
 Closed shell SCF:
 Using DIIS extrapolation, IDIIS=  1040.
 NGot=   104857600 LenX=   104538619 LenY=   104382153
 Requested convergence on RMS density matrix=1.00D-08 within 128 cycles.
 Requested convergence on MAX density matrix=1.00D-06.
 Requested convergence on             energy=1.00D-06.
 No special actions if energy rises.
 Fock matrices will be formed incrementally for  20 cycles.

 Cycle   1  Pass 1  IDiag  1:
 FoFJK:  IHMeth= 1 ICntrl=       0 DoSepK=F KAlg= 0 I1Cent=           0 FoldK=F
 IRaf= 740000000 NMat=       1 IRICut=       1 DoRegI=T DoRafI=F ISym2E= 0 IDoP0=0 IntGTp=1.
 FoFCou: FMM=F IPFlag=           0 FMFlag=      100000 FMFlg1=           0
         NFxFlg=           0 DoJE=F BraDBF=F KetDBF=F FulRan=T
         wScrn=  0.000000 ICntrl=         0 IOpCl=  0 I1Cent=           0 NGrid=           0
         NMat0=    1 NMatS0=      1 NMatT0=    0 NMatD0=    1 NMtDS0=    0 NMtDT0=    0
 Symmetry not used in FoFCou.
 Inv3:  Mode=1 IEnd=    27162243.
 Iteration    1 A*A^-1 deviation from unit magnitude is 2.89D-15 for    237.
 Iteration    1 A*A^-1 deviation from orthogonality  is 2.11D-15 for   2701    604.
 Iteration    1 A^-1*A deviation from unit magnitude is 2.78D-15 for   1268.
 Iteration    1 A^-1*A deviation from orthogonality  is 2.00D-15 for   2664    927.
 E= -994.511401207599    
 DIIS: error= 2.26D-02 at cycle   1 NSaved=   1.
 NSaved= 1 IEnMin= 1 EnMin= -994.511401207599     IErMin= 1 ErrMin= 2.26D-02
 ErrMax= 2.26D-02  0.00D+00 EMaxC= 1.00D-01 BMatC= 5.21D-01 BMatP= 5.21D-01
 IDIUse=3 WtCom= 7.74D-01 WtEn= 2.26D-01
 Coeff-Com:  0.100D+01
 Coeff-En:   0.100D+01
 Coeff:      0.100D+01
 Gap=     0.223 Goal=   None    Shift=    0.000
 GapD=    0.223 DampG=1.000 DampE=0.500 DampFc=0.5000 IDamp=-1.
 Damping current iteration by 5.00D-01
 RMSDP=4.39D-03 MaxDP=2.08D-01              OVMax= 2.35D-01

 Cycle   2  Pass 1  IDiag  1:
 RMSU=  2.17D-03    CP:  9.79D-01
 E= -994.711255672246     Delta-E=       -0.199854464648 Rises=F Damp=T
 DIIS: error= 7.84D-03 at cycle   2 NSaved=   2.
 NSaved= 2 IEnMin= 2 EnMin= -994.711255672246     IErMin= 2 ErrMin= 7.84D-03
 ErrMax= 7.84D-03  0.00D+00 EMaxC= 1.00D-01 BMatC= 5.81D-02 BMatP= 5.21D-01
 IDIUse=3 WtCom= 9.22D-01 WtEn= 7.84D-02
 Coeff-Com:  0.124D+00 0.876D+00
 Coeff-En:   0.191D+00 0.809D+00
 Coeff:      0.130D+00 0.870D+00
 Gap=     0.249 Goal=   None    Shift=    0.000
 RMSDP=1.52D-03 MaxDP=8.98D-02 DE=-2.00D-01 OVMax= 2.15D-01

 Cycle   3  Pass 1  IDiag  1:
 RMSU=  1.44D-03    CP:  9.64D-01  7.96D-01
 E= -994.973718014559     Delta-E=       -0.262462342313 Rises=F Damp=F
 DIIS: error= 1.09D-02 at cycle   3 NSaved=   3.
 NSaved= 3 IEnMin= 3 EnMin= -994.973718014559     IErMin= 2 ErrMin= 7.84D-03
 ErrMax= 1.09D-02  0.00D+00 EMaxC= 1.00D-01 BMatC= 5.38D-02 BMatP= 5.81D-02
 IDIUse=3 WtCom= 8.91D-01 WtEn= 1.09D-01
 Coeff-Com: -0.103D-02 0.489D+00 0.512D+00
 Coeff-En:   0.000D+00 0.000D+00 0.100D+01
 Coeff:     -0.919D-03 0.436D+00 0.565D+00
 Gap=     0.173 Goal=   None    Shift=    0.000
 RMSDP=8.81D-04 MaxDP=6.33D-02 DE=-2.62D-01 OVMax= 8.18D-02

 Cycle   4  Pass 1  IDiag  1:
 RMSU=  5.45D-04    CP:  9.69D-01  9.39D-01  5.73D-01
 E= -995.009204483994     Delta-E=       -0.035486469435 Rises=F Damp=F
 DIIS: error= 5.93D-03 at cycle   4 NSaved=   4.
 NSaved= 4 IEnMin= 4 EnMin= -995.009204483994     IErMin= 4 ErrMin= 5.93D-03
 ErrMax= 5.93D-03  0.00D+00 EMaxC= 1.00D-01 BMatC= 1.24D-02 BMatP= 5.38D-02
 IDIUse=3 WtCom= 9.41D-01 WtEn= 5.93D-02
 Coeff-Com: -0.772D-02 0.122D+00 0.342D+00 0.544D+00
 Coeff-En:   0.000D+00 0.000D+00 0.209D+00 0.791D+00
 Coeff:     -0.726D-02 0.114D+00 0.334D+00 0.559D+00
 Gap=     0.171 Goal=   None    Shift=    0.000
 RMSDP=3.41D-04 MaxDP=2.46D-02 DE=-3.55D-02 OVMax= 4.02D-02

 Cycle   5  Pass 1  IDiag  1:
 RMSU=  1.67D-04    CP:  9.68D-01  8.89D-01  6.85D-01  5.86D-01
 E= -995.018786535565     Delta-E=       -0.009582051571 Rises=F Damp=F
 DIIS: error= 1.24D-03 at cycle   5 NSaved=   5.
 NSaved= 5 IEnMin= 5 EnMin= -995.018786535565     IErMin= 5 ErrMin= 1.24D-03
 ErrMax= 1.24D-03  0.00D+00 EMaxC= 1.00D-01 BMatC= 8.68D-04 BMatP= 1.24D-02
 IDIUse=3 WtCom= 9.88D-01 WtEn= 1.24D-02
 Coeff-Com: -0.341D-02 0.177D-01 0.131D+00 0.315D+00 0.539D+00
 Coeff-En:   0.000D+00 0.000D+00 0.000D+00 0.258D-02 0.997D+00
 Coeff:     -0.337D-02 0.175D-01 0.129D+00 0.312D+00 0.545D+00
 Gap=     0.171 Goal=   None    Shift=    0.000
 RMSDP=9.48D-05 MaxDP=7.05D-03 DE=-9.58D-03 OVMax= 1.10D-02

 Cycle   6  Pass 1  IDiag  1:
 RMSU=  4.66D-05    CP:  9.68D-01  8.96D-01  6.86D-01  6.44D-01  5.53D-01
 E= -995.019513061763     Delta-E=       -0.000726526198 Rises=F Damp=F
 DIIS: error= 2.45D-04 at cycle   6 NSaved=   6.
 NSaved= 6 IEnMin= 6 EnMin= -995.019513061763     IErMin= 6 ErrMin= 2.45D-04
 ErrMax= 2.45D-04  0.00D+00 EMaxC= 1.00D-01 BMatC= 5.61D-05 BMatP= 8.68D-04
 IDIUse=3 WtCom= 9.98D-01 WtEn= 2.45D-03
 Coeff-Com: -0.125D-02 0.863D-03 0.417D-01 0.120D+00 0.291D+00 0.548D+00
 Coeff-En:   0.000D+00 0.000D+00 0.000D+00 0.000D+00 0.000D+00 0.100D+01
 Coeff:     -0.125D-02 0.861D-03 0.416D-01 0.120D+00 0.290D+00 0.549D+00
 Gap=     0.171 Goal=   None    Shift=    0.000
 RMSDP=2.26D-05 MaxDP=1.85D-03 DE=-7.27D-04 OVMax= 2.41D-03

 Cycle   7  Pass 1  IDiag  1:
 RMSU=  1.28D-05    CP:  9.68D-01  8.97D-01  6.86D-01  6.47D-01  6.04D-01
                    CP:  6.48D-01
 E= -995.019561257445     Delta-E=       -0.000048195682 Rises=F Damp=F
 DIIS: error= 8.84D-05 at cycle   7 NSaved=   7.
 NSaved= 7 IEnMin= 7 EnMin= -995.019561257445     IErMin= 7 ErrMin= 8.84D-05
 ErrMax= 8.84D-05  0.00D+00 EMaxC= 1.00D-01 BMatC= 4.41D-06 BMatP= 5.61D-05
 IDIUse=1 WtCom= 1.00D+00 WtEn= 0.00D+00
 Coeff-Com: -0.447D-03-0.675D-03 0.133D-01 0.425D-01 0.121D+00 0.298D+00
 Coeff-Com:  0.526D+00
 Coeff:     -0.447D-03-0.675D-03 0.133D-01 0.425D-01 0.121D+00 0.298D+00
 Coeff:      0.526D+00
 Gap=     0.171 Goal=   None    Shift=    0.000
 RMSDP=6.58D-06 MaxDP=4.08D-04 DE=-4.82D-05 OVMax= 8.42D-04

 Cycle   8  Pass 1  IDiag  1:
 RMSU=  4.30D-06    CP:  9.68D-01  8.97D-01  6.86D-01  6.48D-01  6.07D-01
                    CP:  6.84D-01  6.45D-01
 E= -995.019564903017     Delta-E=       -0.000003645572 Rises=F Damp=F
 DIIS: error= 2.77D-05 at cycle   8 NSaved=   8.
 NSaved= 8 IEnMin= 8 EnMin= -995.019564903017     IErMin= 8 ErrMin= 2.77D-05
 ErrMax= 2.77D-05  0.00D+00 EMaxC= 1.00D-01 BMatC= 5.53D-07 BMatP= 4.41D-06
 IDIUse=1 WtCom= 1.00D+00 WtEn= 0.00D+00
 Coeff-Com: -0.110D-03-0.386D-03 0.313D-02 0.110D-01 0.376D-01 0.110D+00
 Coeff-Com:  0.301D+00 0.537D+00
 Coeff:     -0.110D-03-0.386D-03 0.313D-02 0.110D-01 0.376D-01 0.110D+00
 Coeff:      0.301D+00 0.537D+00
 Gap=     0.171 Goal=   None    Shift=    0.000
 RMSDP=2.38D-06 MaxDP=1.61D-04 DE=-3.65D-06 OVMax= 3.63D-04

 Cycle   9  Pass 1  IDiag  1:
 RMSU=  1.55D-06    CP:  9.68D-01  8.97D-01  6.86D-01  6.48D-01  6.09D-01
                    CP:  6.82D-01  6.86D-01  6.10D-01
 E= -995.019565331365     Delta-E=       -0.000000428348 Rises=F Damp=F
 DIIS: error= 9.71D-06 at cycle   9 NSaved=   9.
 NSaved= 9 IEnMin= 9 EnMin= -995.019565331365     IErMin= 9 ErrMin= 9.71D-06
 ErrMax= 9.71D-06  0.00D+00 EMaxC= 1.00D-01 BMatC= 7.95D-08 BMatP= 5.53D-07
 IDIUse=1 WtCom= 1.00D+00 WtEn= 0.00D+00
 Coeff-Com:  0.948D-05-0.165D-03-0.375D-03-0.595D-03 0.246D-02 0.165D-01
 Coeff-Com:  0.919D-01 0.318D+00 0.572D+00
 Coeff:      0.948D-05-0.165D-03-0.375D-03-0.595D-03 0.246D-02 0.165D-01
 Coeff:      0.919D-01 0.318D+00 0.572D+00
 Gap=     0.171 Goal=   None    Shift=    0.000
 RMSDP=8.26D-07 MaxDP=4.62D-05 DE=-4.28D-07 OVMax= 8.87D-05

 Cycle  10  Pass 1  IDiag  1:
 RMSU=  4.12D-07    CP:  9.68D-01  8.97D-01  6.86D-01  6.48D-01  6.10D-01
                    CP:  6.85D-01  6.97D-01  7.06D-01  6.55D-01
 E= -995.019565398699     Delta-E=       -0.000000067334 Rises=F Damp=F
 DIIS: error= 1.89D-06 at cycle  10 NSaved=  10.
 NSaved=10 IEnMin=10 EnMin= -995.019565398699     IErMin=10 ErrMin= 1.89D-06
 ErrMax= 1.89D-06  0.00D+00 EMaxC= 1.00D-01 BMatC= 3.99D-09 BMatP= 7.95D-08
 IDIUse=1 WtCom= 1.00D+00 WtEn= 0.00D+00
 Coeff-Com:  0.125D-04-0.543D-04-0.350D-03-0.918D-03-0.967D-03 0.163D-02
 Coeff-Com:  0.257D-01 0.124D+00 0.278D+00 0.573D+00
 Coeff:      0.125D-04-0.543D-04-0.350D-03-0.918D-03-0.967D-03 0.163D-02
 Coeff:      0.257D-01 0.124D+00 0.278D+00 0.573D+00
 Gap=     0.171 Goal=   None    Shift=    0.000
 RMSDP=1.98D-07 MaxDP=1.13D-05 DE=-6.73D-08 OVMax= 1.98D-05

 Cycle  11  Pass 1  IDiag  1:
 RMSU=  1.35D-07    CP:  9.68D-01  8.97D-01  6.86D-01  6.48D-01  6.10D-01
                    CP:  6.86D-01  7.00D-01  7.08D-01  7.00D-01  7.23D-01
 E= -995.019565402295     Delta-E=       -0.000000003596 Rises=F Damp=F
 DIIS: error= 8.48D-07 at cycle  11 NSaved=  11.
 NSaved=11 IEnMin=11 EnMin= -995.019565402295     IErMin=11 ErrMin= 8.48D-07
 ErrMax= 8.48D-07  0.00D+00 EMaxC= 1.00D-01 BMatC= 4.03D-10 BMatP= 3.99D-09
 IDIUse=1 WtCom= 1.00D+00 WtEn= 0.00D+00
 Coeff-Com:  0.533D-05-0.771D-05-0.132D-03-0.396D-03-0.822D-03-0.122D-02
[...]
    23  C    0.145052   0.013806   0.488210  -0.007003  -0.048609  -0.346429
    24  H   -0.709955   0.208100   0.072156   0.017166  -0.008973   0.098848
    25  H    1.683512  -0.341508  -0.029029  -0.028928   0.047033  -0.119989
    26  H   -0.341508   2.475757   0.107875   0.274798  -0.353885   0.076146
    27  C   -0.029029   0.107875   6.469608   0.065967   0.092586  -1.306906
    28  H   -0.028928   0.274798   0.065967   2.211280  -0.756991  -0.588804
    29  H    0.047033  -0.353885   0.092586  -0.756991   1.692754   0.460155
    30  C   -0.119989   0.076146  -1.306906  -0.588804   0.460155  11.855921
    31  H   -0.010662   0.011657   0.202039   0.021817  -0.100597  -0.910237
    32  C    0.029345  -0.000096   0.217211   0.046124  -0.041555  -1.003286
    33  H    0.002494  -0.004642  -0.036089   0.011698   0.013822  -0.060736
    34  H    0.001378   0.000956   0.030895   0.010619  -0.009183   0.217816
    35  C   -0.001869   0.024966  -0.028262  -0.036806   0.005045   0.060897
    36  H   -0.038241   0.043681  -0.135151   0.027044  -0.025051   0.208171
    37  H    0.002106   0.000285   0.033650   0.004629   0.000449  -0.023447
    38  C   -0.065633   0.032595   0.294285  -0.008053   0.012220  -0.263457
    39  H    0.016696  -0.001962   0.000309   0.004614  -0.001628   0.074675
    40  H   -0.012250   0.002927  -0.019482  -0.005494   0.002536  -0.041428
    41  C    0.305138   0.093999  -0.426994   0.066602  -0.096085   0.025531
    42  H   -0.067479   0.013776  -0.029656   0.006282  -0.013050   0.105752
    43  N   -0.117012  -0.027730   0.518382   0.221159  -0.178470  -2.804754
    44  C    0.044610  -0.043899   0.005852  -0.019501   0.028217  -0.249687
    45  H   -0.013569   0.023678  -0.053334   0.025607  -0.031789   0.035288
    46  H   -0.030802  -0.001378  -0.038317  -0.005717   0.008263   0.065847
    47  H    0.008876  -0.000640   0.052873   0.008762  -0.020271  -0.033023
    48  H    0.007257  -0.000453  -0.006155  -0.002222   0.007596   0.198094
              31         32         33         34         35         36
     1  C    0.000035   0.000368   0.000225  -0.000057   0.002156  -0.008718
     2  H   -0.000013   0.000259   0.000058   0.000022   0.000015  -0.002436
     3  H    0.000016  -0.000481  -0.000063   0.000002   0.000742   0.003627
     4  H   -0.000001  -0.000018   0.000019  -0.000008  -0.000006  -0.000381
     5  N    0.000784  -0.010047  -0.004451   0.000589  -0.003950   0.049359
     6  C   -0.000140   0.005744   0.000304   0.000303  -0.006703   0.013469
     7  C    0.000027  -0.005449  -0.006716   0.000277  -0.000423   0.035514
     8  C    0.000249  -0.005656   0.004748  -0.000915   0.009057  -0.029652
     9  C    0.000191  -0.001344  -0.000992   0.000019   0.001194   0.005132
    10  C   -0.000012   0.000004   0.000378  -0.000031  -0.000063  -0.002905
    11  C   -0.000054   0.001525   0.000075   0.000102   0.001120  -0.002766
    12  H    0.000003   0.000016  -0.000013   0.000000   0.000010   0.000490
    13  H   -0.000002   0.000002   0.000015  -0.000001   0.000018  -0.000109
    14  H    0.000012  -0.000017  -0.000061   0.000005  -0.000008   0.000204
    15  H   -0.000110   0.000660   0.000544  -0.000123   0.000176  -0.001616
    16  N    0.000323  -0.010339  -0.000947   0.002272   0.000707  -0.007888
    17  C   -0.000394   0.039996   0.019815  -0.004890   0.040725  -0.093331
    18  C   -0.000373  -0.055124   0.006445  -0.002368   0.025063   0.034800
    19  O    0.000480  -0.016174  -0.000410   0.000055   0.005398  -0.002548
    20  N    0.013452   0.071503  -0.015759   0.018162  -0.100795  -0.093120
    21  H   -0.000855  -0.003399  -0.002860   0.001024   0.054591  -0.009918
    22  C    0.031021  -0.019554   0.051486   0.003921  -0.331228   0.087394
    23  C    0.005681   0.055999   0.001133  -0.013598   0.021012  -0.095847
    24  H    0.005222  -0.034115  -0.000645  -0.002684  -0.022632   0.046411
    25  H   -0.010662   0.029345   0.002494   0.001378  -0.001869  -0.038241
    26  H    0.011657  -0.000096  -0.004642   0.000956   0.024966   0.043681
    27  C    0.202039   0.217211  -0.036089   0.030895  -0.028262  -0.135151
    28  H    0.021817   0.046124   0.011698   0.010619  -0.036806   0.027044
    29  H   -0.100597  -0.041555   0.013822  -0.009183   0.005045  -0.025051
    30  C   -0.910237  -1.003286  -0.060736   0.217816   0.060897   0.208171
    31  H    1.978394   0.046356  -0.002580  -0.034491   0.058408   0.013520
    32  C    0.046356   6.220389  -0.115106   0.221077  -0.330254  -0.116858
    33  H   -0.002580  -0.115106   1.510329  -0.421260   0.093935  -0.095195
    34  H   -0.034491   0.221077  -0.421260   1.399895  -0.109688   0.085655
    35  C    0.058408  -0.330254   0.093935  -0.109688   6.272188   0.122431
    36  H    0.013520  -0.116858  -0.095195   0.085655   0.122431   1.631448
    37  H   -0.003218   0.008615   0.054225  -0.119304  -0.111756  -0.395904
    38  C    0.029603   0.217855   0.031462  -0.037137  -0.258286  -0.048502
    39  H   -0.000954   0.015150  -0.005503   0.006144   0.107906  -0.113408
    40  H    0.005917  -0.020784   0.007495   0.003870  -0.072692   0.086567
    41  C    0.056244  -0.055830   0.067529  -0.022225  -0.108558   0.055716
    42  H    0.014025   0.009934  -0.002754   0.006200   0.066155   0.018181
    43  N   -0.076895   0.155041   0.028818  -0.148179  -0.080777  -0.046113
    44  C    0.027366  -0.013792   0.003868   0.004870  -0.065155  -0.000352
    45  H   -0.000066   0.060103   0.001018   0.000356  -0.016510   0.001111
    46  H    0.011420  -0.048633  -0.001337  -0.001376   0.000504   0.003417
    47  H    0.029083   0.015042   0.000151   0.009356  -0.006165  -0.002181
    48  H   -0.030864  -0.117324   0.006718   0.004744   0.092645   0.004771
              37         38         39         40         41         42
     1  C    0.000235   0.000982   0.000420   0.000117   0.000293  -0.000058
     2  H   -0.000065   0.000449   0.000326   0.000015  -0.000098  -0.000020
     3  H   -0.000903  -0.000839  -0.002388   0.000382   0.000383   0.000121
     4  H    0.000136   0.000198   0.000003  -0.000003   0.000159   0.000004
     5  N   -0.003156  -0.022328  -0.004154  -0.001039   0.008862   0.000762
     6  C   -0.001670  -0.000803   0.000144  -0.000033   0.005392   0.000478
     7  C    0.000821  -0.005872  -0.002977  -0.000103   0.000969   0.000268
     8  C    0.000813   0.001025   0.000617   0.000139  -0.002061  -0.000350
     9  C    0.000169  -0.001047  -0.000339  -0.000077  -0.000584   0.000006
    10  C   -0.000065   0.000465   0.000272   0.000027   0.000100  -0.000012
    11  C    0.000176  -0.000701   0.000164  -0.000101   0.000055   0.000071
    12  H    0.000000  -0.000119  -0.000054  -0.000008  -0.000015   0.000004
    13  H    0.000005   0.000012   0.000007   0.000001   0.000001  -0.000001
    14  H   -0.000001  -0.000035  -0.000006  -0.000003  -0.000002   0.000002
    15  H    0.000064   0.000665   0.000009   0.000048  -0.000064  -0.000055
    16  N    0.007485  -0.031488   0.009450  -0.001799   0.022197   0.002091
    17  C    0.002668   0.025312  -0.004597   0.003011  -0.009915  -0.003988
    18  C    0.008293  -0.081560   0.023286  -0.008944   0.005191   0.015279
    19  O   -0.000650   0.000072  -0.000621   0.000243  -0.007208  -0.000539
    20  N    0.025081   0.043018   0.010715   0.000948  -0.026721   0.040455
    21  H   -0.007068  -0.089194   0.023636  -0.011857   0.134252   0.001105
    22  C   -0.001863  -0.303672  -0.016403   0.045406   0.076765   0.031480
    23  C    0.026134   0.412468  -0.008293   0.014285  -1.059092   0.095386
    24  H   -0.000112   0.107439  -0.008123   0.018617  -0.464197  -0.009943
    25  H    0.002106  -0.065633   0.016696  -0.012250   0.305138  -0.067479
    26  H    0.000285   0.032595  -0.001962   0.002927   0.093999   0.013776
    27  C    0.033650   0.294285   0.000309  -0.019482  -0.426994  -0.029656
    28  H    0.004629  -0.008053   0.004614  -0.005494   0.066602   0.006282
    29  H    0.000449   0.012220  -0.001628   0.002536  -0.096085  -0.013050
    30  C   -0.023447  -0.263457   0.074675  -0.041428   0.025531   0.105752
    31  H   -0.003218   0.029603  -0.000954   0.005917   0.056244   0.014025
    32  C    0.008615   0.217855   0.015150  -0.020784  -0.055830   0.009934
    33  H    0.054225   0.031462  -0.005503   0.007495   0.067529  -0.002754
    34  H   -0.119304  -0.037137   0.006144   0.003870  -0.022225   0.006200
    35  C   -0.111756  -0.258286   0.107906  -0.072692  -0.108558   0.066155
    36  H   -0.395904  -0.048502  -0.113408   0.086567   0.055716   0.018181
    37  H    1.592625   0.056440   0.064831  -0.110951  -0.018680  -0.005498
    38  C    0.056440   6.051274  -0.126509   0.194723  -0.855109   0.048516
    39  H    0.064831  -0.126509   1.612796  -0.438597  -0.095162   0.001368
    40  H   -0.110951   0.194723  -0.438597   1.353024   0.247717  -0.043599
    41  C   -0.018680  -0.855109  -0.095162   0.247717  10.448684  -0.747244
    42  H   -0.005498   0.048516   0.001368  -0.043599  -0.747244   1.919213
    43  N    0.060803   0.156056   0.018845  -0.134105  -2.174859  -0.121429
    44  C    0.002217  -0.017410  -0.002339   0.008736  -0.183299   0.021915
    45  H   -0.000105   0.050366   0.000436  -0.000754   0.077043   0.008885
    46  H   -0.000253   0.022293  -0.000489   0.009379  -0.038384   0.032252
    47  H    0.000030  -0.047459  -0.001013  -0.000792   0.027121   0.007961
    48  H    0.000254  -0.106191   0.006615   0.004539   0.178264  -0.034291
              43         44         45         46         47         48
     1  C   -0.000242   0.000020   0.000002   0.000005   0.000002  -0.000015
     2  H    0.000011   0.000003   0.000004  -0.000000   0.000000  -0.000003
     3  H   -0.000013   0.000042  -0.000009  -0.000004   0.000007  -0.000023
     4  H   -0.000017  -0.000003  -0.000000   0.000000  -0.000000   0.000002
     5  N   -0.002671  -0.000030  -0.000244   0.000057  -0.000009  -0.000162
     6  C    0.000680  -0.000514   0.000176  -0.000098   0.000009  -0.000046
     7  C    0.005264  -0.000136   0.001305   0.000052  -0.000270   0.000071
     8  C   -0.001671   0.000226  -0.000420   0.000074   0.000008   0.000059
     9  C   -0.000308  -0.000040  -0.000266   0.000011  -0.000004   0.000008
    10  C    0.000051   0.000021   0.000041   0.000001   0.000000  -0.000000
    11  C   -0.000042  -0.000080  -0.000068  -0.000011  -0.000001   0.000004
    12  H   -0.000003  -0.000003  -0.000004  -0.000000  -0.000000   0.000000
    13  H    0.000001   0.000000   0.000001   0.000000   0.000000   0.000000
    14  H   -0.000013  -0.000005  -0.000004  -0.000000  -0.000001   0.000000
    15  H    0.000411   0.000090  -0.000032  -0.000000   0.000020  -0.000012
    16  N   -0.013561  -0.000515  -0.001393   0.000129   0.000048  -0.000097
    17  C    0.014596  -0.000024  -0.001810  -0.001257   0.000797   0.000740
    18  C   -0.104513  -0.021937  -0.011434   0.002858   0.003447  -0.001048
    19  O   -0.001786   0.000518  -0.000382   0.000307  -0.000477  -0.000138
    20  N   -0.323453   0.038427  -0.057177   0.005322   0.014827   0.005993
    21  H    0.037271  -0.005191   0.002236  -0.003007   0.000077  -0.000320
    22  C    0.305018   0.168521   0.027416   0.038517   0.041189  -0.060803
    23  C    0.145178   0.032758  -0.073677   0.056603  -0.039294   0.019849
    24  H    0.156738  -0.031244   0.013656   0.014553  -0.008192  -0.000272
    25  H   -0.117012   0.044610  -0.013569  -0.030802   0.008876   0.007257
    26  H   -0.027730  -0.043899   0.023678  -0.001378  -0.000640  -0.000453
    27  C    0.518382   0.005852  -0.053334  -0.038317   0.052873  -0.006155
    28  H    0.221159  -0.019501   0.025607  -0.005717   0.008762  -0.002222
    29  H   -0.178470   0.028217  -0.031789   0.008263  -0.020271   0.007596
    30  C   -2.804754  -0.249687   0.035288   0.065847  -0.033023   0.198094
    31  H   -0.076895   0.027366  -0.000066   0.011420   0.029083  -0.030864
    32  C    0.155041  -0.013792   0.060103  -0.048633   0.015042  -0.117324
    33  H    0.028818   0.003868   0.001018  -0.001337   0.000151   0.006718
    34  H   -0.148179   0.004870   0.000356  -0.001376   0.009356   0.004744
    35  C   -0.080777  -0.065155  -0.016510   0.000504  -0.006165   0.092645
    36  H   -0.046113  -0.000352   0.001111   0.003417  -0.002181   0.004771
    37  H    0.060803   0.002217  -0.000105  -0.000253   0.000030   0.000254
    38  C    0.156056  -0.017410   0.050366   0.022293  -0.047459  -0.106191
    39  H    0.018845  -0.002339   0.000436  -0.000489  -0.001013   0.006615
    40  H   -0.134105   0.008736  -0.000754   0.009379  -0.000792   0.004539
    41  C   -2.174859  -0.183299   0.077043  -0.038384   0.027121   0.178264
    42  H   -0.121429   0.021915   0.008885   0.032252   0.007961  -0.034291
    43  N   12.231569   0.437967   0.257191  -0.209960  -0.266367   0.052049
    44  C    0.437967   4.249677   0.126620   0.345358   0.409583  -0.067510
    45  H    0.257191   0.126620   1.039836  -0.206356  -0.223926   0.006848
    46  H   -0.209960   0.345358  -0.206356   1.357282  -0.300951  -0.010640
    47  H   -0.266367   0.409583  -0.223926  -0.300951   1.429302  -0.012781
    48  H    0.052049  -0.067510   0.006848  -0.010640  -0.012781   0.620879
 Mulliken charges:
               1
     1  C    0.861359
     2  H   -0.080173
     3  H   -0.258508
     4  H   -0.125657
     5  N   -0.723464
     6  C   -0.170310
     7  C    0.552422
     8  C    1.302899
     9  C    0.252677
    10  C    0.477740
    11  C    0.999295
    12  H   -0.573537
    13  H   -0.464411
    14  H   -0.484424
    15  H   -0.539269
    16  N   -0.997795
    17  C    0.332911
    18  C    0.245230
    19  O   -0.847846
    20  N    0.365895
    21  H   -0.087432
    22  C   -0.140153
    23  C    0.627552
    24  H   -0.313348
    25  H   -0.011365
    26  H   -0.475093
    27  C    0.563563
    28  H   -0.324428
    29  H   -0.013328
    30  C    0.603277
    31  H   -0.390828
    32  C    0.586917
    33  H   -0.140687
    34  H   -0.103069
    35  C    0.625521
    36  H   -0.209923
    37  H   -0.148570
    38  C    0.581607
    39  H   -0.163916
    40  H   -0.085772
    41  C    0.488178
    42  H   -0.387965
    43  N   -0.968155
    44  C    0.765188
    45  H   -0.065892
    46  H   -0.075534
    47  H   -0.094756
    48  H    0.233375
 Sum of Mulliken charges =   1.00000
 Mulliken charges with hydrogens summed into heavy atoms:
               1
     1  C    0.397021
     5  N   -0.723464
     6  C   -0.170310
     7  C    0.552422
     8  C    0.763631
     9  C   -0.231746
    10  C    0.013329
    11  C    0.425758
    16  N   -0.997795
    17  C    0.332911
    18  C    0.245230
    19  O   -0.847846
    20  N    0.278463
    22  C   -0.615246
    23  C    0.302839
    27  C    0.225807
    30  C    0.212448
    32  C    0.343162
    35  C    0.267028
    38  C    0.331920
    41  C    0.100213
    43  N   -0.734781
    44  C    0.529006
 Electronic spatial extent (au):  <R**2>=           9398.1802
 Charge=              1.0000 electrons
 Dipole moment (field-independent basis, Debye):
    X=            -15.3016    Y=              3.8106    Z=              0.0529  Tot=             15.7691
 Quadrupole moment (field-independent basis, Debye-Ang):
   XX=            -18.0860   YY=           -122.6093   ZZ=           -130.2306
   XY=             10.5988   XZ=              1.2795   YZ=             -1.6810
 Traceless Quadrupole moment (field-independent basis, Debye-Ang):
   XX=             72.2227   YY=            -32.3007   ZZ=            -39.9220
   XY=             10.5988   XZ=              1.2795   YZ=             -1.6810
 Octapole moment (field-independent basis, Debye-Ang**2):
  XXX=           -302.6776  YYY=             38.7661  ZZZ=             -2.0165  XYY=             -0.3131
  XXY=             -2.2891  XXZ=             10.5408  XZZ=            -62.5765  YZZ=              4.2079
  YYZ=              0.4006  XYZ=            -11.2785
 Hexadecapole moment (field-independent basis, Debye-Ang**3):
 XXXX=          -6941.5974 YYYY=          -1657.3355 ZZZZ=           -700.7501 XXXY=            194.5356
 XXXZ=            104.6991 YYYX=             93.1996 YYYZ=            -16.5026 ZZZX=            -24.6592
 ZZZY=              7.8782 XXYY=          -1650.0737 XXZZ=          -1806.0306 YYZZ=           -403.8972
 XXYZ=            -28.0787 YYXZ=              4.6433 ZZXY=             29.8951
 N-N= 1.981057133696D+03 E-N=-6.249084967416D+03  KE= 9.875330571715D+02
 Leave Link  601 at Sun Jul 11 19:12:47 2021, MaxMem=   262144000 cpu:               1.0 elap:               0.3
 (Enter /prod/apps/gaussian/g16b1/l9999.exe)
 1\1\GINC-PIRINEUS27\SP\RMP2-FC\Aug-CC-pVDZ\C18H25N4O1(1+)\UBATOR02\11-
 Jul-2021\0\\#p mp2/aug-cc-pVDZ scf=tight maxdisk=180GB geom=allcheck\\
 SET_328_BBB286_conf1.geo_000_090 geometry\\1,1\C,0,-2.2984630552,3.070
 6739797,-2.9299309546\H,0,-2.8518211305,3.8646761309,-2.4229290027\H,0
 ,-2.8538866636,2.1377003317,-2.8604825877\H,0,-2.1637688314,3.33807872
 63,-3.9800247024\N,0,-1.0100508789,2.8604541722,-2.2946672915\C,0,0.03
 40771371,3.7443312056,-2.1975866673\C,0,1.0591820777,3.0814645826,-1.4
 792436292\C,0,2.2758573608,3.7448950598,-1.2305221611\C,0,2.4233492006
 ,5.0380357965,-1.7023703788\C,0,1.3847720116,5.684731521,-2.4162163325
 \C,0,0.1782309431,5.0565156117,-2.6764555991\H,0,-0.6139544537,5.55556
 18454,-3.2230483875\H,0,1.5399487672,6.6986959697,-2.7691089826\H,0,3.
 3511435817,5.5716692272,-1.5252908527\H,0,3.0662467861,3.2456953781,-0
 .6850816257\N,0,-0.7272686569,1.6906078707,-1.6918664971\C,0,0.5048267
 249,1.7944969244,-1.195835308\C,0,1.1454077931,0.6742190098,-0.4724669
 565\O,0,2.2904242204,0.7760545412,-0.0076063713\N,0,0.4043508262,-0.45
 68481455,-0.3526457525\H,0,-0.4556374778,-0.5084706718,-0.886571167\C,
 0,0.9905416961,-1.6842707268,0.184939396\C,0,0.1738471731,-2.923695820
 1,-0.2355478235\H,0,-0.3018526415,-2.7516806004,-1.2047096809\H,0,0.87
 69209694,-3.7440759753,-0.3980053845\H,0,1.9792668308,-1.7683261082,-0
 .2747505798\C,0,1.2459211769,-1.6333084985,1.7166168604\H,0,1.44414406
 45,-0.6014024844,2.0093516384\H,0,2.1723152596,-2.1819712092,1.9076917
 648\C,0,0.1629913426,-2.203321485,2.6476035499\H,0,0.624024459,-2.4022
 309319,3.6171188799\C,0,-1.0969595734,-1.3565384882,2.869073676\H,0,-0
 .781445183,-0.3722074835,3.2260700813\H,0,-1.6719496852,-1.8119157533,
 3.6833443803\C,0,-1.9722311369,-1.2207215483,1.618477033\H,0,-1.519506
 0092,-0.4976450374,0.9403733582\H,0,-2.9476005731,-0.816340919,1.89931
 16655\C,0,-2.1782982493,-2.5654360782,0.9060888078\H,0,-2.6096947207,-
 2.4133874429,-0.0873756128\H,0,-2.9016301955,-3.1663309625,1.468351513
 3\C,0,-0.9037270912,-3.4133265054,0.7472643582\H,0,-1.1952584449,-4.42
 20557169,0.4491938613\N,0,-0.279143194,-3.5700146525,2.1325795697\C,0,
 0.7943941135,-4.6117296519,2.2022033581\H,0,1.6391474332,-4.3173803174
 ,1.5865066946\H,0,0.3779205234,-5.5531033712,1.8452168809\H,0,1.105162
 3144,-4.7047370155,3.2410413287\H,0,-1.026266941,-3.9010842833,2.75892
 16332\\Version=ES64L-G16RevB.01\State=1-A\HF=-988.7677296\MP2=-992.193
 4291\RMSD=5.568e-09\PG=C01 [X(C18H25N4O1)]\\@


 LET US LEARN TO DREAM, GENTLEMEN, THEN PERHAPS WE SHALL
 DISCOVER THE TRUTH;  BUT LET US BEWARE OF PUBLISHING
 OUR DREAMS ABROAD BEFORE THEY HAVE BEEN SCRUTINIZED
 BY OUR VIGILANT INTELLECT ... LET US ALWAYS ALLOW
 THE FRUIT TO HANG UNTIL IT IS RIPE.  UNRIPE FRUIT
 BRINGS EVEN THE GROWER BUT LITTLE PROFIT; IT DAMAGES
 THE HEALTH OF THOSE WHO CONSUME IT; IT ENDANGERS
 PARTICULARLY THE YOUTH WHO CANNOT YET DISTINGUISH
 BETWEEN RIPE AND UNRIPE FRUIT.

                                  -- KEKULE, 1890
 Job cpu time:       0 days  6 hours 20 minutes 54.2 seconds.
 Elapsed time:       0 days  1 hours 40 minutes 55.7 seconds.
 File lengths (MBytes):  RWF= 131610 Int=      0 D2E=      0 Chk=     44 Scr=      1
 Normal termination of Gaussian 16 at Sun Jul 11 19:12:50 2021.
