 Entering Gaussian System, Link 0=g16
 Initial command:
 /prod/apps/gaussian/g16b1/l1.exe "/tmp/ubator02/1834527/Gau-210818.inp" -scrdir="/tmp/ubator02/1834527/"
 Entering Link 1 = /prod/apps/gaussian/g16b1/l1.exe PID=    210819.
  
 Copyright (c) 1988-2017, Gaussian, Inc.  All Rights Reserved.
  
 This is part of the Gaussian(R) 16 program.  It is based on
 the Gaussian(R) 09 system (copyright 2009, Gaussian, Inc.),
 the Gaussian(R) 03 system (copyright 2003, Gaussian, Inc.),
 the Gaussian(R) 98 system (copyright 1998, Gaussian, Inc.),
 the Gaussian(R) 94 system (copyright 1995, Gaussian, Inc.),
 the Gaussian 92(TM) system (copyright 1992, Gaussian, Inc.),
 the Gaussian 90(TM) system (copyright 1990, Gaussian, Inc.),
 the Gaussian 88(TM) system (copyright 1988, Gaussian, Inc.),
 the Gaussian 86(TM) system (copyright 1986, Carnegie Mellon
 University), and the Gaussian 82(TM) system (copyright 1983,
 Carnegie Mellon University). Gaussian is a federally registered
 trademark of Gaussian, Inc.
  
 This software contains proprietary and confidential information,
 including trade secrets, belonging to Gaussian, Inc.
  
 This software is provided under written license and may be
 used, copied, transmitted, or stored only in accord with that
 written license.
  
 The following legend is applicable only to US Government
 contracts under FAR:
  
                    RESTRICTED RIGHTS LEGEND
  
 Use, reproduction and disclosure by the US Government is
 subject to restrictions as set forth in subparagraphs (a)
 and (c) of the Commercial Computer Software - Restricted
 Rights clause in FAR 52.227-19.
  
 Gaussian, Inc.
 340 Quinnipiac St., Bldg. 40, Wallingford CT 06492
  
  
 ---------------------------------------------------------------
 Warning -- This program may not be used in any manner that
 competes with the business of Gaussian, Inc. or will provide
 assistance to any competitor of Gaussian, Inc.  The licensee
 of this program is prohibited from giving any competitor of
 Gaussian, Inc. access to this program.  By using this program,
 the user acknowledges that Gaussian, Inc. is engaged in the
 business of creating and licensing software in the field of
 computational chemistry and represents and warrants to the
 licensee that it is not a competitor of Gaussian, Inc. and that
 it will not use this program in any manner prohibited above.
 ---------------------------------------------------------------
  

 Cite this work as:
 Gaussian 16, Revision B.01,
 M. J. Frisch, G. W. Trucks, H. B. Schlegel, G. E. Scuseria, 
 M. A. Robb, J. R. Cheeseman, G. Scalmani, V. Barone, 
 G. A. Petersson, H. Nakatsuji, X. Li, M. Caricato, A. V. Marenich, 
 J. Bloino, B. G. Janesko, R. Gomperts, B. Mennucci, H. P. Hratchian, 
 J. V. Ortiz, A. F. Izmaylov, J. L. Sonnenberg, D. Williams-Young, 
 F. Ding, F. Lipparini, F. Egidi, J. Goings, B. Peng, A. Petrone, 
 T. Henderson, D. Ranasinghe, V. G. Zakrzewski, J. Gao, N. Rega, 
 G. Zheng, W. Liang, M. Hada, M. Ehara, K. Toyota, R. Fukuda, 
 J. Hasegawa, M. Ishida, T. Nakajima, Y. Honda, O. Kitao, H. Nakai, 
 T. Vreven, K. Throssell, J. A. Montgomery, Jr., J. E. Peralta, 
 F. Ogliaro, M. J. Bearpark, J. J. Heyd, E. N. Brothers, K. N. Kudin, 
 V. N. Staroverov, T. A. Keith, R. Kobayashi, J. Normand, 
 K. Raghavachari, A. P. Rendell, J. C. Burant, S. S. Iyengar, 
 J. Tomasi, M. Cossi, J. M. Millam, M. Klene, C. Adamo, R. Cammi, 
 J. W. Ochterski, R. L. Martin, K. Morokuma, O. Farkas, 
 J. B. Foresman, and D. J. Fox, Gaussian, Inc., Wallingford CT, 2016.
 
 ******************************************
 Gaussian 16:  ES64L-G16RevB.01 20-Dec-2017
                11-Jul-2021 
 ******************************************
 %mem=800MB
 %nproc=4
 Will use up to    4 processors via shared memory.
 %chk=SET_328_BBB212_conf1.geo_135_300.chk
 -----------------------------------------------------------
 #p b3lyp/6-31G(d) opt freq scrf=(iefpcm,read,solvent=water)
 -----------------------------------------------------------
 1/18=20,19=15,26=3,38=1,40=2/1,3;
 2/9=110,12=2,17=6,18=5,40=1/2;
 3/5=1,6=6,7=1,11=2,25=1,30=1,70=2203,71=1,72=1,74=-5/1,2,3;
 4//1;
 5/5=2,38=5,53=1/2;
 6/7=2,8=2,9=2,10=2,28=1/1;
 7//1,2,3,16;
 1/18=20,19=15,26=3/3(2);
 2/9=110/2;
 99//99;
 2/9=110/2;
 3/5=1,6=6,7=1,11=2,25=1,30=1,70=2205,71=1,72=1,74=-5/1,2,3;
 4/5=5,16=3,69=1/1;
 5/5=2,38=5,53=1/2;
 7//1,2,3,16;
 1/18=20,19=15,26=3/3(-5);
 2/9=110/2;
 6/7=2,8=2,9=2,10=2,19=2,28=1/1;
 99/9=1/99;
 Leave Link    1 at Sun Jul 11 15:57:28 2021, MaxMem=   104857600 cpu:               0.1 elap:               0.0
 (Enter /prod/apps/gaussian/g16b1/l101.exe)
 -----------------------------------------
 SET_328_BBB212_conf1.geo_135_300 geometry
 -----------------------------------------
 Symbolic Z-matrix:
 Charge = -1 Multiplicity = 1
 C                    -0.646     1.596     2. 
 H                    -1.592     2.111     1.819 
 H                     0.237     2.226     1.873 
 H                    -0.466     1.305     3.038 
 C                    -0.719     0.382     0.941 
 C                    -1.878    -0.505     1.418 
 H                    -1.774    -0.784     2.469 
 H                    -1.905    -1.432     0.842 
 H                    -2.888    -0.107     1.296 
 C                     0.514    -0.53      0.969 
 C                     1.488    -0.501     1.957 
 C                     2.403    -1.604     2.074 
 C                     2.447    -2.63      1.139 
 O                     3.405    -3.504     1.309 
 H                     3.715    -3.731     0.413 
 C                     1.484    -2.627     0.163 
 C                     0.582    -1.544     0.01 
 H                    -0.035    -1.456    -0.88 
 H                     1.422    -3.448    -0.547 
 H                     3.063    -1.669     2.935 
 H                     1.482     0.335     2.651 
 C                    -0.905     0.934    -0.501 
 C                     0.187     1.726    -1.068 
 H                     1.121     1.989    -0.578 
 C                     0.07      2.207    -2.361 
 H                     0.853     2.872    -2.715 
 C                    -1.008     1.802    -3.168 
 O                    -1.038     2.116    -4.476 
 C                    -2.027     1.113    -2.616 
 H                    -2.809     0.782    -3.295 
 C                    -1.968     0.606    -1.352 
 H                    -2.719    -0.115    -1.041 
 
 ITRead=  0  0  0  0  0  0  0  0  0  0  0  0  0  0  0  0  0  0  0  0
 ITRead=  0  0  0  0  0  0  0  0  0  0  0  0
 MicOpt= -1 -1 -1 -1 -1 -1 -1 -1 -1 -1 -1 -1 -1 -1 -1 -1 -1 -1 -1 -1
 MicOpt= -1 -1 -1 -1 -1 -1 -1 -1 -1 -1 -1 -1
 NAtoms=     32 NQM=       32 NQMF=       0 NMMI=      0 NMMIF=      0
                NMic=       0 NMicF=      0.
                    Isotopes and Nuclear Properties:
 (Nuclear quadrupole moments (NQMom) in fm**2, nuclear magnetic moments (NMagM)
  in nuclear magnetons)

  Atom         1           2           3           4           5           6           7           8           9          10
 IAtWgt=          12           1           1           1          12          12           1           1           1          12
 AtmWgt=  12.0000000   1.0078250   1.0078250   1.0078250  12.0000000  12.0000000   1.0078250   1.0078250   1.0078250  12.0000000
 NucSpn=           0           1           1           1           0           0           1           1           1           0
 AtZEff=  -0.0000000  -0.0000000  -0.0000000  -0.0000000  -0.0000000  -0.0000000  -0.0000000  -0.0000000  -0.0000000  -0.0000000
 NQMom=    0.0000000   0.0000000   0.0000000   0.0000000   0.0000000   0.0000000   0.0000000   0.0000000   0.0000000   0.0000000
 NMagM=    0.0000000   2.7928460   2.7928460   2.7928460   0.0000000   0.0000000   2.7928460   2.7928460   2.7928460   0.0000000
 AtZNuc=   6.0000000   1.0000000   1.0000000   1.0000000   6.0000000   6.0000000   1.0000000   1.0000000   1.0000000   6.0000000

  Atom        11          12          13          14          15          16          17          18          19          20
 IAtWgt=          12          12          12          16           1          12          12           1           1           1
 AtmWgt=  12.0000000  12.0000000  12.0000000  15.9949146   1.0078250  12.0000000  12.0000000   1.0078250   1.0078250   1.0078250
 NucSpn=           0           0           0           0           1           0           0           1           1           1
 AtZEff=  -0.0000000  -0.0000000  -0.0000000  -0.0000000  -0.0000000  -0.0000000  -0.0000000  -0.0000000  -0.0000000  -0.0000000
 NQMom=    0.0000000   0.0000000   0.0000000   0.0000000   0.0000000   0.0000000   0.0000000   0.0000000   0.0000000   0.0000000
 NMagM=    0.0000000   0.0000000   0.0000000   0.0000000   2.7928460   0.0000000   0.0000000   2.7928460   2.7928460   2.7928460
 AtZNuc=   6.0000000   6.0000000   6.0000000   8.0000000   1.0000000   6.0000000   6.0000000   1.0000000   1.0000000   1.0000000

  Atom        21          22          23          24          25          26          27          28          29          30
 IAtWgt=           1          12          12           1          12           1          12          16          12           1
 AtmWgt=   1.0078250  12.0000000  12.0000000   1.0078250  12.0000000   1.0078250  12.0000000  15.9949146  12.0000000   1.0078250
 NucSpn=           1           0           0           1           0           1           0           0           0           1
 AtZEff=  -0.0000000  -0.0000000  -0.0000000  -0.0000000  -0.0000000  -0.0000000  -0.0000000  -0.0000000  -0.0000000  -0.0000000
 NQMom=    0.0000000   0.0000000   0.0000000   0.0000000   0.0000000   0.0000000   0.0000000   0.0000000   0.0000000   0.0000000
 NMagM=    2.7928460   0.0000000   0.0000000   2.7928460   0.0000000   2.7928460   0.0000000   0.0000000   0.0000000   2.7928460
 AtZNuc=   1.0000000   6.0000000   6.0000000   1.0000000   6.0000000   1.0000000   6.0000000   8.0000000   6.0000000   1.0000000

  Atom        31          32
 IAtWgt=          12           1
 AtmWgt=  12.0000000   1.0078250
 NucSpn=           0           1
 AtZEff=  -0.0000000  -0.0000000
 NQMom=    0.0000000   0.0000000
 NMagM=    0.0000000   2.7928460
 AtZNuc=   6.0000000   1.0000000
 Leave Link  101 at Sun Jul 11 15:57:28 2021, MaxMem=   104857600 cpu:               0.5 elap:               0.1
 (Enter /prod/apps/gaussian/g16b1/l103.exe)

 GradGradGradGradGradGradGradGradGradGradGradGradGradGradGradGradGradGrad
 Berny optimization.
 Initialization pass.
                           ----------------------------
                           !    Initial Parameters    !
                           ! (Angstroms and Degrees)  !
 --------------------------                            --------------------------
 ! Name  Definition              Value          Derivative Info.                !
 --------------------------------------------------------------------------------
 ! R1    R(1,2)                  1.0922         estimate D2E/DX2                !
 ! R2    R(1,3)                  1.0921         estimate D2E/DX2                !
 ! R3    R(1,4)                  1.0929         estimate D2E/DX2                !
 ! R4    R(1,5)                  1.6126         estimate D2E/DX2                !
 ! R5    R(5,6)                  1.5354         estimate D2E/DX2                !
 ! R6    R(5,10)                 1.5339         estimate D2E/DX2                !
 ! R7    R(5,22)                 1.5552         estimate D2E/DX2                !
 ! R8    R(6,7)                  1.0924         estimate D2E/DX2                !
 ! R9    R(6,8)                  1.0917         estimate D2E/DX2                !
 ! R10   R(6,9)                  1.0924         estimate D2E/DX2                !
 ! R11   R(10,11)                1.3877         estimate D2E/DX2                !
 ! R12   R(10,17)                1.3973         estimate D2E/DX2                !
 ! R13   R(11,12)                1.4379         estimate D2E/DX2                !
 ! R14   R(11,21)                1.0865         estimate D2E/DX2                !
 ! R15   R(12,13)                1.3888         estimate D2E/DX2                !
 ! R16   R(12,20)                1.0868         estimate D2E/DX2                !
 ! R17   R(13,14)                1.3079         estimate D2E/DX2                !
 ! R18   R(13,16)                1.3711         estimate D2E/DX2                !
 ! R19   R(14,15)                0.9749         estimate D2E/DX2                !
 ! R20   R(16,17)                1.4177         estimate D2E/DX2                !
 ! R21   R(16,19)                1.0872         estimate D2E/DX2                !
 ! R22   R(17,18)                1.0865         estimate D2E/DX2                !
 ! R23   R(22,23)                1.4633         estimate D2E/DX2                !
 ! R24   R(22,31)                1.4006         estimate D2E/DX2                !
 ! R25   R(23,24)                1.087          estimate D2E/DX2                !
 ! R26   R(23,25)                1.3845         estimate D2E/DX2                !
 ! R27   R(25,26)                1.0866         estimate D2E/DX2                !
 ! R28   R(25,27)                1.4062         estimate D2E/DX2                !
 ! R29   R(27,28)                1.3455         estimate D2E/DX2                !
 ! R30   R(27,29)                1.3483         estimate D2E/DX2                !
 ! R31   R(29,30)                1.0873         estimate D2E/DX2                !
 ! R32   R(29,31)                1.3632         estimate D2E/DX2                !
 ! R33   R(31,32)                1.0865         estimate D2E/DX2                !
 ! A1    A(2,1,3)              114.1432         estimate D2E/DX2                !
 ! A2    A(2,1,4)              115.1875         estimate D2E/DX2                !
 ! A3    A(2,1,5)              101.9426         estimate D2E/DX2                !
 ! A4    A(3,1,4)               97.5202         estimate D2E/DX2                !
 ! A5    A(3,1,5)              113.2347         estimate D2E/DX2                !
 ! A6    A(4,1,5)              115.5116         estimate D2E/DX2                !
 ! A7    A(1,5,6)              105.3696         estimate D2E/DX2                !
 ! A8    A(1,5,10)             113.5292         estimate D2E/DX2                !
 ! A9    A(1,5,22)             110.3102         estimate D2E/DX2                !
 ! A10   A(6,5,10)             104.9289         estimate D2E/DX2                !
 ! A11   A(6,5,22)             113.7541         estimate D2E/DX2                !
 ! A12   A(10,5,22)            108.9109         estimate D2E/DX2                !
 ! A13   A(5,6,7)              111.9982         estimate D2E/DX2                !
 ! A14   A(5,6,8)              110.1993         estimate D2E/DX2                !
 ! A15   A(5,6,9)              116.9183         estimate D2E/DX2                !
 ! A16   A(7,6,8)              107.0444         estimate D2E/DX2                !
 ! A17   A(7,6,9)              106.7697         estimate D2E/DX2                !
 ! A18   A(8,6,9)              103.1541         estimate D2E/DX2                !
 ! A19   A(5,10,11)            124.3869         estimate D2E/DX2                !
 ! A20   A(5,10,17)            117.2615         estimate D2E/DX2                !
 ! A21   A(11,10,17)           118.0115         estimate D2E/DX2                !
 ! A22   A(10,11,12)           119.2453         estimate D2E/DX2                !
 ! A23   A(10,11,21)           117.8373         estimate D2E/DX2                !
 ! A24   A(12,11,21)           122.8034         estimate D2E/DX2                !
 ! A25   A(11,12,13)           122.1458         estimate D2E/DX2                !
 ! A26   A(11,12,20)           119.7877         estimate D2E/DX2                !
 ! A27   A(13,12,20)           118.0298         estimate D2E/DX2                !
 ! A28   A(12,13,14)           115.428          estimate D2E/DX2                !
 ! A29   A(12,13,16)           117.088          estimate D2E/DX2                !
 ! A30   A(14,13,16)           127.4773         estimate D2E/DX2                !
 ! A31   A(13,14,15)           105.6079         estimate D2E/DX2                !
 ! A32   A(13,16,17)           121.692          estimate D2E/DX2                !
 ! A33   A(13,16,19)           120.2164         estimate D2E/DX2                !
 ! A34   A(17,16,19)           118.0414         estimate D2E/DX2                !
 ! A35   A(10,17,16)           120.7467         estimate D2E/DX2                !
 ! A36   A(10,17,18)           118.4094         estimate D2E/DX2                !
 ! A37   A(16,17,18)           120.7684         estimate D2E/DX2                !
 ! A38   A(5,22,23)            117.5249         estimate D2E/DX2                !
 ! A39   A(5,22,31)            124.8205         estimate D2E/DX2                !
 ! A40   A(23,22,31)           117.2384         estimate D2E/DX2                !
 ! A41   A(22,23,24)           126.6906         estimate D2E/DX2                !
 ! A42   A(22,23,25)           119.1332         estimate D2E/DX2                !
 ! A43   A(24,23,25)           114.1752         estimate D2E/DX2                !
 ! A44   A(23,25,26)           117.1285         estimate D2E/DX2                !
 ! A45   A(23,25,27)           120.045          estimate D2E/DX2                !
 ! A46   A(26,25,27)           122.8016         estimate D2E/DX2                !
 ! A47   A(25,27,28)           120.516          estimate D2E/DX2                !
 ! A48   A(25,27,29)           119.4472         estimate D2E/DX2                !
 ! A49   A(28,27,29)           120.0276         estimate D2E/DX2                !
 ! A50   A(27,29,30)           116.3267         estimate D2E/DX2                !
 ! A51   A(27,29,31)           122.4789         estimate D2E/DX2                !
 ! A52   A(30,29,31)           119.8003         estimate D2E/DX2                !
 ! A53   A(22,31,29)           120.6062         estimate D2E/DX2                !
 ! A54   A(22,31,32)           120.4018         estimate D2E/DX2                !
 ! A55   A(29,31,32)           118.8354         estimate D2E/DX2                !
 ! D1    D(2,1,5,6)            -65.9295         estimate D2E/DX2                !
 ! D2    D(2,1,5,10)           179.7972         estimate D2E/DX2                !
 ! D3    D(2,1,5,22)            57.2444         estimate D2E/DX2                !
 ! D4    D(3,1,5,6)            170.9932         estimate D2E/DX2                !
 ! D5    D(3,1,5,10)            56.7198         estimate D2E/DX2                !
 ! D6    D(3,1,5,22)           -65.8329         estimate D2E/DX2                !
 ! D7    D(4,1,5,6)             59.7274         estimate D2E/DX2                !
 ! D8    D(4,1,5,10)           -54.5459         estimate D2E/DX2                !
 ! D9    D(4,1,5,22)          -177.0987         estimate D2E/DX2                !
 ! D10   D(1,5,6,7)            -52.5901         estimate D2E/DX2                !
 ! D11   D(1,5,6,8)           -171.634          estimate D2E/DX2                !
 ! D12   D(1,5,6,9)             71.0594         estimate D2E/DX2                !
 ! D13   D(10,5,6,7)            67.5274         estimate D2E/DX2                !
 ! D14   D(10,5,6,8)           -51.5165         estimate D2E/DX2                !
 ! D15   D(10,5,6,9)          -168.8231         estimate D2E/DX2                !
 ! D16   D(22,5,6,7)          -173.5386         estimate D2E/DX2                !
 ! D17   D(22,5,6,8)            67.4175         estimate D2E/DX2                !
 ! D18   D(22,5,6,9)           -49.8891         estimate D2E/DX2                !
 ! D19   D(1,5,10,11)           11.8439         estimate D2E/DX2                !
 ! D20   D(1,5,10,17)         -175.0031         estimate D2E/DX2                !
 ! D21   D(6,5,10,11)         -102.6924         estimate D2E/DX2                !
 ! D22   D(6,5,10,17)           70.4605         estimate D2E/DX2                !
 ! D23   D(22,5,10,11)         135.1662         estimate D2E/DX2                !
 ! D24   D(22,5,10,17)         -51.6808         estimate D2E/DX2                !
 ! D25   D(1,5,22,23)           65.3261         estimate D2E/DX2                !
 ! D26   D(1,5,22,31)         -122.3038         estimate D2E/DX2                !
 ! D27   D(6,5,22,23)         -176.5319         estimate D2E/DX2                !
 ! D28   D(6,5,22,31)           -4.1617         estimate D2E/DX2                !
 ! D29   D(10,5,22,23)         -59.8974         estimate D2E/DX2                !
 ! D30   D(10,5,22,31)         112.4727         estimate D2E/DX2                !
 ! D31   D(5,10,11,12)         164.296          estimate D2E/DX2                !
 ! D32   D(5,10,11,21)         -11.9314         estimate D2E/DX2                !
 ! D33   D(17,10,11,12)         -8.8097         estimate D2E/DX2                !
 ! D34   D(17,10,11,21)        174.9629         estimate D2E/DX2                !
 ! D35   D(5,10,17,16)        -163.7411         estimate D2E/DX2                !
 ! D36   D(5,10,17,18)          19.3936         estimate D2E/DX2                !
 ! D37   D(11,10,17,16)          9.8606         estimate D2E/DX2                !
 ! D38   D(11,10,17,18)       -167.0047         estimate D2E/DX2                !
 ! D39   D(10,11,12,13)          7.488          estimate D2E/DX2                !
 ! D40   D(10,11,12,20)       -170.2636         estimate D2E/DX2                !
 ! D41   D(21,11,12,13)       -176.4812         estimate D2E/DX2                !
 ! D42   D(21,11,12,20)          5.7671         estimate D2E/DX2                !
 ! D43   D(11,12,13,14)        174.2694         estimate D2E/DX2                !
 ! D44   D(11,12,13,16)         -6.6011         estimate D2E/DX2                !
 ! D45   D(20,12,13,14)         -7.9411         estimate D2E/DX2                !
 ! D46   D(20,12,13,16)        171.1883         estimate D2E/DX2                !
 ! D47   D(12,13,14,15)       -141.9864         estimate D2E/DX2                !
 ! D48   D(16,13,14,15)         38.9903         estimate D2E/DX2                !
 ! D49   D(12,13,16,17)          7.5023         estimate D2E/DX2                !
 ! D50   D(12,13,16,19)       -175.1257         estimate D2E/DX2                !
 ! D51   D(14,13,16,17)       -173.4884         estimate D2E/DX2                !
 ! D52   D(14,13,16,19)          3.8836         estimate D2E/DX2                !
 ! D53   D(13,16,17,10)         -9.4507         estimate D2E/DX2                !
 ! D54   D(13,16,17,18)        167.3403         estimate D2E/DX2                !
 ! D55   D(19,16,17,10)        173.1223         estimate D2E/DX2                !
 ! D56   D(19,16,17,18)        -10.0867         estimate D2E/DX2                !
 ! D57   D(5,22,23,24)          -1.142          estimate D2E/DX2                !
 ! D58   D(5,22,23,25)         178.4802         estimate D2E/DX2                !
 ! D59   D(31,22,23,24)       -174.1002         estimate D2E/DX2                !
 ! D60   D(31,22,23,25)          5.522          estimate D2E/DX2                !
 ! D61   D(5,22,31,29)        -178.1898         estimate D2E/DX2                !
 ! D62   D(5,22,31,32)          -2.7913         estimate D2E/DX2                !
 ! D63   D(23,22,31,29)         -5.7998         estimate D2E/DX2                !
 ! D64   D(23,22,31,32)        169.5987         estimate D2E/DX2                !
 ! D65   D(22,23,25,26)        174.0958         estimate D2E/DX2                !
 ! D66   D(22,23,25,27)         -7.6682         estimate D2E/DX2                !
 ! D67   D(24,23,25,26)         -6.2362         estimate D2E/DX2                !
 ! D68   D(24,23,25,27)        171.9997         estimate D2E/DX2                !
 ! D69   D(23,25,27,28)       -171.0228         estimate D2E/DX2                !
 ! D70   D(23,25,27,29)         10.0775         estimate D2E/DX2                !
 ! D71   D(26,25,27,28)          7.1094         estimate D2E/DX2                !
 ! D72   D(26,25,27,29)       -171.7904         estimate D2E/DX2                !
 ! D73   D(25,27,29,30)       -177.0206         estimate D2E/DX2                !
 ! D74   D(25,27,29,31)        -10.5446         estimate D2E/DX2                !
 ! D75   D(28,27,29,30)          4.0742         estimate D2E/DX2                !
 ! D76   D(28,27,29,31)        170.5502         estimate D2E/DX2                !
 ! D77   D(27,29,31,22)          8.589          estimate D2E/DX2                !
 ! D78   D(27,29,31,32)       -166.8806         estimate D2E/DX2                !
 ! D79   D(30,29,31,22)        174.6117         estimate D2E/DX2                !
 ! D80   D(30,29,31,32)         -0.858          estimate D2E/DX2                !
 --------------------------------------------------------------------------------
 Trust Radius=3.00D-01 FncErr=1.00D-07 GrdErr=1.00D-06 EigMax=2.50D+02 EigMin=1.00D-04
 Number of steps in this run=    178 maximum allowed number of steps=    192.
 GradGradGradGradGradGradGradGradGradGradGradGradGradGradGradGradGradGrad

 Leave Link  103 at Sun Jul 11 15:57:28 2021, MaxMem=   104857600 cpu:               0.1 elap:               0.0
 (Enter /prod/apps/gaussian/g16b1/l202.exe)
                          Input orientation:                          
 ---------------------------------------------------------------------
 Center     Atomic      Atomic             Coordinates (Angstroms)
 Number     Number       Type             X           Y           Z
 ---------------------------------------------------------------------
      1          6           0       -0.646000    1.596000    2.000000
      2          1           0       -1.592000    2.111000    1.819000
      3          1           0        0.237000    2.226000    1.873000
      4          1           0       -0.466000    1.305000    3.038000
      5          6           0       -0.719000    0.382000    0.941000
      6          6           0       -1.878000   -0.505000    1.418000
      7          1           0       -1.774000   -0.784000    2.469000
      8          1           0       -1.905000   -1.432000    0.842000
      9          1           0       -2.888000   -0.107000    1.296000
     10          6           0        0.514000   -0.530000    0.969000
     11          6           0        1.488000   -0.501000    1.957000
     12          6           0        2.403000   -1.604000    2.074000
     13          6           0        2.447000   -2.630000    1.139000
     14          8           0        3.405000   -3.504000    1.309000
     15          1           0        3.715000   -3.731000    0.413000
     16          6           0        1.484000   -2.627000    0.163000
     17          6           0        0.582000   -1.544000    0.010000
     18          1           0       -0.035000   -1.456000   -0.880000
     19          1           0        1.422000   -3.448000   -0.547000
     20          1           0        3.063000   -1.669000    2.935000
     21          1           0        1.482000    0.335000    2.651000
     22          6           0       -0.905000    0.934000   -0.501000
     23          6           0        0.187000    1.726000   -1.068000
     24          1           0        1.121000    1.989000   -0.578000
     25          6           0        0.070000    2.207000   -2.361000
     26          1           0        0.853000    2.872000   -2.715000
     27          6           0       -1.008000    1.802000   -3.168000
     28          8           0       -1.038000    2.116000   -4.476000
     29          6           0       -2.027000    1.113000   -2.616000
     30          1           0       -2.809000    0.782000   -3.295000
     31          6           0       -1.968000    0.606000   -1.352000
     32          1           0       -2.719000   -0.115000   -1.041000
 ---------------------------------------------------------------------
                    Distance matrix (angstroms):
                    1          2          3          4          5
     1  C    0.000000
     2  H    1.092201   0.000000
     3  H    1.092116   1.833407   0.000000
     4  H    1.092943   1.844850   1.643069   0.000000
     5  C    1.612639   2.126606   2.276597   2.305070   0.000000
     6  C    2.504146   2.661964   3.484051   2.809670   1.535441
     7  H    2.675209   2.972650   3.668711   2.529535   2.192570
     8  H    3.477762   3.688543   4.362578   3.792665   2.169561
     9  H    2.902135   2.621578   3.942264   3.300665   2.251601
    10  C    2.632192   3.483191   2.913671   2.934005   1.533890
    11  C    2.992192   4.040791   3.001431   2.871988   2.585110
    12  C    4.420620   5.461344   4.404640   4.197944   3.869725
    13  C    5.307264   6.265222   5.385498   5.251285   4.374346
    14  O    6.549663   7.533813   6.571698   6.410972   5.678362
    15  H    7.064971   8.016860   7.050811   7.052140   6.070907
    16  C    5.073973   5.886659   5.294404   5.246785   3.809537
    17  C    3.915059   4.621448   4.219324   4.287644   2.503765
    18  H    4.240569   4.736279   4.605444   4.812443   2.676218
    19  H    6.017123   6.751639   6.281314   6.245621   4.633241
    20  H    5.029029   6.099416   4.927996   4.616181   4.741958
    21  H    2.557793   3.646351   2.393990   2.210288   2.787599
    22  C    2.600063   2.690669   2.934162   3.585371   1.555205
    23  C    3.181731   3.412892   2.983619   4.178862   2.581328
    24  H    3.150051   3.622273   2.616300   4.007728   2.876701
    25  C    4.461423   4.499318   4.237335   5.500009   3.854394
    26  H    5.109442   5.207140   4.674026   6.106739   4.694424
    27  C    5.184757   5.030577   5.209749   6.249417   4.357041
    28  O    6.508659   6.319333   6.476691   7.579255   5.696701
    29  C    4.842304   4.566668   5.149329   5.868671   3.859725
    30  H    5.777386   5.422207   6.170209   6.772744   4.740443
    31  C    3.736802   3.530105   4.229308   4.692196   2.620692
    32  H    4.058637   3.795366   4.765460   4.871411   2.859254
                    6          7          8          9         10
     6  C    0.000000
     7  H    1.092363   0.000000
     8  H    1.091712   1.756187   0.000000
     9  H    1.092423   1.753640   1.711149   0.000000
    10  C    2.433904   2.747628   2.584820   3.443757   0.000000
    11  C    3.408884   3.314042   3.690858   4.443144   1.387682
    12  C    4.468232   4.275015   4.484002   5.553465   2.437790
    13  C    4.826913   4.795149   4.523640   5.903592   2.859264
    14  O    6.075851   5.963727   5.719036   7.151337   4.161509
    15  H    6.534428   6.560569   6.087187   7.583711   4.560914
    16  C    4.169047   4.396459   3.657101   5.171893   2.447028
    17  C    3.018871   3.489272   2.624869   3.969844   1.397319
    18  H    3.095457   3.832950   2.542196   3.833326   2.139551
    19  H    4.838644   5.138829   4.130679   5.756304   3.411370
    20  H    5.298081   4.939327   5.396095   6.367147   3.414656
    21  H    3.676342   3.447727   4.226883   4.596552   2.124705
    22  C    2.588438   3.539433   2.898552   2.871442   2.513515
    23  C    3.927058   4.759831   4.242349   4.289990   3.057096
    24  H    4.381558   5.035351   4.782919   4.896649   3.017784
    25  C    5.042865   5.972882   5.234707   5.241947   4.333267
    26  H    5.995346   6.865954   6.227618   6.241606   5.025971
    27  C    5.206779   6.248994   5.229098   5.206340   4.986931
    28  O    6.504958   7.562058   6.451443   6.456021   6.249644
    29  C    4.348940   5.433217   4.295308   4.187298   4.691306
    30  H    4.973480   6.061953   4.778471   4.676948   5.562856
    31  C    2.985853   4.070599   2.995171   2.892520   3.582996
    32  H    2.627939   3.696037   2.437781   2.343116   3.829440
                   11         12         13         14         15
    11  C    0.000000
    12  C    1.437888   0.000000
    13  C    2.474156   1.388826   0.000000
    14  O    3.621160   2.280182   1.307876   0.000000
    15  H    4.216203   3.000732   1.829508   0.974908   0.000000
    16  C    2.781785   2.354360   1.371114   2.402641   2.501735
    17  C    2.387361   2.753132   2.435624   3.674007   3.842013
    18  H    3.358589   3.832997   3.408073   4.562853   4.572743
    19  H    3.867710   3.351468   2.135965   2.716645   2.501907
    20  H    2.191194   1.086805   2.128049   2.475493   3.322263
    21  H    1.086539   2.222812   3.465342   4.498535   5.150465
    22  C    3.718526   4.900503   5.160194   6.445777   6.628878
    23  C    3.975268   5.086425   5.380816   6.584721   6.664758
    24  H    3.572256   4.646103   5.103090   6.241031   6.358405
    25  C    5.290474   6.295700   6.426251   7.563508   7.499396
    26  H    5.797235   6.735844   6.904068   7.959815   7.846976
    27  C    6.148126   7.121399   7.080247   8.226283   8.108291
    28  O    7.390051   8.281388   8.136213   9.208196   8.982246
    29  C    5.989370   7.000221   6.937345   8.138116   8.099984
    30  H    6.906070   7.853923   7.676434   8.841969   8.756655
    31  C    4.911096   5.977225   6.014067   7.269261   7.363510
    32  H    5.180333   6.176992   6.145338   7.383170   7.522362
                   16         17         18         19         20
    16  C    0.000000
    17  C    1.417710   0.000000
    18  H    2.183220   1.086523   0.000000
    19  H    1.087191   2.154313   2.490342   0.000000
    20  H    3.330914   3.837527   4.919065   4.240524   0.000000
    21  H    3.868280   3.363855   4.239921   4.953977   2.568313
    22  C    4.339232   2.934753   2.571506   4.961751   5.858902
    23  C    4.705973   3.465690   3.195270   5.344805   5.985099
    24  H    4.689169   3.621927   3.646308   5.445414   5.430792
    25  C    5.633607   4.466966   3.952462   6.090774   7.213116
    26  H    6.238593   5.196164   4.784073   6.705698   7.578079
    27  C    6.076320   4.880932   4.098321   6.351145   8.115879
    28  O    7.097665   6.012004   5.166857   7.242012   9.277249
    29  C    5.834172   4.556578   3.685312   6.081043   8.028775
    30  H    6.481427   5.275621   4.305339   6.583750   8.905093
    31  C    4.966268   3.602783   2.865505   5.345563   6.990347
    32  H    5.042318   3.747432   3.004673   5.338615   7.187142
                   21         22         23         24         25
    21  H    0.000000
    22  C    3.998959   0.000000
    23  C    4.176466   1.463290   0.000000
    24  H    3.645885   2.285526   1.087026   0.000000
    25  C    5.533378   2.455759   1.384521   2.081157   0.000000
    26  H    5.968749   3.427565   2.114115   2.327720   1.086568
    27  C    6.497149   2.806585   2.417395   3.357932   1.406186
    28  O    7.766369   4.149149   3.642415   4.457781   2.389387
    29  C    6.376492   2.400864   2.770175   3.851068   2.378922
    30  H    7.346251   3.384488   3.850543   4.927863   3.345388
    31  C    5.291498   1.400626   2.445216   3.471842   2.781138
    32  H    5.610861   2.163931   3.440181   4.403043   3.861684
                   26         27         28         29         30
    26  H    0.000000
    27  C    2.193953   0.000000
    28  O    2.692311   1.345496   0.000000
    29  C    3.376134   1.348253   2.333180   0.000000
    30  H    4.256142   2.073675   2.512122   1.087256   0.000000
    31  C    3.866596   2.376946   3.592266   1.363168   2.124501
    32  H    4.948093   3.335647   4.427454   2.113640   2.427597
                   31         32
    31  C    0.000000
    32  H    1.086537   0.000000
 Stoichiometry    C15H15O2(1-)
 Framework group  C1[X(C15H15O2)]
 Deg. of freedom    90
 Full point group                 C1      NOp   1
 Largest Abelian subgroup         C1      NOp   1
 Largest concise Abelian subgroup C1      NOp   1
                         Standard orientation:                         
 ---------------------------------------------------------------------
 Center     Atomic      Atomic             Coordinates (Angstroms)
 Number     Number       Type             X           Y           Z
 ---------------------------------------------------------------------
      1          6           0       -0.063058    2.680793   -0.949726
      2          1           0       -0.964509    3.219147   -0.648954
      3          1           0       -0.068874    2.345481   -1.989077
      4          1           0        0.845413    3.286343   -0.999869
      5          6           0       -0.030446    1.466073    0.110461
      6          6           0        0.205294    2.124961    1.477162
      7          1           0        1.075961    2.784601    1.468663
      8          1           0        0.388917    1.362468    2.236583
      9          1           0       -0.622251    2.700713    1.897956
     10          6           0        1.159630    0.517550   -0.081479
     11          6           0        2.249982    0.783335   -0.897660
     12          6           0        3.447498    0.001863   -0.746723
     13          6           0        3.504084   -1.110981    0.082260
     14          8           0        4.619425   -1.792211    0.032454
     15          1           0        4.357946   -2.728904    0.100855
     16          6           0        2.407634   -1.361812    0.866375
     17          6           0        1.206393   -0.622142    0.725625
     18          1           0        0.288509   -0.957019    1.200890
     19          1           0        2.427085   -2.171912    1.591182
     20          1           0        4.355559    0.300010   -1.264100
     21          1           0        2.177044    1.621962   -1.584648
     22          6           0       -1.348212    0.644047    0.030260
     23          6           0       -1.617010   -0.083365   -1.210641
     24          1           0       -0.995339   -0.098673   -2.102221
     25          6           0       -2.764929   -0.851467   -1.306566
     26          1           0       -2.983161   -1.297714   -2.272934
     27          6           0       -3.571352   -1.056903   -0.173060
     28          8           0       -4.584453   -1.941696   -0.206612
     29          6           0       -3.336258   -0.342529    0.945952
     30          1           0       -3.956977   -0.577276    1.807188
     31          6           0       -2.220280    0.424179    1.103996
     32          1           0       -1.978918    0.800426    2.094323
 ---------------------------------------------------------------------
 Rotational constants (GHZ):           0.8448361           0.2688208           0.2375280
 Leave Link  202 at Sun Jul 11 15:57:28 2021, MaxMem=   104857600 cpu:               0.0 elap:               0.0
 (Enter /prod/apps/gaussian/g16b1/l301.exe)
 Standard basis: 6-31G(d) (6D, 7F)
 Ernie: Thresh=  0.10000D-02 Tol=  0.10000D-05 Strict=F.
 There are   285 symmetry adapted cartesian basis functions of A   symmetry.
 There are   285 symmetry adapted basis functions of A   symmetry.
   285 basis functions,   536 primitive gaussians,   285 cartesian basis functions
    61 alpha electrons       61 beta electrons
       nuclear repulsion energy      1133.5777183612 Hartrees.
 IExCor=  402 DFT=T Ex+Corr=B3LYP ExCW=0 ScaHFX=  0.200000
 ScaDFX=  0.800000  0.720000  1.000000  0.810000 ScalE2=  1.000000  1.000000
 IRadAn=      5 IRanWt=     -1 IRanGd=            0 ICorTp=0 IEmpDi=  4
 NAtoms=   32 NActive=   32 NUniq=   32 SFac= 1.00D+00 NAtFMM=   60 NAOKFM=F Big=F
 Integral buffers will be    131072 words long.
 Raffenetti 2 integral format.
 Two-electron integral symmetry is turned on.
 Using the following non-standard input for PCM:
 MSTModel=DFT cav MSTCharged
 --- end of non-standard input.
 MST model for solvation energy: B3LYP parametrization.
 MST cavity parameters:
 ISph   IAn     Re0     Alpha   Atom Type   QCorr
 ------------------------------------------------
   1      6     1.50     1.25      CH3        F
   2      1     1.20     1.25      CH3        F
   3      1     1.20     1.25      CH3        F
   4      1     1.20     1.25      CH3        F
   5      6     1.50     1.25      C          F
   6      6     1.50     1.25      CH3        F
   7      1     1.20     1.25      CH3        F
   8      1     1.20     1.25      CH3        F
   9      1     1.20     1.25      CH3        F
  10      6     1.50     1.25      C          F
  11      6     1.50     1.25      CH         F
  12      6     1.50     1.25      CH         F
  13      6     1.50     1.25      C          F
  14      8     1.45     1.25      OH         F
  15      1     0.90     1.25      OH         F
  16      6     1.50     1.25      CH         F
  17      6     1.50     1.25      CH         F
  18      1     1.20     1.25      CH         F
  19      1     1.20     1.25      CH         F
  20      1     1.20     1.25      CH         F
  21      1     1.20     1.25      CH         F
  22      6     1.50     1.25      C          F
  23      6     1.50     1.25      CH         F
  24      1     1.20     1.25      CH         F
  25      6     1.50     1.25      CH         F
  26      1     1.20     1.25      CH         F
  27      6     1.50     1.25      C          F
  28      8     1.40     1.15      O          T
  29      6     1.50     1.25      CH         F
  30      1     1.20     1.25      CH         F
  31      6     1.50     1.25      CH         F
  32      1     1.20     1.25      CH         F
 ------------------------------------------------------------------------------
 Polarizable Continuum Model (PCM)
 =================================
 Model                : PCM.
 Atomic radii         : MST.
 Polarization charges : Total charges.
 Charge compensation  : None.
 Solution method      : On-the-fly selection.
 Cavity type          : Scaled VdW (van der Waals Surface) (Alpha=1.250).
 Cavity algorithm     : GePol (No added spheres)
                        Default sphere list used, NSphG=   32.
                        Lebedev-Laikov grids with approx.  5.0 points / Ang**2.
                        Smoothing algorithm: York/Karplus (Gamma=1.0000).
                        Polarization charges: spherical gaussians, with
                                              point-specific exponents (IZeta= 3).
                        Self-potential: point-specific (ISelfS= 7).
                        Self-field    : sphere-specific E.n sum rule (ISelfD= 2).
 1st derivatives      : Analytical E(r).r(x)/FMM algorithm (CHGder, D1EAlg=3).
                        Cavity 1st derivative terms included.
 Solvent              : Water, Eps=  78.355300 Eps(inf)=   1.777849
 ------------------------------------------------------------------------------
 GePol: Number of generator spheres                  =      32
 GePol: Total number of spheres                      =      32
 GePol: Number of exposed spheres                    =      32 (100.00%)
 GePol: Number of points                             =    2301
 GePol: Average weight of points                     =       0.13
 GePol: Minimum weight of points                     =   0.56D-11
 GePol: Maximum weight of points                     =    0.21416
 GePol: Number of points with low weight             =     161
 GePol: Fraction of low-weight points (<1% of avg)   =       7.00%
 GePol: Cavity surface area                          =    292.187 Ang**2
 GePol: Cavity volume                                =    283.319 Ang**3
 PCM non-electrostatic energy =         0.0020496673 Hartrees.
 Nuclear repulsion after PCM non-electrostatic terms =     1133.5797680285 Hartrees.
 Leave Link  301 at Sun Jul 11 15:57:28 2021, MaxMem=   104857600 cpu:               0.3 elap:               0.1
 (Enter /prod/apps/gaussian/g16b1/l302.exe)
 NPDir=0 NMtPBC=     1 NCelOv=     1 NCel=       1 NClECP=     1 NCelD=      1
         NCelK=      1 NCelE2=     1 NClLst=     1 CellRange=     0.0.
 One-electron integrals computed using PRISM.
 One-electron integral symmetry used in STVInt
 NBasis=   285 RedAO= T EigKep=  5.03D-04  NBF=   285
 NBsUse=   285 1.00D-06 EigRej= -1.00D+00 NBFU=   285
 Precomputing XC quadrature grid using
 IXCGrd= 4 IRadAn=           5 IRanWt=          -1 IRanGd=           0 AccXCQ= 0.00D+00.
 Generated NRdTot=       0 NPtTot=           0 NUsed=           0 NTot=          32
 NSgBfM=   283   283   283   283   283 MxSgAt=    32 MxSgA2=    32.
 Leave Link  302 at Sun Jul 11 15:57:29 2021, MaxMem=   104857600 cpu:               1.4 elap:               0.4
 (Enter /prod/apps/gaussian/g16b1/l303.exe)
 DipDrv:  MaxL=1.
 Leave Link  303 at Sun Jul 11 15:57:29 2021, MaxMem=   104857600 cpu:               0.1 elap:               0.1
 (Enter /prod/apps/gaussian/g16b1/l401.exe)
 ExpMin= 1.61D-01 ExpMax= 5.48D+03 ExpMxC= 8.25D+02 IAcc=3 IRadAn=         5 AccDes= 0.00D+00
 Harris functional with IExCor=  402 and IRadAn=       5 diagonalized for initial guess.
 HarFok:  IExCor=  402 AccDes= 0.00D+00 IRadAn=         5 IDoV= 1 UseB2=F ITyADJ=14
 ICtDFT=  3500011 ScaDFX=  1.000000  1.000000  1.000000  1.000000
 FoFCou: FMM=F IPFlag=           0 FMFlag=      100000 FMFlg1=           0
         NFxFlg=           0 DoJE=T BraDBF=F KetDBF=T FulRan=T
         wScrn=  0.000000 ICntrl=       500 IOpCl=  0 I1Cent=   200000004 NGrid=           0
         NMat0=    1 NMatS0=      1 NMatT0=    0 NMatD0=    1 NMtDS0=    0 NMtDT0=    0
 Petite list used in FoFCou.
 Harris En= -731.303828272227    
 JPrj=0 DoOrth=F DoCkMO=F.
 Leave Link  401 at Sun Jul 11 15:57:31 2021, MaxMem=   104857600 cpu:               7.7 elap:               1.9
 (Enter /prod/apps/gaussian/g16b1/l502.exe)
 Integral symmetry usage will be decided dynamically.
 Closed shell SCF:
 Using DIIS extrapolation, IDIIS=  1040.
 NGot=   104857600 LenX=   104690189 LenY=   104608523
 Requested convergence on RMS density matrix=1.00D-08 within 128 cycles.
 Requested convergence on MAX density matrix=1.00D-06.
 Requested convergence on             energy=1.00D-06.
 No special actions if energy rises.
 Fock matrices will be formed incrementally for  20 cycles.

 Cycle   1  Pass 1  IDiag  1:
 FoFJK:  IHMeth= 1 ICntrl=       0 DoSepK=F KAlg= 0 I1Cent=           0 FoldK=F
 IRaf= 840000000 NMat=       1 IRICut=       1 DoRegI=T DoRafI=F ISym2E= 0 IDoP0=0 IntGTp=1.
 FoFCou: FMM=F IPFlag=           0 FMFlag=      100000 FMFlg1=           0
         NFxFlg=           0 DoJE=F BraDBF=F KetDBF=F FulRan=T
         wScrn=  0.000000 ICntrl=         0 IOpCl=  0 I1Cent=           0 NGrid=           0
         NMat0=    1 NMatS0=      1 NMatT0=    0 NMatD0=    1 NMtDS0=    0 NMtDT0=    0
 Symmetry not used in FoFCou.
 Inv3:  Mode=1 IEnd=    15883803.
 Iteration    1 A*A^-1 deviation from unit magnitude is 3.55D-15 for    369.
 Iteration    1 A*A^-1 deviation from orthogonality  is 3.14D-15 for   1723    961.
 Iteration    1 A^-1*A deviation from unit magnitude is 3.55D-15 for    369.
 Iteration    1 A^-1*A deviation from orthogonality  is 1.56D-15 for   1125    308.
 E= -730.651274713244    
 DIIS: error= 3.74D-02 at cycle   1 NSaved=   1.
 NSaved= 1 IEnMin= 1 EnMin= -730.651274713244     IErMin= 1 ErrMin= 3.74D-02
 ErrMax= 3.74D-02  0.00D+00 EMaxC= 1.00D-01 BMatC= 4.92D-01 BMatP= 4.92D-01
 IDIUse=3 WtCom= 6.26D-01 WtEn= 3.74D-01
 Coeff-Com:  0.100D+01
 Coeff-En:   0.100D+01
 Coeff:      0.100D+01
 Gap=     0.124 Goal=   None    Shift=    0.000
 GapD=    0.124 DampG=1.000 DampE=0.500 DampFc=0.5000 IDamp=-1.
 Damping current iteration by 5.00D-01
 RMSDP=6.01D-03 MaxDP=1.87D-01              OVMax= 2.53D-01

 Cycle   2  Pass 1  IDiag  1:
 RMSU=  2.97D-03    CP:  9.79D-01
 E= -730.884331517863     Delta-E=       -0.233056804620 Rises=F Damp=T
 DIIS: error= 1.25D-02 at cycle   2 NSaved=   2.
 NSaved= 2 IEnMin= 2 EnMin= -730.884331517863     IErMin= 2 ErrMin= 1.25D-02
 ErrMax= 1.25D-02  0.00D+00 EMaxC= 1.00D-01 BMatC= 2.58D-02 BMatP= 4.92D-01
 IDIUse=3 WtCom= 8.75D-01 WtEn= 1.25D-01
 Coeff-Com:  0.400D-01 0.960D+00
 Coeff-En:   0.255D-01 0.975D+00
 Coeff:      0.382D-01 0.962D+00
 Gap=     0.210 Goal=   None    Shift=    0.000
 RMSDP=1.45D-03 MaxDP=5.59D-02 DE=-2.33D-01 OVMax= 1.69D-01

 Cycle   3  Pass 1  IDiag  1:
 RMSU=  1.35D-03    CP:  9.69D-01  8.35D-01
 E= -731.124235654550     Delta-E=       -0.239904136687 Rises=F Damp=F
 DIIS: error= 9.20D-03 at cycle   3 NSaved=   3.
 NSaved= 3 IEnMin= 3 EnMin= -731.124235654550     IErMin= 3 ErrMin= 9.20D-03
 ErrMax= 9.20D-03  0.00D+00 EMaxC= 1.00D-01 BMatC= 2.63D-02 BMatP= 2.58D-02
 IDIUse=3 WtCom= 9.08D-01 WtEn= 9.20D-02
 Coeff-Com: -0.214D-01 0.509D+00 0.513D+00
 Coeff-En:   0.000D+00 0.000D+00 0.100D+01
 Coeff:     -0.194D-01 0.462D+00 0.557D+00
 Gap=     0.150 Goal=   None    Shift=    0.000
 RMSDP=9.47D-04 MaxDP=4.46D-02 DE=-2.40D-01 OVMax= 9.13D-02

 Cycle   4  Pass 1  IDiag  1:
 RMSU=  6.65D-04    CP:  9.72D-01  9.27D-01  5.45D-01
 E= -731.140427444256     Delta-E=       -0.016191789706 Rises=F Damp=F
 DIIS: error= 4.62D-03 at cycle   4 NSaved=   4.
 NSaved= 4 IEnMin= 4 EnMin= -731.140427444256     IErMin= 4 ErrMin= 4.62D-03
 ErrMax= 4.62D-03  0.00D+00 EMaxC= 1.00D-01 BMatC= 6.59D-03 BMatP= 2.58D-02
 IDIUse=3 WtCom= 9.54D-01 WtEn= 4.62D-02
 Coeff-Com: -0.109D-01 0.773D-01 0.344D+00 0.590D+00
 Coeff-En:   0.000D+00 0.000D+00 0.236D+00 0.764D+00
 Coeff:     -0.104D-01 0.738D-01 0.339D+00 0.598D+00
 Gap=     0.149 Goal=   None    Shift=    0.000
 RMSDP=3.75D-04 MaxDP=1.59D-02 DE=-1.62D-02 OVMax= 3.47D-02

 Cycle   5  Pass 1  IDiag  1:
 RMSU=  1.20D-04    CP:  9.71D-01  8.93D-01  7.03D-01  6.01D-01
 E= -731.145783595209     Delta-E=       -0.005356150953 Rises=F Damp=F
 DIIS: error= 4.88D-04 at cycle   5 NSaved=   5.
 NSaved= 5 IEnMin= 5 EnMin= -731.145783595209     IErMin= 5 ErrMin= 4.88D-04
 ErrMax= 4.88D-04  0.00D+00 EMaxC= 1.00D-01 BMatC= 1.99D-04 BMatP= 6.59D-03
 IDIUse=3 WtCom= 9.95D-01 WtEn= 4.88D-03
 Coeff-Com: -0.404D-02 0.143D-01 0.138D+00 0.294D+00 0.559D+00
 Coeff-En:   0.000D+00 0.000D+00 0.000D+00 0.000D+00 0.100D+01
 Coeff:     -0.402D-02 0.142D-01 0.137D+00 0.292D+00 0.561D+00
 Gap=     0.149 Goal=   None    Shift=    0.000
 RMSDP=6.15D-05 MaxDP=1.99D-03 DE=-5.36D-03 OVMax= 5.07D-03

 Cycle   6  Pass 1  IDiag  1:
 RMSU=  3.89D-05    CP:  9.71D-01  8.98D-01  6.97D-01  6.34D-01  6.74D-01
 E= -731.145947798169     Delta-E=       -0.000164202961 Rises=F Damp=F
 DIIS: error= 1.60D-04 at cycle   6 NSaved=   6.
 NSaved= 6 IEnMin= 6 EnMin= -731.145947798169     IErMin= 6 ErrMin= 1.60D-04
 ErrMax= 1.60D-04  0.00D+00 EMaxC= 1.00D-01 BMatC= 1.79D-05 BMatP= 1.99D-04
 IDIUse=3 WtCom= 9.98D-01 WtEn= 1.60D-03
 Coeff-Com: -0.118D-02 0.882D-03 0.380D-01 0.961D-01 0.289D+00 0.577D+00
 Coeff-En:   0.000D+00 0.000D+00 0.000D+00 0.000D+00 0.000D+00 0.100D+01
 Coeff:     -0.118D-02 0.881D-03 0.379D-01 0.959D-01 0.289D+00 0.578D+00
 Gap=     0.149 Goal=   None    Shift=    0.000
 RMSDP=1.89D-05 MaxDP=5.37D-04 DE=-1.64D-04 OVMax= 1.41D-03

 Cycle   7  Pass 1  IDiag  1:
 RMSU=  1.13D-05    CP:  9.71D-01  8.98D-01  6.97D-01  6.36D-01  7.15D-01
                    CP:  6.33D-01
 E= -731.145963345475     Delta-E=       -0.000015547306 Rises=F Damp=F
 DIIS: error= 5.59D-05 at cycle   7 NSaved=   7.
 NSaved= 7 IEnMin= 7 EnMin= -731.145963345475     IErMin= 7 ErrMin= 5.59D-05
 ErrMax= 5.59D-05  0.00D+00 EMaxC= 1.00D-01 BMatC= 1.74D-06 BMatP= 1.79D-05
 IDIUse=1 WtCom= 1.00D+00 WtEn= 0.00D+00
 Coeff-Com: -0.453D-03-0.115D-03 0.126D-01 0.356D-01 0.127D+00 0.325D+00
 Coeff-Com:  0.500D+00
 Coeff:     -0.453D-03-0.115D-03 0.126D-01 0.356D-01 0.127D+00 0.325D+00
 Coeff:      0.500D+00
 Gap=     0.149 Goal=   None    Shift=    0.000
 RMSDP=6.69D-06 MaxDP=1.78D-04 DE=-1.55D-05 OVMax= 5.70D-04

 Cycle   8  Pass 1  IDiag  1:
 RMSU=  3.15D-06    CP:  9.71D-01  8.98D-01  6.98D-01  6.39D-01  7.08D-01
                    CP:  6.68D-01  5.47D-01
 E= -731.145965110204     Delta-E=       -0.000001764729 Rises=F Damp=F
 DIIS: error= 1.38D-05 at cycle   8 NSaved=   8.
 NSaved= 8 IEnMin= 8 EnMin= -731.145965110204     IErMin= 8 ErrMin= 1.38D-05
 ErrMax= 1.38D-05  0.00D+00 EMaxC= 1.00D-01 BMatC= 1.12D-07 BMatP= 1.74D-06
 IDIUse=1 WtCom= 1.00D+00 WtEn= 0.00D+00
 Coeff-Com: -0.530D-04-0.220D-03 0.556D-03 0.345D-02 0.203D-01 0.710D-01
 Coeff-Com:  0.235D+00 0.670D+00
 Coeff:     -0.530D-04-0.220D-03 0.556D-03 0.345D-02 0.203D-01 0.710D-01
 Coeff:      0.235D+00 0.670D+00
 Gap=     0.149 Goal=   None    Shift=    0.000
 RMSDP=1.67D-06 MaxDP=3.95D-05 DE=-1.76D-06 OVMax= 1.24D-04

 Cycle   9  Pass 1  IDiag  1:
 RMSU=  1.03D-06    CP:  9.71D-01  8.98D-01  6.97D-01  6.39D-01  7.13D-01
                    CP:  6.73D-01  6.23D-01  7.61D-01
 E= -731.145965211074     Delta-E=       -0.000000100869 Rises=F Damp=F
 DIIS: error= 5.51D-06 at cycle   9 NSaved=   9.
 NSaved= 9 IEnMin= 9 EnMin= -731.145965211074     IErMin= 9 ErrMin= 5.51D-06
 ErrMax= 5.51D-06  0.00D+00 EMaxC= 1.00D-01 BMatC= 1.83D-08 BMatP= 1.12D-07
 IDIUse=1 WtCom= 1.00D+00 WtEn= 0.00D+00
 Coeff-Com: -0.306D-05-0.102D-03-0.560D-03-0.523D-03 0.278D-02 0.176D-01
 Coeff-Com:  0.999D-01 0.380D+00 0.500D+00
 Coeff:     -0.306D-05-0.102D-03-0.560D-03-0.523D-03 0.278D-02 0.176D-01
 Coeff:      0.999D-01 0.380D+00 0.500D+00
 Gap=     0.149 Goal=   None    Shift=    0.000
 RMSDP=5.86D-07 MaxDP=1.77D-05 DE=-1.01D-07 OVMax= 5.11D-05

 Cycle  10  Pass 1  IDiag  1:
 RMSU=  3.44D-07    CP:  9.71D-01  8.98D-01  6.97D-01  6.39D-01  7.12D-01
                    CP:  6.74D-01  6.15D-01  8.08D-01  5.81D-01
 E= -731.145965228385     Delta-E=       -0.000000017312 Rises=F Damp=F
 DIIS: error= 1.67D-06 at cycle  10 NSaved=  10.
 NSaved=10 IEnMin=10 EnMin= -731.145965228385     IErMin=10 ErrMin= 1.67D-06
 ErrMax= 1.67D-06  0.00D+00 EMaxC= 1.00D-01 BMatC= 1.03D-09 BMatP= 1.83D-08
 IDIUse=1 WtCom= 1.00D+00 WtEn= 0.00D+00
 Coeff-Com:  0.405D-05-0.144D-04-0.337D-03-0.710D-03-0.132D-02-0.132D-02
 Coeff-Com:  0.162D-01 0.867D-01 0.233D+00 0.668D+00
 Coeff:      0.405D-05-0.144D-04-0.337D-03-0.710D-03-0.132D-02-0.132D-02
 Coeff:      0.162D-01 0.867D-01 0.233D+00 0.668D+00
 Gap=     0.149 Goal=   None    Shift=    0.000
 RMSDP=1.68D-07 MaxDP=3.91D-06 DE=-1.73D-08 OVMax= 1.33D-05

 Cycle  11  Pass 1  IDiag  1:
 RMSU=  7.69D-08    CP:  9.71D-01  8.98D-01  6.97D-01  6.39D-01  7.13D-01
                    CP:  6.74D-01  6.21D-01  8.14D-01  6.60D-01  7.21D-01
 E= -731.145965229437     Delta-E=       -0.000000001052 Rises=F Damp=F
 DIIS: error= 2.95D-07 at cycle  11 NSaved=  11.
 NSaved=11 IEnMin=11 EnMin= -731.145965229437     IErMin=11 ErrMin= 2.95D-07
 ErrMax= 2.95D-07  0.00D+00 EMaxC= 1.00D-01 BMatC= 8.57D-11 BMatP= 1.03D-09
 IDIUse=1 WtCom= 1.00D+00 WtEn= 0.00D+00
 Coeff-Com:  0.186D-05-0.114D-05-0.145D-03-0.335D-03-0.788D-03-0.150D-02
 Coeff-Com:  0.357D-02 0.259D-01 0.944D-01 0.339D+00 0.539D+00
 Coeff:      0.186D-05-0.114D-05-0.145D-03-0.335D-03-0.788D-03-0.150D-02
 Coeff:      0.357D-02 0.259D-01 0.944D-01 0.339D+00 0.539D+00
 Gap=     0.149 Goal=   None    Shift=    0.000
 RMSDP=3.79D-08 MaxDP=1.15D-06 DE=-1.05D-09 OVMax= 3.20D-06

 Cycle  12  Pass 1  IDiag  1:
 RMSU=  2.76D-08    CP:  9.71D-01  8.98D-01  6.97D-01  6.39D-01  7.13D-01
                    CP:  6.73D-01  6.21D-01  8.14D-01  6.57D-01  7.56D-01
                    CP:  7.20D-01
 E= -731.145965229513     Delta-E=       -0.000000000075 Rises=F Damp=F
 DIIS: error= 9.77D-08 at cycle  12 NSaved=  12.
 NSaved=12 IEnMin=12 EnMin= -731.145965229513     IErMin=12 ErrMin= 9.77D-08
 ErrMax= 9.77D-08  0.00D+00 EMaxC= 1.00D-01 BMatC= 6.94D-12 BMatP= 8.57D-11
 IDIUse=1 WtCom= 1.00D+00 WtEn= 0.00D+00
 Coeff-Com: -0.825D-08 0.189D-05-0.101D-04-0.326D-04-0.143D-03-0.493D-03
 Coeff-Com: -0.127D-02-0.343D-02 0.198D-02 0.379D-01 0.233D+00 0.733D+00
 Coeff:     -0.825D-08 0.189D-05-0.101D-04-0.326D-04-0.143D-03-0.493D-03
 Coeff:     -0.127D-02-0.343D-02 0.198D-02 0.379D-01 0.233D+00 0.733D+00
 Gap=     0.149 Goal=   None    Shift=    0.000
 RMSDP=1.32D-08 MaxDP=3.47D-07 DE=-7.55D-11 OVMax= 9.84D-07

 Cycle  13  Pass 1  IDiag  1:
 RMSU=  8.71D-09    CP:  9.71D-01  8.98D-01  6.97D-01  6.39D-01  7.13D-01
                    CP:  6.74D-01  6.21D-01  8.15D-01  6.60D-01  7.63D-01
                    CP:  7.95D-01  7.86D-01
 E= -731.145965229524     Delta-E=       -0.000000000012 Rises=F Damp=F
 DIIS: error= 2.85D-08 at cycle  13 NSaved=  13.
 NSaved=13 IEnMin=13 EnMin= -731.145965229524     IErMin=13 ErrMin= 2.85D-08
 ErrMax= 2.85D-08  0.00D+00 EMaxC= 1.00D-01 BMatC= 9.98D-13 BMatP= 6.94D-12
 IDIUse=1 WtCom= 1.00D+00 WtEn= 0.00D+00
 Coeff-Com: -0.134D-06 0.106D-05 0.273D-05 0.272D-05-0.259D-04-0.157D-03
 Coeff-Com: -0.797D-03-0.301D-02-0.394D-02 0.116D-02 0.887D-01 0.390D+00
 Coeff-Com:  0.528D+00
 Coeff:     -0.134D-06 0.106D-05 0.273D-05 0.272D-05-0.259D-04-0.157D-03
 Coeff:     -0.797D-03-0.301D-02-0.394D-02 0.116D-02 0.887D-01 0.390D+00
 Coeff:      0.528D+00
 Gap=     0.149 Goal=   None    Shift=    0.000
 RMSDP=4.55D-09 MaxDP=1.56D-07 DE=-1.18D-11 OVMax= 3.72D-07

 Error on total polarization charges =  0.02241
 SCF Done:  E(RB3LYP) =  -731.145965230     A.U. after   13 cycles
            NFock= 13  Conv=0.45D-08     -V/T= 2.0090
 KE= 7.246415890873D+02 PE=-3.984485427391D+03 EE= 1.395118105046D+03
 Leave Link  502 at Sun Jul 11 15:58:29 2021, MaxMem=   104857600 cpu:             232.4 elap:              58.1
 (Enter /prod/apps/gaussian/g16b1/l601.exe)
 Copying SCF densities to generalized density rwf, IOpCl= 0 IROHF=0.

 **********************************************************************

            Population analysis using the SCF Density.

 **********************************************************************

 Orbital symmetries:
       Occupied  (A) (A) (A) (A) (A) (A) (A) (A) (A) (A) (A) (A)
                 (A) (A) (A) (A) (A) (A) (A) (A) (A) (A) (A) (A)
                 (A) (A) (A) (A) (A) (A) (A) (A) (A) (A) (A) (A)
                 (A) (A) (A) (A) (A) (A) (A) (A) (A) (A) (A) (A)
                 (A) (A) (A) (A) (A) (A) (A) (A) (A) (A) (A) (A)
                 (A)
       Virtual   (A) (A) (A) (A) (A) (A) (A) (A) (A) (A) (A) (A)
                 (A) (A) (A) (A) (A) (A) (A) (A) (A) (A) (A) (A)
                 (A) (A) (A) (A) (A) (A) (A) (A) (A) (A) (A) (A)
                 (A) (A) (A) (A) (A) (A) (A) (A) (A) (A) (A) (A)
                 (A) (A) (A) (A) (A) (A) (A) (A) (A) (A) (A) (A)
                 (A) (A) (A) (A) (A) (A) (A) (A) (A) (A) (A) (A)
                 (A) (A) (A) (A) (A) (A) (A) (A) (A) (A) (A) (A)
                 (A) (A) (A) (A) (A) (A) (A) (A) (A) (A) (A) (A)
                 (A) (A) (A) (A) (A) (A) (A) (A) (A) (A) (A) (A)
                 (A) (A) (A) (A) (A) (A) (A) (A) (A) (A) (A) (A)
                 (A) (A) (A) (A) (A) (A) (A) (A) (A) (A) (A) (A)
                 (A) (A) (A) (A) (A) (A) (A) (A) (A) (A) (A) (A)
                 (A) (A) (A) (A) (A) (A) (A) (A) (A) (A) (A) (A)
                 (A) (A) (A) (A) (A) (A) (A) (A) (A) (A) (A) (A)
                 (A) (A) (A) (A) (A) (A) (A) (A) (A) (A) (A) (A)
                 (A) (A) (A) (A) (A) (A) (A) (A) (A) (A) (A) (A)
                 (A) (A) (A) (A) (A) (A) (A) (A) (A) (A) (A) (A)
                 (A) (A) (A) (A) (A) (A) (A) (A) (A) (A) (A) (A)
                 (A) (A) (A) (A) (A) (A) (A) (A)
 The electronic state is 1-A.
 Alpha  occ. eigenvalues --  -19.16887 -19.03127 -10.23466 -10.19989 -10.18817
 Alpha  occ. eigenvalues --  -10.18403 -10.18045 -10.17941 -10.17861 -10.17809
 Alpha  occ. eigenvalues --  -10.16932 -10.16927 -10.16634 -10.16452 -10.16389
 Alpha  occ. eigenvalues --  -10.14849 -10.13664  -1.07302  -0.90501  -0.84950
 Alpha  occ. eigenvalues --   -0.81748  -0.78314  -0.73251  -0.72405  -0.71916
 Alpha  occ. eigenvalues --   -0.68068  -0.67576  -0.62141  -0.60156  -0.57516
 Alpha  occ. eigenvalues --   -0.57156  -0.54021  -0.53455  -0.47985  -0.47256
 Alpha  occ. eigenvalues --   -0.44752  -0.44265  -0.43455  -0.42809  -0.42159
 Alpha  occ. eigenvalues --   -0.40494  -0.40086  -0.39807  -0.39675  -0.38160
 Alpha  occ. eigenvalues --   -0.37390  -0.36526  -0.35570  -0.33930  -0.33590
 Alpha  occ. eigenvalues --   -0.33034  -0.31564  -0.31281  -0.30549  -0.29902
 Alpha  occ. eigenvalues --   -0.26480  -0.23781  -0.23151  -0.21279  -0.18492
 Alpha  occ. eigenvalues --   -0.15388
 Alpha virt. eigenvalues --   -0.00529   0.01704   0.02572   0.04584   0.09894
 Alpha virt. eigenvalues --    0.10518   0.11836   0.12927   0.13756   0.14968
 Alpha virt. eigenvalues --    0.15335   0.16239   0.16802   0.17346   0.18345
 Alpha virt. eigenvalues --    0.19225   0.19795   0.20090   0.21589   0.22244
 Alpha virt. eigenvalues --    0.22989   0.24320   0.24476   0.26527   0.27387
 Alpha virt. eigenvalues --    0.27711   0.29177   0.31251   0.32362   0.35238
 Alpha virt. eigenvalues --    0.36019   0.37223   0.38556   0.39288   0.40008
 Alpha virt. eigenvalues --    0.49395   0.50215   0.50994   0.51794   0.52240
 Alpha virt. eigenvalues --    0.52690   0.53999   0.54853   0.55008   0.57115
 Alpha virt. eigenvalues --    0.57285   0.58055   0.58349   0.60770   0.61174
 Alpha virt. eigenvalues --    0.61333   0.62135   0.62340   0.62619   0.63579
 Alpha virt. eigenvalues --    0.64472   0.65489   0.65824   0.66566   0.67539
 Alpha virt. eigenvalues --    0.68351   0.69211   0.71352   0.72627   0.74516
 Alpha virt. eigenvalues --    0.75536   0.77621   0.78729   0.79002   0.80238
 Alpha virt. eigenvalues --    0.81041   0.82237   0.83697   0.84301   0.85980
 Alpha virt. eigenvalues --    0.86149   0.86656   0.88018   0.88608   0.88791
 Alpha virt. eigenvalues --    0.90103   0.91240   0.91458   0.92225   0.93249
 Alpha virt. eigenvalues --    0.94262   0.96763   0.97566   0.97844   0.98564
 Alpha virt. eigenvalues --    0.99120   1.00090   1.01586   1.02252   1.03845
 Alpha virt. eigenvalues --    1.04586   1.05678   1.05762   1.06846   1.10794
 Alpha virt. eigenvalues --    1.11808   1.14272   1.15387   1.16720   1.18774
 Alpha virt. eigenvalues --    1.19522   1.20532   1.22401   1.22835   1.26410
 Alpha virt. eigenvalues --    1.27038   1.31121   1.32429   1.34165   1.36556
 Alpha virt. eigenvalues --    1.39084   1.40117   1.41291   1.45035   1.45193
 Alpha virt. eigenvalues --    1.47988   1.49698   1.51593   1.53261   1.54535
 Alpha virt. eigenvalues --    1.55482   1.57771   1.60427   1.61861   1.64875
 Alpha virt. eigenvalues --    1.68111   1.71312   1.73767   1.75683   1.78164
 Alpha virt. eigenvalues --    1.79791   1.80265   1.82489   1.84365   1.85562
 Alpha virt. eigenvalues --    1.87672   1.88287   1.89049   1.90247   1.92564
 Alpha virt. eigenvalues --    1.93179   1.94072   1.96722   1.97454   1.98265
 Alpha virt. eigenvalues --    2.00115   2.00516   2.01640   2.02067   2.06562
 Alpha virt. eigenvalues --    2.06921   2.09182   2.09800   2.11341   2.13116
 Alpha virt. eigenvalues --    2.15006   2.16680   2.16956   2.18537   2.20719
 Alpha virt. eigenvalues --    2.22021   2.23922   2.25801   2.27695   2.28009
 Alpha virt. eigenvalues --    2.29039   2.31385   2.32567   2.33828   2.34945
 Alpha virt. eigenvalues --    2.35751   2.37738   2.41079   2.43352   2.44671
 Alpha virt. eigenvalues --    2.51230   2.55119   2.57502   2.59549   2.60172
 Alpha virt. eigenvalues --    2.61791   2.62311   2.65648   2.66484   2.68730
 Alpha virt. eigenvalues --    2.70597   2.70938   2.73705   2.77237   2.80041
 Alpha virt. eigenvalues --    2.81792   2.84418   2.87419   2.91605   2.94899
 Alpha virt. eigenvalues --    2.98369   2.99460   3.00542   3.17502   3.21459
 Alpha virt. eigenvalues --    3.40215   3.43853   3.94566   3.97394   4.11230
 Alpha virt. eigenvalues --    4.12859   4.14844   4.17724   4.23395   4.29715
 Alpha virt. eigenvalues --    4.31268   4.32913   4.34710   4.39076   4.48811
 Alpha virt. eigenvalues --    4.52835   4.68928   4.75563   4.78691
          Condensed to atoms (all electrons):
               1          2          3          4          5          6
     1  C    5.227004   0.360171   0.361145   0.352500   0.336071  -0.068795
     2  H    0.360171   0.562164  -0.021586  -0.020896  -0.032878  -0.003660
     3  H    0.361145  -0.021586   0.582354  -0.051798  -0.021404   0.005463
     4  H    0.352500  -0.020896  -0.051798   0.588916  -0.017583  -0.005517
     5  C    0.336071  -0.032878  -0.021404  -0.017583   4.994704   0.351868
     6  C   -0.068795  -0.003660   0.005463  -0.005517   0.351868   5.219144
     7  H   -0.006691   0.000022   0.000017   0.003955  -0.026909   0.365318
     8  H    0.006362  -0.000173  -0.000197   0.000030  -0.026549   0.360216
     9  H   -0.003923   0.003423  -0.000046   0.000116  -0.022135   0.355288
    10  C   -0.034472   0.003932  -0.003812  -0.004394   0.360231  -0.060031
    11  C   -0.013760   0.000395   0.000935   0.002020  -0.045368   0.000349
    12  C    0.000063  -0.000001   0.000002   0.000030   0.005587  -0.000289
    13  C   -0.000011   0.000000  -0.000000  -0.000000   0.000423   0.000090
    14  O   -0.000000  -0.000000   0.000000  -0.000000   0.000001   0.000000
    15  H   -0.000000   0.000000   0.000000  -0.000000  -0.000001   0.000000
    16  C   -0.000152   0.000002   0.000002  -0.000006   0.005978  -0.000275
    17  C    0.006857  -0.000141  -0.000089  -0.000246  -0.060228  -0.017006
    18  H    0.000285  -0.000017  -0.000001  -0.000008  -0.011011  -0.000888
    19  H    0.000002  -0.000000   0.000000   0.000000  -0.000162  -0.000005
    20  H    0.000003  -0.000000  -0.000000   0.000001  -0.000126   0.000001
    21  H    0.008156  -0.000166   0.001301   0.001450  -0.014413   0.000264
    22  C   -0.047050   0.000787  -0.005748   0.004241   0.356855  -0.037798
    23  C   -0.007437   0.000400   0.003692   0.000141  -0.060197   0.006020
    24  H    0.000324   0.000020   0.002340  -0.000077  -0.005350   0.000131
    25  C    0.000151  -0.000073  -0.000010   0.000001   0.004391  -0.000145
    26  H   -0.000002   0.000001   0.000002  -0.000000  -0.000178   0.000002
    27  C    0.000009  -0.000012  -0.000004  -0.000000   0.000529  -0.000005
    28  O    0.000000   0.000000  -0.000000   0.000000   0.000001   0.000000
    29  C   -0.000142  -0.000035   0.000006   0.000001   0.005649   0.000032
    30  H    0.000002   0.000001   0.000000  -0.000000  -0.000147   0.000003
    31  C    0.002239   0.000862  -0.000150  -0.000054  -0.041397  -0.011582
    32  H    0.000167  -0.000035  -0.000004  -0.000004  -0.013757   0.006324
               7          8          9         10         11         12
     1  C   -0.006691   0.006362  -0.003923  -0.034472  -0.013760   0.000063
     2  H    0.000022  -0.000173   0.003423   0.003932   0.000395  -0.000001
     3  H    0.000017  -0.000197  -0.000046  -0.003812   0.000935   0.000002
     4  H    0.003955   0.000030   0.000116  -0.004394   0.002020   0.000030
     5  C   -0.026909  -0.026549  -0.022135   0.360231  -0.045368   0.005587
     6  C    0.365318   0.360216   0.355288  -0.060031   0.000349  -0.000289
     7  H    0.574743  -0.029773  -0.031134  -0.001003   0.001993  -0.000042
     8  H   -0.029773   0.582666  -0.037274  -0.011455  -0.000207  -0.000025
     9  H   -0.031134  -0.037274   0.585644   0.006175  -0.000046   0.000003
    10  C   -0.001003  -0.011455   0.006175   4.755584   0.535091  -0.020463
    11  C    0.001993  -0.000207  -0.000046   0.535091   5.054892   0.485050
    12  C   -0.000042  -0.000025   0.000003  -0.020463   0.485050   5.075033
    13  C   -0.000025  -0.000032  -0.000001  -0.033646  -0.020501   0.545125
    14  O   -0.000000  -0.000000   0.000000   0.000218   0.003469  -0.069239
    15  H   -0.000000  -0.000000  -0.000000  -0.000005  -0.000236   0.005447
    16  C   -0.000029   0.000026   0.000005  -0.020991  -0.041862  -0.075378
    17  C   -0.000164   0.010070   0.000515   0.510774  -0.064618  -0.044759
    18  H    0.000066   0.002215  -0.000124  -0.042901   0.006392   0.000452
    19  H    0.000001   0.000021  -0.000000   0.003532   0.000673   0.006454
    20  H    0.000003   0.000001  -0.000000   0.003934  -0.037888   0.342702
    21  H   -0.000030  -0.000002  -0.000014  -0.041800   0.352976  -0.042227
    22  C    0.003876  -0.004954  -0.005179  -0.058698   0.001468  -0.000073
    23  C   -0.000100  -0.000144  -0.000078  -0.002990   0.001276  -0.000025
    24  H   -0.000005  -0.000001  -0.000003   0.002878   0.000623  -0.000000
    25  C    0.000002   0.000004  -0.000004   0.000459   0.000013  -0.000000
    26  H   -0.000000   0.000000   0.000000   0.000005  -0.000000  -0.000000
    27  C    0.000000  -0.000002  -0.000002   0.000011   0.000001  -0.000000
    28  O   -0.000000   0.000000  -0.000000  -0.000000  -0.000000   0.000000
    29  C   -0.000000   0.000027  -0.000023   0.000069   0.000004  -0.000000
    30  H   -0.000000  -0.000000   0.000001  -0.000000  -0.000000   0.000000
    31  C    0.000279   0.001634   0.002259  -0.003813  -0.000271   0.000001
    32  H   -0.000121   0.001456   0.002064   0.000364  -0.000001   0.000000
              13         14         15         16         17         18
     1  C   -0.000011  -0.000000  -0.000000  -0.000152   0.006857   0.000285
     2  H    0.000000  -0.000000   0.000000   0.000002  -0.000141  -0.000017
     3  H   -0.000000   0.000000   0.000000   0.000002  -0.000089  -0.000001
     4  H   -0.000000  -0.000000  -0.000000  -0.000006  -0.000246  -0.000008
     5  C    0.000423   0.000001  -0.000001   0.005978  -0.060228  -0.011011
     6  C    0.000090   0.000000   0.000000  -0.000275  -0.017006  -0.000888
     7  H   -0.000025  -0.000000  -0.000000  -0.000029  -0.000164   0.000066
     8  H   -0.000032  -0.000000  -0.000000   0.000026   0.010070   0.002215
     9  H   -0.000001   0.000000  -0.000000   0.000005   0.000515  -0.000124
    10  C   -0.033646   0.000218  -0.000005  -0.020991   0.510774  -0.042901
    11  C   -0.020501   0.003469  -0.000236  -0.041862  -0.064618   0.006392
    12  C    0.545125  -0.069239   0.005447  -0.075378  -0.044759   0.000452
    13  C    4.473653   0.301819  -0.030314   0.496872  -0.007076   0.002584
    14  O    0.301819   8.234621   0.253390  -0.064446   0.003990  -0.000049
    15  H   -0.030314   0.253390   0.314388  -0.006747   0.000319  -0.000011
    16  C    0.496872  -0.064446  -0.006747   5.162310   0.443312  -0.036360
    17  C   -0.007076   0.003990   0.000319   0.443312   5.113217   0.349208
    18  H    0.002584  -0.000049  -0.000011  -0.036360   0.349208   0.571908
    19  H   -0.042582  -0.003167   0.003653   0.346060  -0.036489  -0.004774
    20  H   -0.040717  -0.000673  -0.000418   0.008451   0.000328   0.000015
    21  H    0.003609  -0.000061   0.000007   0.000002   0.007762  -0.000208
    22  C   -0.000037  -0.000000  -0.000000   0.000805  -0.006322   0.010133
    23  C   -0.000002   0.000000   0.000000   0.000011  -0.002092   0.000985
    24  H    0.000000   0.000000   0.000000  -0.000030   0.000502   0.000011
    25  C    0.000000   0.000000   0.000000  -0.000015   0.000076  -0.000359
    26  H   -0.000000   0.000000   0.000000  -0.000000   0.000001  -0.000001
    27  C    0.000000  -0.000000   0.000000  -0.000001  -0.000032   0.000028
    28  O   -0.000000  -0.000000  -0.000000   0.000000   0.000000   0.000000
    29  C    0.000000   0.000000   0.000000  -0.000004  -0.000218   0.000260
    30  H    0.000000   0.000000   0.000000   0.000000  -0.000000  -0.000002
    31  C    0.000000   0.000000  -0.000000   0.000108   0.000220   0.005652
    32  H    0.000000   0.000000   0.000000  -0.000008  -0.000276   0.000075
              19         20         21         22         23         24
     1  C    0.000002   0.000003   0.008156  -0.047050  -0.007437   0.000324
     2  H   -0.000000  -0.000000  -0.000166   0.000787   0.000400   0.000020
     3  H    0.000000  -0.000000   0.001301  -0.005748   0.003692   0.002340
     4  H    0.000000   0.000001   0.001450   0.004241   0.000141  -0.000077
     5  C   -0.000162  -0.000126  -0.014413   0.356855  -0.060197  -0.005350
     6  C   -0.000005   0.000001   0.000264  -0.037798   0.006020   0.000131
     7  H    0.000001   0.000003  -0.000030   0.003876  -0.000100  -0.000005
     8  H    0.000021   0.000001  -0.000002  -0.004954  -0.000144  -0.000001
     9  H   -0.000000  -0.000000  -0.000014  -0.005179  -0.000078  -0.000003
    10  C    0.003532   0.003934  -0.041800  -0.058698  -0.002990   0.002878
    11  C    0.000673  -0.037888   0.352976   0.001468   0.001276   0.000623
    12  C    0.006454   0.342702  -0.042227  -0.000073  -0.000025  -0.000000
    13  C   -0.042582  -0.040717   0.003609  -0.000037  -0.000002   0.000000
    14  O   -0.003167  -0.000673  -0.000061  -0.000000   0.000000   0.000000
    15  H    0.003653  -0.000418   0.000007  -0.000000   0.000000   0.000000
    16  C    0.346060   0.008451   0.000002   0.000805   0.000011  -0.000030
    17  C   -0.036489   0.000328   0.007762  -0.006322  -0.002092   0.000502
    18  H   -0.004774   0.000015  -0.000208   0.010133   0.000985   0.000011
    19  H    0.589129  -0.000226   0.000016   0.000013  -0.000001  -0.000001
    20  H   -0.000226   0.597239  -0.004637   0.000002   0.000000  -0.000000
    21  H    0.000016  -0.004637   0.589451   0.000293  -0.000079  -0.000042
    22  C    0.000013   0.000002   0.000293   4.884106   0.479052  -0.042591
    23  C   -0.000001   0.000000  -0.000079   0.479052   5.154864   0.346717
    24  H   -0.000001  -0.000000  -0.000042  -0.042591   0.346717   0.608269
    25  C   -0.000000  -0.000000  -0.000001  -0.023327   0.401922  -0.035734
    26  H    0.000000  -0.000000   0.000000   0.004651  -0.047524  -0.007599
    27  C   -0.000000   0.000000   0.000000  -0.040684   0.010633   0.003177
    28  O    0.000000   0.000000   0.000000   0.000194   0.006857  -0.000108
    29  C   -0.000000  -0.000000  -0.000000  -0.024285  -0.047351   0.000394
    30  H   -0.000000  -0.000000  -0.000000   0.005852  -0.000487   0.000026
    31  C    0.000001   0.000000   0.000003   0.523039  -0.047218   0.004247
    32  H    0.000000  -0.000000   0.000000  -0.044496   0.005838  -0.000138
              25         26         27         28         29         30
     1  C    0.000151  -0.000002   0.000009   0.000000  -0.000142   0.000002
     2  H   -0.000073   0.000001  -0.000012   0.000000  -0.000035   0.000001
     3  H   -0.000010   0.000002  -0.000004  -0.000000   0.000006   0.000000
     4  H    0.000001  -0.000000  -0.000000   0.000000   0.000001  -0.000000
     5  C    0.004391  -0.000178   0.000529   0.000001   0.005649  -0.000147
     6  C   -0.000145   0.000002  -0.000005   0.000000   0.000032   0.000003
     7  H    0.000002  -0.000000   0.000000  -0.000000  -0.000000  -0.000000
     8  H    0.000004   0.000000  -0.000002   0.000000   0.000027  -0.000000
     9  H   -0.000004   0.000000  -0.000002  -0.000000  -0.000023   0.000001
    10  C    0.000459   0.000005   0.000011  -0.000000   0.000069  -0.000000
    11  C    0.000013  -0.000000   0.000001  -0.000000   0.000004  -0.000000
    12  C   -0.000000  -0.000000  -0.000000   0.000000  -0.000000   0.000000
    13  C    0.000000  -0.000000   0.000000  -0.000000   0.000000   0.000000
    14  O    0.000000   0.000000  -0.000000  -0.000000   0.000000   0.000000
    15  H    0.000000   0.000000   0.000000  -0.000000   0.000000   0.000000
    16  C   -0.000015  -0.000000  -0.000001   0.000000  -0.000004   0.000000
    17  C    0.000076   0.000001  -0.000032   0.000000  -0.000218  -0.000000
    18  H   -0.000359  -0.000001   0.000028   0.000000   0.000260  -0.000002
    19  H   -0.000000   0.000000  -0.000000   0.000000  -0.000000  -0.000000
    20  H   -0.000000  -0.000000   0.000000   0.000000  -0.000000  -0.000000
    21  H   -0.000001   0.000000   0.000000   0.000000  -0.000000  -0.000000
    22  C   -0.023327   0.004651  -0.040684   0.000194  -0.024285   0.005852
    23  C    0.401922  -0.047524   0.010633   0.006857  -0.047351  -0.000487
    24  H   -0.035734  -0.007599   0.003177  -0.000108   0.000394   0.000026
    25  C    5.319663   0.340000   0.421359  -0.077305  -0.059741   0.011946
    26  H    0.340000   0.647869  -0.043287   0.000056   0.008918  -0.000200
    27  C    0.421359  -0.043287   4.397329   0.414134   0.470458  -0.046537
    28  O   -0.077305   0.000056   0.414134   8.611461  -0.078977   0.001877
    29  C   -0.059741   0.008918   0.470458  -0.078977   5.329102   0.328710
    30  H    0.011946  -0.000200  -0.046537   0.001877   0.328710   0.674404
    31  C   -0.045884   0.000031   0.007521   0.008461   0.360382  -0.050444
    32  H    0.000029   0.000024   0.003851  -0.000107  -0.039931  -0.008273
              31         32
     1  C    0.002239   0.000167
     2  H    0.000862  -0.000035
     3  H   -0.000150  -0.000004
     4  H   -0.000054  -0.000004
     5  C   -0.041397  -0.013757
     6  C   -0.011582   0.006324
     7  H    0.000279  -0.000121
     8  H    0.001634   0.001456
     9  H    0.002259   0.002064
    10  C   -0.003813   0.000364
    11  C   -0.000271  -0.000001
    12  C    0.000001   0.000000
    13  C    0.000000   0.000000
    14  O    0.000000   0.000000
    15  H   -0.000000   0.000000
    16  C    0.000108  -0.000008
    17  C    0.000220  -0.000276
    18  H    0.005652   0.000075
    19  H    0.000001   0.000000
    20  H    0.000000  -0.000000
    21  H    0.000003   0.000000
    22  C    0.523039  -0.044496
    23  C   -0.047218   0.005838
    24  H    0.004247  -0.000138
    25  C   -0.045884   0.000029
    26  H    0.000031   0.000024
    27  C    0.007521   0.003851
    28  O    0.008461  -0.000107
    29  C    0.360382  -0.039931
    30  H   -0.050444  -0.008273
    31  C    5.140094   0.349760
    32  H    0.349760   0.615683
 Mulliken charges:
               1
     1  C   -0.479073
     2  H    0.147495
     3  H    0.147591
     4  H    0.147180
     5  C   -0.022497
     6  C   -0.464520
     7  H    0.145751
     8  H    0.146060
     9  H    0.144494
    10  C    0.157218
    11  C   -0.222861
    12  C   -0.213432
    13  C    0.350770
    14  O   -0.659874
    15  H    0.460527
    16  C   -0.217640
    17  C   -0.207394
    18  H    0.146445
    19  H    0.137853
    20  H    0.132008
    21  H    0.138390
    22  C    0.065876
    23  C   -0.202683
    24  H    0.122019
    25  C   -0.257417
    26  H    0.097232
    27  C    0.401525
    28  O   -0.886544
    29  C   -0.253303
    30  H    0.083270
    31  C   -0.205980
    32  H    0.121515
 Sum of Mulliken charges =  -1.00000
 Mulliken charges with hydrogens summed into heavy atoms:
               1
     1  C   -0.036806
     5  C   -0.022497
     6  C   -0.028214
    10  C    0.157218
    11  C   -0.084471
    12  C   -0.081424
    13  C    0.350770
    14  O   -0.199347
    16  C   -0.079787
    17  C   -0.060950
    22  C    0.065876
    23  C   -0.080665
    25  C   -0.160186
    27  C    0.401525
    28  O   -0.886544
    29  C   -0.170034
    31  C   -0.084465
 Electronic spatial extent (au):  <R**2>=           4736.5484
 Charge=             -1.0000 electrons
 Dipole moment (field-independent basis, Debye):
    X=             17.7768    Y=              4.9792    Z=              1.1357  Tot=             18.4958
 Quadrupole moment (field-independent basis, Debye-Ang):
   XX=           -190.2995   YY=           -107.2734   ZZ=            -99.7567
   XY=            -37.3294   XZ=             -4.7532   YZ=             -3.6611
 Traceless Quadrupole moment (field-independent basis, Debye-Ang):
   XX=            -57.8563   YY=             25.1698   ZZ=             32.6865
   XY=            -37.3294   XZ=             -4.7532   YZ=             -3.6611
 Octapole moment (field-independent basis, Debye-Ang**2):
  XXX=            353.4443  YYY=            -15.3182  ZZZ=             -0.2302  XYY=            113.9945
  XXY=            121.3761  XXZ=             15.3706  XZZ=              5.6758  YZZ=             -3.6882
  YYZ=              7.2631  XYZ=             -4.0493
 Hexadecapole moment (field-independent basis, Debye-Ang**3):
 XXXX=          -6371.6599 YYYY=          -1233.7797 ZZZZ=           -624.3747 XXXY=           -771.8552
 XXXZ=            -92.4729 YYYX=           -295.8308 YYYZ=            -16.9256 ZZZX=             -4.3501
 ZZZY=             -1.6747 XXYY=          -1111.8087 XXZZ=           -840.6575 YYZZ=           -312.0875
[...]
     32          1           0       -2.100559    1.110020    1.938144
 ---------------------------------------------------------------------
 Rotational constants (GHZ):           0.8441259           0.2637352           0.2349985
 Leave Link  202 at Sun Jul 11 16:29:57 2021, MaxMem=   262144000 cpu:               0.0 elap:               0.0
 (Enter /prod/apps/gaussian/g16b1/l301.exe)
 Standard basis: Aug-CC-pVDZ (5D, 7F)
 Ernie: Thresh=  0.10000D-02 Tol=  0.10000D-05 Strict=F.
 Ernie:  34 primitive shells out of 530 were deleted.
 There are   560 symmetry adapted cartesian basis functions of A   symmetry.
 There are   526 symmetry adapted basis functions of A   symmetry.
   526 basis functions,   896 primitive gaussians,   560 cartesian basis functions
    61 alpha electrons       61 beta electrons
       nuclear repulsion energy      1129.8869570227 Hartrees.
 IExCor=    0 DFT=F Ex=HF Corr=None ExCW=0 ScaHFX=  1.000000
 ScaDFX=  1.000000  1.000000  1.000000  1.000000 ScalE2=  1.000000  1.000000
 IRadAn=      5 IRanWt=     -1 IRanGd=            0 ICorTp=0 IEmpDi=  4
 NAtoms=   32 NActive=   32 NUniq=   32 SFac= 1.00D+00 NAtFMM=   60 NAOKFM=F Big=F
 Integral buffers will be    131072 words long.
 Raffenetti 1 integral format.
 Two-electron integral symmetry is turned on.
 Leave Link  301 at Sun Jul 11 16:29:57 2021, MaxMem=   262144000 cpu:               0.2 elap:               0.1
 (Enter /prod/apps/gaussian/g16b1/l302.exe)
 NPDir=0 NMtPBC=     1 NCelOv=     1 NCel=       1 NClECP=     1 NCelD=      1
         NCelK=      1 NCelE2=     1 NClLst=     1 CellRange=     0.0.
 One-electron integrals computed using PRISM.
 One-electron integral symmetry used in STVInt
 NBasis=   526 RedAO= T EigKep=  1.35D-06  NBF=   526
 NBsUse=   526 1.00D-06 EigRej= -1.00D+00 NBFU=   526
 Leave Link  302 at Sun Jul 11 16:29:58 2021, MaxMem=   262144000 cpu:               1.3 elap:               0.3
 (Enter /prod/apps/gaussian/g16b1/l303.exe)
 DipDrv:  MaxL=1.
 Leave Link  303 at Sun Jul 11 16:29:58 2021, MaxMem=   262144000 cpu:               0.3 elap:               0.1
 (Enter /prod/apps/gaussian/g16b1/l401.exe)
 ExpMin= 2.97D-02 ExpMax= 1.17D+04 ExpMxC= 4.01D+02 IAcc=3 IRadAn=         5 AccDes= 0.00D+00
 Harris functional with IExCor=  205 and IRadAn=       5 diagonalized for initial guess.
 HarFok:  IExCor=  205 AccDes= 0.00D+00 IRadAn=         5 IDoV= 1 UseB2=F ITyADJ=14
 ICtDFT=  3500011 ScaDFX=  1.000000  1.000000  1.000000  1.000000
 FoFCou: FMM=F IPFlag=           0 FMFlag=      100000 FMFlg1=           0
         NFxFlg=           0 DoJE=T BraDBF=F KetDBF=T FulRan=T
         wScrn=  0.000000 ICntrl=       500 IOpCl=  0 I1Cent=   200000004 NGrid=           0
         NMat0=    1 NMatS0=      1 NMatT0=    0 NMatD0=    1 NMtDS0=    0 NMtDT0=    0
 Petite list used in FoFCou.
 Harris En= -727.770616126854    
 JPrj=0 DoOrth=F DoCkMO=F.
 Leave Link  401 at Sun Jul 11 16:30:01 2021, MaxMem=   262144000 cpu:              11.8 elap:               3.0
 (Enter /prod/apps/gaussian/g16b1/l502.exe)
 Integral symmetry usage will be decided dynamically.
 Closed shell SCF:
 Using DIIS extrapolation, IDIIS=  1040.
 NGot=   262144000 LenX=   261508168 LenY=   261194008
 Requested convergence on RMS density matrix=1.00D-08 within 128 cycles.
 Requested convergence on MAX density matrix=1.00D-06.
 Requested convergence on             energy=1.00D-06.
 No special actions if energy rises.
 Fock matrices will be formed incrementally for  20 cycles.

 Cycle   1  Pass 1  IDiag  1:
 FoFJK:  IHMeth= 1 ICntrl=       0 DoSepK=F KAlg= 0 I1Cent=           0 FoldK=F
 IRaf= 950000000 NMat=       1 IRICut=       1 DoRegI=T DoRafI=F ISym2E= 0 IDoP0=0 IntGTp=1.
 FoFCou: FMM=F IPFlag=           0 FMFlag=      100000 FMFlg1=           0
         NFxFlg=           0 DoJE=F BraDBF=F KetDBF=F FulRan=T
         wScrn=  0.000000 ICntrl=         0 IOpCl=  0 I1Cent=           0 NGrid=           0
         NMat0=    1 NMatS0=      1 NMatT0=    0 NMatD0=    1 NMtDS0=    0 NMtDT0=    0
 Symmetry not used in FoFCou.
 E= -725.789981529433    
 DIIS: error= 1.90D-02 at cycle   1 NSaved=   1.
 NSaved= 1 IEnMin= 1 EnMin= -725.789981529433     IErMin= 1 ErrMin= 1.90D-02
 ErrMax= 1.90D-02  0.00D+00 EMaxC= 1.00D-01 BMatC= 9.01D-01 BMatP= 9.01D-01
 IDIUse=3 WtCom= 8.10D-01 WtEn= 1.90D-01
 Coeff-Com:  0.100D+01
 Coeff-En:   0.100D+01
 Coeff:      0.100D+01
 Gap=     0.278 Goal=   None    Shift=    0.000
 GapD=    0.278 DampG=1.000 DampE=0.500 DampFc=0.5000 IDamp=-1.
 Damping current iteration by 5.00D-01
 RMSDP=8.45D-02 MaxDP=6.31D+00              OVMax= 1.97D-01

 Cycle   2  Pass 1  IDiag  1:
 RMSU=  1.90D-02    CP:  7.65D-01
 E= -726.198694638092     Delta-E=       -0.408713108659 Rises=F Damp=T
 DIIS: error= 1.06D-02 at cycle   2 NSaved=   2.
 NSaved= 2 IEnMin= 2 EnMin= -726.198694638092     IErMin= 2 ErrMin= 1.06D-02
 ErrMax= 1.06D-02  0.00D+00 EMaxC= 1.00D-01 BMatC= 1.59D-01 BMatP= 9.01D-01
 IDIUse=3 WtCom= 8.94D-01 WtEn= 1.06D-01
 Coeff-Com: -0.532D+00 0.153D+01
 Coeff-En:   0.000D+00 0.100D+01
 Coeff:     -0.476D+00 0.148D+01
 Gap=     0.200 Goal=   None    Shift=    0.000
 RMSDP=4.41D-02 MaxDP=3.88D+00 DE=-4.09D-01 OVMax= 8.59D-02

 Cycle   3  Pass 1  IDiag  1:
 RMSU=  1.23D-02    CP:  5.14D-01  1.68D+00
 E= -726.563607293108     Delta-E=       -0.364912655016 Rises=F Damp=F
 DIIS: error= 2.08D-03 at cycle   3 NSaved=   3.
 NSaved= 3 IEnMin= 3 EnMin= -726.563607293108     IErMin= 3 ErrMin= 2.08D-03
 ErrMax= 2.08D-03  0.00D+00 EMaxC= 1.00D-01 BMatC= 5.48D-03 BMatP= 1.59D-01
 IDIUse=3 WtCom= 9.79D-01 WtEn= 2.08D-02
 Coeff-Com: -0.118D+00 0.207D+00 0.911D+00
 Coeff-En:   0.000D+00 0.000D+00 0.100D+01
 Coeff:     -0.116D+00 0.203D+00 0.913D+00
 Gap=     0.184 Goal=   None    Shift=    0.000
 RMSDP=2.37D-03 MaxDP=1.29D-01 DE=-3.65D-01 OVMax= 2.30D-02

 Cycle   4  Pass 1  IDiag  1:
 RMSU=  1.93D-03    CP:  5.06D-01  1.68D+00  9.82D-01
 E= -726.568703028622     Delta-E=       -0.005095735514 Rises=F Damp=F
 DIIS: error= 7.91D-04 at cycle   4 NSaved=   4.
 NSaved= 4 IEnMin= 4 EnMin= -726.568703028622     IErMin= 4 ErrMin= 7.91D-04
 ErrMax= 7.91D-04  0.00D+00 EMaxC= 1.00D-01 BMatC= 9.31D-04 BMatP= 5.48D-03
 IDIUse=3 WtCom= 9.92D-01 WtEn= 7.91D-03
 Coeff-Com: -0.192D-01 0.101D-01 0.308D+00 0.701D+00
 Coeff-En:   0.000D+00 0.000D+00 0.000D+00 0.100D+01
 Coeff:     -0.191D-01 0.998D-02 0.306D+00 0.703D+00
 Gap=     0.187 Goal=   None    Shift=    0.000
 RMSDP=7.30D-04 MaxDP=5.70D-02 DE=-5.10D-03 OVMax= 8.77D-03

 Cycle   5  Pass 1  IDiag  1:
 RMSU=  6.05D-04    CP:  5.04D-01  1.67D+00  9.85D-01  1.12D+00
 E= -726.569728379244     Delta-E=       -0.001025350622 Rises=F Damp=F
 DIIS: error= 2.61D-04 at cycle   5 NSaved=   5.
 NSaved= 5 IEnMin= 5 EnMin= -726.569728379244     IErMin= 5 ErrMin= 2.61D-04
 ErrMax= 2.61D-04  0.00D+00 EMaxC= 1.00D-01 BMatC= 7.33D-05 BMatP= 9.31D-04
 IDIUse=3 WtCom= 9.97D-01 WtEn= 2.61D-03
 Coeff-Com:  0.987D-02-0.192D-01-0.743D-01 0.793D-01 0.100D+01
 Coeff-En:   0.000D+00 0.000D+00 0.000D+00 0.000D+00 0.100D+01
 Coeff:      0.984D-02-0.192D-01-0.741D-01 0.791D-01 0.100D+01
 Gap=     0.188 Goal=   None    Shift=    0.000
 RMSDP=3.66D-04 MaxDP=3.02D-02 DE=-1.03D-03 OVMax= 4.90D-03

 Cycle   6  Pass 1  IDiag  1:
 RMSU=  2.36D-04    CP:  5.04D-01  1.67D+00  9.96D-01  1.24D+00  1.15D+00
 E= -726.569888331085     Delta-E=       -0.000159951840 Rises=F Damp=F
 DIIS: error= 9.10D-05 at cycle   6 NSaved=   6.
 NSaved= 6 IEnMin= 6 EnMin= -726.569888331085     IErMin= 6 ErrMin= 9.10D-05
 ErrMax= 9.10D-05  0.00D+00 EMaxC= 1.00D-01 BMatC= 9.79D-06 BMatP= 7.33D-05
 IDIUse=1 WtCom= 1.00D+00 WtEn= 0.00D+00
 Coeff-Com:  0.359D-02-0.400D-02-0.440D-01-0.686D-01 0.126D+00 0.987D+00
 Coeff:      0.359D-02-0.400D-02-0.440D-01-0.686D-01 0.126D+00 0.987D+00
 Gap=     0.188 Goal=   None    Shift=    0.000
 RMSDP=1.61D-04 MaxDP=1.00D-02 DE=-1.60D-04 OVMax= 4.15D-03

 Cycle   7  Pass 1  IDiag  1:
 RMSU=  7.17D-05    CP:  5.04D-01  1.67D+00  9.96D-01  1.28D+00  1.29D+00
                    CP:  1.26D+00
 E= -726.569922992350     Delta-E=       -0.000034661265 Rises=F Damp=F
 DIIS: error= 5.05D-05 at cycle   7 NSaved=   7.
 NSaved= 7 IEnMin= 7 EnMin= -726.569922992350     IErMin= 7 ErrMin= 5.05D-05
 ErrMax= 5.05D-05  0.00D+00 EMaxC= 1.00D-01 BMatC= 2.89D-06 BMatP= 9.79D-06
 IDIUse=1 WtCom= 1.00D+00 WtEn= 0.00D+00
 Coeff-Com: -0.984D-03 0.224D-02 0.696D-02-0.240D-01-0.151D+00 0.186D+00
 Coeff-Com:  0.981D+00
 Coeff:     -0.984D-03 0.224D-02 0.696D-02-0.240D-01-0.151D+00 0.186D+00
 Coeff:      0.981D+00
 Gap=     0.188 Goal=   None    Shift=    0.000
 RMSDP=6.51D-05 MaxDP=4.51D-03 DE=-3.47D-05 OVMax= 1.66D-03

 Cycle   8  Pass 1  IDiag  1:
 RMSU=  3.72D-05    CP:  5.04D-01  1.67D+00  9.95D-01  1.29D+00  1.31D+00
                    CP:  1.40D+00  1.43D+00
 E= -726.569933747632     Delta-E=       -0.000010755282 Rises=F Damp=F
 DIIS: error= 2.20D-05 at cycle   8 NSaved=   8.
 NSaved= 8 IEnMin= 8 EnMin= -726.569933747632     IErMin= 8 ErrMin= 2.20D-05
 ErrMax= 2.20D-05  0.00D+00 EMaxC= 1.00D-01 BMatC= 6.42D-07 BMatP= 2.89D-06
 IDIUse=1 WtCom= 1.00D+00 WtEn= 0.00D+00
 Coeff-Com: -0.133D-02 0.175D-02 0.148D-01 0.160D-01-0.528D-01-0.260D+00
 Coeff-Com:  0.152D-01 0.127D+01
 Coeff:     -0.133D-02 0.175D-02 0.148D-01 0.160D-01-0.528D-01-0.260D+00
 Coeff:      0.152D-01 0.127D+01
 Gap=     0.189 Goal=   None    Shift=    0.000
 RMSDP=4.98D-05 MaxDP=2.44D-03 DE=-1.08D-05 OVMax= 1.83D-03

 Cycle   9  Pass 1  IDiag  1:
 RMSU=  1.90D-05    CP:  5.04D-01  1.67D+00  9.94D-01  1.29D+00  1.31D+00
                    CP:  1.49D+00  1.84D+00  1.69D+00
 E= -726.569937749006     Delta-E=       -0.000004001374 Rises=F Damp=F
 DIIS: error= 1.03D-05 at cycle   9 NSaved=   9.
 NSaved= 9 IEnMin= 9 EnMin= -726.569937749006     IErMin= 9 ErrMin= 1.03D-05
 ErrMax= 1.03D-05  0.00D+00 EMaxC= 1.00D-01 BMatC= 1.40D-07 BMatP= 6.42D-07
 IDIUse=1 WtCom= 1.00D+00 WtEn= 0.00D+00
 Coeff-Com: -0.942D-04-0.805D-04 0.227D-02 0.757D-02 0.188D-01-0.955D-01
 Coeff-Com: -0.213D+00 0.328D+00 0.951D+00
 Coeff:     -0.942D-04-0.805D-04 0.227D-02 0.757D-02 0.188D-01-0.955D-01
 Coeff:     -0.213D+00 0.328D+00 0.951D+00
 Gap=     0.189 Goal=   None    Shift=    0.000
 RMSDP=1.77D-05 MaxDP=1.27D-03 DE=-4.00D-06 OVMax= 5.78D-04

 Cycle  10  Pass 1  IDiag  1:
 RMSU=  7.32D-06    CP:  5.04D-01  1.67D+00  9.94D-01  1.29D+00  1.31D+00
                    CP:  1.50D+00  1.96D+00  1.96D+00  1.28D+00
 E= -726.569938292446     Delta-E=       -0.000000543440 Rises=F Damp=F
 DIIS: error= 3.21D-06 at cycle  10 NSaved=  10.
 NSaved=10 IEnMin=10 EnMin= -726.569938292446     IErMin=10 ErrMin= 3.21D-06
 ErrMax= 3.21D-06  0.00D+00 EMaxC= 1.00D-01 BMatC= 1.33D-08 BMatP= 1.40D-07
 IDIUse=1 WtCom= 1.00D+00 WtEn= 0.00D+00
 Coeff-Com:  0.222D-03-0.284D-03-0.251D-02-0.373D-02 0.721D-02 0.511D-01
 Coeff-Com:  0.624D-02-0.214D+00-0.881D-01 0.124D+01
 Coeff:      0.222D-03-0.284D-03-0.251D-02-0.373D-02 0.721D-02 0.511D-01
 Coeff:      0.624D-02-0.214D+00-0.881D-01 0.124D+01
 Gap=     0.189 Goal=   None    Shift=    0.000
 RMSDP=6.30D-06 MaxDP=4.74D-04 DE=-5.43D-07 OVMax= 2.05D-04

 Cycle  11  Pass 1  IDiag  1:
 RMSU=  2.87D-06    CP:  5.04D-01  1.67D+00  9.94D-01  1.29D+00  1.31D+00
                    CP:  1.50D+00  1.97D+00  2.05D+00  1.42D+00  1.39D+00
 E= -726.569938356990     Delta-E=       -0.000000064544 Rises=F Damp=F
 DIIS: error= 1.12D-06 at cycle  11 NSaved=  11.
 NSaved=11 IEnMin=11 EnMin= -726.569938356990     IErMin=11 ErrMin= 1.12D-06
 ErrMax= 1.12D-06  0.00D+00 EMaxC= 1.00D-01 BMatC= 2.05D-09 BMatP= 1.33D-08
 IDIUse=1 WtCom= 1.00D+00 WtEn= 0.00D+00
 Coeff-Com:  0.507D-04-0.452D-04-0.618D-03-0.151D-02-0.112D-02 0.203D-01
 Coeff-Com:  0.259D-01-0.669D-01-0.150D+00 0.170D+00 0.100D+01
 Coeff:      0.507D-04-0.452D-04-0.618D-03-0.151D-02-0.112D-02 0.203D-01
 Coeff:      0.259D-01-0.669D-01-0.150D+00 0.170D+00 0.100D+01
 Gap=     0.189 Goal=   None    Shift=    0.000
 RMSDP=1.64D-06 MaxDP=1.15D-04 DE=-6.45D-08 OVMax= 4.68D-05

 Cycle  12  Pass 1  IDiag  1:
 RMSU=  9.25D-07    CP:  5.04D-01  1.67D+00  9.94D-01  1.29D+00  1.31D+00
                    CP:  1.51D+00  1.97D+00  2.06D+00  1.45D+00  1.50D+00
                    CP:  1.24D+00
 E= -726.569938362233     Delta-E=       -0.000000005243 Rises=F Damp=F
 DIIS: error= 5.16D-07 at cycle  12 NSaved=  12.
 NSaved=12 IEnMin=12 EnMin= -726.569938362233     IErMin=12 ErrMin= 5.16D-07
 ErrMax= 5.16D-07  0.00D+00 EMaxC= 1.00D-01 BMatC= 2.13D-10 BMatP= 2.05D-09
 IDIUse=1 WtCom= 1.00D+00 WtEn= 0.00D+00
 Coeff-Com: -0.147D-04 0.229D-04 0.172D-03 0.864D-04-0.117D-02-0.203D-02
 Coeff-Com:  0.413D-02 0.139D-01-0.260D-01-0.100D+00 0.215D+00 0.896D+00
 Coeff:     -0.147D-04 0.229D-04 0.172D-03 0.864D-04-0.117D-02-0.203D-02
 Coeff:      0.413D-02 0.139D-01-0.260D-01-0.100D+00 0.215D+00 0.896D+00
 Gap=     0.189 Goal=   None    Shift=    0.000
 RMSDP=5.77D-07 MaxDP=3.68D-05 DE=-5.24D-09 OVMax= 9.12D-06

 Cycle  13  Pass 1  IDiag  1:
 RMSU=  3.67D-07    CP:  5.04D-01  1.67D+00  9.94D-01  1.29D+00  1.31D+00
                    CP:  1.51D+00  1.97D+00  2.06D+00  1.44D+00  1.51D+00
                    CP:  1.28D+00  1.14D+00
 E= -726.569938362646     Delta-E=       -0.000000000413 Rises=F Damp=F
 DIIS: error= 1.24D-07 at cycle  13 NSaved=  13.
 NSaved=13 IEnMin=13 EnMin= -726.569938362646     IErMin=13 ErrMin= 1.24D-07
 ErrMax= 1.24D-07  0.00D+00 EMaxC= 1.00D-01 BMatC= 2.67D-11 BMatP= 2.13D-10
 IDIUse=1 WtCom= 1.00D+00 WtEn= 0.00D+00
 Coeff-Com: -0.753D-05 0.796D-05 0.921D-04 0.182D-03 0.585D-04-0.262D-02
 Coeff-Com: -0.256D-02 0.100D-01 0.137D-01-0.280D-01-0.113D+00 0.639D-01
 Coeff-Com:  0.106D+01
 Coeff:     -0.753D-05 0.796D-05 0.921D-04 0.182D-03 0.585D-04-0.262D-02
 Coeff:     -0.256D-02 0.100D-01 0.137D-01-0.280D-01-0.113D+00 0.639D-01
 Coeff:      0.106D+01
 Gap=     0.189 Goal=   None    Shift=    0.000
 RMSDP=2.94D-07 MaxDP=2.22D-05 DE=-4.13D-10 OVMax= 2.82D-06

 Cycle  14  Pass 1  IDiag  1:
 RMSU=  1.19D-07    CP:  5.04D-01  1.67D+00  9.94D-01  1.29D+00  1.31D+00
                    CP:  1.51D+00  1.97D+00  2.05D+00  1.43D+00  1.50D+00
                    CP:  1.29D+00  1.24D+00  1.30D+00
 E= -726.569938362778     Delta-E=       -0.000000000132 Rises=F Damp=F
 DIIS: error= 5.75D-08 at cycle  14 NSaved=  14.
 NSaved=14 IEnMin=14 EnMin= -726.569938362778     IErMin=14 ErrMin= 5.75D-08
 ErrMax= 5.75D-08  0.00D+00 EMaxC= 1.00D-01 BMatC= 3.21D-12 BMatP= 2.67D-11
 IDIUse=1 WtCom= 1.00D+00 WtEn= 0.00D+00
 Coeff-Com:  0.625D-06-0.131D-05-0.777D-05 0.142D-05 0.115D-03-0.284D-04
 Coeff-Com: -0.686D-03-0.451D-03 0.316D-02 0.908D-02-0.287D-01-0.941D-01
 Coeff-Com:  0.884D-01 0.102D+01
 Coeff:      0.625D-06-0.131D-05-0.777D-05 0.142D-05 0.115D-03-0.284D-04
 Coeff:     -0.686D-03-0.451D-03 0.316D-02 0.908D-02-0.287D-01-0.941D-01
 Coeff:      0.884D-01 0.102D+01
 Gap=     0.189 Goal=   None    Shift=    0.000
 RMSDP=1.01D-07 MaxDP=8.54D-06 DE=-1.32D-10 OVMax= 1.31D-06

 Cycle  15  Pass 1  IDiag  1:
 RMSU=  5.17D-08    CP:  5.04D-01  1.67D+00  9.94D-01  1.29D+00  1.31D+00
                    CP:  1.51D+00  1.97D+00  2.05D+00  1.43D+00  1.49D+00
                    CP:  1.29D+00  1.25D+00  1.40D+00  1.20D+00
 E= -726.569938362779     Delta-E=       -0.000000000000 Rises=F Damp=F
 DIIS: error= 2.03D-08 at cycle  15 NSaved=  15.
 NSaved=15 IEnMin=15 EnMin= -726.569938362779     IErMin=15 ErrMin= 2.03D-08
 ErrMax= 2.03D-08  0.00D+00 EMaxC= 1.00D-01 BMatC= 6.12D-13 BMatP= 3.21D-12
 IDIUse=1 WtCom= 1.00D+00 WtEn= 0.00D+00
 Coeff-Com:  0.115D-05-0.127D-05-0.124D-04-0.295D-04-0.174D-04 0.427D-03
 Coeff-Com:  0.420D-03-0.136D-02-0.281D-02 0.340D-02 0.229D-01-0.692D-02
 Coeff-Com: -0.182D+00-0.972D-01 0.126D+01
 Coeff:      0.115D-05-0.127D-05-0.124D-04-0.295D-04-0.174D-04 0.427D-03
 Coeff:      0.420D-03-0.136D-02-0.281D-02 0.340D-02 0.229D-01-0.692D-02
 Coeff:     -0.182D+00-0.972D-01 0.126D+01
 Gap=     0.189 Goal=   None    Shift=    0.000
 RMSDP=4.39D-08 MaxDP=3.24D-06 DE=-4.55D-13 OVMax= 9.74D-07

 Cycle  16  Pass 1  IDiag  1:
 RMSU=  2.18D-08    CP:  5.04D-01  1.67D+00  9.94D-01  1.29D+00  1.31D+00
                    CP:  1.51D+00  1.97D+00  2.05D+00  1.43D+00  1.49D+00
                    CP:  1.29D+00  1.25D+00  1.43D+00  1.36D+00  1.41D+00
 E= -726.569938362765     Delta-E=        0.000000000014 Rises=F Damp=F
 DIIS: error= 8.91D-09 at cycle  16 NSaved=  16.
 NSaved=16 IEnMin=15 EnMin= -726.569938362779     IErMin=16 ErrMin= 8.91D-09
 ErrMax= 8.91D-09  0.00D+00 EMaxC= 1.00D-01 BMatC= 1.07D-13 BMatP= 6.12D-13
 IDIUse=1 WtCom= 1.00D+00 WtEn= 0.00D+00
 Coeff-Com:  0.730D-08 0.512D-07 0.599D-06-0.213D-05-0.167D-04 0.234D-04
 Coeff-Com:  0.116D-03 0.270D-04-0.676D-03-0.123D-02 0.624D-02 0.110D-01
 Coeff-Com: -0.191D-01-0.151D+00 0.577D-01 0.110D+01
 Coeff:      0.730D-08 0.512D-07 0.599D-06-0.213D-05-0.167D-04 0.234D-04
 Coeff:      0.116D-03 0.270D-04-0.676D-03-0.123D-02 0.624D-02 0.110D-01
 Coeff:     -0.191D-01-0.151D+00 0.577D-01 0.110D+01
 Gap=     0.189 Goal=   None    Shift=    0.000
 RMSDP=1.56D-08 MaxDP=1.23D-06 DE= 1.41D-11 OVMax= 4.06D-07

 Cycle  17  Pass 1  IDiag  1:
 RMSU=  1.01D-08    CP:  5.04D-01  1.67D+00  9.94D-01  1.29D+00  1.31D+00
                    CP:  1.51D+00  1.97D+00  2.05D+00  1.43D+00  1.49D+00
                    CP:  1.29D+00  1.25D+00  1.42D+00  1.39D+00  1.52D+00
                    CP:  1.36D+00
 E= -726.569938362795     Delta-E=       -0.000000000030 Rises=F Damp=F
 DIIS: error= 4.00D-09 at cycle  17 NSaved=  17.
 NSaved=17 IEnMin=17 EnMin= -726.569938362795     IErMin=17 ErrMin= 4.00D-09
 ErrMax= 4.00D-09  0.00D+00 EMaxC= 1.00D-01 BMatC= 2.10D-14 BMatP= 1.07D-13
 IDIUse=1 WtCom= 1.00D+00 WtEn= 0.00D+00
 Coeff-Com: -0.246D-06 0.263D-06 0.296D-05 0.681D-05 0.387D-05-0.101D-03
 Coeff-Com: -0.807D-04 0.308D-03 0.586D-03-0.905D-03-0.449D-02 0.844D-03
 Coeff-Com:  0.417D-01 0.156D-01-0.276D+00 0.380D-01 0.118D+01
 Coeff:     -0.246D-06 0.263D-06 0.296D-05 0.681D-05 0.387D-05-0.101D-03
 Coeff:     -0.807D-04 0.308D-03 0.586D-03-0.905D-03-0.449D-02 0.844D-03
 Coeff:      0.417D-01 0.156D-01-0.276D+00 0.380D-01 0.118D+01
 Gap=     0.189 Goal=   None    Shift=    0.000
 RMSDP=9.17D-09 MaxDP=5.49D-07 DE=-3.05D-11 OVMax= 2.50D-07

 SCF Done:  E(RHF) =  -726.569938363     A.U. after   17 cycles
            NFock= 17  Conv=0.92D-08     -V/T= 2.0011
 KE= 7.258046877253D+02 PE=-3.973818585665D+03 EE= 1.391557002554D+03
 Leave Link  502 at Sun Jul 11 16:41:03 2021, MaxMem=   262144000 cpu:            2647.6 elap:             662.0
 (Enter /prod/apps/gaussian/g16b1/l801.exe)
 ExpMin= 2.97D-02 ExpMax= 1.17D+04 ExpMxC= 4.01D+02 IAcc=3 IRadAn=         5 AccDes= 0.00D+00
 HarFok:  IExCor=  205 AccDes= 0.00D+00 IRadAn=         5 IDoV=-2 UseB2=F ITyADJ=14
 ICtDFT= 12500011 ScaDFX=  1.000000  1.000000  1.000000  1.000000
 Largest valence mixing into a core orbital is  1.13D-04
 Largest core mixing into a valence orbital is  4.34D-05
 Range of M.O.s used for correlation:    18   526
 NBasis=   526 NAE=    61 NBE=    61 NFC=    17 NFV=     0
 NROrb=    509 NOA=    44 NOB=    44 NVA=   465 NVB=   465

 **** Warning!!: The largest alpha MO coefficient is  0.11966116D+03

 Leave Link  801 at Sun Jul 11 16:41:03 2021, MaxMem=   262144000 cpu:               0.8 elap:               0.2
 (Enter /prod/apps/gaussian/g16b1/l906.exe)
 FulOut=F Deriv=F AODrv=F NAtomX=    32
   MMem=           5  MDisk=          44 MDiskD=          44
  W3Min=    11457600 MinDsk=    12229780 NBas6D=         560
 NBas2D=      157833    NTT=      157080    LW2=     2000000
    MDV=   260167089 MDiskM=        6402 NBas2p=      146987
 Disk-based method using OVN memory for 44 occupieds at a time.
 Estimated scratch disk usage=  9281762468 words.
 IMap=   1   2   3   4   5   6   7   8   9  10  11  12  13  14  15  16  17  18  19  20
 IMap=  21  22  23  24  25  26  27  28  29  30  31  32  33  34  35  36  37  38  39  40
 IMap=  41  42  43  44
 Actual    scratch disk usage=  9045655204 words.
 JobTyp=1 Pass  1:  I=   1 to  44 NPSUse=  4 ParTrn=T ParDer=T DoDerP=F.
Erroneous write. Write -1 instead of 4148648.
fd = 4
orig len = 8384512 left = 4148648
g_write
