 Entering Gaussian System, Link 0=g16
 Initial command:
 /prod/apps/gaussian/g16b1/l1.exe "/tmp/ubator02/1834526/Gau-210787.inp" -scrdir="/tmp/ubator02/1834526/"
 Entering Link 1 = /prod/apps/gaussian/g16b1/l1.exe PID=    210789.
  
 Copyright (c) 1988-2017, Gaussian, Inc.  All Rights Reserved.
  
 This is part of the Gaussian(R) 16 program.  It is based on
 the Gaussian(R) 09 system (copyright 2009, Gaussian, Inc.),
 the Gaussian(R) 03 system (copyright 2003, Gaussian, Inc.),
 the Gaussian(R) 98 system (copyright 1998, Gaussian, Inc.),
 the Gaussian(R) 94 system (copyright 1995, Gaussian, Inc.),
 the Gaussian 92(TM) system (copyright 1992, Gaussian, Inc.),
 the Gaussian 90(TM) system (copyright 1990, Gaussian, Inc.),
 the Gaussian 88(TM) system (copyright 1988, Gaussian, Inc.),
 the Gaussian 86(TM) system (copyright 1986, Carnegie Mellon
 University), and the Gaussian 82(TM) system (copyright 1983,
 Carnegie Mellon University). Gaussian is a federally registered
 trademark of Gaussian, Inc.
  
 This software contains proprietary and confidential information,
 including trade secrets, belonging to Gaussian, Inc.
  
 This software is provided under written license and may be
 used, copied, transmitted, or stored only in accord with that
 written license.
  
 The following legend is applicable only to US Government
 contracts under FAR:
  
                    RESTRICTED RIGHTS LEGEND
  
 Use, reproduction and disclosure by the US Government is
 subject to restrictions as set forth in subparagraphs (a)
 and (c) of the Commercial Computer Software - Restricted
 Rights clause in FAR 52.227-19.
  
 Gaussian, Inc.
 340 Quinnipiac St., Bldg. 40, Wallingford CT 06492
  
  
 ---------------------------------------------------------------
 Warning -- This program may not be used in any manner that
 competes with the business of Gaussian, Inc. or will provide
 assistance to any competitor of Gaussian, Inc.  The licensee
 of this program is prohibited from giving any competitor of
 Gaussian, Inc. access to this program.  By using this program,
 the user acknowledges that Gaussian, Inc. is engaged in the
 business of creating and licensing software in the field of
 computational chemistry and represents and warrants to the
 licensee that it is not a competitor of Gaussian, Inc. and that
 it will not use this program in any manner prohibited above.
 ---------------------------------------------------------------
  

 Cite this work as:
 Gaussian 16, Revision B.01,
 M. J. Frisch, G. W. Trucks, H. B. Schlegel, G. E. Scuseria, 
 M. A. Robb, J. R. Cheeseman, G. Scalmani, V. Barone, 
 G. A. Petersson, H. Nakatsuji, X. Li, M. Caricato, A. V. Marenich, 
 J. Bloino, B. G. Janesko, R. Gomperts, B. Mennucci, H. P. Hratchian, 
 J. V. Ortiz, A. F. Izmaylov, J. L. Sonnenberg, D. Williams-Young, 
 F. Ding, F. Lipparini, F. Egidi, J. Goings, B. Peng, A. Petrone, 
 T. Henderson, D. Ranasinghe, V. G. Zakrzewski, J. Gao, N. Rega, 
 G. Zheng, W. Liang, M. Hada, M. Ehara, K. Toyota, R. Fukuda, 
 J. Hasegawa, M. Ishida, T. Nakajima, Y. Honda, O. Kitao, H. Nakai, 
 T. Vreven, K. Throssell, J. A. Montgomery, Jr., J. E. Peralta, 
 F. Ogliaro, M. J. Bearpark, J. J. Heyd, E. N. Brothers, K. N. Kudin, 
 V. N. Staroverov, T. A. Keith, R. Kobayashi, J. Normand, 
 K. Raghavachari, A. P. Rendell, J. C. Burant, S. S. Iyengar, 
 J. Tomasi, M. Cossi, J. M. Millam, M. Klene, C. Adamo, R. Cammi, 
 J. W. Ochterski, R. L. Martin, K. Morokuma, O. Farkas, 
 J. B. Foresman, and D. J. Fox, Gaussian, Inc., Wallingford CT, 2016.
 
 ******************************************
 Gaussian 16:  ES64L-G16RevB.01 20-Dec-2017
                11-Jul-2021 
 ******************************************
 %mem=800MB
 %nproc=4
 Will use up to    4 processors via shared memory.
 %chk=SET_328_BBB212_conf1.geo_135_120.chk
 -----------------------------------------------------------
 #p b3lyp/6-31G(d) opt freq scrf=(iefpcm,read,solvent=water)
 -----------------------------------------------------------
 1/18=20,19=15,26=3,38=1,40=2/1,3;
 2/9=110,12=2,17=6,18=5,40=1/2;
 3/5=1,6=6,7=1,11=2,25=1,30=1,70=2203,71=1,72=1,74=-5/1,2,3;
 4//1;
 5/5=2,38=5,53=1/2;
 6/7=2,8=2,9=2,10=2,28=1/1;
 7//1,2,3,16;
 1/18=20,19=15,26=3/3(2);
 2/9=110/2;
 99//99;
 2/9=110/2;
 3/5=1,6=6,7=1,11=2,25=1,30=1,70=2205,71=1,72=1,74=-5/1,2,3;
 4/5=5,16=3,69=1/1;
 5/5=2,38=5,53=1/2;
 7//1,2,3,16;
 1/18=20,19=15,26=3/3(-5);
 2/9=110/2;
 6/7=2,8=2,9=2,10=2,19=2,28=1/1;
 99/9=1/99;
 Leave Link    1 at Sun Jul 11 15:57:28 2021, MaxMem=   104857600 cpu:               0.1 elap:               0.0
 (Enter /prod/apps/gaussian/g16b1/l101.exe)
 -----------------------------------------
 SET_328_BBB212_conf1.geo_135_120 geometry
 -----------------------------------------
 Symbolic Z-matrix:
 Charge = -1 Multiplicity = 1
 C                     0.008    -1.929     1.619 
 H                     0.801    -2.678     1.681 
 H                    -0.945    -2.46      1.658 
 H                     0.127    -1.188     2.412 
 C                     0.02     -1.134     0.306 
 C                     0.083    -2.231    -0.754 
 H                     0.163    -1.622    -1.657 
 H                    -0.735    -2.952    -0.813 
 H                     0.976    -2.858    -0.705 
 C                     1.265    -0.237     0.23 
 C                     2.406    -0.295     1.074 
 C                     3.6       0.277     0.617 
 C                     3.669     1.177    -0.477 
 O                     4.865     1.651    -0.777 
 H                     4.675     2.492    -1.23 
 C                     2.479     1.464    -1.082 
 C                     1.338     0.729    -0.769 
 H                     0.539     0.869    -1.493 
 H                     2.407     2.242    -1.838 
 H                     4.524     0.049     1.143 
 H                     2.474    -1.105     1.796 
 C                    -1.34     -0.299     0.165 
 C                    -2.266    -0.528    -0.866 
 H                    -2.121    -1.327    -1.589 
 C                    -3.37      0.353    -0.99 
 H                    -4.085     0.282    -1.806 
 C                    -3.67      1.31     -0.05 
 O                    -4.744     2.066    -0.111 
 C                    -2.768     1.542     0.959 
 H                    -3.019     2.346     1.646 
 C                    -1.648     0.738     1.039 
 H                    -0.863     1.037     1.729 
 
 ITRead=  0  0  0  0  0  0  0  0  0  0  0  0  0  0  0  0  0  0  0  0
 ITRead=  0  0  0  0  0  0  0  0  0  0  0  0
 MicOpt= -1 -1 -1 -1 -1 -1 -1 -1 -1 -1 -1 -1 -1 -1 -1 -1 -1 -1 -1 -1
 MicOpt= -1 -1 -1 -1 -1 -1 -1 -1 -1 -1 -1 -1
 NAtoms=     32 NQM=       32 NQMF=       0 NMMI=      0 NMMIF=      0
                NMic=       0 NMicF=      0.
                    Isotopes and Nuclear Properties:
 (Nuclear quadrupole moments (NQMom) in fm**2, nuclear magnetic moments (NMagM)
  in nuclear magnetons)

  Atom         1           2           3           4           5           6           7           8           9          10
 IAtWgt=          12           1           1           1          12          12           1           1           1          12
 AtmWgt=  12.0000000   1.0078250   1.0078250   1.0078250  12.0000000  12.0000000   1.0078250   1.0078250   1.0078250  12.0000000
 NucSpn=           0           1           1           1           0           0           1           1           1           0
 AtZEff=  -0.0000000  -0.0000000  -0.0000000  -0.0000000  -0.0000000  -0.0000000  -0.0000000  -0.0000000  -0.0000000  -0.0000000
 NQMom=    0.0000000   0.0000000   0.0000000   0.0000000   0.0000000   0.0000000   0.0000000   0.0000000   0.0000000   0.0000000
 NMagM=    0.0000000   2.7928460   2.7928460   2.7928460   0.0000000   0.0000000   2.7928460   2.7928460   2.7928460   0.0000000
 AtZNuc=   6.0000000   1.0000000   1.0000000   1.0000000   6.0000000   6.0000000   1.0000000   1.0000000   1.0000000   6.0000000

  Atom        11          12          13          14          15          16          17          18          19          20
 IAtWgt=          12          12          12          16           1          12          12           1           1           1
 AtmWgt=  12.0000000  12.0000000  12.0000000  15.9949146   1.0078250  12.0000000  12.0000000   1.0078250   1.0078250   1.0078250
 NucSpn=           0           0           0           0           1           0           0           1           1           1
 AtZEff=  -0.0000000  -0.0000000  -0.0000000  -0.0000000  -0.0000000  -0.0000000  -0.0000000  -0.0000000  -0.0000000  -0.0000000
 NQMom=    0.0000000   0.0000000   0.0000000   0.0000000   0.0000000   0.0000000   0.0000000   0.0000000   0.0000000   0.0000000
 NMagM=    0.0000000   0.0000000   0.0000000   0.0000000   2.7928460   0.0000000   0.0000000   2.7928460   2.7928460   2.7928460
 AtZNuc=   6.0000000   6.0000000   6.0000000   8.0000000   1.0000000   6.0000000   6.0000000   1.0000000   1.0000000   1.0000000

  Atom        21          22          23          24          25          26          27          28          29          30
 IAtWgt=           1          12          12           1          12           1          12          16          12           1
 AtmWgt=   1.0078250  12.0000000  12.0000000   1.0078250  12.0000000   1.0078250  12.0000000  15.9949146  12.0000000   1.0078250
 NucSpn=           1           0           0           1           0           1           0           0           0           1
 AtZEff=  -0.0000000  -0.0000000  -0.0000000  -0.0000000  -0.0000000  -0.0000000  -0.0000000  -0.0000000  -0.0000000  -0.0000000
 NQMom=    0.0000000   0.0000000   0.0000000   0.0000000   0.0000000   0.0000000   0.0000000   0.0000000   0.0000000   0.0000000
 NMagM=    2.7928460   0.0000000   0.0000000   2.7928460   0.0000000   2.7928460   0.0000000   0.0000000   0.0000000   2.7928460
 AtZNuc=   1.0000000   6.0000000   6.0000000   1.0000000   6.0000000   1.0000000   6.0000000   8.0000000   6.0000000   1.0000000

  Atom        31          32
 IAtWgt=          12           1
 AtmWgt=  12.0000000   1.0078250
 NucSpn=           0           1
 AtZEff=  -0.0000000  -0.0000000
 NQMom=    0.0000000   0.0000000
 NMagM=    0.0000000   2.7928460
 AtZNuc=   6.0000000   1.0000000
 Leave Link  101 at Sun Jul 11 15:57:28 2021, MaxMem=   104857600 cpu:               0.5 elap:               0.1
 (Enter /prod/apps/gaussian/g16b1/l103.exe)

 GradGradGradGradGradGradGradGradGradGradGradGradGradGradGradGradGradGrad
 Berny optimization.
 Initialization pass.
                           ----------------------------
                           !    Initial Parameters    !
                           ! (Angstroms and Degrees)  !
 --------------------------                            --------------------------
 ! Name  Definition              Value          Derivative Info.                !
 --------------------------------------------------------------------------------
 ! R1    R(1,2)                  1.0926         estimate D2E/DX2                !
 ! R2    R(1,3)                  1.0916         estimate D2E/DX2                !
 ! R3    R(1,4)                  1.0918         estimate D2E/DX2                !
 ! R4    R(1,5)                  1.535          estimate D2E/DX2                !
 ! R5    R(5,6)                  1.5268         estimate D2E/DX2                !
 ! R6    R(5,10)                 1.5364         estimate D2E/DX2                !
 ! R7    R(5,22)                 1.6021         estimate D2E/DX2                !
 ! R8    R(6,7)                  1.0921         estimate D2E/DX2                !
 ! R9    R(6,8)                  1.092          estimate D2E/DX2                !
 ! R10   R(6,9)                  1.0922         estimate D2E/DX2                !
 ! R11   R(10,11)                1.4204         estimate D2E/DX2                !
 ! R12   R(10,17)                1.3916         estimate D2E/DX2                !
 ! R13   R(11,12)                1.4006         estimate D2E/DX2                !
 ! R14   R(11,21)                1.0872         estimate D2E/DX2                !
 ! R15   R(12,13)                1.4183         estimate D2E/DX2                !
 ! R16   R(12,20)                1.0874         estimate D2E/DX2                !
 ! R17   R(13,14)                1.321          estimate D2E/DX2                !
 ! R18   R(13,16)                1.3655         estimate D2E/DX2                !
 ! R19   R(14,15)                0.974          estimate D2E/DX2                !
 ! R20   R(16,17)                1.3929         estimate D2E/DX2                !
 ! R21   R(16,19)                1.0872         estimate D2E/DX2                !
 ! R22   R(17,18)                1.0873         estimate D2E/DX2                !
 ! R23   R(22,23)                1.4046         estimate D2E/DX2                !
 ! R24   R(22,31)                1.3907         estimate D2E/DX2                !
 ! R25   R(23,24)                1.0873         estimate D2E/DX2                !
 ! R26   R(23,25)                1.4179         estimate D2E/DX2                !
 ! R27   R(25,26)                1.0873         estimate D2E/DX2                !
 ! R28   R(25,27)                1.3746         estimate D2E/DX2                !
 ! R29   R(27,28)                1.3148         estimate D2E/DX2                !
 ! R30   R(27,29)                1.3731         estimate D2E/DX2                !
 ! R31   R(29,30)                1.0869         estimate D2E/DX2                !
 ! R32   R(29,31)                1.381          estimate D2E/DX2                !
 ! R33   R(31,32)                1.0871         estimate D2E/DX2                !
 ! A1    A(2,1,3)              107.3461         estimate D2E/DX2                !
 ! A2    A(2,1,4)              110.1781         estimate D2E/DX2                !
 ! A3    A(2,1,5)              113.4487         estimate D2E/DX2                !
 ! A4    A(3,1,4)              113.5359         estimate D2E/DX2                !
 ! A5    A(3,1,5)              106.8169         estimate D2E/DX2                !
 ! A6    A(4,1,5)              105.5999         estimate D2E/DX2                !
 ! A7    A(1,5,6)              102.8305         estimate D2E/DX2                !
 ! A8    A(1,5,10)             110.5508         estimate D2E/DX2                !
 ! A9    A(1,5,22)             109.7907         estimate D2E/DX2                !
 ! A10   A(6,5,10)             110.5926         estimate D2E/DX2                !
 ! A11   A(6,5,22)             110.3902         estimate D2E/DX2                !
 ! A12   A(10,5,22)            112.2873         estimate D2E/DX2                !
 ! A13   A(5,6,7)              100.1609         estimate D2E/DX2                !
 ! A14   A(5,6,8)              118.7515         estimate D2E/DX2                !
 ! A15   A(5,6,9)              114.5229         estimate D2E/DX2                !
 ! A16   A(7,6,8)              112.2338         estimate D2E/DX2                !
 ! A17   A(7,6,9)              107.2965         estimate D2E/DX2                !
 ! A18   A(8,6,9)              103.6416         estimate D2E/DX2                !
 ! A19   A(5,10,11)            126.7063         estimate D2E/DX2                !
 ! A20   A(5,10,17)            118.9021         estimate D2E/DX2                !
 ! A21   A(11,10,17)           114.379          estimate D2E/DX2                !
 ! A22   A(10,11,12)           118.31           estimate D2E/DX2                !
 ! A23   A(10,11,21)           118.3764         estimate D2E/DX2                !
 ! A24   A(12,11,21)           117.8809         estimate D2E/DX2                !
 ! A25   A(11,12,13)           123.5254         estimate D2E/DX2                !
 ! A26   A(11,12,20)           118.7461         estimate D2E/DX2                !
 ! A27   A(13,12,20)           117.6991         estimate D2E/DX2                !
 ! A28   A(12,13,14)           116.5452         estimate D2E/DX2                !
 ! A29   A(12,13,16)           115.6414         estimate D2E/DX2                !
 ! A30   A(14,13,16)           127.8055         estimate D2E/DX2                !
 ! A31   A(13,14,15)           103.818          estimate D2E/DX2                !
 ! A32   A(13,16,17)           120.2273         estimate D2E/DX2                !
 ! A33   A(13,16,19)           121.079          estimate D2E/DX2                !
 ! A34   A(17,16,19)           118.6608         estimate D2E/DX2                !
 ! A35   A(10,17,16)           124.7924         estimate D2E/DX2                !
 ! A36   A(10,17,18)           121.9287         estimate D2E/DX2                !
 ! A37   A(16,17,18)           112.6064         estimate D2E/DX2                !
 ! A38   A(5,22,23)            122.634          estimate D2E/DX2                !
 ! A39   A(5,22,31)            121.421          estimate D2E/DX2                !
 ! A40   A(23,22,31)           115.9036         estimate D2E/DX2                !
 ! A41   A(22,23,24)           121.3316         estimate D2E/DX2                !
 ! A42   A(22,23,25)           118.4386         estimate D2E/DX2                !
 ! A43   A(24,23,25)           120.1522         estimate D2E/DX2                !
 ! A44   A(23,25,26)           122.4868         estimate D2E/DX2                !
 ! A45   A(23,25,27)           122.8695         estimate D2E/DX2                !
 ! A46   A(26,25,27)           114.5305         estimate D2E/DX2                !
 ! A47   A(25,27,28)           123.1522         estimate D2E/DX2                !
 ! A48   A(25,27,29)           118.4744         estimate D2E/DX2                !
 ! A49   A(28,27,29)           118.2631         estimate D2E/DX2                !
 ! A50   A(27,29,30)           115.9593         estimate D2E/DX2                !
 ! A51   A(27,29,31)           118.4856         estimate D2E/DX2                !
 ! A52   A(30,29,31)           125.5427         estimate D2E/DX2                !
 ! A53   A(22,31,29)           125.2615         estimate D2E/DX2                !
 ! A54   A(22,31,32)           116.3635         estimate D2E/DX2                !
 ! A55   A(29,31,32)           117.5342         estimate D2E/DX2                !
 ! D1    D(2,1,5,6)             50.2909         estimate D2E/DX2                !
 ! D2    D(2,1,5,10)           -67.7842         estimate D2E/DX2                !
 ! D3    D(2,1,5,22)           167.789          estimate D2E/DX2                !
 ! D4    D(3,1,5,6)            -67.782          estimate D2E/DX2                !
 ! D5    D(3,1,5,10)           174.1429         estimate D2E/DX2                !
 ! D6    D(3,1,5,22)            49.7161         estimate D2E/DX2                !
 ! D7    D(4,1,5,6)            171.0529         estimate D2E/DX2                !
 ! D8    D(4,1,5,10)            52.9778         estimate D2E/DX2                !
 ! D9    D(4,1,5,22)           -71.449          estimate D2E/DX2                !
 ! D10   D(1,5,6,7)           -176.0745         estimate D2E/DX2                !
 ! D11   D(1,5,6,8)             61.4591         estimate D2E/DX2                !
 ! D12   D(1,5,6,9)            -61.6328         estimate D2E/DX2                !
 ! D13   D(10,5,6,7)           -58.0288         estimate D2E/DX2                !
 ! D14   D(10,5,6,8)           179.5048         estimate D2E/DX2                !
 ! D15   D(10,5,6,9)            56.4129         estimate D2E/DX2                !
 ! D16   D(22,5,6,7)            66.8526         estimate D2E/DX2                !
 ! D17   D(22,5,6,8)           -55.6138         estimate D2E/DX2                !
 ! D18   D(22,5,6,9)          -178.7058         estimate D2E/DX2                !
 ! D19   D(1,5,10,11)           12.479          estimate D2E/DX2                !
 ! D20   D(1,5,10,17)         -168.8845         estimate D2E/DX2                !
 ! D21   D(6,5,10,11)         -100.7375         estimate D2E/DX2                !
 ! D22   D(6,5,10,17)           77.899          estimate D2E/DX2                !
 ! D23   D(22,5,10,11)         135.4661         estimate D2E/DX2                !
 ! D24   D(22,5,10,17)         -45.8973         estimate D2E/DX2                !
 ! D25   D(1,5,22,23)         -116.672          estimate D2E/DX2                !
 ! D26   D(1,5,22,31)           65.7633         estimate D2E/DX2                !
 ! D27   D(6,5,22,23)           -3.995          estimate D2E/DX2                !
 ! D28   D(6,5,22,31)          178.4403         estimate D2E/DX2                !
 ! D29   D(10,5,22,23)         119.9142         estimate D2E/DX2                !
 ! D30   D(10,5,22,31)         -57.6505         estimate D2E/DX2                !
 ! D31   D(5,10,11,12)         159.6914         estimate D2E/DX2                !
 ! D32   D(5,10,11,21)           6.2249         estimate D2E/DX2                !
 ! D33   D(17,10,11,12)        -18.9981         estimate D2E/DX2                !
 ! D34   D(17,10,11,21)       -172.4647         estimate D2E/DX2                !
 ! D35   D(5,10,17,16)        -169.6526         estimate D2E/DX2                !
 ! D36   D(5,10,17,18)           0.2439         estimate D2E/DX2                !
 ! D37   D(11,10,17,16)          9.1473         estimate D2E/DX2                !
 ! D38   D(11,10,17,18)        179.0438         estimate D2E/DX2                !
 ! D39   D(10,11,12,13)         15.5457         estimate D2E/DX2                !
 ! D40   D(10,11,12,20)       -166.4753         estimate D2E/DX2                !
 ! D41   D(21,11,12,13)        169.1441         estimate D2E/DX2                !
 ! D42   D(21,11,12,20)        -12.8769         estimate D2E/DX2                !
 ! D43   D(11,12,13,14)        178.9118         estimate D2E/DX2                !
 ! D44   D(11,12,13,16)         -0.1461         estimate D2E/DX2                !
 ! D45   D(20,12,13,14)          0.9131         estimate D2E/DX2                !
 ! D46   D(20,12,13,16)       -178.1448         estimate D2E/DX2                !
 ! D47   D(12,13,14,15)       -155.4986         estimate D2E/DX2                !
 ! D48   D(16,13,14,15)         23.4264         estimate D2E/DX2                !
 ! D49   D(12,13,16,17)        -10.5053         estimate D2E/DX2                !
 ! D50   D(12,13,16,19)        171.6076         estimate D2E/DX2                !
 ! D51   D(14,13,16,17)        170.5614         estimate D2E/DX2                !
 ! D52   D(14,13,16,19)         -7.3258         estimate D2E/DX2                !
 ! D53   D(13,16,17,10)          6.1189         estimate D2E/DX2                !
 ! D54   D(13,16,17,18)       -164.6001         estimate D2E/DX2                !
 ! D55   D(19,16,17,10)       -175.9433         estimate D2E/DX2                !
 ! D56   D(19,16,17,18)         13.3378         estimate D2E/DX2                !
 ! D57   D(5,22,23,24)           3.332          estimate D2E/DX2                !
 ! D58   D(5,22,23,25)        -173.4696         estimate D2E/DX2                !
 ! D59   D(31,22,23,24)       -178.9782         estimate D2E/DX2                !
 ! D60   D(31,22,23,25)          4.2202         estimate D2E/DX2                !
 ! D61   D(5,22,31,29)         177.281          estimate D2E/DX2                !
 ! D62   D(5,22,31,32)           8.0827         estimate D2E/DX2                !
 ! D63   D(23,22,31,29)         -0.4392         estimate D2E/DX2                !
 ! D64   D(23,22,31,32)       -169.6375         estimate D2E/DX2                !
 ! D65   D(22,23,25,26)        175.3719         estimate D2E/DX2                !
 ! D66   D(22,23,25,27)         -8.7087         estimate D2E/DX2                !
 ! D67   D(24,23,25,26)         -1.4687         estimate D2E/DX2                !
 ! D68   D(24,23,25,27)        174.4506         estimate D2E/DX2                !
 ! D69   D(23,25,27,28)       -175.0374         estimate D2E/DX2                !
 ! D70   D(23,25,27,29)          8.8521         estimate D2E/DX2                !
 ! D71   D(26,25,27,28)          1.1794         estimate D2E/DX2                !
 ! D72   D(26,25,27,29)       -174.931          estimate D2E/DX2                !
 ! D73   D(25,27,29,30)        176.5847         estimate D2E/DX2                !
 ! D74   D(25,27,29,31)         -4.6268         estimate D2E/DX2                !
 ! D75   D(28,27,29,30)          0.2816         estimate D2E/DX2                !
 ! D76   D(28,27,29,31)        179.0701         estimate D2E/DX2                !
 ! D77   D(27,29,31,22)          0.5887         estimate D2E/DX2                !
 ! D78   D(27,29,31,32)        169.6728         estimate D2E/DX2                !
 ! D79   D(30,29,31,22)        179.25           estimate D2E/DX2                !
 ! D80   D(30,29,31,32)        -11.6659         estimate D2E/DX2                !
 --------------------------------------------------------------------------------
 Trust Radius=3.00D-01 FncErr=1.00D-07 GrdErr=1.00D-06 EigMax=2.50D+02 EigMin=1.00D-04
 Number of steps in this run=    178 maximum allowed number of steps=    192.
 GradGradGradGradGradGradGradGradGradGradGradGradGradGradGradGradGradGrad

 Leave Link  103 at Sun Jul 11 15:57:28 2021, MaxMem=   104857600 cpu:               0.0 elap:               0.0
 (Enter /prod/apps/gaussian/g16b1/l202.exe)
                          Input orientation:                          
 ---------------------------------------------------------------------
 Center     Atomic      Atomic             Coordinates (Angstroms)
 Number     Number       Type             X           Y           Z
 ---------------------------------------------------------------------
      1          6           0        0.008000   -1.929000    1.619000
      2          1           0        0.801000   -2.678000    1.681000
      3          1           0       -0.945000   -2.460000    1.658000
      4          1           0        0.127000   -1.188000    2.412000
      5          6           0        0.020000   -1.134000    0.306000
      6          6           0        0.083000   -2.231000   -0.754000
      7          1           0        0.163000   -1.622000   -1.657000
      8          1           0       -0.735000   -2.952000   -0.813000
      9          1           0        0.976000   -2.858000   -0.705000
     10          6           0        1.265000   -0.237000    0.230000
     11          6           0        2.406000   -0.295000    1.074000
     12          6           0        3.600000    0.277000    0.617000
     13          6           0        3.669000    1.177000   -0.477000
     14          8           0        4.865000    1.651000   -0.777000
     15          1           0        4.675000    2.492000   -1.230000
     16          6           0        2.479000    1.464000   -1.082000
     17          6           0        1.338000    0.729000   -0.769000
     18          1           0        0.539000    0.869000   -1.493000
     19          1           0        2.407000    2.242000   -1.838000
     20          1           0        4.524000    0.049000    1.143000
     21          1           0        2.474000   -1.105000    1.796000
     22          6           0       -1.340000   -0.299000    0.165000
     23          6           0       -2.266000   -0.528000   -0.866000
     24          1           0       -2.121000   -1.327000   -1.589000
     25          6           0       -3.370000    0.353000   -0.990000
     26          1           0       -4.085000    0.282000   -1.806000
     27          6           0       -3.670000    1.310000   -0.050000
     28          8           0       -4.744000    2.066000   -0.111000
     29          6           0       -2.768000    1.542000    0.959000
     30          1           0       -3.019000    2.346000    1.646000
     31          6           0       -1.648000    0.738000    1.039000
     32          1           0       -0.863000    1.037000    1.729000
 ---------------------------------------------------------------------
                    Distance matrix (angstroms):
                    1          2          3          4          5
     1  C    0.000000
     2  H    1.092563   0.000000
     3  H    1.091646   1.759707   0.000000
     4  H    1.091829   1.791295   1.826386   0.000000
     5  C    1.534972   2.210095   2.125419   2.109408   0.000000
     6  C    2.393315   2.577704   2.631914   3.333668   1.526754
     7  H    3.294002   3.558711   3.594320   4.092238   2.027797
     8  H    2.741022   2.941838   2.528241   3.775628   2.264356
     9  H    2.683476   2.399171   3.071224   3.636673   2.215453
    10  C    2.524328   2.877356   3.444563   2.638289   1.536363
    11  C    2.952522   2.936522   4.032057   2.789540   2.643244
    12  C    4.332771   4.206961   5.406651   4.174923   3.860575
    13  C    5.238642   5.267202   6.250999   5.146388   4.389648
    14  O    6.492123   6.426360   7.522343   6.377953   5.692376
    15  H    7.031567   7.085951   8.027904   6.891362   6.097229
    16  C    4.991362   5.254143   5.884654   4.977253   3.837034
    17  C    3.812664   4.230664   4.612173   3.906427   2.522601
    18  H    4.218449   4.766983   4.818018   4.432834   2.741855
    19  H    5.924803   6.258514   6.750313   5.918260   4.657454
    20  H    4.953112   4.646149   6.039062   4.740690   4.731392
    21  H    2.606043   2.299235   3.680303   2.427911   2.871072
    22  C    2.566733   3.541437   2.656124   2.826910   1.602094
    23  C    3.648164   4.529481   3.442127   4.111853   2.639435
    24  H    3.896962   4.588702   3.634512   4.591386   2.865686
    25  C    4.839968   5.806758   4.561304   5.116375   3.922102
    26  H    5.776833   6.692814   5.420098   6.139492   4.828729
    27  C    5.177293   6.236212   4.955380   5.169009   4.440267
    28  O    6.444721   7.514241   6.168179   6.378141   5.754093
    29  C    4.493286   5.573818   4.452857   4.236170   3.919226
    30  H    5.238233   6.311434   5.234430   4.793040   4.810563
    31  C    3.192432   4.251920   3.332353   2.957234   2.612259
    32  H    3.093202   4.070924   3.498682   2.529271   2.741871
                    6          7          8          9         10
     6  C    0.000000
     7  H    1.092103   0.000000
     8  H    1.091992   1.813185   0.000000
     9  H    1.092236   1.759252   1.716980   0.000000
    10  C    2.518217   2.587160   3.529741   2.797747   0.000000
    11  C    3.533555   3.774962   4.526179   3.432013   1.420416
    12  C    4.531997   4.537648   5.591383   4.296660   2.422022
    13  C    4.954855   4.638840   6.046218   4.856486   2.877231
    14  O    6.159381   5.796183   7.249062   5.954879   4.187910
    15  H    6.604526   6.120904   7.686295   6.525391   4.605121
    16  C    4.416042   3.901010   5.468383   4.591386   2.467497
    17  C    3.215097   2.774233   4.224811   3.605788   1.391577
    18  H    3.219326   2.524550   4.084791   3.834376   2.172335
    19  H    5.155944   4.472001   6.156332   5.416775   3.424358
    20  H    5.340364   5.445233   6.363098   4.945104   3.396534
    21  H    3.672500   4.187030   4.529456   3.401766   2.160431
    22  C    2.569458   2.707217   2.891525   3.559387   2.606548
    23  C    2.903542   2.778949   2.867498   3.995671   3.708619
    24  H    2.524293   2.303976   2.272399   3.566066   3.995229
    25  C    4.319255   4.102146   4.230553   5.411050   4.829050
    26  H    4.979367   4.657566   4.761019   6.056857   5.747796
    27  C    5.207620   5.086351   5.230778   6.275872   5.179366
    28  O    6.494427   6.330095   6.461053   7.570800   6.444235
    29  C    5.029722   5.044315   5.241098   6.012190   4.467815
    30  H    6.027548   6.064648   6.271534   6.969135   5.199000
    31  C    3.876361   4.014690   4.228424   4.781017   3.176582
    32  H    4.211891   4.425828   4.731836   4.947454   2.898010
                   11         12         13         14         15
    11  C    0.000000
    12  C    1.400596   0.000000
    13  C    2.483456   1.418308   0.000000
    14  O    3.641401   2.330523   1.321019   0.000000
    15  H    4.268975   3.077866   1.818865   0.973956   0.000000
    16  C    2.783477   2.356313   1.365465   2.412673   2.429219
    17  C    2.363440   2.691086   2.391554   3.645528   3.802139
    18  H    3.380839   3.764610   3.305151   4.454038   4.450819
    19  H    3.862139   3.363257   2.139904   2.741672   2.361353
    20  H    2.146863   1.087399   2.151234   2.523705   3.409132
    21  H    1.087202   2.137251   3.435415   4.464610   5.190326
    22  C    3.854713   4.993964   5.261257   6.572054   6.776129
    23  C    5.064136   6.103873   6.187291   7.457018   7.578283
    24  H    5.352600   6.337909   6.405518   7.637540   7.803798
    25  C    6.167834   7.153260   7.105608   8.339388   8.327962
    26  H    7.124634   8.057926   7.917814   9.112382   9.052816
    27  C    6.384135   7.373254   7.352614   8.572691   8.510496
    28  O    7.622404   8.564627   8.467753   9.640989   9.494798
    29  C    5.491636   6.501432   6.605323   7.828682   7.816167
    30  H    6.060750   7.010761   7.113581   8.277162   8.215250
    31  C    4.183686   5.285084   5.546302   6.822800   6.942997
    32  H    3.590210   4.661814   5.042327   6.282278   6.445320
                   16         17         18         19         20
    16  C    0.000000
    17  C    1.392866   0.000000
    18  H    2.070398   1.087280   0.000000
    19  H    1.087200   2.138853   2.343838   0.000000
    20  H    3.336896   3.777399   4.847795   4.263484   0.000000
    21  H    3.857806   3.351608   4.296327   4.940937   2.441439
    22  C    4.387247   3.016757   2.764748   4.950626   5.955173
    23  C    5.150703   3.818151   3.195741   5.518570   7.104443
    24  H    5.404325   4.106607   3.450686   5.770836   7.315273
    25  C    5.954291   4.728158   3.974864   6.136868   8.182747
    26  H    6.708755   5.539324   4.671607   6.781496   9.103064
    27  C    6.236902   5.092601   4.471287   6.402773   8.375859
    28  O    7.312795   6.261889   5.590422   7.358689   9.567478
    29  C    5.630522   4.528376   4.171508   5.924005   7.445547
    30  H    6.200638   5.237400   4.969327   6.449073   7.901017
    31  C    4.696578   3.490722   3.348306   5.194436   6.211209
    32  H    4.387826   3.343541   3.517828   4.986824   5.508113
                   21         22         23         24         25
    21  H    0.000000
    22  C    4.225683   0.000000
    23  C    5.466880   1.404592   0.000000
    24  H    5.711526   2.177903   1.087270   0.000000
    25  C    6.636256   2.424877   1.417869   2.177430   0.000000
    26  H    7.610431   3.428910   2.201922   2.548189   1.087254
    27  C    6.854829   2.839719   2.452614   3.423696   1.374572
    28  O    8.111191   4.154108   3.665971   4.536195   2.365351
    29  C    5.931757   2.461483   2.804912   3.891282   2.361086
    30  H    6.488833   3.465318   3.890633   4.976199   3.323213
    31  C    4.578273   1.390722   2.369326   3.375550   2.688931
    32  H    3.965882   2.111521   3.339410   4.263823   3.761099
                   26         27         28         29         30
    26  H    0.000000
    27  C    2.076667   0.000000
    28  O    2.547540   1.314813   0.000000
    29  C    3.311694   1.373138   2.307391   0.000000
    30  H    4.160860   2.091295   2.478119   1.086916   0.000000
    31  C    3.773716   2.366768   3.559677   1.381020   2.198580
    32  H    4.842265   3.334459   4.416628   2.115880   2.523630
                   31         32
    31  C    0.000000
    32  H    1.087072   0.000000
 Stoichiometry    C15H15O2(1-)
 Framework group  C1[X(C15H15O2)]
 Deg. of freedom    90
 Full point group                 C1      NOp   1
 Largest Abelian subgroup         C1      NOp   1
 Largest concise Abelian subgroup C1      NOp   1
                         Standard orientation:                         
 ---------------------------------------------------------------------
 Center     Atomic      Atomic             Coordinates (Angstroms)
 Number     Number       Type             X           Y           Z
 ---------------------------------------------------------------------
      1          6           0       -0.028179    2.520528   -0.976797
      2          1           0        0.777004    3.249231   -0.856932
      3          1           0       -0.971756    3.053579   -0.845618
      4          1           0        0.058565    2.018890   -1.942678
      5          6           0       -0.000575    1.401468    0.073480
      6          6           0        0.107430    2.171973    1.387115
      7          1           0        0.196968    1.341564    2.090743
      8          1           0       -0.695391    2.860051    1.660011
      9          1           0        1.010594    2.778513    1.483983
     10          6           0        1.228904    0.502560   -0.128396
     11          6           0        2.350916    0.772131   -0.956648
     12          6           0        3.544312    0.084294   -0.702966
     13          6           0        3.621854   -1.077627    0.106679
     14          8           0        4.815438   -1.628864    0.235472
     15          1           0        4.620337   -2.558449    0.450871
     16          6           0        2.441053   -1.502852    0.644624
     17          6           0        1.307011   -0.697407    0.571937
     18          1           0        0.522537   -1.017671    1.253265
     19          1           0        2.372098   -2.454679    1.165464
     20          1           0        4.459962    0.434563   -1.173425
     21          1           0        2.417257    1.745674   -1.436044
     22          6           0       -1.372280    0.575338    0.022077
     23          6           0       -2.269698    0.529322    1.101614
     24          1           0       -2.093099    1.102555    2.008461
     25          6           0       -3.386768   -0.339538    1.014483
     26          1           0       -4.081211   -0.482339    1.838788
     27          6           0       -3.726276   -1.004724   -0.139515
     28          8           0       -4.812487   -1.736603   -0.254540
     29          6           0       -2.852392   -0.967236   -1.198019
     30          1           0       -3.134203   -1.553727   -2.068649
     31          6           0       -1.719746   -0.184558   -1.089649
     32          1           0       -0.956666   -0.296056   -1.855810
 ---------------------------------------------------------------------
 Rotational constants (GHZ):           0.9073490           0.2534222           0.2260633
 Leave Link  202 at Sun Jul 11 15:57:28 2021, MaxMem=   104857600 cpu:               0.1 elap:               0.0
 (Enter /prod/apps/gaussian/g16b1/l301.exe)
 Standard basis: 6-31G(d) (6D, 7F)
 Ernie: Thresh=  0.10000D-02 Tol=  0.10000D-05 Strict=F.
 There are   285 symmetry adapted cartesian basis functions of A   symmetry.
 There are   285 symmetry adapted basis functions of A   symmetry.
   285 basis functions,   536 primitive gaussians,   285 cartesian basis functions
    61 alpha electrons       61 beta electrons
       nuclear repulsion energy      1128.9233336429 Hartrees.
 IExCor=  402 DFT=T Ex+Corr=B3LYP ExCW=0 ScaHFX=  0.200000
 ScaDFX=  0.800000  0.720000  1.000000  0.810000 ScalE2=  1.000000  1.000000
 IRadAn=      5 IRanWt=     -1 IRanGd=            0 ICorTp=0 IEmpDi=  4
 NAtoms=   32 NActive=   32 NUniq=   32 SFac= 1.00D+00 NAtFMM=   60 NAOKFM=F Big=F
 Integral buffers will be    131072 words long.
 Raffenetti 2 integral format.
 Two-electron integral symmetry is turned on.
 Using the following non-standard input for PCM:
 MSTModel=DFT cav MSTCharged
 --- end of non-standard input.
 MST model for solvation energy: B3LYP parametrization.
 MST cavity parameters:
 ISph   IAn     Re0     Alpha   Atom Type   QCorr
 ------------------------------------------------
   1      6     1.50     1.25      CH3        F
   2      1     1.20     1.25      CH3        F
   3      1     1.20     1.25      CH3        F
   4      1     1.20     1.25      CH3        F
   5      6     1.50     1.25      C          F
   6      6     1.50     1.25      CH3        F
   7      1     1.20     1.25      CH3        F
   8      1     1.20     1.25      CH3        F
   9      1     1.20     1.25      CH3        F
  10      6     1.50     1.25      C          F
  11      6     1.50     1.25      CH         F
  12      6     1.50     1.25      CH         F
  13      6     1.50     1.25      C          F
  14      8     1.45     1.25      OH         F
  15      1     0.90     1.25      OH         F
  16      6     1.50     1.25      CH         F
  17      6     1.50     1.25      CH         F
  18      1     1.20     1.25      CH         F
  19      1     1.20     1.25      CH         F
  20      1     1.20     1.25      CH         F
  21      1     1.20     1.25      CH         F
  22      6     1.50     1.25      C          F
  23      6     1.50     1.25      CH         F
  24      1     1.20     1.25      CH         F
  25      6     1.50     1.25      CH         F
  26      1     1.20     1.25      CH         F
  27      6     1.50     1.25      C          F
  28      8     1.40     1.15      O          T
  29      6     1.50     1.25      CH         F
  30      1     1.20     1.25      CH         F
  31      6     1.50     1.25      CH         F
  32      1     1.20     1.25      CH         F
 ------------------------------------------------------------------------------
 Polarizable Continuum Model (PCM)
 =================================
 Model                : PCM.
 Atomic radii         : MST.
 Polarization charges : Total charges.
 Charge compensation  : None.
 Solution method      : On-the-fly selection.
 Cavity type          : Scaled VdW (van der Waals Surface) (Alpha=1.250).
 Cavity algorithm     : GePol (No added spheres)
                        Default sphere list used, NSphG=   32.
                        Lebedev-Laikov grids with approx.  5.0 points / Ang**2.
                        Smoothing algorithm: York/Karplus (Gamma=1.0000).
                        Polarization charges: spherical gaussians, with
                                              point-specific exponents (IZeta= 3).
                        Self-potential: point-specific (ISelfS= 7).
                        Self-field    : sphere-specific E.n sum rule (ISelfD= 2).
 1st derivatives      : Analytical E(r).r(x)/FMM algorithm (CHGder, D1EAlg=3).
                        Cavity 1st derivative terms included.
 Solvent              : Water, Eps=  78.355300 Eps(inf)=   1.777849
 ------------------------------------------------------------------------------
 GePol: Number of generator spheres                  =      32
 GePol: Total number of spheres                      =      32
 GePol: Number of exposed spheres                    =      32 (100.00%)
 GePol: Number of points                             =    2283
 GePol: Average weight of points                     =       0.13
 GePol: Minimum weight of points                     =   0.13D-11
 GePol: Maximum weight of points                     =    0.21416
 GePol: Number of points with low weight             =     158
 GePol: Fraction of low-weight points (<1% of avg)   =       6.92%
 GePol: Cavity surface area                          =    293.069 Ang**2
 GePol: Cavity volume                                =    283.057 Ang**3
 PCM non-electrostatic energy =         0.0020760778 Hartrees.
 Nuclear repulsion after PCM non-electrostatic terms =     1128.9254097207 Hartrees.
 Leave Link  301 at Sun Jul 11 15:57:28 2021, MaxMem=   104857600 cpu:               0.3 elap:               0.1
 (Enter /prod/apps/gaussian/g16b1/l302.exe)
 NPDir=0 NMtPBC=     1 NCelOv=     1 NCel=       1 NClECP=     1 NCelD=      1
         NCelK=      1 NCelE2=     1 NClLst=     1 CellRange=     0.0.
 One-electron integrals computed using PRISM.
 One-electron integral symmetry used in STVInt
 NBasis=   285 RedAO= T EigKep=  4.85D-04  NBF=   285
 NBsUse=   285 1.00D-06 EigRej= -1.00D+00 NBFU=   285
 Precomputing XC quadrature grid using
 IXCGrd= 4 IRadAn=           5 IRanWt=          -1 IRanGd=           0 AccXCQ= 0.00D+00.
 Generated NRdTot=       0 NPtTot=           0 NUsed=           0 NTot=          32
 NSgBfM=   283   283   283   283   283 MxSgAt=    32 MxSgA2=    32.
 Leave Link  302 at Sun Jul 11 15:57:28 2021, MaxMem=   104857600 cpu:               1.4 elap:               0.4
 (Enter /prod/apps/gaussian/g16b1/l303.exe)
 DipDrv:  MaxL=1.
 Leave Link  303 at Sun Jul 11 15:57:29 2021, MaxMem=   104857600 cpu:               0.1 elap:               0.1
 (Enter /prod/apps/gaussian/g16b1/l401.exe)
 ExpMin= 1.61D-01 ExpMax= 5.48D+03 ExpMxC= 8.25D+02 IAcc=3 IRadAn=         5 AccDes= 0.00D+00
 Harris functional with IExCor=  402 and IRadAn=       5 diagonalized for initial guess.
 HarFok:  IExCor=  402 AccDes= 0.00D+00 IRadAn=         5 IDoV= 1 UseB2=F ITyADJ=14
 ICtDFT=  3500011 ScaDFX=  1.000000  1.000000  1.000000  1.000000
 FoFCou: FMM=F IPFlag=           0 FMFlag=      100000 FMFlg1=           0
         NFxFlg=           0 DoJE=T BraDBF=F KetDBF=T FulRan=T
         wScrn=  0.000000 ICntrl=       500 IOpCl=  0 I1Cent=   200000004 NGrid=           0
         NMat0=    1 NMatS0=      1 NMatT0=    0 NMatD0=    1 NMtDS0=    0 NMtDT0=    0
 Petite list used in FoFCou.
 Harris En= -731.311014955232    
 JPrj=0 DoOrth=F DoCkMO=F.
 Leave Link  401 at Sun Jul 11 15:57:30 2021, MaxMem=   104857600 cpu:               7.6 elap:               1.9
 (Enter /prod/apps/gaussian/g16b1/l502.exe)
 Integral symmetry usage will be decided dynamically.
 Closed shell SCF:
 Using DIIS extrapolation, IDIIS=  1040.
 NGot=   104857600 LenX=   104690189 LenY=   104608523
 Requested convergence on RMS density matrix=1.00D-08 within 128 cycles.
 Requested convergence on MAX density matrix=1.00D-06.
 Requested convergence on             energy=1.00D-06.
 No special actions if energy rises.
 Fock matrices will be formed incrementally for  20 cycles.

 Cycle   1  Pass 1  IDiag  1:
 FoFJK:  IHMeth= 1 ICntrl=       0 DoSepK=F KAlg= 0 I1Cent=           0 FoldK=F
 IRaf= 840000000 NMat=       1 IRICut=       1 DoRegI=T DoRafI=F ISym2E= 0 IDoP0=0 IntGTp=1.
 FoFCou: FMM=F IPFlag=           0 FMFlag=      100000 FMFlg1=           0
         NFxFlg=           0 DoJE=F BraDBF=F KetDBF=F FulRan=T
         wScrn=  0.000000 ICntrl=         0 IOpCl=  0 I1Cent=           0 NGrid=           0
         NMat0=    1 NMatS0=      1 NMatT0=    0 NMatD0=    1 NMtDS0=    0 NMtDT0=    0
 Symmetry not used in FoFCou.
 Inv3:  Mode=1 IEnd=    15636267.
 Iteration    1 A*A^-1 deviation from unit magnitude is 3.11D-15 for    998.
 Iteration    1 A*A^-1 deviation from orthogonality  is 2.78D-15 for   2021   1681.
 Iteration    1 A^-1*A deviation from unit magnitude is 3.33D-15 for    217.
 Iteration    1 A^-1*A deviation from orthogonality  is 1.67D-14 for   1693   1691.
 E= -730.645806134664    
 DIIS: error= 3.47D-02 at cycle   1 NSaved=   1.
 NSaved= 1 IEnMin= 1 EnMin= -730.645806134664     IErMin= 1 ErrMin= 3.47D-02
 ErrMax= 3.47D-02  0.00D+00 EMaxC= 1.00D-01 BMatC= 4.99D-01 BMatP= 4.99D-01
 IDIUse=3 WtCom= 6.53D-01 WtEn= 3.47D-01
 Coeff-Com:  0.100D+01
 Coeff-En:   0.100D+01
 Coeff:      0.100D+01
 Gap=     0.135 Goal=   None    Shift=    0.000
 GapD=    0.135 DampG=1.000 DampE=0.500 DampFc=0.5000 IDamp=-1.
 Damping current iteration by 5.00D-01
 RMSDP=6.25D-03 MaxDP=1.92D-01              OVMax= 2.42D-01

 Cycle   2  Pass 1  IDiag  1:
 RMSU=  3.09D-03    CP:  9.79D-01
 E= -730.883831940203     Delta-E=       -0.238025805540 Rises=F Damp=T
 DIIS: error= 9.65D-03 at cycle   2 NSaved=   2.
 NSaved= 2 IEnMin= 2 EnMin= -730.883831940203     IErMin= 2 ErrMin= 9.65D-03
 ErrMax= 9.65D-03  0.00D+00 EMaxC= 1.00D-01 BMatC= 2.47D-02 BMatP= 4.99D-01
 IDIUse=3 WtCom= 9.04D-01 WtEn= 9.65D-02
 Coeff-Com:  0.380D-01 0.962D+00
 Coeff-En:   0.248D-01 0.975D+00
 Coeff:      0.367D-01 0.963D+00
 Gap=     0.208 Goal=   None    Shift=    0.000
 RMSDP=1.48D-03 MaxDP=6.60D-02 DE=-2.38D-01 OVMax= 1.57D-01

 Cycle   3  Pass 1  IDiag  1:
 RMSU=  1.35D-03    CP:  9.69D-01  8.20D-01
 E= -731.131533604093     Delta-E=       -0.247701663890 Rises=F Damp=F
 DIIS: error= 1.02D-02 at cycle   3 NSaved=   3.
 NSaved= 3 IEnMin= 3 EnMin= -731.131533604093     IErMin= 2 ErrMin= 9.65D-03
 ErrMax= 1.02D-02  0.00D+00 EMaxC= 1.00D-01 BMatC= 2.22D-02 BMatP= 2.47D-02
 IDIUse=3 WtCom= 8.98D-01 WtEn= 1.02D-01
 Coeff-Com: -0.204D-01 0.489D+00 0.532D+00
 Coeff-En:   0.000D+00 0.000D+00 0.100D+01
 Coeff:     -0.183D-01 0.439D+00 0.580D+00
 Gap=     0.152 Goal=   None    Shift=    0.000
 RMSDP=8.98D-04 MaxDP=4.41D-02 DE=-2.48D-01 OVMax= 8.12D-02

 Cycle   4  Pass 1  IDiag  1:
 RMSU=  6.48D-04    CP:  9.72D-01  9.10D-01  5.92D-01
 E= -731.144361736801     Delta-E=       -0.012828132707 Rises=F Damp=F
 DIIS: error= 5.73D-03 at cycle   4 NSaved=   4.
 NSaved= 4 IEnMin= 4 EnMin= -731.144361736801     IErMin= 4 ErrMin= 5.73D-03
 ErrMax= 5.73D-03  0.00D+00 EMaxC= 1.00D-01 BMatC= 6.46D-03 BMatP= 2.22D-02
 IDIUse=3 WtCom= 9.43D-01 WtEn= 5.73D-02
 Coeff-Com: -0.105D-01 0.743D-01 0.360D+00 0.576D+00
 Coeff-En:   0.000D+00 0.000D+00 0.259D+00 0.741D+00
 Coeff:     -0.989D-02 0.700D-01 0.354D+00 0.586D+00
 Gap=     0.153 Goal=   None    Shift=    0.000
 RMSDP=3.70D-04 MaxDP=1.66D-02 DE=-1.28D-02 OVMax= 3.14D-02

 Cycle   5  Pass 1  IDiag  1:
 RMSU=  1.16D-04    CP:  9.71D-01  8.75D-01  7.40D-01  5.89D-01
 E= -731.149546130136     Delta-E=       -0.005184393335 Rises=F Damp=F
 DIIS: error= 6.09D-04 at cycle   5 NSaved=   5.
 NSaved= 5 IEnMin= 5 EnMin= -731.149546130136     IErMin= 5 ErrMin= 6.09D-04
 ErrMax= 6.09D-04  0.00D+00 EMaxC= 1.00D-01 BMatC= 1.66D-04 BMatP= 6.46D-03
 IDIUse=3 WtCom= 9.94D-01 WtEn= 6.09D-03
 Coeff-Com: -0.364D-02 0.121D-01 0.138D+00 0.278D+00 0.576D+00
 Coeff-En:   0.000D+00 0.000D+00 0.000D+00 0.000D+00 0.100D+01
 Coeff:     -0.362D-02 0.120D-01 0.137D+00 0.276D+00 0.578D+00
 Gap=     0.152 Goal=   None    Shift=    0.000
 RMSDP=5.39D-05 MaxDP=2.21D-03 DE=-5.18D-03 OVMax= 3.50D-03

 Cycle   6  Pass 1  IDiag  1:
 RMSU=  3.44D-05    CP:  9.71D-01  8.80D-01  7.34D-01  6.16D-01  7.13D-01
 E= -731.149682616408     Delta-E=       -0.000136486272 Rises=F Damp=F
 DIIS: error= 1.61D-04 at cycle   6 NSaved=   6.
 NSaved= 6 IEnMin= 6 EnMin= -731.149682616408     IErMin= 6 ErrMin= 1.61D-04
 ErrMax= 1.61D-04  0.00D+00 EMaxC= 1.00D-01 BMatC= 1.19D-05 BMatP= 1.66D-04
 IDIUse=3 WtCom= 9.98D-01 WtEn= 1.61D-03
 Coeff-Com: -0.102D-02 0.652D-03 0.366D-01 0.860D-01 0.278D+00 0.599D+00
 Coeff-En:   0.000D+00 0.000D+00 0.000D+00 0.000D+00 0.000D+00 0.100D+01
 Coeff:     -0.102D-02 0.651D-03 0.365D-01 0.859D-01 0.278D+00 0.600D+00
 Gap=     0.152 Goal=   None    Shift=    0.000
 RMSDP=1.44D-05 MaxDP=5.97D-04 DE=-1.36D-04 OVMax= 1.03D-03

 Cycle   7  Pass 1  IDiag  1:
 RMSU=  8.30D-06    CP:  9.71D-01  8.79D-01  7.35D-01  6.21D-01  7.31D-01
                    CP:  6.86D-01
 E= -731.149692898597     Delta-E=       -0.000010282189 Rises=F Damp=F
 DIIS: error= 3.92D-05 at cycle   7 NSaved=   7.
 NSaved= 7 IEnMin= 7 EnMin= -731.149692898597     IErMin= 7 ErrMin= 3.92D-05
 ErrMax= 3.92D-05  0.00D+00 EMaxC= 1.00D-01 BMatC= 8.10D-07 BMatP= 1.19D-05
 IDIUse=1 WtCom= 1.00D+00 WtEn= 0.00D+00
 Coeff-Com: -0.371D-03-0.105D-03 0.120D-01 0.307D-01 0.115D+00 0.305D+00
 Coeff-Com:  0.538D+00
 Coeff:     -0.371D-03-0.105D-03 0.120D-01 0.307D-01 0.115D+00 0.305D+00
 Coeff:      0.538D+00
 Gap=     0.152 Goal=   None    Shift=    0.000
 RMSDP=4.80D-06 MaxDP=1.25D-04 DE=-1.03D-05 OVMax= 4.06D-04

 Cycle   8  Pass 1  IDiag  1:
 RMSU=  2.80D-06    CP:  9.71D-01  8.79D-01  7.35D-01  6.23D-01  7.32D-01
                    CP:  6.97D-01  5.59D-01
 E= -731.149693604533     Delta-E=       -0.000000705937 Rises=F Damp=F
 DIIS: error= 1.43D-05 at cycle   8 NSaved=   8.
 NSaved= 8 IEnMin= 8 EnMin= -731.149693604533     IErMin= 8 ErrMin= 1.43D-05
 ErrMax= 1.43D-05  0.00D+00 EMaxC= 1.00D-01 BMatC= 1.13D-07 BMatP= 8.10D-07
 IDIUse=1 WtCom= 1.00D+00 WtEn= 0.00D+00
 Coeff-Com: -0.367D-04-0.208D-03 0.501D-03 0.268D-02 0.173D-01 0.661D-01
 Coeff-Com:  0.296D+00 0.618D+00
 Coeff:     -0.367D-04-0.208D-03 0.501D-03 0.268D-02 0.173D-01 0.661D-01
 Coeff:      0.296D+00 0.618D+00
 Gap=     0.152 Goal=   None    Shift=    0.000
 RMSDP=1.49D-06 MaxDP=5.62D-05 DE=-7.06D-07 OVMax= 1.33D-04

 Cycle   9  Pass 1  IDiag  1:
 RMSU=  7.17D-07    CP:  9.71D-01  8.79D-01  7.35D-01  6.22D-01  7.35D-01
                    CP:  7.04D-01  6.63D-01  7.00D-01
 E= -731.149693718026     Delta-E=       -0.000000113493 Rises=F Damp=F
 DIIS: error= 3.07D-06 at cycle   9 NSaved=   9.
 NSaved= 9 IEnMin= 9 EnMin= -731.149693718026     IErMin= 9 ErrMin= 3.07D-06
 ErrMax= 3.07D-06  0.00D+00 EMaxC= 1.00D-01 BMatC= 7.94D-09 BMatP= 1.13D-07
 IDIUse=1 WtCom= 1.00D+00 WtEn= 0.00D+00
 Coeff-Com:  0.484D-06-0.875D-04-0.490D-03-0.565D-03 0.184D-02 0.152D-01
 Coeff-Com:  0.120D+00 0.313D+00 0.552D+00
 Coeff:      0.484D-06-0.875D-04-0.490D-03-0.565D-03 0.184D-02 0.152D-01
 Coeff:      0.120D+00 0.313D+00 0.552D+00
 Gap=     0.152 Goal=   None    Shift=    0.000
 RMSDP=3.98D-07 MaxDP=1.39D-05 DE=-1.13D-07 OVMax= 3.07D-05

 Cycle  10  Pass 1  IDiag  1:
 RMSU=  2.70D-07    CP:  9.71D-01  8.79D-01  7.35D-01  6.22D-01  7.35D-01
                    CP:  7.05D-01  6.54D-01  7.51D-01  6.80D-01
 E= -731.149693724750     Delta-E=       -0.000000006724 Rises=F Damp=F
 DIIS: error= 1.22D-06 at cycle  10 NSaved=  10.
 NSaved=10 IEnMin=10 EnMin= -731.149693724750     IErMin=10 ErrMin= 1.22D-06
 ErrMax= 1.22D-06  0.00D+00 EMaxC= 1.00D-01 BMatC= 9.04D-10 BMatP= 7.94D-09
 IDIUse=1 WtCom= 1.00D+00 WtEn= 0.00D+00
 Coeff-Com:  0.430D-05-0.136D-04-0.307D-03-0.640D-03-0.131D-02-0.120D-02
 Coeff-Com:  0.214D-01 0.742D-01 0.289D+00 0.619D+00
 Coeff:      0.430D-05-0.136D-04-0.307D-03-0.640D-03-0.131D-02-0.120D-02
 Coeff:      0.214D-01 0.742D-01 0.289D+00 0.619D+00
 Gap=     0.152 Goal=   None    Shift=    0.000
 RMSDP=1.48D-07 MaxDP=4.17D-06 DE=-6.72D-09 OVMax= 1.22D-05

 Cycle  11  Pass 1  IDiag  1:
 RMSU=  6.87D-08    CP:  9.71D-01  8.79D-01  7.35D-01  6.22D-01  7.35D-01
                    CP:  7.05D-01  6.62D-01  7.49D-01  7.50D-01  6.51D-01
 E= -731.149693725627     Delta-E=       -0.000000000876 Rises=F Damp=F
 DIIS: error= 2.50D-07 at cycle  11 NSaved=  11.
 NSaved=11 IEnMin=11 EnMin= -731.149693725627     IErMin=11 ErrMin= 2.50D-07
 ErrMax= 2.50D-07  0.00D+00 EMaxC= 1.00D-01 BMatC= 6.20D-11 BMatP= 9.04D-10
 IDIUse=1 WtCom= 1.00D+00 WtEn= 0.00D+00
 Coeff-Com:  0.202D-05-0.215D-05-0.140D-03-0.316D-03-0.780D-03-0.137D-02
 Coeff-Com:  0.561D-02 0.241D-01 0.124D+00 0.326D+00 0.524D+00
 Coeff:      0.202D-05-0.215D-05-0.140D-03-0.316D-03-0.780D-03-0.137D-02
 Coeff:      0.561D-02 0.241D-01 0.124D+00 0.326D+00 0.524D+00
 Gap=     0.152 Goal=   None    Shift=    0.000
 RMSDP=3.50D-08 MaxDP=1.18D-06 DE=-8.76D-10 OVMax= 2.65D-06

 Cycle  12  Pass 1  IDiag  1:
 RMSU=  2.38D-08    CP:  9.71D-01  8.79D-01  7.35D-01  6.22D-01  7.35D-01
                    CP:  7.05D-01  6.62D-01  7.50D-01  7.48D-01  6.99D-01
                    CP:  6.94D-01
 E= -731.149693725690     Delta-E=       -0.000000000064 Rises=F Damp=F
 DIIS: error= 8.76D-08 at cycle  12 NSaved=  12.
 NSaved=12 IEnMin=12 EnMin= -731.149693725690     IErMin=12 ErrMin= 8.76D-08
 ErrMax= 8.76D-08  0.00D+00 EMaxC= 1.00D-01 BMatC= 4.84D-12 BMatP= 6.20D-11
 IDIUse=1 WtCom= 1.00D+00 WtEn= 0.00D+00
 Coeff-Com:  0.271D-07 0.153D-05-0.748D-05-0.266D-04-0.118D-03-0.433D-03
 Coeff-Com: -0.165D-02-0.319D-02 0.181D-02 0.368D-01 0.230D+00 0.737D+00
 Coeff:      0.271D-07 0.153D-05-0.748D-05-0.266D-04-0.118D-03-0.433D-03
 Coeff:     -0.165D-02-0.319D-02 0.181D-02 0.368D-01 0.230D+00 0.737D+00
 Gap=     0.152 Goal=   None    Shift=    0.000
 RMSDP=1.06D-08 MaxDP=3.31D-07 DE=-6.39D-11 OVMax= 1.07D-06

 Cycle  13  Pass 1  IDiag  1:
 RMSU=  7.00D-09    CP:  9.71D-01  8.79D-01  7.35D-01  6.22D-01  7.35D-01
                    CP:  7.05D-01  6.62D-01  7.51D-01  7.51D-01  7.03D-01
                    CP:  7.67D-01  8.15D-01
 E= -731.149693725693     Delta-E=       -0.000000000003 Rises=F Damp=F
 DIIS: error= 2.77D-08 at cycle  13 NSaved=  13.
 NSaved=13 IEnMin=13 EnMin= -731.149693725693     IErMin=13 ErrMin= 2.77D-08
 ErrMax= 2.77D-08  0.00D+00 EMaxC= 1.00D-01 BMatC= 5.77D-13 BMatP= 4.84D-12
 IDIUse=1 WtCom= 1.00D+00 WtEn= 0.00D+00
 Coeff-Com: -0.931D-07 0.847D-06 0.301D-05 0.257D-05-0.167D-04-0.132D-03
 Coeff-Com: -0.995D-03-0.248D-02-0.468D-02 0.350D-02 0.848D-01 0.373D+00
 Coeff-Com:  0.547D+00
 Coeff:     -0.931D-07 0.847D-06 0.301D-05 0.257D-05-0.167D-04-0.132D-03
 Coeff:     -0.995D-03-0.248D-02-0.468D-02 0.350D-02 0.848D-01 0.373D+00
 Coeff:      0.547D+00
 Gap=     0.152 Goal=   None    Shift=    0.000
 RMSDP=3.71D-09 MaxDP=1.49D-07 DE=-2.50D-12 OVMax= 2.94D-07

 Error on total polarization charges =  0.02246
 SCF Done:  E(RB3LYP) =  -731.149693726     A.U. after   13 cycles
            NFock= 13  Conv=0.37D-08     -V/T= 2.0088
 KE= 7.247991918448D+02 PE=-3.975143809016D+03 EE= 1.390269513725D+03
 Leave Link  502 at Sun Jul 11 15:58:28 2021, MaxMem=   104857600 cpu:             228.7 elap:              57.2
 (Enter /prod/apps/gaussian/g16b1/l601.exe)
 Copying SCF densities to generalized density rwf, IOpCl= 0 IROHF=0.

 **********************************************************************

            Population analysis using the SCF Density.

 **********************************************************************

 Orbital symmetries:
       Occupied  (A) (A) (A) (A) (A) (A) (A) (A) (A) (A) (A) (A)
                 (A) (A) (A) (A) (A) (A) (A) (A) (A) (A) (A) (A)
                 (A) (A) (A) (A) (A) (A) (A) (A) (A) (A) (A) (A)
                 (A) (A) (A) (A) (A) (A) (A) (A) (A) (A) (A) (A)
                 (A) (A) (A) (A) (A) (A) (A) (A) (A) (A) (A) (A)
                 (A)
       Virtual   (A) (A) (A) (A) (A) (A) (A) (A) (A) (A) (A) (A)
                 (A) (A) (A) (A) (A) (A) (A) (A) (A) (A) (A) (A)
                 (A) (A) (A) (A) (A) (A) (A) (A) (A) (A) (A) (A)
                 (A) (A) (A) (A) (A) (A) (A) (A) (A) (A) (A) (A)
                 (A) (A) (A) (A) (A) (A) (A) (A) (A) (A) (A) (A)
                 (A) (A) (A) (A) (A) (A) (A) (A) (A) (A) (A) (A)
                 (A) (A) (A) (A) (A) (A) (A) (A) (A) (A) (A) (A)
                 (A) (A) (A) (A) (A) (A) (A) (A) (A) (A) (A) (A)
                 (A) (A) (A) (A) (A) (A) (A) (A) (A) (A) (A) (A)
                 (A) (A) (A) (A) (A) (A) (A) (A) (A) (A) (A) (A)
                 (A) (A) (A) (A) (A) (A) (A) (A) (A) (A) (A) (A)
                 (A) (A) (A) (A) (A) (A) (A) (A) (A) (A) (A) (A)
                 (A) (A) (A) (A) (A) (A) (A) (A) (A) (A) (A) (A)
                 (A) (A) (A) (A) (A) (A) (A) (A) (A) (A) (A) (A)
                 (A) (A) (A) (A) (A) (A) (A) (A) (A) (A) (A) (A)
                 (A) (A) (A) (A) (A) (A) (A) (A) (A) (A) (A) (A)
                 (A) (A) (A) (A) (A) (A) (A) (A) (A) (A) (A) (A)
                 (A) (A) (A) (A) (A) (A) (A) (A) (A) (A) (A) (A)
                 (A) (A) (A) (A) (A) (A) (A) (A)
 The electronic state is 1-A.
 Alpha  occ. eigenvalues --  -19.17582 -19.03083 -10.24046 -10.19810 -10.18653
 Alpha  occ. eigenvalues --  -10.18541 -10.18329 -10.18071 -10.17920 -10.17863
 Alpha  occ. eigenvalues --  -10.16857 -10.16419 -10.16310 -10.16193 -10.16089
 Alpha  occ. eigenvalues --  -10.14331 -10.14215  -1.07328  -0.91747  -0.85280
 Alpha  occ. eigenvalues --   -0.82176  -0.78835  -0.74013  -0.72257  -0.71380
 Alpha  occ. eigenvalues --   -0.68602  -0.67524  -0.62275  -0.59924  -0.58197
 Alpha  occ. eigenvalues --   -0.56642  -0.53916  -0.53308  -0.48203  -0.47214
 Alpha  occ. eigenvalues --   -0.45003  -0.44042  -0.43303  -0.42490  -0.42083
 Alpha  occ. eigenvalues --   -0.41012  -0.40739  -0.39842  -0.39267  -0.38550
 Alpha  occ. eigenvalues --   -0.38152  -0.36774  -0.35716  -0.34176  -0.33264
 Alpha  occ. eigenvalues --   -0.33110  -0.32579  -0.31750  -0.30122  -0.29202
 Alpha  occ. eigenvalues --   -0.27232  -0.24603  -0.22628  -0.21243  -0.18524
 Alpha  occ. eigenvalues --   -0.15617
 Alpha virt. eigenvalues --   -0.00435   0.01320   0.02106   0.05521   0.10044
 Alpha virt. eigenvalues --    0.10167   0.11901   0.13245   0.14175   0.14212
 Alpha virt. eigenvalues --    0.14933   0.16506   0.17004   0.17519   0.18170
 Alpha virt. eigenvalues --    0.19182   0.19593   0.20596   0.21780   0.22217
 Alpha virt. eigenvalues --    0.23465   0.24288   0.24872   0.26136   0.27301
 Alpha virt. eigenvalues --    0.28146   0.30078   0.31854   0.32250   0.34927
 Alpha virt. eigenvalues --    0.35991   0.37517   0.38577   0.38959   0.41463
 Alpha virt. eigenvalues --    0.48681   0.50490   0.51081   0.51827   0.52677
 Alpha virt. eigenvalues --    0.52739   0.54169   0.54525   0.55590   0.56817
 Alpha virt. eigenvalues --    0.58119   0.58299   0.59479   0.60431   0.61286
 Alpha virt. eigenvalues --    0.62095   0.62361   0.62911   0.63358   0.63896
 Alpha virt. eigenvalues --    0.64191   0.64897   0.66273   0.67174   0.67959
 Alpha virt. eigenvalues --    0.68619   0.69811   0.70875   0.72161   0.75327
 Alpha virt. eigenvalues --    0.75762   0.76421   0.77021   0.78554   0.78941
 Alpha virt. eigenvalues --    0.80390   0.81770   0.83288   0.84967   0.85324
 Alpha virt. eigenvalues --    0.86191   0.87317   0.87669   0.88231   0.89202
 Alpha virt. eigenvalues --    0.90294   0.91099   0.92683   0.93125   0.93327
 Alpha virt. eigenvalues --    0.95367   0.95698   0.96389   0.97209   0.97571
 Alpha virt. eigenvalues --    0.99125   0.99628   1.01334   1.02793   1.03700
 Alpha virt. eigenvalues --    1.04264   1.05500   1.06689   1.07084   1.08923
 Alpha virt. eigenvalues --    1.11495   1.12894   1.13937   1.15865   1.16912
 Alpha virt. eigenvalues --    1.18403   1.21153   1.22918   1.23944   1.25840
 Alpha virt. eigenvalues --    1.27834   1.29177   1.32141   1.33783   1.34912
 Alpha virt. eigenvalues --    1.38987   1.40334   1.41613   1.43179   1.45028
 Alpha virt. eigenvalues --    1.46686   1.47815   1.49688   1.53347   1.54378
 Alpha virt. eigenvalues --    1.57238   1.57968   1.62327   1.65020   1.67264
 Alpha virt. eigenvalues --    1.68787   1.70828   1.72833   1.74470   1.77751
 Alpha virt. eigenvalues --    1.80286   1.80936   1.83098   1.84760   1.85433
 Alpha virt. eigenvalues --    1.87015   1.88151   1.88972   1.91138   1.92064
 Alpha virt. eigenvalues --    1.93416   1.95878   1.97107   1.98072   1.98559
 Alpha virt. eigenvalues --    2.00840   2.01130   2.02895   2.03635   2.05961
 Alpha virt. eigenvalues --    2.06344   2.08145   2.10679   2.12296   2.13920
 Alpha virt. eigenvalues --    2.15233   2.17727   2.18611   2.21138   2.21897
 Alpha virt. eigenvalues --    2.23152   2.25036   2.26548   2.29521   2.30024
 Alpha virt. eigenvalues --    2.31675   2.32151   2.32775   2.33836   2.36357
 Alpha virt. eigenvalues --    2.37220   2.38043   2.40683   2.42419   2.44952
 Alpha virt. eigenvalues --    2.50106   2.54146   2.57759   2.59751   2.60772
 Alpha virt. eigenvalues --    2.61730   2.63012   2.64537   2.65676   2.68115
 Alpha virt. eigenvalues --    2.70707   2.73814   2.74099   2.77991   2.81113
 Alpha virt. eigenvalues --    2.81770   2.83439   2.88151   2.92244   2.94730
 Alpha virt. eigenvalues --    2.97247   3.01471   3.02321   3.16056   3.22756
 Alpha virt. eigenvalues --    3.38501   3.44869   3.95844   3.99210   4.11966
 Alpha virt. eigenvalues --    4.12635   4.14482   4.16647   4.24939   4.27880
 Alpha virt. eigenvalues --    4.31775   4.33534   4.34432   4.39298   4.48032
 Alpha virt. eigenvalues --    4.53248   4.70100   4.76385   4.78843
          Condensed to atoms (all electrons):
               1          2          3          4          5          6
     1  C    5.221795   0.358222   0.360785   0.356925   0.348332  -0.088532
     2  H    0.358222   0.584005  -0.031650  -0.031863  -0.021993  -0.009532
     3  H    0.360785  -0.031650   0.575732  -0.020962  -0.029820  -0.004777
     4  H    0.356925  -0.031863  -0.020962   0.585836  -0.030972   0.009078
     5  C    0.348332  -0.021993  -0.029820  -0.030972   5.007089   0.365961
     6  C   -0.088532  -0.009532  -0.004777   0.009078   0.365961   5.205621
     7  H    0.010520   0.000111  -0.000182  -0.000457  -0.041029   0.351791
     8  H   -0.006264   0.000020   0.003815  -0.000005  -0.016588   0.364447
     9  H   -0.008263   0.004990  -0.000162   0.000006  -0.023805   0.364979
    10  C   -0.044172  -0.004876   0.005247  -0.009090   0.353755  -0.053545
    11  C   -0.011829   0.000963   0.000334   0.003861  -0.048715   0.001088
    12  C    0.000127   0.000042  -0.000004   0.000188   0.004838  -0.000062
    13  C   -0.000015   0.000001   0.000000  -0.000015   0.000443   0.000052
    14  O   -0.000000   0.000000  -0.000000  -0.000000   0.000001  -0.000000
    15  H    0.000000  -0.000000   0.000000   0.000000  -0.000000   0.000000
    16  C   -0.000205  -0.000005   0.000002   0.000017   0.006371   0.000049
    17  C    0.007080  -0.000239  -0.000143  -0.000208  -0.053040  -0.011008
    18  H    0.000300  -0.000006  -0.000010  -0.000013  -0.009710  -0.000662
    19  H    0.000002  -0.000000  -0.000000   0.000000  -0.000134  -0.000003
    20  H    0.000005  -0.000001  -0.000000   0.000003  -0.000136   0.000002
    21  H    0.006587   0.002130  -0.000126  -0.000108  -0.011214   0.000041
    22  C   -0.052031   0.005309  -0.001515  -0.008425   0.356252  -0.041713
    23  C    0.001868  -0.000050   0.001406  -0.000288  -0.043654  -0.010835
    24  H    0.000385  -0.000015  -0.000065  -0.000015  -0.014223   0.006965
    25  C   -0.000114   0.000001  -0.000038   0.000013   0.005200   0.000049
    26  H    0.000001  -0.000000   0.000001   0.000000  -0.000117   0.000005
    27  C   -0.000008   0.000000  -0.000012  -0.000008   0.000271  -0.000006
    28  O   -0.000000   0.000000   0.000000  -0.000000   0.000000   0.000000
    29  C    0.000204   0.000001  -0.000089   0.000046   0.004357  -0.000112
    30  H    0.000003  -0.000000   0.000000   0.000001  -0.000101   0.000001
    31  C   -0.006949   0.000126   0.000159   0.004797  -0.053762   0.005717
    32  H   -0.000747  -0.000072   0.000169   0.002713  -0.009922   0.000262
               7          8          9         10         11         12
     1  C    0.010520  -0.006264  -0.008263  -0.044172  -0.011829   0.000127
     2  H    0.000111   0.000020   0.004990  -0.004876   0.000963   0.000042
     3  H   -0.000182   0.003815  -0.000162   0.005247   0.000334  -0.000004
     4  H   -0.000457  -0.000005   0.000006  -0.009090   0.003861   0.000188
     5  C   -0.041029  -0.016588  -0.023805   0.353755  -0.048715   0.004838
     6  C    0.351791   0.364447   0.364979  -0.053545   0.001088  -0.000062
     7  H    0.599755  -0.026417  -0.029061  -0.009779  -0.000357  -0.000027
     8  H   -0.026417   0.563185  -0.038868   0.004914  -0.000031   0.000000
     9  H   -0.029061  -0.038868   0.581601  -0.001902   0.001741  -0.000057
    10  C   -0.009779   0.004914  -0.001902   4.804213   0.503394  -0.024758
    11  C   -0.000357  -0.000031   0.001741   0.503394   5.058860   0.507837
    12  C   -0.000027   0.000000  -0.000057  -0.024758   0.507837   5.049658
    13  C   -0.000035  -0.000000  -0.000012  -0.034744  -0.019378   0.527671
    14  O    0.000000   0.000000   0.000000   0.000153   0.003508  -0.061507
    15  H   -0.000000  -0.000000   0.000000  -0.000003  -0.000228   0.006031
    16  C   -0.000214   0.000001  -0.000031  -0.026361  -0.040372  -0.071088
    17  C    0.008588   0.000142  -0.000233   0.527750  -0.063081  -0.045260
    18  H    0.003024  -0.000075   0.000041  -0.046195   0.006402   0.000419
    19  H    0.000009  -0.000000   0.000000   0.004196   0.000283   0.006200
    20  H    0.000001  -0.000000   0.000003   0.004096  -0.041237   0.345264
    21  H    0.000004  -0.000013   0.000061  -0.041589   0.355381  -0.041805
    22  C   -0.008863  -0.005712   0.004262  -0.051468   0.002014  -0.000056
    23  C    0.002997   0.001101   0.000370  -0.001382  -0.000216   0.000001
    24  H    0.001998   0.001278  -0.000109   0.000058  -0.000000   0.000000
    25  C   -0.000037   0.000172  -0.000004   0.000021   0.000001  -0.000000
    26  H    0.000001   0.000002  -0.000000   0.000000  -0.000000   0.000000
    27  C   -0.000003  -0.000006   0.000000   0.000022   0.000000  -0.000000
    28  O    0.000000   0.000000  -0.000000  -0.000000  -0.000000   0.000000
    29  C    0.000002   0.000001   0.000001   0.000181   0.000012   0.000000
    30  H    0.000000   0.000000  -0.000000  -0.000004  -0.000000   0.000000
    31  C   -0.000274  -0.000178  -0.000074  -0.005541   0.000750   0.000006
    32  H   -0.000005  -0.000008  -0.000006   0.006312   0.000349  -0.000013
              13         14         15         16         17         18
     1  C   -0.000015  -0.000000   0.000000  -0.000205   0.007080   0.000300
     2  H    0.000001   0.000000  -0.000000  -0.000005  -0.000239  -0.000006
     3  H    0.000000  -0.000000   0.000000   0.000002  -0.000143  -0.000010
     4  H   -0.000015  -0.000000   0.000000   0.000017  -0.000208  -0.000013
     5  C    0.000443   0.000001  -0.000000   0.006371  -0.053040  -0.009710
     6  C    0.000052  -0.000000   0.000000   0.000049  -0.011008  -0.000662
     7  H   -0.000035   0.000000  -0.000000  -0.000214   0.008588   0.003024
     8  H   -0.000000   0.000000  -0.000000   0.000001   0.000142  -0.000075
     9  H   -0.000012   0.000000   0.000000  -0.000031  -0.000233   0.000041
    10  C   -0.034744   0.000153  -0.000003  -0.026361   0.527750  -0.046195
    11  C   -0.019378   0.003508  -0.000228  -0.040372  -0.063081   0.006402
    12  C    0.527671  -0.061507   0.006031  -0.071088  -0.045260   0.000419
    13  C    4.492752   0.303946  -0.032610   0.501235  -0.007851   0.003993
    14  O    0.303946   8.225012   0.251778  -0.067036   0.004743  -0.000071
    15  H   -0.032610   0.251778   0.314621  -0.005316   0.000401  -0.000019
    16  C    0.501235  -0.067036  -0.005316   5.141659   0.453387  -0.043928
    17  C   -0.007851   0.004743   0.000401   0.453387   5.061209   0.355557
    18  H    0.003993  -0.000071  -0.000019  -0.043928   0.355557   0.593073
    19  H   -0.045974  -0.003984   0.005422   0.350765  -0.035838  -0.007673
    20  H   -0.039674  -0.000902  -0.000399   0.008148   0.000460   0.000016
    21  H    0.004142  -0.000059   0.000006   0.000244   0.006530  -0.000185
    22  C   -0.000031   0.000000  -0.000000   0.000543  -0.005905   0.006534
    23  C   -0.000000   0.000000  -0.000000   0.000055   0.001226   0.002914
    24  H   -0.000000   0.000000   0.000000   0.000000  -0.000083  -0.000010
    25  C    0.000000  -0.000000   0.000000  -0.000001  -0.000197   0.000323
    26  H    0.000000  -0.000000   0.000000   0.000000   0.000000  -0.000003
    27  C    0.000000  -0.000000   0.000000  -0.000000   0.000010  -0.000025
    28  O   -0.000000   0.000000   0.000000   0.000000   0.000000   0.000000
    29  C    0.000000   0.000000  -0.000000  -0.000014  -0.000190  -0.000154
    30  H   -0.000000   0.000000   0.000000  -0.000000  -0.000001   0.000000
    31  C   -0.000009  -0.000000   0.000000   0.000036  -0.001703   0.000116
    32  H   -0.000004   0.000000   0.000000  -0.000054   0.001803  -0.000095
              19         20         21         22         23         24
     1  C    0.000002   0.000005   0.006587  -0.052031   0.001868   0.000385
     2  H   -0.000000  -0.000001   0.002130   0.005309  -0.000050  -0.000015
     3  H   -0.000000  -0.000000  -0.000126  -0.001515   0.001406  -0.000065
     4  H    0.000000   0.000003  -0.000108  -0.008425  -0.000288  -0.000015
     5  C   -0.000134  -0.000136  -0.011214   0.356252  -0.043654  -0.014223
     6  C   -0.000003   0.000002   0.000041  -0.041713  -0.010835   0.006965
     7  H    0.000009   0.000001   0.000004  -0.008863   0.002997   0.001998
     8  H   -0.000000  -0.000000  -0.000013  -0.005712   0.001101   0.001278
     9  H    0.000000   0.000003   0.000061   0.004262   0.000370  -0.000109
    10  C    0.004196   0.004096  -0.041589  -0.051468  -0.001382   0.000058
    11  C    0.000283  -0.041237   0.355381   0.002014  -0.000216  -0.000000
    12  C    0.006200   0.345264  -0.041805  -0.000056   0.000001   0.000000
    13  C   -0.045974  -0.039674   0.004142  -0.000031  -0.000000  -0.000000
    14  O   -0.003984  -0.000902  -0.000059   0.000000   0.000000   0.000000
    15  H    0.005422  -0.000399   0.000006  -0.000000  -0.000000   0.000000
    16  C    0.350765   0.008148   0.000244   0.000543   0.000055   0.000000
    17  C   -0.035838   0.000460   0.006530  -0.005905   0.001226  -0.000083
    18  H   -0.007673   0.000016  -0.000185   0.006534   0.002914  -0.000010
    19  H    0.580627  -0.000208   0.000015   0.000010  -0.000000   0.000000
    20  H   -0.000208   0.595402  -0.006335   0.000001  -0.000000  -0.000000
    21  H    0.000015  -0.006335   0.583618   0.000169   0.000002   0.000000
    22  C    0.000010   0.000001   0.000169   4.815319   0.519151  -0.041287
    23  C   -0.000000  -0.000000   0.000002   0.519151   5.159879   0.346735
    24  H    0.000000  -0.000000   0.000000  -0.041287   0.346735   0.612991
    25  C   -0.000000  -0.000000  -0.000000  -0.029280   0.386747  -0.039762
    26  H   -0.000000  -0.000000  -0.000000   0.004888  -0.047242  -0.006072
    27  C   -0.000000   0.000000   0.000000  -0.034703   0.013940   0.002727
    28  O    0.000000   0.000000   0.000000   0.000119   0.006690  -0.000067
    29  C   -0.000000   0.000000  -0.000000  -0.028697  -0.053413   0.000155
    30  H    0.000000  -0.000000  -0.000000   0.004366  -0.000276   0.000023
    31  C    0.000004   0.000000  -0.000049   0.517129  -0.052620   0.006932
    32  H   -0.000001  -0.000001  -0.000037  -0.053995   0.007102  -0.000246
              25         26         27         28         29         30
     1  C   -0.000114   0.000001  -0.000008  -0.000000   0.000204   0.000003
     2  H    0.000001  -0.000000   0.000000   0.000000   0.000001  -0.000000
     3  H   -0.000038   0.000001  -0.000012   0.000000  -0.000089   0.000000
     4  H    0.000013   0.000000  -0.000008  -0.000000   0.000046   0.000001
     5  C    0.005200  -0.000117   0.000271   0.000000   0.004357  -0.000101
     6  C    0.000049   0.000005  -0.000006   0.000000  -0.000112   0.000001
     7  H   -0.000037   0.000001  -0.000003   0.000000   0.000002   0.000000
     8  H    0.000172   0.000002  -0.000006   0.000000   0.000001   0.000000
     9  H   -0.000004  -0.000000   0.000000  -0.000000   0.000001  -0.000000
    10  C    0.000021   0.000000   0.000022  -0.000000   0.000181  -0.000004
    11  C    0.000001  -0.000000   0.000000  -0.000000   0.000012  -0.000000
    12  C   -0.000000   0.000000  -0.000000   0.000000   0.000000   0.000000
    13  C    0.000000   0.000000   0.000000  -0.000000   0.000000  -0.000000
    14  O   -0.000000  -0.000000  -0.000000   0.000000   0.000000   0.000000
    15  H    0.000000   0.000000   0.000000   0.000000  -0.000000   0.000000
    16  C   -0.000001   0.000000  -0.000000   0.000000  -0.000014  -0.000000
    17  C   -0.000197   0.000000   0.000010   0.000000  -0.000190  -0.000001
    18  H    0.000323  -0.000003  -0.000025   0.000000  -0.000154   0.000000
    19  H   -0.000000  -0.000000  -0.000000   0.000000  -0.000000   0.000000
    20  H   -0.000000  -0.000000   0.000000   0.000000   0.000000  -0.000000
    21  H   -0.000000  -0.000000   0.000000   0.000000  -0.000000  -0.000000
    22  C   -0.029280   0.004888  -0.034703   0.000119  -0.028697   0.004366
    23  C    0.386747  -0.047242   0.013940   0.006690  -0.053413  -0.000276
    24  H   -0.039762  -0.006072   0.002727  -0.000067   0.000155   0.000023
    25  C    5.367783   0.318958   0.454941  -0.083163  -0.064668   0.012196
    26  H    0.318958   0.677662  -0.043618   0.003505   0.013067  -0.000323
    27  C    0.454941  -0.043618   4.336341   0.443008   0.443251  -0.041516
    28  O   -0.083163   0.003505   0.443008   8.579379  -0.092434   0.003477
    29  C   -0.064668   0.013067   0.443251  -0.092434   5.361668   0.326409
    30  H    0.012196  -0.000323  -0.041516   0.003477   0.326409   0.657811
    31  C   -0.060648  -0.000308   0.010995   0.009829   0.369892  -0.045671
    32  H    0.000456   0.000032   0.003426  -0.000132  -0.037385  -0.006709
              31         32
     1  C   -0.006949  -0.000747
     2  H    0.000126  -0.000072
     3  H    0.000159   0.000169
     4  H    0.004797   0.002713
     5  C   -0.053762  -0.009922
     6  C    0.005717   0.000262
     7  H   -0.000274  -0.000005
     8  H   -0.000178  -0.000008
     9  H   -0.000074  -0.000006
    10  C   -0.005541   0.006312
    11  C    0.000750   0.000349
    12  C    0.000006  -0.000013
    13  C   -0.000009  -0.000004
    14  O   -0.000000   0.000000
    15  H    0.000000   0.000000
    16  C    0.000036  -0.000054
    17  C   -0.001703   0.001803
    18  H    0.000116  -0.000095
    19  H    0.000004  -0.000001
    20  H    0.000000  -0.000001
    21  H   -0.000049  -0.000037
    22  C    0.517129  -0.053995
    23  C   -0.052620   0.007102
    24  H    0.006932  -0.000246
    25  C   -0.060648   0.000456
    26  H   -0.000308   0.000032
    27  C    0.010995   0.003426
    28  O    0.009829  -0.000132
    29  C    0.369892  -0.037385
    30  H   -0.045671  -0.006709
    31  C    5.198138   0.337999
    32  H    0.337999   0.645874
 Mulliken charges:
               1
     1  C   -0.454012
     2  H    0.144378
     3  H    0.141906
     4  H    0.138946
     5  C   -0.043932
     6  C   -0.455317
     7  H    0.137942
     8  H    0.155087
     9  H    0.144532
    10  C    0.141095
    11  C   -0.221335
    12  C   -0.203645
    13  C    0.346119
    14  O   -0.655582
    15  H    0.460318
    16  C   -0.207888
    17  C   -0.203907
    18  H    0.136122
    19  H    0.146282
    20  H    0.135492
    21  H    0.142589
    22  C    0.127616
    23  C   -0.242206
    24  H    0.121707
    25  C   -0.268946
    26  H    0.079560
    27  C    0.410972
    28  O   -0.870212
    29  C   -0.242090
    30  H    0.090312
    31  C   -0.234840
    32  H    0.102934
 Sum of Mulliken charges =  -1.00000
 Mulliken charges with hydrogens summed into heavy atoms:
               1
     1  C   -0.028782
     5  C   -0.043932
     6  C   -0.017755
    10  C    0.141095
    11  C   -0.078745
    12  C   -0.068154
    13  C    0.346119
    14  O   -0.195264
    16  C   -0.061606
    17  C   -0.067784
    22  C    0.127616
    23  C   -0.120499
    25  C   -0.189386
    27  C    0.410972
    28  O   -0.870212
    29  C   -0.151778
    31  C   -0.131907
 Electronic spatial extent (au):  <R**2>=           4902.3580
 Charge=             -1.0000 electrons
 Dipole moment (field-independent basis, Debye):
    X=             19.1184    Y=              4.3985    Z=              1.8476  Tot=             19.7047
 Quadrupole moment (field-independent basis, Debye-Ang):
   XX=           -194.3350   YY=           -102.2778   ZZ=           -102.7580
   XY=            -36.5488   XZ=             -3.7300   YZ=             -3.7045
 Traceless Quadrupole moment (field-independent basis, Debye-Ang):
   XX=            -61.2114   YY=             30.8458   ZZ=             30.3656
   XY=            -36.5488   XZ=             -3.7300   YZ=             -3.7045
 Octapole moment (field-independent basis, Debye-Ang**2):
  XXX=            414.5396  YYY=            -14.6958  ZZZ=              3.1877  XYY=            104.3181
  XXY=            110.5720  XXZ=             24.7273  XZZ=              8.3946  YZZ=             -5.4359
  YYZ=             13.8774  XYZ=             -8.8428
 Hexadecapole moment (field-independent basis, Debye-Ang**3):
 XXXX=          -6974.8024 YYYY=          -1140.8116 ZZZZ=           -594.9618 XXXY=           -833.5583
 XXXZ=            -92.0923 YYYX=           -255.6387 YYYZ=            -19.9016 ZZZX=              4.4906
 ZZZY=              2.0399 XXYY=          -1088.1278 XXZZ=           -890.2543 YYZZ=           -296.1791
[...]
     32          1           0       -0.689740   -0.531046   -1.764158
 ---------------------------------------------------------------------
 Rotational constants (GHZ):           0.8617703           0.2614720           0.2323160
 Leave Link  202 at Sun Jul 11 16:21:43 2021, MaxMem=   262144000 cpu:               0.1 elap:               0.0
 (Enter /prod/apps/gaussian/g16b1/l301.exe)
 Standard basis: Aug-CC-pVDZ (5D, 7F)
 Ernie: Thresh=  0.10000D-02 Tol=  0.10000D-05 Strict=F.
 Ernie:  34 primitive shells out of 530 were deleted.
 There are   560 symmetry adapted cartesian basis functions of A   symmetry.
 There are   526 symmetry adapted basis functions of A   symmetry.
   526 basis functions,   896 primitive gaussians,   560 cartesian basis functions
    61 alpha electrons       61 beta electrons
       nuclear repulsion energy      1129.2899913571 Hartrees.
 IExCor=    0 DFT=F Ex=HF Corr=None ExCW=0 ScaHFX=  1.000000
 ScaDFX=  1.000000  1.000000  1.000000  1.000000 ScalE2=  1.000000  1.000000
 IRadAn=      5 IRanWt=     -1 IRanGd=            0 ICorTp=0 IEmpDi=  4
 NAtoms=   32 NActive=   32 NUniq=   32 SFac= 1.00D+00 NAtFMM=   60 NAOKFM=F Big=F
 Integral buffers will be    131072 words long.
 Raffenetti 1 integral format.
 Two-electron integral symmetry is turned on.
 Leave Link  301 at Sun Jul 11 16:21:43 2021, MaxMem=   262144000 cpu:               0.2 elap:               0.1
 (Enter /prod/apps/gaussian/g16b1/l302.exe)
 NPDir=0 NMtPBC=     1 NCelOv=     1 NCel=       1 NClECP=     1 NCelD=      1
         NCelK=      1 NCelE2=     1 NClLst=     1 CellRange=     0.0.
 One-electron integrals computed using PRISM.
 One-electron integral symmetry used in STVInt
 NBasis=   526 RedAO= T EigKep=  1.35D-06  NBF=   526
 NBsUse=   526 1.00D-06 EigRej= -1.00D+00 NBFU=   526
 Leave Link  302 at Sun Jul 11 16:21:43 2021, MaxMem=   262144000 cpu:               1.3 elap:               0.3
 (Enter /prod/apps/gaussian/g16b1/l303.exe)
 DipDrv:  MaxL=1.
 Leave Link  303 at Sun Jul 11 16:21:43 2021, MaxMem=   262144000 cpu:               0.3 elap:               0.1
 (Enter /prod/apps/gaussian/g16b1/l401.exe)
 ExpMin= 2.97D-02 ExpMax= 1.17D+04 ExpMxC= 4.01D+02 IAcc=3 IRadAn=         5 AccDes= 0.00D+00
 Harris functional with IExCor=  205 and IRadAn=       5 diagonalized for initial guess.
 HarFok:  IExCor=  205 AccDes= 0.00D+00 IRadAn=         5 IDoV= 1 UseB2=F ITyADJ=14
 ICtDFT=  3500011 ScaDFX=  1.000000  1.000000  1.000000  1.000000
 FoFCou: FMM=F IPFlag=           0 FMFlag=      100000 FMFlg1=           0
         NFxFlg=           0 DoJE=T BraDBF=F KetDBF=T FulRan=T
         wScrn=  0.000000 ICntrl=       500 IOpCl=  0 I1Cent=   200000004 NGrid=           0
         NMat0=    1 NMatS0=      1 NMatT0=    0 NMatD0=    1 NMtDS0=    0 NMtDT0=    0
 Petite list used in FoFCou.
 Harris En= -727.770735697303    
 JPrj=0 DoOrth=F DoCkMO=F.
 Leave Link  401 at Sun Jul 11 16:21:46 2021, MaxMem=   262144000 cpu:              12.1 elap:               3.0
 (Enter /prod/apps/gaussian/g16b1/l502.exe)
 Integral symmetry usage will be decided dynamically.
 Closed shell SCF:
 Using DIIS extrapolation, IDIIS=  1040.
 NGot=   262144000 LenX=   261508168 LenY=   261194008
 Requested convergence on RMS density matrix=1.00D-08 within 128 cycles.
 Requested convergence on MAX density matrix=1.00D-06.
 Requested convergence on             energy=1.00D-06.
 No special actions if energy rises.
 Fock matrices will be formed incrementally for  20 cycles.

 Cycle   1  Pass 1  IDiag  1:
 FoFJK:  IHMeth= 1 ICntrl=       0 DoSepK=F KAlg= 0 I1Cent=           0 FoldK=F
 IRaf= 950000000 NMat=       1 IRICut=       1 DoRegI=T DoRafI=F ISym2E= 0 IDoP0=0 IntGTp=1.
 FoFCou: FMM=F IPFlag=           0 FMFlag=      100000 FMFlg1=           0
         NFxFlg=           0 DoJE=F BraDBF=F KetDBF=F FulRan=T
         wScrn=  0.000000 ICntrl=         0 IOpCl=  0 I1Cent=           0 NGrid=           0
         NMat0=    1 NMatS0=      1 NMatT0=    0 NMatD0=    1 NMtDS0=    0 NMtDT0=    0
 Symmetry not used in FoFCou.
 E= -725.790329815792    
 DIIS: error= 1.93D-02 at cycle   1 NSaved=   1.
 NSaved= 1 IEnMin= 1 EnMin= -725.790329815792     IErMin= 1 ErrMin= 1.93D-02
 ErrMax= 1.93D-02  0.00D+00 EMaxC= 1.00D-01 BMatC= 9.01D-01 BMatP= 9.01D-01
 IDIUse=3 WtCom= 8.07D-01 WtEn= 1.93D-01
 Coeff-Com:  0.100D+01
 Coeff-En:   0.100D+01
 Coeff:      0.100D+01
 Gap=     0.283 Goal=   None    Shift=    0.000
 GapD=    0.283 DampG=1.000 DampE=0.500 DampFc=0.5000 IDamp=-1.
 Damping current iteration by 5.00D-01
 RMSDP=8.48D-02 MaxDP=6.27D+00              OVMax= 2.01D-01

 Cycle   2  Pass 1  IDiag  1:
 RMSU=  1.89D-02    CP:  7.66D-01
 E= -726.198842460995     Delta-E=       -0.408512645203 Rises=F Damp=T
 DIIS: error= 1.01D-02 at cycle   2 NSaved=   2.
 NSaved= 2 IEnMin= 2 EnMin= -726.198842460995     IErMin= 2 ErrMin= 1.01D-02
 ErrMax= 1.01D-02  0.00D+00 EMaxC= 1.00D-01 BMatC= 1.59D-01 BMatP= 9.01D-01
 IDIUse=3 WtCom= 8.99D-01 WtEn= 1.01D-01
 Coeff-Com: -0.532D+00 0.153D+01
 Coeff-En:   0.000D+00 0.100D+01
 Coeff:     -0.479D+00 0.148D+01
 Gap=     0.200 Goal=   None    Shift=    0.000
 RMSDP=4.46D-02 MaxDP=3.89D+00 DE=-4.09D-01 OVMax= 9.14D-02

 Cycle   3  Pass 1  IDiag  1:
 RMSU=  1.27D-02    CP:  5.13D-01  1.61D+00
 E= -726.563770238756     Delta-E=       -0.364927777761 Rises=F Damp=F
 DIIS: error= 1.79D-03 at cycle   3 NSaved=   3.
 NSaved= 3 IEnMin= 3 EnMin= -726.563770238756     IErMin= 3 ErrMin= 1.79D-03
 ErrMax= 1.79D-03  0.00D+00 EMaxC= 1.00D-01 BMatC= 5.56D-03 BMatP= 1.59D-01
 IDIUse=3 WtCom= 9.82D-01 WtEn= 1.79D-02
 Coeff-Com: -0.120D+00 0.211D+00 0.909D+00
 Coeff-En:   0.000D+00 0.000D+00 0.100D+01
 Coeff:     -0.118D+00 0.207D+00 0.911D+00
 Gap=     0.183 Goal=   None    Shift=    0.000
 RMSDP=2.40D-03 MaxDP=1.26D-01 DE=-3.65D-01 OVMax= 2.30D-02

 Cycle   4  Pass 1  IDiag  1:
 RMSU=  1.98D-03    CP:  5.04D-01  1.62D+00  9.87D-01
 E= -726.568961493685     Delta-E=       -0.005191254929 Rises=F Damp=F
 DIIS: error= 8.32D-04 at cycle   4 NSaved=   4.
 NSaved= 4 IEnMin= 4 EnMin= -726.568961493685     IErMin= 4 ErrMin= 8.32D-04
 ErrMax= 8.32D-04  0.00D+00 EMaxC= 1.00D-01 BMatC= 9.29D-04 BMatP= 5.56D-03
 IDIUse=3 WtCom= 9.92D-01 WtEn= 8.32D-03
 Coeff-Com: -0.200D-01 0.115D-01 0.307D+00 0.701D+00
 Coeff-En:   0.000D+00 0.000D+00 0.000D+00 0.100D+01
 Coeff:     -0.198D-01 0.115D-01 0.305D+00 0.704D+00
 Gap=     0.186 Goal=   None    Shift=    0.000
 RMSDP=7.44D-04 MaxDP=5.54D-02 DE=-5.19D-03 OVMax= 8.93D-03

 Cycle   5  Pass 1  IDiag  1:
 RMSU=  6.06D-04    CP:  5.03D-01  1.61D+00  9.90D-01  1.13D+00
 E= -726.569987197260     Delta-E=       -0.001025703576 Rises=F Damp=F
 DIIS: error= 2.71D-04 at cycle   5 NSaved=   5.
 NSaved= 5 IEnMin= 5 EnMin= -726.569987197260     IErMin= 5 ErrMin= 2.71D-04
 ErrMax= 2.71D-04  0.00D+00 EMaxC= 1.00D-01 BMatC= 7.36D-05 BMatP= 9.29D-04
 IDIUse=3 WtCom= 9.97D-01 WtEn= 2.71D-03
 Coeff-Com:  0.100D-01-0.195D-01-0.749D-01 0.788D-01 0.101D+01
 Coeff-En:   0.000D+00 0.000D+00 0.000D+00 0.000D+00 0.100D+01
 Coeff:      0.100D-01-0.194D-01-0.747D-01 0.786D-01 0.101D+01
 Gap=     0.188 Goal=   None    Shift=    0.000
 RMSDP=3.78D-04 MaxDP=3.52D-02 DE=-1.03D-03 OVMax= 5.15D-03

 Cycle   6  Pass 1  IDiag  1:
 RMSU=  2.46D-04    CP:  5.03D-01  1.61D+00  1.00D+00  1.24D+00  1.17D+00
 E= -726.570148858764     Delta-E=       -0.000161661504 Rises=F Damp=F
 DIIS: error= 9.08D-05 at cycle   6 NSaved=   6.
 NSaved= 6 IEnMin= 6 EnMin= -726.570148858764     IErMin= 6 ErrMin= 9.08D-05
 ErrMax= 9.08D-05  0.00D+00 EMaxC= 1.00D-01 BMatC= 9.80D-06 BMatP= 7.36D-05
 IDIUse=1 WtCom= 1.00D+00 WtEn= 0.00D+00
 Coeff-Com:  0.369D-02-0.419D-02-0.438D-01-0.689D-01 0.124D+00 0.989D+00
 Coeff:      0.369D-02-0.419D-02-0.438D-01-0.689D-01 0.124D+00 0.989D+00
 Gap=     0.188 Goal=   None    Shift=    0.000
 RMSDP=1.56D-04 MaxDP=9.98D-03 DE=-1.62D-04 OVMax= 4.18D-03

 Cycle   7  Pass 1  IDiag  1:
 RMSU=  7.23D-05    CP:  5.03D-01  1.60D+00  1.00D+00  1.29D+00  1.30D+00
                    CP:  1.26D+00
 E= -726.570183651299     Delta-E=       -0.000034792535 Rises=F Damp=F
 DIIS: error= 5.03D-05 at cycle   7 NSaved=   7.
 NSaved= 7 IEnMin= 7 EnMin= -726.570183651299     IErMin= 7 ErrMin= 5.03D-05
 ErrMax= 5.03D-05  0.00D+00 EMaxC= 1.00D-01 BMatC= 2.88D-06 BMatP= 9.80D-06
 IDIUse=1 WtCom= 1.00D+00 WtEn= 0.00D+00
 Coeff-Com: -0.100D-02 0.227D-02 0.716D-02-0.238D-01-0.152D+00 0.184D+00
 Coeff-Com:  0.983D+00
 Coeff:     -0.100D-02 0.227D-02 0.716D-02-0.238D-01-0.152D+00 0.184D+00
 Coeff:      0.983D+00
 Gap=     0.188 Goal=   None    Shift=    0.000
 RMSDP=6.17D-05 MaxDP=4.40D-03 DE=-3.48D-05 OVMax= 1.66D-03

 Cycle   8  Pass 1  IDiag  1:
 RMSU=  3.81D-05    CP:  5.03D-01  1.60D+00  1.00D+00  1.29D+00  1.32D+00
                    CP:  1.40D+00  1.41D+00
 E= -726.570194374932     Delta-E=       -0.000010723633 Rises=F Damp=F
 DIIS: error= 2.34D-05 at cycle   8 NSaved=   8.
 NSaved= 8 IEnMin= 8 EnMin= -726.570194374932     IErMin= 8 ErrMin= 2.34D-05
 ErrMax= 2.34D-05  0.00D+00 EMaxC= 1.00D-01 BMatC= 6.41D-07 BMatP= 2.88D-06
 IDIUse=1 WtCom= 1.00D+00 WtEn= 0.00D+00
 Coeff-Com: -0.136D-02 0.183D-02 0.148D-01 0.160D-01-0.528D-01-0.260D+00
 Coeff-Com:  0.209D-01 0.126D+01
 Coeff:     -0.136D-02 0.183D-02 0.148D-01 0.160D-01-0.528D-01-0.260D+00
 Coeff:      0.209D-01 0.126D+01
 Gap=     0.188 Goal=   None    Shift=    0.000
 RMSDP=4.96D-05 MaxDP=2.11D-03 DE=-1.07D-05 OVMax= 1.83D-03

 Cycle   9  Pass 1  IDiag  1:
 RMSU=  1.87D-05    CP:  5.03D-01  1.60D+00  1.00D+00  1.29D+00  1.32D+00
                    CP:  1.48D+00  1.82D+00  1.68D+00
 E= -726.570198345934     Delta-E=       -0.000003971003 Rises=F Damp=F
 DIIS: error= 1.01D-05 at cycle   9 NSaved=   9.
 NSaved= 9 IEnMin= 9 EnMin= -726.570198345934     IErMin= 9 ErrMin= 1.01D-05
 ErrMax= 1.01D-05  0.00D+00 EMaxC= 1.00D-01 BMatC= 1.40D-07 BMatP= 6.41D-07
 IDIUse=1 WtCom= 1.00D+00 WtEn= 0.00D+00
 Coeff-Com: -0.971D-04-0.715D-04 0.218D-02 0.750D-02 0.190D-01-0.948D-01
 Coeff-Com: -0.212D+00 0.326D+00 0.953D+00
 Coeff:     -0.971D-04-0.715D-04 0.218D-02 0.750D-02 0.190D-01-0.948D-01
 Coeff:     -0.212D+00 0.326D+00 0.953D+00
 Gap=     0.188 Goal=   None    Shift=    0.000
 RMSDP=1.74D-05 MaxDP=1.16D-03 DE=-3.97D-06 OVMax= 5.78D-04

 Cycle  10  Pass 1  IDiag  1:
 RMSU=  7.31D-06    CP:  5.03D-01  1.60D+00  1.00D+00  1.28D+00  1.31D+00
                    CP:  1.49D+00  1.93D+00  1.96D+00  1.28D+00
 E= -726.570198888319     Delta-E=       -0.000000542385 Rises=F Damp=F
 DIIS: error= 3.28D-06 at cycle  10 NSaved=  10.
 NSaved=10 IEnMin=10 EnMin= -726.570198888319     IErMin=10 ErrMin= 3.28D-06
 ErrMax= 3.28D-06  0.00D+00 EMaxC= 1.00D-01 BMatC= 1.32D-08 BMatP= 1.40D-07
 IDIUse=1 WtCom= 1.00D+00 WtEn= 0.00D+00
 Coeff-Com:  0.228D-03-0.296D-03-0.249D-02-0.374D-02 0.708D-02 0.513D-01
 Coeff-Com:  0.593D-02-0.213D+00-0.910D-01 0.125D+01
 Coeff:      0.228D-03-0.296D-03-0.249D-02-0.374D-02 0.708D-02 0.513D-01
 Coeff:      0.593D-02-0.213D+00-0.910D-01 0.125D+01
 Gap=     0.188 Goal=   None    Shift=    0.000
 RMSDP=6.15D-06 MaxDP=3.82D-04 DE=-5.42D-07 OVMax= 2.05D-04

 Cycle  11  Pass 1  IDiag  1:
 RMSU=  2.84D-06    CP:  5.03D-01  1.60D+00  1.00D+00  1.28D+00  1.31D+00
                    CP:  1.50D+00  1.94D+00  2.04D+00  1.41D+00  1.42D+00
 E= -726.570198952564     Delta-E=       -0.000000064244 Rises=F Damp=F
 DIIS: error= 1.55D-06 at cycle  11 NSaved=  11.
 NSaved=11 IEnMin=11 EnMin= -726.570198952564     IErMin=11 ErrMin= 1.55D-06
 ErrMax= 1.55D-06  0.00D+00 EMaxC= 1.00D-01 BMatC= 2.04D-09 BMatP= 1.32D-08
 IDIUse=1 WtCom= 1.00D+00 WtEn= 0.00D+00
 Coeff-Com:  0.522D-04-0.485D-04-0.605D-03-0.150D-02-0.114D-02 0.202D-01
 Coeff-Com:  0.256D-01-0.665D-01-0.150D+00 0.171D+00 0.100D+01
 Coeff:      0.522D-04-0.485D-04-0.605D-03-0.150D-02-0.114D-02 0.202D-01
 Coeff:      0.256D-01-0.665D-01-0.150D+00 0.171D+00 0.100D+01
 Gap=     0.188 Goal=   None    Shift=    0.000
 RMSDP=1.65D-06 MaxDP=1.17D-04 DE=-6.42D-08 OVMax= 4.71D-05

 Cycle  12  Pass 1  IDiag  1:
 RMSU=  9.51D-07    CP:  5.03D-01  1.60D+00  1.00D+00  1.28D+00  1.31D+00
                    CP:  1.50D+00  1.94D+00  2.05D+00  1.44D+00  1.54D+00
                    CP:  1.26D+00
 E= -726.570198957701     Delta-E=       -0.000000005137 Rises=F Damp=F
 DIIS: error= 4.89D-07 at cycle  12 NSaved=  12.
 NSaved=12 IEnMin=12 EnMin= -726.570198957701     IErMin=12 ErrMin= 4.89D-07
 ErrMax= 4.89D-07  0.00D+00 EMaxC= 1.00D-01 BMatC= 2.09D-10 BMatP= 2.04D-09
 IDIUse=1 WtCom= 1.00D+00 WtEn= 0.00D+00
 Coeff-Com: -0.151D-04 0.236D-04 0.172D-03 0.895D-04-0.115D-02-0.205D-02
 Coeff-Com:  0.405D-02 0.139D-01-0.254D-01-0.996D-01 0.213D+00 0.897D+00
 Coeff:     -0.151D-04 0.236D-04 0.172D-03 0.895D-04-0.115D-02-0.205D-02
 Coeff:      0.405D-02 0.139D-01-0.254D-01-0.996D-01 0.213D+00 0.897D+00
 Gap=     0.188 Goal=   None    Shift=    0.000
 RMSDP=5.81D-07 MaxDP=4.25D-05 DE=-5.14D-09 OVMax= 9.09D-06

 Cycle  13  Pass 1  IDiag  1:
 RMSU=  3.57D-07    CP:  5.03D-01  1.60D+00  1.00D+00  1.28D+00  1.31D+00
                    CP:  1.50D+00  1.94D+00  2.05D+00  1.43D+00  1.54D+00
                    CP:  1.30D+00  1.18D+00
 E= -726.570198958187     Delta-E=       -0.000000000487 Rises=F Damp=F
 DIIS: error= 1.33D-07 at cycle  13 NSaved=  13.
 NSaved=13 IEnMin=13 EnMin= -726.570198958187     IErMin=13 ErrMin= 1.33D-07
 ErrMax= 1.33D-07  0.00D+00 EMaxC= 1.00D-01 BMatC= 2.64D-11 BMatP= 2.09D-10
 IDIUse=1 WtCom= 1.00D+00 WtEn= 0.00D+00
 Coeff-Com: -0.788D-05 0.867D-05 0.910D-04 0.181D-03 0.563D-04-0.261D-02
 Coeff-Com: -0.250D-02 0.100D-01 0.136D-01-0.285D-01-0.112D+00 0.693D-01
 Coeff-Com:  0.105D+01
 Coeff:     -0.788D-05 0.867D-05 0.910D-04 0.181D-03 0.563D-04-0.261D-02
 Coeff:     -0.250D-02 0.100D-01 0.136D-01-0.285D-01-0.112D+00 0.693D-01
 Coeff:      0.105D+01
 Gap=     0.188 Goal=   None    Shift=    0.000
 RMSDP=2.88D-07 MaxDP=2.08D-05 DE=-4.87D-10 OVMax= 2.82D-06

 Cycle  14  Pass 1  IDiag  1:
 RMSU=  1.19D-07    CP:  5.03D-01  1.60D+00  1.00D+00  1.28D+00  1.31D+00
                    CP:  1.50D+00  1.94D+00  2.05D+00  1.42D+00  1.53D+00
                    CP:  1.31D+00  1.29D+00  1.27D+00
 E= -726.570198958281     Delta-E=       -0.000000000093 Rises=F Damp=F
 DIIS: error= 5.55D-08 at cycle  14 NSaved=  14.
 NSaved=14 IEnMin=14 EnMin= -726.570198958281     IErMin=14 ErrMin= 5.55D-08
 ErrMax= 5.55D-08  0.00D+00 EMaxC= 1.00D-01 BMatC= 3.03D-12 BMatP= 2.64D-11
 IDIUse=1 WtCom= 1.00D+00 WtEn= 0.00D+00
 Coeff-Com:  0.536D-06-0.118D-05-0.701D-05 0.228D-05 0.112D-03-0.459D-04
 Coeff-Com: -0.699D-03-0.344D-03 0.316D-02 0.868D-02-0.294D-01-0.915D-01
 Coeff-Com:  0.972D-01 0.101D+01
 Coeff:      0.536D-06-0.118D-05-0.701D-05 0.228D-05 0.112D-03-0.459D-04
 Coeff:     -0.699D-03-0.344D-03 0.316D-02 0.868D-02-0.294D-01-0.915D-01
 Coeff:      0.972D-01 0.101D+01
 Gap=     0.188 Goal=   None    Shift=    0.000
 RMSDP=9.53D-08 MaxDP=7.76D-06 DE=-9.32D-11 OVMax= 1.17D-06

 Cycle  15  Pass 1  IDiag  1:
 RMSU=  4.88D-08    CP:  5.03D-01  1.60D+00  1.00D+00  1.28D+00  1.31D+00
                    CP:  1.50D+00  1.94D+00  2.05D+00  1.42D+00  1.52D+00
                    CP:  1.30D+00  1.30D+00  1.36D+00  1.19D+00
 E= -726.570198958280     Delta-E=        0.000000000001 Rises=F Damp=F
 DIIS: error= 1.94D-08 at cycle  15 NSaved=  15.
 NSaved=15 IEnMin=14 EnMin= -726.570198958281     IErMin=15 ErrMin= 1.94D-08
 ErrMax= 1.94D-08  0.00D+00 EMaxC= 1.00D-01 BMatC= 5.49D-13 BMatP= 3.03D-12
 IDIUse=1 WtCom= 1.00D+00 WtEn= 0.00D+00
 Coeff-Com:  0.116D-05-0.133D-05-0.118D-04-0.280D-04-0.148D-04 0.408D-03
 Coeff-Com:  0.375D-03-0.129D-02-0.263D-02 0.346D-02 0.214D-01-0.824D-02
 Coeff-Com: -0.172D+00-0.830D-01 0.124D+01
 Coeff:      0.116D-05-0.133D-05-0.118D-04-0.280D-04-0.148D-04 0.408D-03
 Coeff:      0.375D-03-0.129D-02-0.263D-02 0.346D-02 0.214D-01-0.824D-02
 Coeff:     -0.172D+00-0.830D-01 0.124D+01
 Gap=     0.188 Goal=   None    Shift=    0.000
 RMSDP=4.11D-08 MaxDP=3.18D-06 DE= 9.09D-13 OVMax= 8.30D-07

 Cycle  16  Pass 1  IDiag  1:
 RMSU=  2.04D-08    CP:  5.03D-01  1.60D+00  1.00D+00  1.28D+00  1.31D+00
                    CP:  1.50D+00  1.94D+00  2.05D+00  1.42D+00  1.52D+00
                    CP:  1.30D+00  1.29D+00  1.38D+00  1.33D+00  1.38D+00
 E= -726.570198958286     Delta-E=       -0.000000000006 Rises=F Damp=F
 DIIS: error= 7.39D-09 at cycle  16 NSaved=  16.
 NSaved=16 IEnMin=16 EnMin= -726.570198958286     IErMin=16 ErrMin= 7.39D-09
 ErrMax= 7.39D-09  0.00D+00 EMaxC= 1.00D-01 BMatC= 9.26D-14 BMatP= 5.49D-13
 IDIUse=1 WtCom= 1.00D+00 WtEn= 0.00D+00
 Coeff-Com:  0.365D-07 0.954D-08 0.327D-06-0.264D-05-0.157D-04 0.318D-04
 Coeff-Com:  0.113D-03-0.905D-06-0.690D-03-0.105D-02 0.624D-02 0.993D-02
 Coeff-Com: -0.216D-01-0.143D+00 0.713D-01 0.108D+01
 Coeff:      0.365D-07 0.954D-08 0.327D-06-0.264D-05-0.157D-04 0.318D-04
 Coeff:      0.113D-03-0.905D-06-0.690D-03-0.105D-02 0.624D-02 0.993D-02
 Coeff:     -0.216D-01-0.143D+00 0.713D-01 0.108D+01
 Gap=     0.188 Goal=   None    Shift=    0.000
 RMSDP=1.44D-08 MaxDP=1.13D-06 DE=-6.37D-12 OVMax= 3.47D-07

 Cycle  17  Pass 1  IDiag  1:
 RMSU=  9.20D-09    CP:  5.03D-01  1.60D+00  1.00D+00  1.28D+00  1.31D+00
                    CP:  1.50D+00  1.94D+00  2.05D+00  1.42D+00  1.52D+00
                    CP:  1.30D+00  1.29D+00  1.38D+00  1.36D+00  1.48D+00
                    CP:  1.36D+00
 E= -726.570198958287     Delta-E=       -0.000000000001 Rises=F Damp=F
 DIIS: error= 4.19D-09 at cycle  17 NSaved=  17.
 NSaved=17 IEnMin=17 EnMin= -726.570198958287     IErMin=17 ErrMin= 4.19D-09
 ErrMax= 4.19D-09  0.00D+00 EMaxC= 1.00D-01 BMatC= 1.84D-14 BMatP= 9.26D-14
 IDIUse=1 WtCom= 1.00D+00 WtEn= 0.00D+00
 Coeff-Com: -0.239D-06 0.265D-06 0.271D-05 0.627D-05 0.353D-05-0.938D-04
 Coeff-Com: -0.727D-04 0.286D-03 0.534D-03-0.851D-03-0.412D-02 0.893D-03
 Coeff-Com:  0.387D-01 0.144D-01-0.268D+00 0.264D-01 0.119D+01
 Coeff:     -0.239D-06 0.265D-06 0.271D-05 0.627D-05 0.353D-05-0.938D-04
 Coeff:     -0.727D-04 0.286D-03 0.534D-03-0.851D-03-0.412D-02 0.893D-03
 Coeff:      0.387D-01 0.144D-01-0.268D+00 0.264D-01 0.119D+01
 Gap=     0.188 Goal=   None    Shift=    0.000
 RMSDP=8.35D-09 MaxDP=4.64D-07 DE=-9.09D-13 OVMax= 2.28D-07

 SCF Done:  E(RHF) =  -726.570198958     A.U. after   17 cycles
            NFock= 17  Conv=0.84D-08     -V/T= 2.0011
 KE= 7.258011030042D+02 PE=-3.972609329591D+03 EE= 1.390948036271D+03
 Leave Link  502 at Sun Jul 11 16:32:48 2021, MaxMem=   262144000 cpu:            2648.5 elap:             662.2
 (Enter /prod/apps/gaussian/g16b1/l801.exe)
 ExpMin= 2.97D-02 ExpMax= 1.17D+04 ExpMxC= 4.01D+02 IAcc=3 IRadAn=         5 AccDes= 0.00D+00
 HarFok:  IExCor=  205 AccDes= 0.00D+00 IRadAn=         5 IDoV=-2 UseB2=F ITyADJ=14
 ICtDFT= 12500011 ScaDFX=  1.000000  1.000000  1.000000  1.000000
 Largest valence mixing into a core orbital is  1.14D-04
 Largest core mixing into a valence orbital is  4.34D-05
 Range of M.O.s used for correlation:    18   526
 NBasis=   526 NAE=    61 NBE=    61 NFC=    17 NFV=     0
 NROrb=    509 NOA=    44 NOB=    44 NVA=   465 NVB=   465

 **** Warning!!: The largest alpha MO coefficient is  0.12045950D+03

 Leave Link  801 at Sun Jul 11 16:32:49 2021, MaxMem=   262144000 cpu:               0.9 elap:               0.2
 (Enter /prod/apps/gaussian/g16b1/l906.exe)
 FulOut=F Deriv=F AODrv=F NAtomX=    32
   MMem=           5  MDisk=          44 MDiskD=          44
  W3Min=    11457600 MinDsk=    12229780 NBas6D=         560
 NBas2D=      157833    NTT=      157080    LW2=     2000000
    MDV=   260167861 MDiskM=        6402 NBas2p=      146983
 Disk-based method using OVN memory for 44 occupieds at a time.
 Estimated scratch disk usage=  9281522932 words.
 IMap=   1   2   3   4   5   6   7   8   9  10  11  12  13  14  15  16  17  18  19  20
 IMap=  21  22  23  24  25  26  27  28  29  30  31  32  33  34  35  36  37  38  39  40
 IMap=  41  42  43  44
 Actual    scratch disk usage=  9045409012 words.
 JobTyp=1 Pass  1:  I=   1 to  44 NPSUse=  4 ParTrn=T ParDer=T DoDerP=F.
Erroneous write. Write -1 instead of 5742632.
fd = 4
orig len = 8384512 left = 5742632
