 Entering Gaussian System, Link 0=g16
 Initial command:
 /prod/apps/gaussian/g16b1/l1.exe "/tmp/ubator02/1834610/Gau-89900.inp" -scrdir="/tmp/ubator02/1834610/"
 Entering Link 1 = /prod/apps/gaussian/g16b1/l1.exe PID=     89901.
  
 Copyright (c) 1988-2017, Gaussian, Inc.  All Rights Reserved.
  
 This is part of the Gaussian(R) 16 program.  It is based on
 the Gaussian(R) 09 system (copyright 2009, Gaussian, Inc.),
 the Gaussian(R) 03 system (copyright 2003, Gaussian, Inc.),
 the Gaussian(R) 98 system (copyright 1998, Gaussian, Inc.),
 the Gaussian(R) 94 system (copyright 1995, Gaussian, Inc.),
 the Gaussian 92(TM) system (copyright 1992, Gaussian, Inc.),
 the Gaussian 90(TM) system (copyright 1990, Gaussian, Inc.),
 the Gaussian 88(TM) system (copyright 1988, Gaussian, Inc.),
 the Gaussian 86(TM) system (copyright 1986, Carnegie Mellon
 University), and the Gaussian 82(TM) system (copyright 1983,
 Carnegie Mellon University). Gaussian is a federally registered
 trademark of Gaussian, Inc.
  
 This software contains proprietary and confidential information,
 including trade secrets, belonging to Gaussian, Inc.
  
 This software is provided under written license and may be
 used, copied, transmitted, or stored only in accord with that
 written license.
  
 The following legend is applicable only to US Government
 contracts under FAR:
  
                    RESTRICTED RIGHTS LEGEND
  
 Use, reproduction and disclosure by the US Government is
 subject to restrictions as set forth in subparagraphs (a)
 and (c) of the Commercial Computer Software - Restricted
 Rights clause in FAR 52.227-19.
  
 Gaussian, Inc.
 340 Quinnipiac St., Bldg. 40, Wallingford CT 06492
  
  
 ---------------------------------------------------------------
 Warning -- This program may not be used in any manner that
 competes with the business of Gaussian, Inc. or will provide
 assistance to any competitor of Gaussian, Inc.  The licensee
 of this program is prohibited from giving any competitor of
 Gaussian, Inc. access to this program.  By using this program,
 the user acknowledges that Gaussian, Inc. is engaged in the
 business of creating and licensing software in the field of
 computational chemistry and represents and warrants to the
 licensee that it is not a competitor of Gaussian, Inc. and that
 it will not use this program in any manner prohibited above.
 ---------------------------------------------------------------
  

 Cite this work as:
 Gaussian 16, Revision B.01,
 M. J. Frisch, G. W. Trucks, H. B. Schlegel, G. E. Scuseria, 
 M. A. Robb, J. R. Cheeseman, G. Scalmani, V. Barone, 
 G. A. Petersson, H. Nakatsuji, X. Li, M. Caricato, A. V. Marenich, 
 J. Bloino, B. G. Janesko, R. Gomperts, B. Mennucci, H. P. Hratchian, 
 J. V. Ortiz, A. F. Izmaylov, J. L. Sonnenberg, D. Williams-Young, 
 F. Ding, F. Lipparini, F. Egidi, J. Goings, B. Peng, A. Petrone, 
 T. Henderson, D. Ranasinghe, V. G. Zakrzewski, J. Gao, N. Rega, 
 G. Zheng, W. Liang, M. Hada, M. Ehara, K. Toyota, R. Fukuda, 
 J. Hasegawa, M. Ishida, T. Nakajima, Y. Honda, O. Kitao, H. Nakai, 
 T. Vreven, K. Throssell, J. A. Montgomery, Jr., J. E. Peralta, 
 F. Ogliaro, M. J. Bearpark, J. J. Heyd, E. N. Brothers, K. N. Kudin, 
 V. N. Staroverov, T. A. Keith, R. Kobayashi, J. Normand, 
 K. Raghavachari, A. P. Rendell, J. C. Burant, S. S. Iyengar, 
 J. Tomasi, M. Cossi, J. M. Millam, M. Klene, C. Adamo, R. Cammi, 
 J. W. Ochterski, R. L. Martin, K. Morokuma, O. Farkas, 
 J. B. Foresman, and D. J. Fox, Gaussian, Inc., Wallingford CT, 2016.
 
 ******************************************
 Gaussian 16:  ES64L-G16RevB.01 20-Dec-2017
                11-Jul-2021 
 ******************************************
 %mem=800MB
 %nproc=4
 Will use up to    4 processors via shared memory.
 %chk=SET_328_BBB87_conf1.geo_285_105.chk
 -----------------------------------------------------------
 #p b3lyp/6-31G(d) opt freq scrf=(iefpcm,read,solvent=water)
 -----------------------------------------------------------
 1/18=20,19=15,26=3,38=1,40=2/1,3;
 2/9=110,12=2,17=6,18=5,40=1/2;
 3/5=1,6=6,7=1,11=2,25=1,30=1,70=2203,71=1,72=1,74=-5/1,2,3;
 4//1;
 5/5=2,38=5,53=1/2;
 6/7=2,8=2,9=2,10=2,28=1/1;
 7//1,2,3,16;
 1/18=20,19=15,26=3/3(2);
 2/9=110/2;
 99//99;
 2/9=110/2;
 3/5=1,6=6,7=1,11=2,25=1,30=1,70=2205,71=1,72=1,74=-5/1,2,3;
 4/5=5,16=3,69=1/1;
 5/5=2,38=5,53=1/2;
 7//1,2,3,16;
 1/18=20,19=15,26=3/3(-5);
 2/9=110/2;
 6/7=2,8=2,9=2,10=2,19=2,28=1/1;
 99/9=1/99;
 Leave Link    1 at Sun Jul 11 16:21:09 2021, MaxMem=   104857600 cpu:               0.1 elap:               0.0
 (Enter /prod/apps/gaussian/g16b1/l101.exe)
 ----------------------------------------
 SET_328_BBB87_conf1.geo_285_105 geometry
 ----------------------------------------
 Symbolic Z-matrix:
 Charge =  1 Multiplicity = 1
 N                     2.172     0.245     0.168 
 H                     2.386     0.628     1.067 
 H                     3.017     0.125    -0.352 
 C                     1.305     1.133    -0.533 
 H                     1.154     0.622    -1.487 
 H                     1.721     2.144    -0.531 
 C                     0.012     1.291     0.2 
 H                    -0.493     2.189    -0.164 
 H                     0.206     1.494     1.255 
 C                    -0.811     0.084     0.03 
 N                    -0.911    -0.77      1.087 
 C                    -1.736    -1.814     0.793 
 H                    -1.918    -2.511     1.601 
 C                    -2.068    -1.898    -0.532 
 H                    -2.534    -2.711    -1.075 
 S                    -1.535    -0.511    -1.458 
 H                     1.721    -0.64      0.281 
 
 ITRead=  0  0  0  0  0  0  0  0  0  0  0  0  0  0  0  0  0
 MicOpt= -1 -1 -1 -1 -1 -1 -1 -1 -1 -1 -1 -1 -1 -1 -1 -1 -1
 NAtoms=     17 NQM=       17 NQMF=       0 NMMI=      0 NMMIF=      0
                NMic=       0 NMicF=      0.
                    Isotopes and Nuclear Properties:
 (Nuclear quadrupole moments (NQMom) in fm**2, nuclear magnetic moments (NMagM)
  in nuclear magnetons)

  Atom         1           2           3           4           5           6           7           8           9          10
 IAtWgt=          14           1           1          12           1           1          12           1           1          12
 AtmWgt=  14.0030740   1.0078250   1.0078250  12.0000000   1.0078250   1.0078250  12.0000000   1.0078250   1.0078250  12.0000000
 NucSpn=           2           1           1           0           1           1           0           1           1           0
 AtZEff=  -0.0000000  -0.0000000  -0.0000000  -0.0000000  -0.0000000  -0.0000000  -0.0000000  -0.0000000  -0.0000000  -0.0000000
 NQMom=    2.0440000   0.0000000   0.0000000   0.0000000   0.0000000   0.0000000   0.0000000   0.0000000   0.0000000   0.0000000
 NMagM=    0.4037610   2.7928460   2.7928460   0.0000000   2.7928460   2.7928460   0.0000000   2.7928460   2.7928460   0.0000000
 AtZNuc=   7.0000000   1.0000000   1.0000000   6.0000000   1.0000000   1.0000000   6.0000000   1.0000000   1.0000000   6.0000000

  Atom        11          12          13          14          15          16          17
 IAtWgt=          14          12           1          12           1          32           1
 AtmWgt=  14.0030740  12.0000000   1.0078250  12.0000000   1.0078250  31.9720718   1.0078250
 NucSpn=           2           0           1           0           1           0           1
 AtZEff=  -0.0000000  -0.0000000  -0.0000000  -0.0000000  -0.0000000  -0.0000000  -0.0000000
 NQMom=    2.0440000   0.0000000   0.0000000   0.0000000   0.0000000   0.0000000   0.0000000
 NMagM=    0.4037610   0.0000000   2.7928460   0.0000000   2.7928460   0.0000000   2.7928460
 AtZNuc=   7.0000000   6.0000000   1.0000000   6.0000000   1.0000000  16.0000000   1.0000000
 Leave Link  101 at Sun Jul 11 16:21:10 2021, MaxMem=   104857600 cpu:               0.4 elap:               0.1
 (Enter /prod/apps/gaussian/g16b1/l103.exe)

 GradGradGradGradGradGradGradGradGradGradGradGradGradGradGradGradGradGrad
 Berny optimization.
 Initialization pass.
                           ----------------------------
                           !    Initial Parameters    !
                           ! (Angstroms and Degrees)  !
 --------------------------                            --------------------------
 ! Name  Definition              Value          Derivative Info.                !
 --------------------------------------------------------------------------------
 ! R1    R(1,2)                  1.0003         estimate D2E/DX2                !
 ! R2    R(1,3)                  0.9994         estimate D2E/DX2                !
 ! R3    R(1,4)                  1.4254         estimate D2E/DX2                !
 ! R4    R(1,17)                 0.9997         estimate D2E/DX2                !
 ! R5    R(4,5)                  1.0927         estimate D2E/DX2                !
 ! R6    R(4,6)                  1.0932         estimate D2E/DX2                !
 ! R7    R(4,7)                  1.4947         estimate D2E/DX2                !
 ! R8    R(7,8)                  1.0927         estimate D2E/DX2                !
 ! R9    R(7,9)                  1.0917         estimate D2E/DX2                !
 ! R10   R(7,10)                 1.4707         estimate D2E/DX2                !
 ! R11   R(10,11)                1.3626         estimate D2E/DX2                !
 ! R12   R(10,16)                1.7585         estimate D2E/DX2                !
 ! R13   R(11,12)                1.3627         estimate D2E/DX2                !
 ! R14   R(12,13)                1.0825         estimate D2E/DX2                !
 ! R15   R(12,14)                1.3685         estimate D2E/DX2                !
 ! R16   R(14,15)                1.083          estimate D2E/DX2                !
 ! R17   R(14,16)                1.7508         estimate D2E/DX2                !
 ! A1    A(2,1,3)              109.4322         estimate D2E/DX2                !
 ! A2    A(2,1,4)              109.4862         estimate D2E/DX2                !
 ! A3    A(2,1,17)             109.5037         estimate D2E/DX2                !
 ! A4    A(3,1,4)              109.4634         estimate D2E/DX2                !
 ! A5    A(3,1,17)             109.5088         estimate D2E/DX2                !
 ! A6    A(4,1,17)             109.4329         estimate D2E/DX2                !
 ! A7    A(1,4,5)              102.8316         estimate D2E/DX2                !
 ! A8    A(1,4,6)              110.1072         estimate D2E/DX2                !
 ! A9    A(1,4,7)              110.5401         estimate D2E/DX2                !
 ! A10   A(5,4,6)              119.12           estimate D2E/DX2                !
 ! A11   A(5,4,7)              110.9798         estimate D2E/DX2                !
 ! A12   A(6,4,7)              103.3277         estimate D2E/DX2                !
 ! A13   A(4,7,8)              108.8635         estimate D2E/DX2                !
 ! A14   A(4,7,9)              109.867          estimate D2E/DX2                !
 ! A15   A(4,7,10)             109.9157         estimate D2E/DX2                !
 ! A16   A(8,7,9)              104.5505         estimate D2E/DX2                !
 ! A17   A(8,7,10)             112.1688         estimate D2E/DX2                !
 ! A18   A(9,7,10)             111.3298         estimate D2E/DX2                !
 ! A19   A(7,10,11)            117.76           estimate D2E/DX2                !
 ! A20   A(7,10,16)            127.2918         estimate D2E/DX2                !
 ! A21   A(11,10,16)           114.4646         estimate D2E/DX2                !
 ! A22   A(10,11,12)           110.9308         estimate D2E/DX2                !
 ! A23   A(11,12,13)           115.7242         estimate D2E/DX2                !
 ! A24   A(11,12,14)           113.7517         estimate D2E/DX2                !
 ! A25   A(13,12,14)           129.9685         estimate D2E/DX2                !
 ! A26   A(12,14,15)           129.4847         estimate D2E/DX2                !
 ! A27   A(12,14,16)           112.9292         estimate D2E/DX2                !
 ! A28   A(15,14,16)           117.4191         estimate D2E/DX2                !
 ! A29   A(10,16,14)            86.8957         estimate D2E/DX2                !
 ! D1    D(2,1,4,5)            179.3856         estimate D2E/DX2                !
 ! D2    D(2,1,4,6)             51.442          estimate D2E/DX2                !
 ! D3    D(2,1,4,7)            -62.0934         estimate D2E/DX2                !
 ! D4    D(3,1,4,5)             59.4289         estimate D2E/DX2                !
 ! D5    D(3,1,4,6)            -68.5146         estimate D2E/DX2                !
 ! D6    D(3,1,4,7)            177.95           estimate D2E/DX2                !
 ! D7    D(17,1,4,5)           -60.5889         estimate D2E/DX2                !
 ! D8    D(17,1,4,6)           171.4676         estimate D2E/DX2                !
 ! D9    D(17,1,4,7)            57.9322         estimate D2E/DX2                !
 ! D10   D(1,4,7,8)            162.1615         estimate D2E/DX2                !
 ! D11   D(1,4,7,9)             48.2232         estimate D2E/DX2                !
 ! D12   D(1,4,7,10)           -74.6152         estimate D2E/DX2                !
 ! D13   D(5,4,7,8)            -84.4054         estimate D2E/DX2                !
 ! D14   D(5,4,7,9)            161.6563         estimate D2E/DX2                !
 ! D15   D(5,4,7,10)            38.8179         estimate D2E/DX2                !
 ! D16   D(6,4,7,8)             44.384          estimate D2E/DX2                !
 ! D17   D(6,4,7,9)            -69.5543         estimate D2E/DX2                !
 ! D18   D(6,4,7,10)           167.6072         estimate D2E/DX2                !
 ! D19   D(4,7,10,11)          105.2619         estimate D2E/DX2                !
 ! D20   D(4,7,10,16)          -66.2742         estimate D2E/DX2                !
 ! D21   D(8,7,10,11)         -133.4761         estimate D2E/DX2                !
 ! D22   D(8,7,10,16)           54.9878         estimate D2E/DX2                !
 ! D23   D(9,7,10,11)          -16.7104         estimate D2E/DX2                !
 ! D24   D(9,7,10,16)          171.7535         estimate D2E/DX2                !
 ! D25   D(7,10,11,12)         178.0901         estimate D2E/DX2                !
 ! D26   D(16,10,11,12)         -9.3012         estimate D2E/DX2                !
 ! D27   D(7,10,16,14)         175.7157         estimate D2E/DX2                !
 ! D28   D(11,10,16,14)          3.9426         estimate D2E/DX2                !
 ! D29   D(10,11,12,13)       -176.503          estimate D2E/DX2                !
 ! D30   D(10,11,12,14)         11.1798         estimate D2E/DX2                !
 ! D31   D(11,12,14,15)        166.7585         estimate D2E/DX2                !
 ! D32   D(11,12,14,16)         -8.3531         estimate D2E/DX2                !
 ! D33   D(13,12,14,15)         -4.2001         estimate D2E/DX2                !
 ! D34   D(13,12,14,16)       -179.3117         estimate D2E/DX2                !
 ! D35   D(12,14,16,10)          2.4429         estimate D2E/DX2                !
 ! D36   D(15,14,16,10)       -173.3081         estimate D2E/DX2                !
 --------------------------------------------------------------------------------
 Trust Radius=3.00D-01 FncErr=1.00D-07 GrdErr=1.00D-06 EigMax=2.50D+02 EigMin=1.00D-04
 Number of steps in this run=     92 maximum allowed number of steps=    102.
 GradGradGradGradGradGradGradGradGradGradGradGradGradGradGradGradGradGrad

 Leave Link  103 at Sun Jul 11 16:21:10 2021, MaxMem=   104857600 cpu:               0.1 elap:               0.0
 (Enter /prod/apps/gaussian/g16b1/l202.exe)
                          Input orientation:                          
 ---------------------------------------------------------------------
 Center     Atomic      Atomic             Coordinates (Angstroms)
 Number     Number       Type             X           Y           Z
 ---------------------------------------------------------------------
      1          7           0        2.172000    0.245000    0.168000
      2          1           0        2.386000    0.628000    1.067000
      3          1           0        3.017000    0.125000   -0.352000
      4          6           0        1.305000    1.133000   -0.533000
      5          1           0        1.154000    0.622000   -1.487000
      6          1           0        1.721000    2.144000   -0.531000
      7          6           0        0.012000    1.291000    0.200000
      8          1           0       -0.493000    2.189000   -0.164000
      9          1           0        0.206000    1.494000    1.255000
     10          6           0       -0.811000    0.084000    0.030000
     11          7           0       -0.911000   -0.770000    1.087000
     12          6           0       -1.736000   -1.814000    0.793000
     13          1           0       -1.918000   -2.511000    1.601000
     14          6           0       -2.068000   -1.898000   -0.532000
     15          1           0       -2.534000   -2.711000   -1.075000
     16         16           0       -1.535000   -0.511000   -1.458000
     17          1           0        1.721000   -0.640000    0.281000
 ---------------------------------------------------------------------
                    Distance matrix (angstroms):
                    1          2          3          4          5
     1  N    0.000000
     2  H    1.000343   0.000000
     3  H    0.999412   1.632400   0.000000
     4  C    1.425354   1.995892   1.994936   0.000000
     5  H    1.979262   2.835626   2.237410   1.092720   0.000000
     6  H    2.073211   2.300888   2.405830   1.093243   1.884651
     7  C    2.400154   2.612878   3.270212   1.494691   2.144223
     8  H    3.315356   3.498674   4.076216   2.117570   2.630290
     9  H    2.570355   2.353232   3.515442   2.129569   3.029464
    10  C    2.990527   3.404719   3.847231   2.427926   2.540070
    11  N    3.373377   3.581203   4.277959   3.340129   3.581531
    12  C    4.461230   4.798888   5.259444   4.437428   4.414136
    13  H    5.135867   5.353774   5.925954   5.312290   5.365502
    14  C    4.802088   5.364289   5.475596   4.534765   4.200442
    15  H    5.694684   6.320086   6.275287   5.459672   4.987983
    16  S    4.117919   4.800749   4.727413   3.409393   2.918090
    17  H    0.999697   1.633354   1.632645   1.994788   2.244985
                    6          7          8          9         10
     6  H    0.000000
     7  C    2.045153   0.000000
     8  H    2.244663   1.092669   0.000000
     9  H    2.430539   1.091728   1.727769   0.000000
    10  C    3.312000   1.470741   2.137706   2.126738   0.000000
    11  N    4.246969   2.426194   3.239661   2.530140   1.362558
    12  C    5.419372   3.612226   4.299408   3.863635   2.245039
    13  H    6.281462   4.488085   5.218798   4.546550   3.229166
    14  C    5.540242   3.877105   4.395409   4.457590   2.413341
    15  H    6.478579   4.911593   5.385685   5.533401   3.464358
    16  S    4.302312   2.896442   3.170205   3.796245   1.758506
    17  H    2.900000   2.579923   3.619815   2.792464   2.645411
                   11         12         13         14         15
    11  N    0.000000
    12  C    1.362717   0.000000
    13  H    2.075892   1.082496   0.000000
    14  C    2.287399   1.368541   2.224401   0.000000
    15  H    3.328041   2.220549   2.753258   1.083039   0.000000
    16  S    2.633151   2.608680   3.674802   1.750810   2.446363
    17  H    2.755714   3.686634   4.299461   4.074316   4.922682
                   16         17
    16  S    0.000000
    17  H    3.693548   0.000000
 Stoichiometry    C5H9N2S(1+)
 Framework group  C1[X(C5H9N2S)]
 Deg. of freedom    45
 Full point group                 C1      NOp   1
 Largest Abelian subgroup         C1      NOp   1
 Largest concise Abelian subgroup C1      NOp   1
                         Standard orientation:                         
 ---------------------------------------------------------------------
 Center     Atomic      Atomic             Coordinates (Angstroms)
 Number     Number       Type             X           Y           Z
 ---------------------------------------------------------------------
      1          7           0       -2.472049    0.597916   -0.859231
      2          1           0       -2.941308    1.280943   -0.298913
      3          1           0       -3.058694    0.335899   -1.624750
      4          6           0       -2.184288   -0.551121   -0.066425
      5          1           0       -1.691349   -1.219012   -0.777036
      6          1           0       -3.089035   -0.891652    0.444118
      7          6           0       -1.266847   -0.195573    1.058737
      8          1           0       -1.314185   -0.982520    1.815307
      9          1           0       -1.633666    0.697423    1.568512
     10          6           0        0.098299    0.002405    0.548580
     11          7           0        0.560390    1.280534    0.451503
     12          6           0        1.847881    1.300154    0.005431
     13          1           0        2.312962    2.276366   -0.044616
     14          6           0        2.286963    0.092071   -0.464299
     15          1           0        3.171445   -0.141126   -1.044201
     16         16           0        1.159486   -1.210990   -0.154199
     17          1           0       -1.618381    0.982757   -1.209294
 ---------------------------------------------------------------------
 Rotational constants (GHZ):           3.2274403           1.2285171           1.0595917
 Leave Link  202 at Sun Jul 11 16:21:10 2021, MaxMem=   104857600 cpu:               0.0 elap:               0.0
 (Enter /prod/apps/gaussian/g16b1/l301.exe)
 Standard basis: 6-31G(d) (6D, 7F)
 Ernie: Thresh=  0.10000D-02 Tol=  0.10000D-05 Strict=F.
 There are   142 symmetry adapted cartesian basis functions of A   symmetry.
 There are   142 symmetry adapted basis functions of A   symmetry.
   142 basis functions,   284 primitive gaussians,   142 cartesian basis functions
    34 alpha electrons       34 beta electrons
       nuclear repulsion energy       450.7979780928 Hartrees.
 IExCor=  402 DFT=T Ex+Corr=B3LYP ExCW=0 ScaHFX=  0.200000
 ScaDFX=  0.800000  0.720000  1.000000  0.810000 ScalE2=  1.000000  1.000000
 IRadAn=      5 IRanWt=     -1 IRanGd=            0 ICorTp=0 IEmpDi=  4
 NAtoms=   17 NActive=   17 NUniq=   17 SFac= 1.00D+00 NAtFMM=   60 NAOKFM=F Big=F
 Integral buffers will be    131072 words long.
 Raffenetti 2 integral format.
 Two-electron integral symmetry is turned on.
 Using the following non-standard input for PCM:
 MSTModel=DFT cav MSTCharged
 --- end of non-standard input.
 MST model for solvation energy: B3LYP parametrization.
 MST cavity parameters:
 ISph   IAn     Re0     Alpha   Atom Type   QCorr
 ------------------------------------------------
   1      7     1.70     1.15      NH         T
   2      1     0.90     1.15      NH         T
   3      1     0.90     1.15      NH         T
   4      6     1.50     1.25      CH2        F
   5      1     1.20     1.25      CH2        F
   6      1     1.20     1.25      CH2        F
   7      6     1.50     1.25      CH2        F
   8      1     1.20     1.25      CH2        F
   9      1     1.20     1.25      CH2        F
  10      6     1.50     1.25      C          F
  11      7     1.40     1.25      N          F
  12      6     1.50     1.25      CH         F
  13      1     1.20     1.25      CH         F
  14      6     1.50     1.25      CH         F
  15      1     1.20     1.25      CH         F
  16     16     1.75     1.25      S          F
  17      1     0.90     1.15      NH         T
 ------------------------------------------------------------------------------
 Polarizable Continuum Model (PCM)
 =================================
 Model                : PCM.
 Atomic radii         : MST.
 Polarization charges : Total charges.
 Charge compensation  : None.
 Solution method      : On-the-fly selection.
 Cavity type          : Scaled VdW (van der Waals Surface) (Alpha=1.250).
 Cavity algorithm     : GePol (No added spheres)
                        Default sphere list used, NSphG=   17.
                        Lebedev-Laikov grids with approx.  5.0 points / Ang**2.
                        Smoothing algorithm: York/Karplus (Gamma=1.0000).
                        Polarization charges: spherical gaussians, with
                                              point-specific exponents (IZeta= 3).
                        Self-potential: point-specific (ISelfS= 7).
                        Self-field    : sphere-specific E.n sum rule (ISelfD= 2).
 1st derivatives      : Analytical E(r).r(x)/FMM algorithm (CHGder, D1EAlg=3).
                        Cavity 1st derivative terms included.
 Solvent              : Water, Eps=  78.355300 Eps(inf)=   1.777849
 ------------------------------------------------------------------------------
 Spheres list:
 ISph  on   Nord     Re0    Alpha      Xe            Ye            Ze
    1   N      1    1.7000  1.150     -2.472049      0.597916     -0.859231
    2   H      2    0.9000  1.150     -2.941308      1.280943     -0.298913
    3   H      3    0.9000  1.150     -3.058694      0.335899     -1.624750
    4   C      4    1.5000  1.250     -2.184288     -0.551121     -0.066425
    5   H      5    1.2000  1.250     -1.691349     -1.219012     -0.777036
    6   H      6    1.2000  1.250     -3.089035     -0.891652      0.444118
    7   C      7    1.5000  1.250     -1.266847     -0.195573      1.058737
    8   H      8    1.2000  1.250     -1.314185     -0.982520      1.815307
    9   H      9    1.2000  1.250     -1.633666      0.697423      1.568512
   10   C     10    1.5000  1.250      0.098299      0.002405      0.548580
   11   N     11    1.4000  1.250      0.560390      1.280534      0.451503
   12   C     12    1.5000  1.250      1.847881      1.300154      0.005431
   13   H     13    1.2000  1.250      2.312962      2.276366     -0.044616
   14   C     14    1.5000  1.250      2.286963      0.092071     -0.464299
   15   H     15    1.2000  1.250      3.171445     -0.141126     -1.044201
   16   S     16    1.7500  1.250      1.159486     -1.210990     -0.154199
   17   H     17    0.9000  1.150     -1.618381      0.982757     -1.209294
 ------------------------------------------------------------------------------
 GePol: Number of generator spheres                  =      17
 GePol: Total number of spheres                      =      17
 GePol: Number of exposed spheres                    =      17 (100.00%)
 GePol: Number of points                             =    1269
 GePol: Average weight of points                     =       0.14
 GePol: Minimum weight of points                     =   0.16D-08
 GePol: Maximum weight of points                     =    0.22001
 GePol: Number of points with low weight             =      60
 GePol: Fraction of low-weight points (<1% of avg)   =       4.73%
 GePol: Cavity surface area                          =    174.873 Ang**2
 GePol: Cavity volume                                =    157.666 Ang**3
 PCM non-electrostatic energy =         0.0002564860 Hartrees.
 Nuclear repulsion after PCM non-electrostatic terms =      450.7982345789 Hartrees.
 Leave Link  301 at Sun Jul 11 16:21:10 2021, MaxMem=   104857600 cpu:               0.3 elap:               0.1
 (Enter /prod/apps/gaussian/g16b1/l302.exe)
 NPDir=0 NMtPBC=     1 NCelOv=     1 NCel=       1 NClECP=     1 NCelD=      1
         NCelK=      1 NCelE2=     1 NClLst=     1 CellRange=     0.0.
 One-electron integrals computed using PRISM.
 One-electron integral symmetry used in STVInt
 NBasis=   142 RedAO= T EigKep=  2.53D-03  NBF=   142
 NBsUse=   142 1.00D-06 EigRej= -1.00D+00 NBFU=   142
 Precomputing XC quadrature grid using
 IXCGrd= 4 IRadAn=           5 IRanWt=          -1 IRanGd=           0 AccXCQ= 0.00D+00.
 Generated NRdTot=       0 NPtTot=           0 NUsed=           0 NTot=          32
 NSgBfM=   142   142   142   142   142 MxSgAt=    17 MxSgA2=    17.
 Leave Link  302 at Sun Jul 11 16:21:10 2021, MaxMem=   104857600 cpu:               0.6 elap:               0.2
 (Enter /prod/apps/gaussian/g16b1/l303.exe)
 DipDrv:  MaxL=1.
 Leave Link  303 at Sun Jul 11 16:21:10 2021, MaxMem=   104857600 cpu:               0.1 elap:               0.0
 (Enter /prod/apps/gaussian/g16b1/l401.exe)
 ExpMin= 1.17D-01 ExpMax= 2.19D+04 ExpMxC= 3.30D+03 IAcc=3 IRadAn=         5 AccDes= 0.00D+00
 Harris functional with IExCor=  402 and IRadAn=       5 diagonalized for initial guess.
 HarFok:  IExCor=  402 AccDes= 0.00D+00 IRadAn=         5 IDoV= 1 UseB2=F ITyADJ=14
 ICtDFT=  3500011 ScaDFX=  1.000000  1.000000  1.000000  1.000000
 FoFCou: FMM=F IPFlag=           0 FMFlag=      100000 FMFlg1=           0
         NFxFlg=           0 DoJE=T BraDBF=F KetDBF=T FulRan=T
         wScrn=  0.000000 ICntrl=       500 IOpCl=  0 I1Cent=   200000004 NGrid=           0
         NMat0=    1 NMatS0=      1 NMatT0=    0 NMatD0=    1 NMtDS0=    0 NMtDT0=    0
 Petite list used in FoFCou.
 Harris En= -703.364014627155    
 JPrj=0 DoOrth=F DoCkMO=F.
 Leave Link  401 at Sun Jul 11 16:21:11 2021, MaxMem=   104857600 cpu:               2.5 elap:               0.6
 (Enter /prod/apps/gaussian/g16b1/l502.exe)
 Keep R1 ints in memory in canonical form, NReq=55421297.
 FoFCou: FMM=F IPFlag=           0 FMFlag=           0 FMFlg1=           0
         NFxFlg=           0 DoJE=F BraDBF=F KetDBF=F FulRan=T
         wScrn=  0.000000 ICntrl=       600 IOpCl=  0 I1Cent=           0 NGrid=           0
         NMat0=    1 NMatS0=  10153 NMatT0=    0 NMatD0=    1 NMtDS0=    0 NMtDT0=    0
 Symmetry not used in FoFCou.
 Two-electron integral symmetry not used.
 Closed shell SCF:
 Using DIIS extrapolation, IDIIS=  1040.
 NGot=   104857600 LenX=    53267901 LenY=    53247296
 Requested convergence on RMS density matrix=1.00D-08 within 128 cycles.
 Requested convergence on MAX density matrix=1.00D-06.
 Requested convergence on             energy=1.00D-06.
 No special actions if energy rises.

 Cycle   1  Pass 1  IDiag  1:
 Inv3:  Mode=1 IEnd=     4831083.
 Iteration    1 A*A^-1 deviation from unit magnitude is 3.11D-15 for    195.
 Iteration    1 A*A^-1 deviation from orthogonality  is 1.95D-15 for    361    101.
 Iteration    1 A^-1*A deviation from unit magnitude is 2.89D-15 for    195.
 Iteration    1 A^-1*A deviation from orthogonality  is 1.70D-15 for    694    206.
 E= -703.274130626027    
 DIIS: error= 2.37D-02 at cycle   1 NSaved=   1.
 NSaved= 1 IEnMin= 1 EnMin= -703.274130626027     IErMin= 1 ErrMin= 2.37D-02
 ErrMax= 2.37D-02  0.00D+00 EMaxC= 1.00D-01 BMatC= 2.00D-01 BMatP= 2.00D-01
 IDIUse=3 WtCom= 7.63D-01 WtEn= 2.37D-01
 Coeff-Com:  0.100D+01
 Coeff-En:   0.100D+01
 Coeff:      0.100D+01
 Gap=     0.239 Goal=   None    Shift=    0.000
 GapD=    0.239 DampG=1.000 DampE=0.500 DampFc=0.5000 IDamp=-1.
 Damping current iteration by 5.00D-01
 RMSDP=8.09D-03 MaxDP=2.37D-01              OVMax= 2.68D-01

 Cycle   2  Pass 1  IDiag  1:
 E= -703.344606528586     Delta-E=       -0.070475902559 Rises=F Damp=T
 DIIS: error= 8.28D-03 at cycle   2 NSaved=   2.
 NSaved= 2 IEnMin= 2 EnMin= -703.344606528586     IErMin= 2 ErrMin= 8.28D-03
 ErrMax= 8.28D-03  0.00D+00 EMaxC= 1.00D-01 BMatC= 2.04D-02 BMatP= 2.00D-01
 IDIUse=3 WtCom= 9.17D-01 WtEn= 8.28D-02
 Coeff-Com:  0.156D+00 0.844D+00
 Coeff-En:   0.290D+00 0.710D+00
 Coeff:      0.167D+00 0.833D+00
 Gap=     0.242 Goal=   None    Shift=    0.000
 RMSDP=2.26D-03 MaxDP=7.67D-02 DE=-7.05D-02 OVMax= 2.36D-01

 Cycle   3  Pass 1  IDiag  1:
 E= -703.469121845419     Delta-E=       -0.124515316833 Rises=F Damp=F
 DIIS: error= 6.22D-03 at cycle   3 NSaved=   3.
 NSaved= 3 IEnMin= 3 EnMin= -703.469121845419     IErMin= 3 ErrMin= 6.22D-03
 ErrMax= 6.22D-03  0.00D+00 EMaxC= 1.00D-01 BMatC= 1.36D-02 BMatP= 2.04D-02
 IDIUse=3 WtCom= 9.38D-01 WtEn= 6.22D-02
 Coeff-Com:  0.377D-01 0.441D+00 0.522D+00
 Coeff-En:   0.000D+00 0.000D+00 0.100D+01
 Coeff:      0.353D-01 0.413D+00 0.551D+00
 Gap=     0.202 Goal=   None    Shift=    0.000
 RMSDP=1.06D-03 MaxDP=3.75D-02 DE=-1.25D-01 OVMax= 5.10D-02

 Cycle   4  Pass 1  IDiag  1:
 E= -703.478702178252     Delta-E=       -0.009580332833 Rises=F Damp=F
 DIIS: error= 3.10D-03 at cycle   4 NSaved=   4.
 NSaved= 4 IEnMin= 4 EnMin= -703.478702178252     IErMin= 4 ErrMin= 3.10D-03
 ErrMax= 3.10D-03  0.00D+00 EMaxC= 1.00D-01 BMatC= 3.74D-03 BMatP= 1.36D-02
 IDIUse=3 WtCom= 9.69D-01 WtEn= 3.10D-02
 Coeff-Com: -0.901D-02 0.769D-01 0.350D+00 0.582D+00
 Coeff-En:   0.000D+00 0.000D+00 0.238D+00 0.762D+00
 Coeff:     -0.873D-02 0.745D-01 0.347D+00 0.588D+00
 Gap=     0.202 Goal=   None    Shift=    0.000
 RMSDP=4.19D-04 MaxDP=1.23D-02 DE=-9.58D-03 OVMax= 2.19D-02

 Cycle   5  Pass 1  IDiag  1:
 E= -703.481979609719     Delta-E=       -0.003277431467 Rises=F Damp=F
 DIIS: error= 5.61D-04 at cycle   5 NSaved=   5.
 NSaved= 5 IEnMin= 5 EnMin= -703.481979609719     IErMin= 5 ErrMin= 5.61D-04
 ErrMax= 5.61D-04  0.00D+00 EMaxC= 1.00D-01 BMatC= 1.31D-04 BMatP= 3.74D-03
 IDIUse=3 WtCom= 9.94D-01 WtEn= 5.61D-03
 Coeff-Com: -0.445D-02 0.120D-01 0.137D+00 0.286D+00 0.570D+00
 Coeff-En:   0.000D+00 0.000D+00 0.000D+00 0.000D+00 0.100D+01
 Coeff:     -0.443D-02 0.119D-01 0.137D+00 0.284D+00 0.572D+00
 Gap=     0.202 Goal=   None    Shift=    0.000
 RMSDP=1.15D-04 MaxDP=4.72D-03 DE=-3.28D-03 OVMax= 5.00D-03

 Cycle   6  Pass 1  IDiag  1:
 E= -703.482101790175     Delta-E=       -0.000122180456 Rises=F Damp=F
 DIIS: error= 2.35D-04 at cycle   6 NSaved=   6.
 NSaved= 6 IEnMin= 6 EnMin= -703.482101790175     IErMin= 6 ErrMin= 2.35D-04
 ErrMax= 2.35D-04  0.00D+00 EMaxC= 1.00D-01 BMatC= 1.46D-05 BMatP= 1.31D-04
 IDIUse=3 WtCom= 9.98D-01 WtEn= 2.35D-03
 Coeff-Com: -0.147D-02-0.513D-03 0.449D-01 0.106D+00 0.304D+00 0.547D+00
 Coeff-En:   0.000D+00 0.000D+00 0.000D+00 0.000D+00 0.683D-02 0.993D+00
 Coeff:     -0.147D-02-0.512D-03 0.448D-01 0.105D+00 0.303D+00 0.548D+00
 Gap=     0.202 Goal=   None    Shift=    0.000
 RMSDP=3.31D-05 MaxDP=1.09D-03 DE=-1.22D-04 OVMax= 2.25D-03

 Cycle   7  Pass 1  IDiag  1:
 E= -703.482115454610     Delta-E=       -0.000013664435 Rises=F Damp=F
 DIIS: error= 6.43D-05 at cycle   7 NSaved=   7.
 NSaved= 7 IEnMin= 7 EnMin= -703.482115454610     IErMin= 7 ErrMin= 6.43D-05
 ErrMax= 6.43D-05  0.00D+00 EMaxC= 1.00D-01 BMatC= 1.52D-06 BMatP= 1.46D-05
 IDIUse=1 WtCom= 1.00D+00 WtEn= 0.00D+00
 Coeff-Com: -0.452D-03-0.116D-02 0.150D-01 0.374D-01 0.117D+00 0.306D+00
 Coeff-Com:  0.527D+00
 Coeff:     -0.452D-03-0.116D-02 0.150D-01 0.374D-01 0.117D+00 0.306D+00
 Coeff:      0.527D+00
 Gap=     0.202 Goal=   None    Shift=    0.000
 RMSDP=1.11D-05 MaxDP=3.27D-04 DE=-1.37D-05 OVMax= 6.94D-04

 Cycle   8  Pass 1  IDiag  1:
 E= -703.482117001041     Delta-E=       -0.000001546431 Rises=F Damp=F
 DIIS: error= 2.03D-05 at cycle   8 NSaved=   8.
 NSaved= 8 IEnMin= 8 EnMin= -703.482117001041     IErMin= 8 ErrMin= 2.03D-05
 ErrMax= 2.03D-05  0.00D+00 EMaxC= 1.00D-01 BMatC= 1.42D-07 BMatP= 1.52D-06
 IDIUse=1 WtCom= 1.00D+00 WtEn= 0.00D+00
 Coeff-Com:  0.714D-04-0.667D-03-0.415D-03-0.214D-03 0.139D-03 0.584D-01
 Coeff-Com:  0.262D+00 0.681D+00
 Coeff:      0.714D-04-0.667D-03-0.415D-03-0.214D-03 0.139D-03 0.584D-01
 Coeff:      0.262D+00 0.681D+00
 Gap=     0.202 Goal=   None    Shift=    0.000
 RMSDP=3.29D-06 MaxDP=9.71D-05 DE=-1.55D-06 OVMax= 1.99D-04

 Cycle   9  Pass 1  IDiag  1:
 E= -703.482117149699     Delta-E=       -0.000000148658 Rises=F Damp=F
 DIIS: error= 4.26D-06 at cycle   9 NSaved=   9.
 NSaved= 9 IEnMin= 9 EnMin= -703.482117149699     IErMin= 9 ErrMin= 4.26D-06
 ErrMax= 4.26D-06  0.00D+00 EMaxC= 1.00D-01 BMatC= 9.26D-09 BMatP= 1.42D-07
 IDIUse=1 WtCom= 1.00D+00 WtEn= 0.00D+00
 Coeff-Com:  0.747D-04-0.224D-03-0.110D-02-0.259D-02-0.826D-02 0.575D-02
 Coeff-Com:  0.789D-01 0.306D+00 0.622D+00
 Coeff:      0.747D-04-0.224D-03-0.110D-02-0.259D-02-0.826D-02 0.575D-02
 Coeff:      0.789D-01 0.306D+00 0.622D+00
 Gap=     0.202 Goal=   None    Shift=    0.000
 RMSDP=1.02D-06 MaxDP=4.24D-05 DE=-1.49D-07 OVMax= 4.42D-05

 Cycle  10  Pass 1  IDiag  1:
 E= -703.482117159888     Delta-E=       -0.000000010189 Rises=F Damp=F
 DIIS: error= 1.20D-06 at cycle  10 NSaved=  10.
 NSaved=10 IEnMin=10 EnMin= -703.482117159888     IErMin=10 ErrMin= 1.20D-06
 ErrMax= 1.20D-06  0.00D+00 EMaxC= 1.00D-01 BMatC= 6.65D-10 BMatP= 9.26D-09
 IDIUse=1 WtCom= 1.00D+00 WtEn= 0.00D+00
 Coeff-Com:  0.258D-04-0.409D-04-0.400D-03-0.102D-02-0.350D-02-0.213D-02
 Coeff-Com:  0.111D-01 0.743D-01 0.262D+00 0.660D+00
 Coeff:      0.258D-04-0.409D-04-0.400D-03-0.102D-02-0.350D-02-0.213D-02
 Coeff:      0.111D-01 0.743D-01 0.262D+00 0.660D+00
 Gap=     0.202 Goal=   None    Shift=    0.000
 RMSDP=2.34D-07 MaxDP=8.13D-06 DE=-1.02D-08 OVMax= 9.75D-06

 Cycle  11  Pass 1  IDiag  1:
 E= -703.482117160507     Delta-E=       -0.000000000618 Rises=F Damp=F
 DIIS: error= 4.78D-07 at cycle  11 NSaved=  11.
 NSaved=11 IEnMin=11 EnMin= -703.482117160507     IErMin=11 ErrMin= 4.78D-07
 ErrMax= 4.78D-07  0.00D+00 EMaxC= 1.00D-01 BMatC= 1.01D-10 BMatP= 6.65D-10
 IDIUse=1 WtCom= 1.00D+00 WtEn= 0.00D+00
 Coeff-Com:  0.385D-05 0.381D-05-0.681D-04-0.202D-03-0.778D-03-0.167D-02
 Coeff-Com: -0.397D-02 0.118D-02 0.561D-01 0.326D+00 0.624D+00
 Coeff:      0.385D-05 0.381D-05-0.681D-04-0.202D-03-0.778D-03-0.167D-02
 Coeff:     -0.397D-02 0.118D-02 0.561D-01 0.326D+00 0.624D+00
 Gap=     0.202 Goal=   None    Shift=    0.000
 RMSDP=8.59D-08 MaxDP=2.76D-06 DE=-6.18D-10 OVMax= 4.54D-06

 Cycle  12  Pass 1  IDiag  1:
 E= -703.482117160615     Delta-E=       -0.000000000109 Rises=F Damp=F
 DIIS: error= 8.17D-08 at cycle  12 NSaved=  12.
 NSaved=12 IEnMin=12 EnMin= -703.482117160615     IErMin=12 ErrMin= 8.17D-08
 ErrMax= 8.17D-08  0.00D+00 EMaxC= 1.00D-01 BMatC= 2.77D-12 BMatP= 1.01D-10
 IDIUse=1 WtCom= 1.00D+00 WtEn= 0.00D+00
 Coeff-Com: -0.751D-06 0.416D-05 0.116D-04 0.229D-04 0.386D-04-0.246D-03
 Coeff-Com: -0.194D-02-0.500D-02-0.433D-02 0.432D-01 0.186D+00 0.783D+00
 Coeff:     -0.751D-06 0.416D-05 0.116D-04 0.229D-04 0.386D-04-0.246D-03
 Coeff:     -0.194D-02-0.500D-02-0.433D-02 0.432D-01 0.186D+00 0.783D+00
 Gap=     0.202 Goal=   None    Shift=    0.000
 RMSDP=1.75D-08 MaxDP=3.90D-07 DE=-1.09D-10 OVMax= 7.23D-07

 Cycle  13  Pass 1  IDiag  1:
 E= -703.482117160620     Delta-E=       -0.000000000005 Rises=F Damp=F
 DIIS: error= 1.80D-08 at cycle  13 NSaved=  13.
 NSaved=13 IEnMin=13 EnMin= -703.482117160620     IErMin=13 ErrMin= 1.80D-08
 ErrMax= 1.80D-08  0.00D+00 EMaxC= 1.00D-01 BMatC= 1.10D-13 BMatP= 2.77D-12
 IDIUse=1 WtCom= 1.00D+00 WtEn= 0.00D+00
 Coeff-Com: -0.353D-06 0.957D-06 0.624D-05 0.156D-04 0.383D-04-0.402D-05
 Coeff-Com: -0.440D-03-0.160D-02-0.366D-02 0.154D-03 0.325D-01 0.216D+00
 Coeff-Com:  0.757D+00
 Coeff:     -0.353D-06 0.957D-06 0.624D-05 0.156D-04 0.383D-04-0.402D-05
 Coeff:     -0.440D-03-0.160D-02-0.366D-02 0.154D-03 0.325D-01 0.216D+00
 Coeff:      0.757D+00
 Gap=     0.202 Goal=   None    Shift=    0.000
 RMSDP=3.35D-09 MaxDP=6.58D-08 DE=-5.00D-12 OVMax= 1.47D-07

 Error on total polarization charges =  0.01362
 SCF Done:  E(RB3LYP) =  -703.482117161     A.U. after   13 cycles
            NFock= 13  Conv=0.34D-08     -V/T= 2.0058
 KE= 6.994224721414D+02 PE=-2.543536996478D+03 EE= 6.898341725973D+02
 Leave Link  502 at Sun Jul 11 16:21:23 2021, MaxMem=   104857600 cpu:              47.5 elap:              12.6
 (Enter /prod/apps/gaussian/g16b1/l601.exe)
 Copying SCF densities to generalized density rwf, IOpCl= 0 IROHF=0.

 **********************************************************************

            Population analysis using the SCF Density.

 **********************************************************************

 Orbital symmetries:
       Occupied  (A) (A) (A) (A) (A) (A) (A) (A) (A) (A) (A) (A)
                 (A) (A) (A) (A) (A) (A) (A) (A) (A) (A) (A) (A)
                 (A) (A) (A) (A) (A) (A) (A) (A) (A) (A)
       Virtual   (A) (A) (A) (A) (A) (A) (A) (A) (A) (A) (A) (A)
                 (A) (A) (A) (A) (A) (A) (A) (A) (A) (A) (A) (A)
                 (A) (A) (A) (A) (A) (A) (A) (A) (A) (A) (A) (A)
                 (A) (A) (A) (A) (A) (A) (A) (A) (A) (A) (A) (A)
                 (A) (A) (A) (A) (A) (A) (A) (A) (A) (A) (A) (A)
                 (A) (A) (A) (A) (A) (A) (A) (A) (A) (A) (A) (A)
                 (A) (A) (A) (A) (A) (A) (A) (A) (A) (A) (A) (A)
                 (A) (A) (A) (A) (A) (A) (A) (A) (A) (A) (A) (A)
                 (A) (A) (A) (A) (A) (A) (A) (A) (A) (A) (A) (A)
 The electronic state is 1-A.
 Alpha  occ. eigenvalues --  -88.93057 -14.44869 -14.34621 -10.26568 -10.25087
 Alpha  occ. eigenvalues --  -10.22653 -10.22483 -10.21262  -7.99103  -5.95479
 Alpha  occ. eigenvalues --   -5.95148  -5.94837  -1.03102  -0.96110  -0.82070
 Alpha  occ. eigenvalues --   -0.80206  -0.73583  -0.66881  -0.61158  -0.59697
 Alpha  occ. eigenvalues --   -0.59338  -0.55113  -0.51762  -0.50031  -0.45702
 Alpha  occ. eigenvalues --   -0.44145  -0.42319  -0.39703  -0.38336  -0.38033
 Alpha  occ. eigenvalues --   -0.37728  -0.29788  -0.28354  -0.24571
 Alpha virt. eigenvalues --   -0.04343   0.00587   0.03776   0.05520   0.08222
 Alpha virt. eigenvalues --    0.10991   0.11777   0.12414   0.13237   0.14536
 Alpha virt. eigenvalues --    0.15395   0.16853   0.18303   0.19338   0.21276
 Alpha virt. eigenvalues --    0.23109   0.25683   0.29743   0.31200   0.36635
 Alpha virt. eigenvalues --    0.37494   0.41462   0.42265   0.49363   0.50176
 Alpha virt. eigenvalues --    0.51669   0.52427   0.53706   0.56938   0.57844
 Alpha virt. eigenvalues --    0.60551   0.61756   0.62741   0.65011   0.69845
 Alpha virt. eigenvalues --    0.70684   0.73240   0.75485   0.76307   0.79069
 Alpha virt. eigenvalues --    0.80390   0.83209   0.83414   0.84387   0.85570
 Alpha virt. eigenvalues --    0.85741   0.86104   0.87359   0.89308   0.91080
 Alpha virt. eigenvalues --    0.93659   0.94048   0.95925   0.98242   0.99694
 Alpha virt. eigenvalues --    1.01310   1.04541   1.05445   1.08046   1.16298
 Alpha virt. eigenvalues --    1.28570   1.31496   1.34537   1.42453   1.42654
 Alpha virt. eigenvalues --    1.47610   1.48579   1.54991   1.62228   1.69002
 Alpha virt. eigenvalues --    1.72261   1.76725   1.79639   1.84794   1.88353
 Alpha virt. eigenvalues --    1.93939   1.95387   1.96944   2.01958   2.04279
 Alpha virt. eigenvalues --    2.10011   2.15689   2.16795   2.20644   2.21108
 Alpha virt. eigenvalues --    2.24545   2.27926   2.32001   2.35705   2.42429
 Alpha virt. eigenvalues --    2.43051   2.48119   2.50783   2.56120   2.58488
 Alpha virt. eigenvalues --    2.63154   2.68770   2.77046   2.94681   3.00133
 Alpha virt. eigenvalues --    3.78566   3.91427   3.94915   4.09140   4.20251
 Alpha virt. eigenvalues --    4.32185   4.37861   4.48911
          Condensed to atoms (all electrons):
               1          2          3          4          5          6
     1  N    6.689390   0.302104   0.308488   0.245659  -0.049604  -0.035920
     2  H    0.302104   0.274761  -0.009842  -0.021440   0.004727  -0.002974
     3  H    0.308488  -0.009842   0.265109  -0.021029  -0.003486  -0.002531
     4  C    0.245659  -0.021440  -0.021029   5.038066   0.390975   0.382468
     5  H   -0.049604   0.004727  -0.003486   0.390975   0.487166  -0.013013
     6  H   -0.035920  -0.002974  -0.002531   0.382468  -0.013013   0.485903
     7  C   -0.062554  -0.001855   0.004769   0.354963  -0.039757  -0.042000
     8  H    0.004452  -0.000011  -0.000119  -0.035140  -0.000422  -0.005320
     9  H   -0.005642   0.005073   0.000060  -0.036087   0.004463  -0.001011
    10  C   -0.003530  -0.000546  -0.000052  -0.059297  -0.006026   0.006348
    11  N   -0.000803   0.000219   0.000014  -0.002655   0.000132  -0.000108
    12  C    0.000060   0.000001  -0.000001  -0.000046  -0.000020   0.000004
    13  H    0.000002   0.000000  -0.000000   0.000006  -0.000000  -0.000000
    14  C   -0.000019  -0.000000   0.000001   0.000247  -0.000220  -0.000003
    15  H   -0.000000   0.000000   0.000000   0.000001   0.000006  -0.000000
    16  S    0.000677   0.000020  -0.000030  -0.003595   0.007394  -0.000076
    17  H    0.296510  -0.010066  -0.010212  -0.026332  -0.002648   0.004219
               7          8          9         10         11         12
     1  N   -0.062554   0.004452  -0.005642  -0.003530  -0.000803   0.000060
     2  H   -0.001855  -0.000011   0.005073  -0.000546   0.000219   0.000001
     3  H    0.004769  -0.000119   0.000060  -0.000052   0.000014  -0.000001
     4  C    0.354963  -0.035140  -0.036087  -0.059297  -0.002655  -0.000046
     5  H   -0.039757  -0.000422   0.004463  -0.006026   0.000132  -0.000020
     6  H   -0.042000  -0.005320  -0.001011   0.006348  -0.000108   0.000004
     7  C    5.152798   0.373103   0.369871   0.345669  -0.061169   0.007293
     8  H    0.373103   0.500591  -0.024341  -0.026286   0.002174  -0.000205
     9  H    0.369871  -0.024341   0.505807  -0.034500   0.003050   0.000264
    10  C    0.345669  -0.026286  -0.034500   5.084750   0.460737  -0.092580
    11  N   -0.061169   0.002174   0.003050   0.460737   6.807613   0.420985
    12  C    0.007293  -0.000205   0.000264  -0.092580   0.420985   4.742495
    13  H   -0.000247   0.000004  -0.000024   0.007376  -0.046022   0.374639
    14  C    0.003516   0.000049  -0.000017  -0.050798  -0.068874   0.576621
    15  H   -0.000089  -0.000001   0.000001   0.002666   0.004761  -0.016552
    16  S   -0.058553   0.000342   0.004078   0.297681  -0.082454  -0.072811
    17  H   -0.007612   0.000149   0.000321   0.011296   0.008154   0.000004
              13         14         15         16         17
     1  N    0.000002  -0.000019  -0.000000   0.000677   0.296510
     2  H    0.000000  -0.000000   0.000000   0.000020  -0.010066
     3  H   -0.000000   0.000001   0.000000  -0.000030  -0.010212
     4  C    0.000006   0.000247   0.000001  -0.003595  -0.026332
     5  H   -0.000000  -0.000220   0.000006   0.007394  -0.002648
     6  H   -0.000000  -0.000003  -0.000000  -0.000076   0.004219
     7  C   -0.000247   0.003516  -0.000089  -0.058553  -0.007612
     8  H    0.000004   0.000049  -0.000001   0.000342   0.000149
     9  H   -0.000024  -0.000017   0.000001   0.004078   0.000321
    10  C    0.007376  -0.050798   0.002666   0.297681   0.011296
    11  N   -0.046022  -0.068874   0.004761  -0.082454   0.008154
    12  C    0.374639   0.576621  -0.016552  -0.072811   0.000004
    13  H    0.527454  -0.046515  -0.000651   0.003965  -0.000023
    14  C   -0.046515   5.281880   0.349021   0.320941  -0.000301
    15  H   -0.000651   0.349021   0.486318  -0.033239  -0.000004
    16  S    0.003965   0.320941  -0.033239  15.324523   0.000453
    17  H   -0.000023  -0.000301  -0.000004   0.000453   0.278700
 Mulliken charges:
               1
     1  N   -0.689271
     2  H    0.459831
     3  H    0.468861
     4  C   -0.206765
     5  H    0.220332
     6  H    0.224014
     7  C   -0.338148
     8  H    0.210981
     9  H    0.208633
    10  C    0.057092
    11  N   -0.445753
    12  C    0.059849
    13  H    0.180038
    14  C   -0.365531
    15  H    0.207761
    16  S    0.290684
    17  H    0.457391
 Sum of Mulliken charges =   1.00000
 Mulliken charges with hydrogens summed into heavy atoms:
               1
     1  N    0.696812
     4  C    0.237582
     7  C    0.081466
    10  C    0.057092
    11  N   -0.445753
    12  C    0.239887
    14  C   -0.157769
    16  S    0.290684
 Electronic spatial extent (au):  <R**2>=           1152.2369
 Charge=              1.0000 electrons
 Dipole moment (field-independent basis, Debye):
    X=            -10.7011    Y=              0.8383    Z=             -4.1163  Tot=             11.4961
 Quadrupole moment (field-independent basis, Debye-Ang):
   XX=            -14.5875   YY=            -49.9041   ZZ=            -46.6839
   XY=             -4.7090   XZ=              5.0531   YZ=             -3.6707
 Traceless Quadrupole moment (field-independent basis, Debye-Ang):
   XX=             22.4710   YY=            -12.8456   ZZ=             -9.6254
   XY=             -4.7090   XZ=              5.0531   YZ=             -3.6707
 Octapole moment (field-independent basis, Debye-Ang**2):
  XXX=            -91.6205  YYY=              5.1809  ZZZ=            -12.1507  XYY=            -10.2894
  XXY=             22.1130  XXZ=            -33.3663  XZZ=            -24.1876  YZZ=              0.4399
  YYZ=             -5.6782  XYZ=              6.7201
 Hexadecapole moment (field-independent basis, Debye-Ang**3):
 XXXX=           -650.1477 YYYY=           -323.0194 ZZZZ=           -158.2214 XXXY=            -55.8206
 XXXZ=             50.7674 YYYX=             -4.6725 YYYZ=             -9.6067 ZZZX=             30.1884
 ZZZY=             -9.3985 XXYY=           -174.4143 XXZZ=           -139.8456 YYZZ=            -83.7394
 XXYZ=            -10.4895 YYXZ=              3.2316 ZZXY=            -10.3658
 N-N= 4.507982345789D+02 E-N=-2.543536994298D+03  KE= 6.994224721414D+02
 No NMR shielding tensors so no spin-rotation constants.
 Leave Link  601 at Sun Jul 11 16:21:23 2021, MaxMem=   104857600 cpu:               0.3 elap:               0.1
 (Enter /prod/apps/gaussian/g16b1/l701.exe)
 ... and contract with generalized density number  0.
 Compute integral first derivatives.
 D1PCM: PCM CHGder 1st derivatives, ID1Alg=3 FixD1E=F DoIter=F DoCFld=F I1PDM=0.
 GePol: Maximum number of non-zero 1st derivatives   =     284
 Leave Link  701 at Sun Jul 11 16:21:24 2021, MaxMem=   104857600 cpu:               2.7 elap:               0.7
 (Enter /prod/apps/gaussian/g16b1/l702.exe)
 L702 exits ... SP integral derivatives will be done elsewhere.
 Leave Link  702 at Sun Jul 11 16:21:24 2021, MaxMem=   104857600 cpu:               0.1 elap:               0.0
 (Enter /prod/apps/gaussian/g16b1/l703.exe)
 Integral derivatives from FoFJK, PRISM(SPDF).
 Compute integral first derivatives, UseDBF=F ICtDFT=           0.
 Calling FoFJK, ICntrl=      2127 FMM=F ISym2X=0 I1Cent= 0 IOpClX= 0 NMat=1 NMatS=1 NMatT=0.
 FoFJK:  IHMeth= 1 ICntrl=    2127 DoSepK=F KAlg= 0 I1Cent=           0 FoldK=F
 IRaf=         0 NMat=       1 IRICut=       1 DoRegI=T DoRafI=F ISym2E= 0 IDoP0=0 IntGTp=1.
 FoFCou: FMM=F IPFlag=           0 FMFlag=      100000 FMFlg1=         800
         NFxFlg=           0 DoJE=F BraDBF=F KetDBF=F FulRan=T
         wScrn=  0.000000 ICntrl=      2127 IOpCl=  0 I1Cent=           0 NGrid=           0
         NMat0=    1 NMatS0=      1 NMatT0=    0 NMatD0=    1 NMtDS0=    0 NMtDT0=    0
 Symmetry not used in FoFCou.
 Leave Link  703 at Sun Jul 11 16:21:27 2021, MaxMem=   104857600 cpu:              11.0 elap:               2.8
 (Enter /prod/apps/gaussian/g16b1/l716.exe)
 Dipole        =-4.21014803D+00 3.29830180D-01-1.61947328D+00
 ***** Axes restored to original set *****
 -------------------------------------------------------------------
 Center     Atomic                   Forces (Hartrees/Bohr)
 Number     Number              X              Y              Z
 -------------------------------------------------------------------
      1        7           0.007902698    0.005838620    0.010203229
      2        1           0.010929735    0.003385642    0.026638377
      3        1           0.029637777   -0.008132690   -0.011846032
      4        6          -0.015167270    0.030308162   -0.021553000
      5        1           0.000373552    0.018404672   -0.007100790
      6        1           0.011831379   -0.007749751   -0.015241570
      7        6          -0.014995118    0.012944626   -0.004837021
      8        1          -0.001081833   -0.000487784   -0.004471734
      9        1          -0.002715576   -0.004882480    0.002796619
     10        6          -0.004587464   -0.039442205    0.048398245
     11        7          -0.010972295    0.045894229   -0.028135890
     12        6           0.017722013   -0.004237341   -0.014934918
     13        1          -0.005097597   -0.005972993   -0.006089302
     14        6          -0.011585133   -0.011270714   -0.009691082
     15        1          -0.005372367    0.001508286    0.003783918
     16       16           0.001582174   -0.004914892    0.024911433
     17        1          -0.008404677   -0.031193387    0.007169516
 -------------------------------------------------------------------
 Cartesian Forces:  Max     0.048398245 RMS     0.017018593
 Leave Link  716 at Sun Jul 11 16:21:27 2021, MaxMem=   104857600 cpu:               0.1 elap:               0.0
 (Enter /prod/apps/gaussian/g16b1/l103.exe)

 GradGradGradGradGradGradGradGradGradGradGradGradGradGradGradGradGradGrad
 Berny optimization.
 FormGI is forming the generalized inverse of G from B-inverse, IUseBI=4.
 Internal  Forces:  Max     0.058972649 RMS     0.013397844
 Search for a local minimum.
 Step number   1 out of a maximum of   92
 All quantities printed in internal units (Hartrees-Bohrs-Radians)
 RMS Force = .13398D-01 SwitMx=.10000D-02 MixMth= 1
 Mixed Optimization -- RFO/linear search
 Second derivative matrix not updated -- first step.
 ITU=  0
     Eigenvalues ---    0.00836   0.01153   0.01332   0.01356   0.01512
     Eigenvalues ---    0.02077   0.02282   0.02462   0.04637   0.04760
     Eigenvalues ---    0.05735   0.05814   0.06451   0.06453   0.07964
     Eigenvalues ---    0.09182   0.11780   0.12715   0.15857   0.15955
     Eigenvalues ---    0.16000   0.16000   0.16000   0.21799   0.22353
     Eigenvalues ---    0.22358   0.24552   0.24839   0.29077   0.29956
     Eigenvalues ---    0.32941   0.34441   0.34500   0.34506   0.34614
     Eigenvalues ---    0.35630   0.35652   0.35694   0.41664   0.47628
     Eigenvalues ---    0.47742   0.47792   0.47834   0.50257   0.51956
 RFO step:  Lambda=-4.48020261D-02 EMin= 8.36171813D-03
 Linear search not attempted -- first point.
 Maximum step size (   0.300) exceeded in Quadratic search.
    -- Step size scaled by   0.877
 Iteration  1 RMS(Cart)=  0.10498875 RMS(Int)=  0.00187234
 Iteration  2 RMS(Cart)=  0.00281498 RMS(Int)=  0.00077229
 Iteration  3 RMS(Cart)=  0.00000769 RMS(Int)=  0.00077229
 Iteration  4 RMS(Cart)=  0.00000000 RMS(Int)=  0.00077229
 ITry= 1 IFail=0 DXMaxC= 3.62D-01 DCOld= 1.00D+10 DXMaxT= 3.00D-01 DXLimC= 3.00D+00 Rises=F
 Variable       Old X    -DE/DX   Delta X   Delta X   Delta X     New X
                                 (Linear)    (Quad)   (Total)
    R1        1.89037   0.02757   0.00000   0.04643   0.04643   1.93680
    R2        1.88862   0.03220   0.00000   0.05405   0.05405   1.94267
    R3        2.69353   0.05897   0.00000   0.11214   0.11214   2.80567
    R4        1.88915   0.03222   0.00000   0.05415   0.05415   1.94330
    R5        2.06494  -0.00245   0.00000  -0.00552  -0.00552   2.05942
    R6        2.06593  -0.00270   0.00000  -0.00608  -0.00608   2.05985
    R7        2.82456   0.03673   0.00000   0.08613   0.08613   2.91069
    R8        2.06484   0.00159   0.00000   0.00358   0.00358   2.06842
    R9        2.06307   0.00131   0.00000   0.00294   0.00294   2.06600
   R10        2.77930   0.02324   0.00000   0.05082   0.05082   2.83011
   R11        2.57486  -0.04097   0.00000  -0.06518  -0.06540   2.50946
   R12        3.32310  -0.00340   0.00000  -0.01187  -0.01176   3.31134
   R13        2.57516   0.01981   0.00000   0.03101   0.03078   2.60594
   R14        2.04562   0.00016   0.00000   0.00034   0.00034   2.04596
   R15        2.58617  -0.00886   0.00000  -0.01173  -0.01175   2.57441
   R16        2.04665  -0.00072   0.00000  -0.00158  -0.00158   2.04507
   R17        3.30855  -0.01176   0.00000  -0.02728  -0.02703   3.28152
    A1        1.90995  -0.00750   0.00000  -0.03182  -0.03234   1.87761
    A2        1.91090   0.00929   0.00000   0.04040   0.03978   1.95068
    A3        1.91120  -0.00782   0.00000  -0.03258  -0.03323   1.87797
    A4        1.91050   0.00595   0.00000   0.02503   0.02459   1.93509
    A5        1.91129  -0.00685   0.00000  -0.03060  -0.03090   1.88039
    A6        1.90996   0.00695   0.00000   0.02961   0.02910   1.93907
    A7        1.79475   0.00947   0.00000   0.05269   0.05261   1.84736
    A8        1.92173  -0.00775   0.00000  -0.04190  -0.04249   1.87924
    A9        1.92929  -0.00112   0.00000   0.01064   0.01028   1.93957
   A10        2.07904  -0.00984   0.00000  -0.07815  -0.07767   2.00137
   A11        1.93696  -0.00377   0.00000  -0.01377  -0.01431   1.92265
   A12        1.80341   0.01244   0.00000   0.07020   0.07066   1.87406
   A13        1.90003  -0.00802   0.00000  -0.02244  -0.02240   1.87763
   A14        1.91754  -0.00370   0.00000  -0.00490  -0.00406   1.91348
   A15        1.91839   0.02309   0.00000   0.07792   0.07820   1.99659
   A16        1.82475   0.00534   0.00000   0.01551   0.01485   1.83960
   A17        1.95771  -0.00612   0.00000  -0.01809  -0.01839   1.93932
   A18        1.94307  -0.01187   0.00000  -0.05192  -0.05226   1.89081
   A19        2.05530   0.01940   0.00000   0.06148   0.06184   2.11714
   A20        2.22166  -0.01066   0.00000  -0.02882  -0.02869   2.19297
   A21        1.99778  -0.00838   0.00000  -0.02782  -0.02903   1.96875
   A22        1.93611   0.00444   0.00000   0.01312   0.01122   1.94733
   A23        2.01977   0.00574   0.00000   0.02810   0.02711   2.04687
   A24        1.98534   0.00957   0.00000   0.04274   0.04025   2.02560
   A25        2.26838  -0.01431   0.00000  -0.05751  -0.05856   2.20981
   A26        2.25993   0.00801   0.00000   0.01875   0.01908   2.27901
   A27        1.97099  -0.02166   0.00000  -0.06138  -0.06196   1.90902
   A28        2.04935   0.01359   0.00000   0.04263   0.04292   2.09227
   A29        1.51662   0.01770   0.00000   0.05519   0.05467   1.57128
    D1        3.13087  -0.00356   0.00000  -0.03416  -0.03447   3.09640
    D2        0.89783   0.00672   0.00000   0.05063   0.05042   0.94826
    D3       -1.08373  -0.00326   0.00000  -0.01627  -0.01585  -1.09958
    D4        1.03723  -0.00369   0.00000  -0.03523  -0.03557   1.00166
    D5       -1.19581   0.00659   0.00000   0.04956   0.04933  -1.14648
    D6        3.10581  -0.00339   0.00000  -0.01734  -0.01694   3.08887
    D7       -1.05748  -0.00319   0.00000  -0.03120  -0.03139  -1.08886
    D8        2.99267   0.00709   0.00000   0.05359   0.05350   3.04618
    D9        1.01111  -0.00289   0.00000  -0.01331  -0.01276   0.99834
   D10        2.83025  -0.00377   0.00000  -0.01393  -0.01358   2.81668
   D11        0.84165  -0.00376   0.00000  -0.01750  -0.01694   0.82472
   D12       -1.30228  -0.00175   0.00000  -0.00088  -0.00069  -1.30297
   D13       -1.47315   0.00492   0.00000   0.04837   0.04837  -1.42478
   D14        2.82144   0.00493   0.00000   0.04480   0.04501   2.86645
   D15        0.67750   0.00695   0.00000   0.06143   0.06125   0.73875
   D16        0.77465  -0.00104   0.00000  -0.00856  -0.00895   0.76569
   D17       -1.21395  -0.00103   0.00000  -0.01213  -0.01231  -1.22626
   D18        2.92530   0.00098   0.00000   0.00450   0.00393   2.92923
   D19        1.83717   0.00132   0.00000   0.01237   0.01186   1.84903
   D20       -1.15670  -0.00134   0.00000  -0.02825  -0.02866  -1.18537
   D21       -2.32960   0.00309   0.00000   0.02597   0.02562  -2.30398
   D22        0.95972   0.00044   0.00000  -0.01465  -0.01490   0.94482
   D23       -0.29165  -0.00188   0.00000  -0.00008   0.00063  -0.29102
   D24        2.99766  -0.00454   0.00000  -0.04071  -0.03989   2.95778
   D25        3.10826   0.00622   0.00000   0.06052   0.05869  -3.11624
   D26       -0.16234   0.00798   0.00000   0.09473   0.09323  -0.06910
   D27        3.06682   0.00237   0.00000   0.01386   0.01226   3.07908
   D28        0.06881  -0.00224   0.00000  -0.03211  -0.03199   0.03682
   D29       -3.08056  -0.00163   0.00000  -0.02773  -0.02647  -3.10703
   D30        0.19512  -0.00725   0.00000  -0.11422  -0.11803   0.07710
   D31        2.91049   0.00793   0.00000   0.10028   0.09985   3.01033
   D32       -0.14579   0.00837   0.00000   0.09884   0.09804  -0.04775
   D33       -0.07331  -0.00105   0.00000  -0.01158  -0.01085  -0.08416
   D34       -3.12958  -0.00061   0.00000  -0.01301  -0.01266   3.14095
   D35        0.04264  -0.00270   0.00000  -0.03709  -0.03643   0.00620
   D36       -3.02480  -0.00229   0.00000  -0.03783  -0.03746  -3.06226
         Item               Value     Threshold  Converged?
 Maximum Force            0.058973     0.000450     NO 
 RMS     Force            0.013398     0.000300     NO 
 Maximum Displacement     0.362227     0.001800     NO 
 RMS     Displacement     0.105780     0.001200     NO 
 Predicted change in Energy=-2.572764D-02
 Lowest energy point so far.  Saving SCF results.
 GradGradGradGradGradGradGradGradGradGradGradGradGradGradGradGradGradGrad

 Leave Link  103 at Sun Jul 11 16:21:27 2021, MaxMem=   104857600 cpu:               0.1 elap:               0.1
 (Enter /prod/apps/gaussian/g16b1/l202.exe)
                          Input orientation:                          
 ---------------------------------------------------------------------
 Center     Atomic      Atomic             Coordinates (Angstroms)
 Number     Number       Type             X           Y           Z
 ---------------------------------------------------------------------
      1          7           0        2.300640    0.309319    0.187368
      2          1           0        2.525899    0.696332    1.109282
      3          1           0        3.182657    0.208520   -0.330998
      4          6           0        1.347012    1.172571   -0.554058
      5          1           0        1.212907    0.700494   -1.527104
      6          1           0        1.768951    2.176979   -0.589946
      7          6           0       -0.003357    1.266904    0.180811
      8          1           0       -0.529108    2.145911   -0.205188
      9          1           0        0.168741    1.473626    1.240488
     10          6           0       -0.853713    0.038879    0.072407
     11          7           0       -1.001862   -0.790572    1.098817
     12          6           0       -1.797556   -1.867664    0.769577
     13          1           0       -2.006741   -2.587259    1.550992
     14          6           0       -2.198551   -1.940262   -0.530366
     15          1           0       -2.724139   -2.722559   -1.062278
     16         16           0       -1.616462   -0.549169   -1.391463
     17          1           0        1.912682   -0.632048    0.331658
 ---------------------------------------------------------------------
                    Distance matrix (angstroms):
                    1          2          3          4          5
     1  N    0.000000
     2  H    1.024912   0.000000
     3  H    1.028016   1.656411   0.000000
     4  C    1.484696   2.093628   2.085364   0.000000
     5  H    2.067751   2.945249   2.356400   1.089798   0.000000
     6  H    2.091665   2.377533   2.437304   1.090025   1.835063
     7  C    2.495078   2.754041   3.395998   1.540269   2.171887
     8  H    3.396269   3.627971   4.188855   2.142178   2.621318
     9  H    2.647577   2.485477   3.626810   2.167799   3.057381
    10  C    3.168011   3.595710   4.060023   2.553606   2.695753
    11  N    3.598197   3.828327   4.533514   3.478956   3.744855
    12  C    4.676905   5.038029   5.506752   4.569831   4.575267
    13  H    5.366859   5.614437   6.187739   5.460332   5.536256
    14  C    5.081189   5.653362   5.797794   4.718190   4.427768
    15  H    6.000193   6.630791   6.634473   5.657261   5.237718
    16  S    4.309687   4.996414   4.972948   3.528146   3.096027
    17  H    1.028350   1.656903   1.660874   2.088331   2.391725
                    6          7          8          9         10
     6  H    0.000000
     7  C    2.136206   0.000000
     8  H    2.330253   1.094561   0.000000
     9  H    2.530981   1.093282   1.740384   0.000000
    10  C    3.447977   1.497632   2.149886   2.113841   0.000000
    11  N    4.397236   2.464336   3.247592   2.552836   1.327952
    12  C    5.561242   3.659414   4.320638   3.905419   2.238704
    13  H    6.444954   4.554725   5.260273   4.617350   3.226809
    14  C    5.718068   3.951021   4.426013   4.516041   2.467575
    15  H    6.664565   4.986356   5.408768   5.592804   3.523003
    16  S    4.419879   2.893488   3.138956   3.769060   1.752285
    17  H    2.959839   2.701847   3.737325   2.881175   2.858373
                   11         12         13         14         15
    11  N    0.000000
    12  C    1.379005   0.000000
    13  H    2.107684   1.082675   0.000000
    14  C    2.325530   1.362322   2.188024   0.000000
    15  H    3.371817   2.223757   2.713328   1.082202   0.000000
    16  S    2.576335   2.537976   3.600580   1.736507   2.461491
    17  H    3.017984   3.935020   4.546593   4.399631   5.273842
                   16         17
    16  S    0.000000
    17  H    3.928215   0.000000
 Stoichiometry    C5H9N2S(1+)
 Framework group  C1[X(C5H9N2S)]
 Deg. of freedom    45
 Full point group                 C1      NOp   1
 RotChk:  IX=0 Diff= 5.39D-02
 Largest Abelian subgroup         C1      NOp   1
 Largest concise Abelian subgroup C1      NOp   1
                         Standard orientation:                         
 ---------------------------------------------------------------------
 Center     Atomic      Atomic             Coordinates (Angstroms)
 Number     Number       Type             X           Y           Z
 ---------------------------------------------------------------------
      1          7           0       -2.661588    0.632183   -0.812923
      2          1           0       -3.131043    1.318360   -0.213575
      3          1           0       -3.305506    0.397031   -1.579011
      4          6           0       -2.272612   -0.584717   -0.056499
      5          1           0       -1.829505   -1.260591   -0.787601
      6          1           0       -3.166597   -0.968756    0.434886
      7          6           0       -1.249762   -0.250197    1.045455
      8          1           0       -1.255161   -1.076402    1.763382
      9          1           0       -1.587828    0.624731    1.607129
     10          6           0        0.135154    0.018824    0.542925
     11          7           0        0.628459    1.251195    0.505954
     12          6           0        1.903050    1.271589   -0.020030
     13          1           0        2.407013    2.228876   -0.062568
     14          6           0        2.378848    0.081647   -0.482168
     15          1           0        3.283453   -0.150170   -1.029080
     16         16           0        1.205473   -1.163148   -0.183616
     17          1           0       -1.838564    1.090776   -1.225026
 ---------------------------------------------------------------------
 Rotational constants (GHZ):           3.3164439           1.1323819           0.9934433
 Leave Link  202 at Sun Jul 11 16:21:27 2021, MaxMem=   104857600 cpu:               0.1 elap:               0.0
 (Enter /prod/apps/gaussian/g16b1/l301.exe)
 Standard basis: 6-31G(d) (6D, 7F)
 Ernie: Thresh=  0.10000D-02 Tol=  0.10000D-05 Strict=F.
 There are   142 symmetry adapted cartesian basis functions of A   symmetry.
 There are   142 symmetry adapted basis functions of A   symmetry.
   142 basis functions,   284 primitive gaussians,   142 cartesian basis functions
    34 alpha electrons       34 beta electrons
       nuclear repulsion energy       444.1610057737 Hartrees.
 IExCor=  402 DFT=T Ex+Corr=B3LYP ExCW=0 ScaHFX=  0.200000
 ScaDFX=  0.800000  0.720000  1.000000  0.810000 ScalE2=  1.000000  1.000000
 IRadAn=      5 IRanWt=     -1 IRanGd=            0 ICorTp=0 IEmpDi=  4
 NAtoms=   17 NActive=   17 NUniq=   17 SFac= 1.00D+00 NAtFMM=   60 NAOKFM=F Big=F
 Integral buffers will be    131072 words long.
 Raffenetti 2 integral format.
 Two-electron integral symmetry is turned on.
 ------------------------------------------------------------------------------
 Polarizable Continuum Model (PCM)
 =================================
 Model                : PCM.
 Atomic radii         : MST.
 Polarization charges : Total charges.
 Charge compensation  : None.
 Solution method      : On-the-fly selection.
 Cavity type          : Scaled VdW (van der Waals Surface) (Alpha=1.250).
 Cavity algorithm     : GePol (No added spheres)
                        Default sphere list used, NSphG=   17.
                        Lebedev-Laikov grids with approx.  5.0 points / Ang**2.
                        Smoothing algorithm: York/Karplus (Gamma=1.0000).
                        Polarization charges: spherical gaussians, with
                                              point-specific exponents (IZeta= 3).
                        Self-potential: point-specific (ISelfS= 7).
                        Self-field    : sphere-specific E.n sum rule (ISelfD= 2).
 1st derivatives      : Analytical E(r).r(x)/FMM algorithm (CHGder, D1EAlg=3).
                        Cavity 1st derivative terms included.
 Solvent              : Water, Eps=  78.355300 Eps(inf)=   1.777849
 ------------------------------------------------------------------------------
 Spheres list:
 ISph  on   Nord     Re0    Alpha      Xe            Ye            Ze
    1   N      1    1.7000  1.150     -2.661588      0.632183     -0.812923
    2   H      2    0.9000  1.150     -3.131043      1.318360     -0.213575
    3   H      3    0.9000  1.150     -3.305506      0.397031     -1.579011
    4   C      4    1.5000  1.250     -2.272612     -0.584717     -0.056499
    5   H      5    1.2000  1.250     -1.829505     -1.260591     -0.787601
    6   H      6    1.2000  1.250     -3.166597     -0.968756      0.434886
    7   C      7    1.5000  1.250     -1.249762     -0.250197      1.045455
    8   H      8    1.2000  1.250     -1.255161     -1.076402      1.763382
    9   H      9    1.2000  1.250     -1.587828      0.624731      1.607129
   10   C     10    1.5000  1.250      0.135154      0.018824      0.542925
   11   N     11    1.4000  1.250      0.628459      1.251195      0.505954
   12   C     12    1.5000  1.250      1.903050      1.271589     -0.020030
   13   H     13    1.2000  1.250      2.407013      2.228876     -0.062568
   14   C     14    1.5000  1.250      2.378848      0.081647     -0.482168
   15   H     15    1.2000  1.250      3.283453     -0.150170     -1.029080
   16   S     16    1.7500  1.250      1.205473     -1.163148     -0.183616
   17   H     17    0.9000  1.150     -1.838564      1.090776     -1.225026
 ------------------------------------------------------------------------------
 GePol: Number of generator spheres                  =      17
 GePol: Total number of spheres                      =      17
 GePol: Number of exposed spheres                    =      17 (100.00%)
 GePol: Number of points                             =    1303
 GePol: Average weight of points                     =       0.14
 GePol: Minimum weight of points                     =   0.60D-09
 GePol: Maximum weight of points                     =    0.22001
 GePol: Number of points with low weight             =      72
 GePol: Fraction of low-weight points (<1% of avg)   =       5.53%
 GePol: Cavity surface area                          =    178.147 Ang**2
 GePol: Cavity volume                                =    159.222 Ang**3
 PCM non-electrostatic energy =         0.0002823541 Hartrees.
 Nuclear repulsion after PCM non-electrostatic terms =      444.1612881277 Hartrees.
 Leave Link  301 at Sun Jul 11 16:21:27 2021, MaxMem=   104857600 cpu:               0.3 elap:               0.1
 (Enter /prod/apps/gaussian/g16b1/l302.exe)
 NPDir=0 NMtPBC=     1 NCelOv=     1 NCel=       1 NClECP=     1 NCelD=      1
         NCelK=      1 NCelE2=     1 NClLst=     1 CellRange=     0.0.
 One-electron integrals computed using PRISM.
 One-electron integral symmetry used in STVInt
 NBasis=   142 RedAO= T EigKep=  2.47D-03  NBF=   142
 NBsUse=   142 1.00D-06 EigRej= -1.00D+00 NBFU=   142
 Precomputing XC quadrature grid using
 IXCGrd= 4 IRadAn=           5 IRanWt=          -1 IRanGd=           0 AccXCQ= 0.00D+00.
 Generated NRdTot=       0 NPtTot=           0 NUsed=           0 NTot=          32
 NSgBfM=   142   142   142   142   142 MxSgAt=    17 MxSgA2=    17.
 Leave Link  302 at Sun Jul 11 16:21:27 2021, MaxMem=   104857600 cpu:               0.7 elap:               0.2
 (Enter /prod/apps/gaussian/g16b1/l303.exe)
 DipDrv:  MaxL=1.
 Leave Link  303 at Sun Jul 11 16:21:27 2021, MaxMem=   104857600 cpu:               0.1 elap:               0.0
 (Enter /prod/apps/gaussian/g16b1/l401.exe)
 Initial guess from the checkpoint file:  "SET_328_BBB87_conf1.geo_285_105.chk"
 B after Tr=     0.000000    0.000000   -0.000000
         Rot=    0.999875   -0.013355   -0.008288   -0.001750 Ang=  -1.81 deg.
 Guess basis will be translated and rotated to current coordinates.
 JPrj=2 DoOrth=T DoCkMO=T.
 Generating alternative initial guess.
 ExpMin= 1.17D-01 ExpMax= 2.19D+04 ExpMxC= 3.30D+03 IAcc=3 IRadAn=         5 AccDes= 0.00D+00
 Harris functional with IExCor=  402 and IRadAn=       5 diagonalized for initial guess.
 HarFok:  IExCor=  402 AccDes= 0.00D+00 IRadAn=         5 IDoV= 1 UseB2=F ITyADJ=14
 ICtDFT=  3500011 ScaDFX=  1.000000  1.000000  1.000000  1.000000
 FoFCou: FMM=F IPFlag=           0 FMFlag=      100000 FMFlg1=           0
         NFxFlg=           0 DoJE=T BraDBF=F KetDBF=T FulRan=T
         wScrn=  0.000000 ICntrl=       500 IOpCl=  0 I1Cent=   200000004 NGrid=           0
         NMat0=    1 NMatS0=      1 NMatT0=    0 NMatD0=    1 NMtDS0=    0 NMtDT0=    0
 Petite list used in FoFCou.
 Harris En= -703.379277173961    
 Leave Link  401 at Sun Jul 11 16:21:28 2021, MaxMem=   104857600 cpu:               2.9 elap:               0.7
 (Enter /prod/apps/gaussian/g16b1/l502.exe)
 Keep R1 ints in memory in canonical form, NReq=55421297.
 FoFCou: FMM=F IPFlag=           0 FMFlag=           0 FMFlg1=           0
         NFxFlg=           0 DoJE=F BraDBF=F KetDBF=F FulRan=T
         wScrn=  0.000000 ICntrl=       600 IOpCl=  0 I1Cent=           0 NGrid=           0
         NMat0=    1 NMatS0=  10153 NMatT0=    0 NMatD0=    1 NMtDS0=    0 NMtDT0=    0
 Symmetry not used in FoFCou.
 Two-electron integral symmetry not used.
 Closed shell SCF:
 Using DIIS extrapolation, IDIIS=  1040.
 NGot=   104857600 LenX=    53267901 LenY=    53247296
 Requested convergence on RMS density matrix=1.00D-08 within 128 cycles.
 Requested convergence on MAX density matrix=1.00D-06.
 Requested convergence on             energy=1.00D-06.
 No special actions if energy rises.

 Cycle   1  Pass 1  IDiag  1:
 Inv3:  Mode=1 IEnd=     5093427.
 Iteration    1 A*A^-1 deviation from unit magnitude is 3.00D-15 for    238.
 Iteration    1 A*A^-1 deviation from orthogonality  is 2.04D-15 for    799    192.
 Iteration    1 A^-1*A deviation from unit magnitude is 2.89D-15 for     14.
 Iteration    1 A^-1*A deviation from orthogonality  is 2.00D-15 for   1175    761.
 E= -703.496859469408    
 DIIS: error= 4.21D-03 at cycle   1 NSaved=   1.
 NSaved= 1 IEnMin= 1 EnMin= -703.496859469408     IErMin= 1 ErrMin= 4.21D-03
 ErrMax= 4.21D-03  0.00D+00 EMaxC= 1.00D-01 BMatC= 5.24D-03 BMatP= 5.24D-03
 IDIUse=3 WtCom= 9.58D-01 WtEn= 4.21D-02
 Coeff-Com:  0.100D+01
 Coeff-En:   0.100D+01
 Coeff:      0.100D+01
 Gap=     1.585 Goal=   None    Shift=    0.000
 GapD=    1.585 DampG=2.000 DampE=1.000 DampFc=2.0000 IDamp=-1.
 RMSDP=9.57D-04 MaxDP=1.26D-02              OVMax= 2.00D-02

 Cycle   2  Pass 1  IDiag  1:
 E= -703.504481302188     Delta-E=       -0.007621832780 Rises=F Damp=F
 DIIS: error= 2.77D-03 at cycle   2 NSaved=   2.
 NSaved= 2 IEnMin= 2 EnMin= -703.504481302188     IErMin= 2 ErrMin= 2.77D-03
 ErrMax= 2.77D-03  0.00D+00 EMaxC= 1.00D-01 BMatC= 1.07D-03 BMatP= 5.24D-03
 IDIUse=3 WtCom= 9.72D-01 WtEn= 2.77D-02
 Coeff-Com:  0.223D+00 0.777D+00
 Coeff-En:   0.000D+00 0.100D+01
 Coeff:      0.216D+00 0.784D+00
 Gap=     0.214 Goal=   None    Shift=    0.000
 RMSDP=3.16D-04 MaxDP=1.11D-02 DE=-7.62D-03 OVMax= 1.12D-02

 Cycle   3  Pass 1  IDiag  1:
 E= -703.504855001475     Delta-E=       -0.000373699288 Rises=F Damp=F
 DIIS: error= 2.33D-03 at cycle   3 NSaved=   3.
 NSaved= 3 IEnMin= 3 EnMin= -703.504855001475     IErMin= 3 ErrMin= 2.33D-03
 ErrMax= 2.33D-03  0.00D+00 EMaxC= 1.00D-01 BMatC= 6.93D-04 BMatP= 1.07D-03
 IDIUse=3 WtCom= 9.77D-01 WtEn= 2.33D-02
 Coeff-Com: -0.263D-01 0.446D+00 0.580D+00
 Coeff-En:   0.000D+00 0.387D+00 0.613D+00
 Coeff:     -0.257D-01 0.445D+00 0.581D+00
 Gap=     0.215 Goal=   None    Shift=    0.000
 RMSDP=1.48D-04 MaxDP=5.37D-03 DE=-3.74D-04 OVMax= 5.28D-03

 Cycle   4  Pass 1  IDiag  1:
 E= -703.505438378530     Delta-E=       -0.000583377054 Rises=F Damp=F
 DIIS: error= 2.27D-04 at cycle   4 NSaved=   4.
 NSaved= 4 IEnMin= 4 EnMin= -703.505438378530     IErMin= 4 ErrMin= 2.27D-04
 ErrMax= 2.27D-04  0.00D+00 EMaxC= 1.00D-01 BMatC= 1.74D-05 BMatP= 6.93D-04
 IDIUse=3 WtCom= 9.98D-01 WtEn= 2.27D-03
 Coeff-Com: -0.184D-01 0.213D+00 0.299D+00 0.507D+00
 Coeff-En:   0.000D+00 0.000D+00 0.000D+00 0.100D+01
 Coeff:     -0.183D-01 0.212D+00 0.298D+00 0.508D+00
 Gap=     0.215 Goal=   None    Shift=    0.000
 RMSDP=3.46D-05 MaxDP=1.14D-03 DE=-5.83D-04 OVMax= 2.11D-03

 Cycle   5  Pass 1  IDiag  1:
 E= -703.505452540817     Delta-E=       -0.000014162287 Rises=F Damp=F
 DIIS: error= 9.21D-05 at cycle   5 NSaved=   5.
 NSaved= 5 IEnMin= 5 EnMin= -703.505452540817     IErMin= 5 ErrMin= 9.21D-05
 ErrMax= 9.21D-05  0.00D+00 EMaxC= 1.00D-01 BMatC= 2.94D-06 BMatP= 1.74D-05
 IDIUse=1 WtCom= 1.00D+00 WtEn= 0.00D+00
 Coeff-Com: -0.638D-02 0.532D-01 0.821D-01 0.308D+00 0.563D+00
 Coeff:     -0.638D-02 0.532D-01 0.821D-01 0.308D+00 0.563D+00
 Gap=     0.215 Goal=   None    Shift=    0.000
 RMSDP=1.20D-05 MaxDP=4.12D-04 DE=-1.42D-05 OVMax= 7.33D-04

 Cycle   6  Pass 1  IDiag  1:
 E= -703.505455257366     Delta-E=       -0.000002716549 Rises=F Damp=F
 DIIS: error= 1.83D-05 at cycle   6 NSaved=   6.
 NSaved= 6 IEnMin= 6 EnMin= -703.505455257366     IErMin= 6 ErrMin= 1.83D-05
 ErrMax= 1.83D-05  0.00D+00 EMaxC= 1.00D-01 BMatC= 1.26D-07 BMatP= 2.94D-06
 IDIUse=1 WtCom= 1.00D+00 WtEn= 0.00D+00
 Coeff-Com: -0.142D-02 0.752D-02 0.138D-01 0.104D+00 0.254D+00 0.622D+00
 Coeff:     -0.142D-02 0.752D-02 0.138D-01 0.104D+00 0.254D+00 0.622D+00
 Gap=     0.215 Goal=   None    Shift=    0.000
 RMSDP=3.03D-06 MaxDP=6.44D-05 DE=-2.72D-06 OVMax= 1.16D-04

 Cycle   7  Pass 1  IDiag  1:
 E= -703.505455369630     Delta-E=       -0.000000112264 Rises=F Damp=F
 DIIS: error= 8.02D-06 at cycle   7 NSaved=   7.
 NSaved= 7 IEnMin= 7 EnMin= -703.505455369630     IErMin= 7 ErrMin= 8.02D-06
 ErrMax= 8.02D-06  0.00D+00 EMaxC= 1.00D-01 BMatC= 1.58D-08 BMatP= 1.26D-07
 IDIUse=1 WtCom= 1.00D+00 WtEn= 0.00D+00
 Coeff-Com:  0.223D-03-0.416D-02-0.531D-02 0.806D-02 0.407D-01 0.295D+00
 Coeff-Com:  0.665D+00
 Coeff:      0.223D-03-0.416D-02-0.531D-02 0.806D-02 0.407D-01 0.295D+00
 Coeff:      0.665D+00
 Gap=     0.215 Goal=   None    Shift=    0.000
 RMSDP=1.01D-06 MaxDP=1.96D-05 DE=-1.12D-07 OVMax= 4.69D-05

 Cycle   8  Pass 1  IDiag  1:
 E= -703.505455385734     Delta-E=       -0.000000016104 Rises=F Damp=F
 DIIS: error= 1.84D-06 at cycle   8 NSaved=   8.
 NSaved= 8 IEnMin= 8 EnMin= -703.505455385734     IErMin= 8 ErrMin= 1.84D-06
 ErrMax= 1.84D-06  0.00D+00 EMaxC= 1.00D-01 BMatC= 8.11D-10 BMatP= 1.58D-08
 IDIUse=1 WtCom= 1.00D+00 WtEn= 0.00D+00
 Coeff-Com:  0.153D-03-0.207D-02-0.283D-02-0.107D-02 0.501D-02 0.942D-01
 Coeff-Com:  0.287D+00 0.619D+00
 Coeff:      0.153D-03-0.207D-02-0.283D-02-0.107D-02 0.501D-02 0.942D-01
 Coeff:      0.287D+00 0.619D+00
 Gap=     0.215 Goal=   None    Shift=    0.000
 RMSDP=2.80D-07 MaxDP=7.63D-06 DE=-1.61D-08 OVMax= 1.73D-05

 Cycle   9  Pass 1  IDiag  1:
 E= -703.505455386378     Delta-E=       -0.000000000644 Rises=F Damp=F
 DIIS: error= 8.65D-07 at cycle   9 NSaved=   9.
[...]
 RMSDP=3.12D-07 MaxDP=1.01D-05 DE=-9.83D-09 OVMax= 2.04D-05

 Cycle  12  Pass 1  IDiag  1:
 RMSU=  1.62D-07    CP:  7.02D-01  9.67D-01  9.11D-01  1.21D+00  1.58D+00
                    CP:  1.95D+00  1.60D+00  1.47D+00  1.22D+00  1.30D+00
                    CP:  1.28D+00
 E= -700.831252328029     Delta-E=       -0.000000001267 Rises=F Damp=F
 DIIS: error= 3.07D-07 at cycle  12 NSaved=  12.
 NSaved=12 IEnMin=12 EnMin= -700.831252328029     IErMin=12 ErrMin= 3.07D-07
 ErrMax= 3.07D-07  0.00D+00 EMaxC= 1.00D-01 BMatC= 5.97D-11 BMatP= 3.70D-10
 IDIUse=1 WtCom= 1.00D+00 WtEn= 0.00D+00
 Coeff-Com: -0.647D-05 0.303D-04 0.149D-03 0.291D-03-0.454D-03-0.389D-02
 Coeff-Com:  0.367D-02 0.201D-01-0.600D-02-0.141D+00-0.101D+00 0.123D+01
 Coeff:     -0.647D-05 0.303D-04 0.149D-03 0.291D-03-0.454D-03-0.389D-02
 Coeff:      0.367D-02 0.201D-01-0.600D-02-0.141D+00-0.101D+00 0.123D+01
 Gap=     0.367 Goal=   None    Shift=    0.000
 RMSDP=1.40D-07 MaxDP=5.48D-06 DE=-1.27D-09 OVMax= 6.84D-06

 Cycle  13  Pass 1  IDiag  1:
 RMSU=  5.88D-08    CP:  7.02D-01  9.67D-01  9.11D-01  1.21D+00  1.58D+00
                    CP:  1.95D+00  1.60D+00  1.47D+00  1.22D+00  1.33D+00
                    CP:  1.44D+00  1.37D+00
 E= -700.831252328246     Delta-E=       -0.000000000217 Rises=F Damp=F
 DIIS: error= 1.47D-07 at cycle  13 NSaved=  13.
 NSaved=13 IEnMin=13 EnMin= -700.831252328246     IErMin=13 ErrMin= 1.47D-07
 ErrMax= 1.47D-07  0.00D+00 EMaxC= 1.00D-01 BMatC= 7.96D-12 BMatP= 5.97D-11
 IDIUse=1 WtCom= 1.00D+00 WtEn= 0.00D+00
 Coeff-Com:  0.158D-06-0.394D-05-0.171D-04 0.169D-04 0.223D-03 0.117D-03
 Coeff-Com: -0.165D-02-0.397D-03 0.177D-01 0.112D-01-0.113D+00-0.161D+00
 Coeff-Com:  0.125D+01
 Coeff:      0.158D-06-0.394D-05-0.171D-04 0.169D-04 0.223D-03 0.117D-03
 Coeff:     -0.165D-02-0.397D-03 0.177D-01 0.112D-01-0.113D+00-0.161D+00
 Coeff:      0.125D+01
 Gap=     0.367 Goal=   None    Shift=    0.000
 RMSDP=4.95D-08 MaxDP=1.54D-06 DE=-2.17D-10 OVMax= 3.34D-06

 Cycle  14  Pass 1  IDiag  1:
 RMSU=  2.26D-08    CP:  7.02D-01  9.67D-01  9.11D-01  1.21D+00  1.58D+00
                    CP:  1.95D+00  1.60D+00  1.47D+00  1.22D+00  1.34D+00
                    CP:  1.47D+00  1.55D+00  1.40D+00
 E= -700.831252328276     Delta-E=       -0.000000000030 Rises=F Damp=F
 DIIS: error= 7.25D-08 at cycle  14 NSaved=  14.
 NSaved=14 IEnMin=14 EnMin= -700.831252328276     IErMin=14 ErrMin= 7.25D-08
 ErrMax= 7.25D-08  0.00D+00 EMaxC= 1.00D-01 BMatC= 1.27D-12 BMatP= 7.96D-12
 IDIUse=1 WtCom= 1.00D+00 WtEn= 0.00D+00
 Coeff-Com:  0.980D-06-0.429D-05-0.234D-04-0.489D-04 0.334D-04 0.702D-03
 Coeff-Com: -0.407D-03-0.383D-02 0.917D-03 0.185D-01 0.335D-01-0.183D+00
 Coeff-Com: -0.180D+00 0.131D+01
 Coeff:      0.980D-06-0.429D-05-0.234D-04-0.489D-04 0.334D-04 0.702D-03
 Coeff:     -0.407D-03-0.383D-02 0.917D-03 0.185D-01 0.335D-01-0.183D+00
 Coeff:     -0.180D+00 0.131D+01
 Gap=     0.367 Goal=   None    Shift=    0.000
 RMSDP=2.35D-08 MaxDP=7.59D-07 DE=-2.98D-11 OVMax= 1.86D-06

 Cycle  15  Pass 1  IDiag  1:
 RMSU=  8.73D-09    CP:  7.02D-01  9.67D-01  9.11D-01  1.21D+00  1.58D+00
                    CP:  1.95D+00  1.60D+00  1.47D+00  1.23D+00  1.34D+00
                    CP:  1.48D+00  1.62D+00  1.57D+00  1.62D+00
 E= -700.831252328286     Delta-E=       -0.000000000010 Rises=F Damp=F
 DIIS: error= 2.17D-08 at cycle  15 NSaved=  15.
 NSaved=15 IEnMin=15 EnMin= -700.831252328286     IErMin=15 ErrMin= 2.17D-08
 ErrMax= 2.17D-08  0.00D+00 EMaxC= 1.00D-01 BMatC= 1.86D-13 BMatP= 1.27D-12
 IDIUse=1 WtCom= 1.00D+00 WtEn= 0.00D+00
 Coeff-Com:  0.150D-08 0.524D-06 0.173D-05-0.568D-05-0.324D-04 0.146D-04
 Coeff-Com:  0.252D-03-0.197D-03-0.197D-02-0.190D-02 0.183D-01 0.179D-01
 Coeff-Com: -0.202D+00 0.546D-01 0.112D+01
 Coeff:      0.150D-08 0.524D-06 0.173D-05-0.568D-05-0.324D-04 0.146D-04
 Coeff:      0.252D-03-0.197D-03-0.197D-02-0.190D-02 0.183D-01 0.179D-01
 Coeff:     -0.202D+00 0.546D-01 0.112D+01
 Gap=     0.367 Goal=   None    Shift=    0.000
 RMSDP=8.14D-09 MaxDP=2.81D-07 DE=-1.05D-11 OVMax= 6.17D-07

 SCF Done:  E(RHF) =  -700.831252328     A.U. after   15 cycles
            NFock= 15  Conv=0.81D-08     -V/T= 2.0007
 KE= 7.003090005650D+02 PE=-2.534193458567D+03 EE= 6.870309921653D+02
 Leave Link  502 at Sun Jul 11 16:30:04 2021, MaxMem=   262144000 cpu:             225.5 elap:              56.4
 (Enter /prod/apps/gaussian/g16b1/l801.exe)
 ExpMin= 2.97D-02 ExpMax= 1.11D+05 ExpMxC= 1.07D+03 IAcc=3 IRadAn=         5 AccDes= 0.00D+00
 HarFok:  IExCor=  205 AccDes= 0.00D+00 IRadAn=         5 IDoV=-2 UseB2=F ITyADJ=14
 ICtDFT= 12500011 ScaDFX=  1.000000  1.000000  1.000000  1.000000
 Largest valence mixing into a core orbital is  3.20D-04
 Largest core mixing into a valence orbital is  8.80D-05
 Range of M.O.s used for correlation:    13   269
 NBasis=   269 NAE=    34 NBE=    34 NFC=    12 NFV=     0
 NROrb=    257 NOA=    22 NOB=    22 NVA=   235 NVB=   235

 **** Warning!!: The largest alpha MO coefficient is  0.49829771D+02

 Leave Link  801 at Sun Jul 11 16:30:05 2021, MaxMem=   262144000 cpu:               0.5 elap:               0.2
 (Enter /prod/apps/gaussian/g16b1/l906.exe)
 FulOut=F Deriv=F AODrv=F NAtomX=    17
   MMem=          42  MDisk=          22 MDiskD=          22
  W3Min=     1473450 MinDsk=     1955505 NBas6D=         285
 NBas2D=       41124    NTT=       40755    LW2=     2000000
    MDV=   261532653 MDiskM=       12647 NBas2p=       40522
 Fully direct method using O(OVN) memory.
 IMap=   1   2   3   4   5   6   7   8   9  10  11  12  13  14  15  16  17  18  19  20
 IMap=  21  22
 JobTyp=1 Pass  1:  I=   1 to  22 NPSUse=  4 ParTrn=T ParDer=T DoDerP=F.
 Spin components of T(2) and E(2):
     alpha-alpha T2 =       0.5952268537D-01 E2=     -0.1551162372D+00
     alpha-beta  T2 =       0.3170717022D+00 E2=     -0.8827468937D+00
     beta-beta   T2 =       0.5952268537D-01 E2=     -0.1551162372D+00
 The integrals were generated   1 times.
 ANorm=    0.1198381022D+01
 E2 =    -0.1192979368D+01 EUMP2 =    -0.70202423169650D+03
 Leave Link  906 at Sun Jul 11 16:30:26 2021, MaxMem=   262144000 cpu:              87.2 elap:              21.8
 (Enter /prod/apps/gaussian/g16b1/l601.exe)
 Copying SCF densities to generalized density rwf, IOpCl= 0 IROHF=0.

 **********************************************************************

            Population analysis using the SCF Density.

 **********************************************************************

 Orbital symmetries:
       Occupied  (A) (A) (A) (A) (A) (A) (A) (A) (A) (A) (A) (A)
                 (A) (A) (A) (A) (A) (A) (A) (A) (A) (A) (A) (A)
                 (A) (A) (A) (A) (A) (A) (A) (A) (A) (A)
       Virtual   (A) (A) (A) (A) (A) (A) (A) (A) (A) (A) (A) (A)
                 (A) (A) (A) (A) (A) (A) (A) (A) (A) (A) (A) (A)
                 (A) (A) (A) (A) (A) (A) (A) (A) (A) (A) (A) (A)
                 (A) (A) (A) (A) (A) (A) (A) (A) (A) (A) (A) (A)
                 (A) (A) (A) (A) (A) (A) (A) (A) (A) (A) (A) (A)
                 (A) (A) (A) (A) (A) (A) (A) (A) (A) (A) (A) (A)
                 (A) (A) (A) (A) (A) (A) (A) (A) (A) (A) (A) (A)
                 (A) (A) (A) (A) (A) (A) (A) (A) (A) (A) (A) (A)
                 (A) (A) (A) (A) (A) (A) (A) (A) (A) (A) (A) (A)
                 (A) (A) (A) (A) (A) (A) (A) (A) (A) (A) (A) (A)
                 (A) (A) (A) (A) (A) (A) (A) (A) (A) (A) (A) (A)
                 (A) (A) (A) (A) (A) (A) (A) (A) (A) (A) (A) (A)
                 (A) (A) (A) (A) (A) (A) (A) (A) (A) (A) (A) (A)
                 (A) (A) (A) (A) (A) (A) (A) (A) (A) (A) (A) (A)
                 (A) (A) (A) (A) (A) (A) (A) (A) (A) (A) (A) (A)
                 (A) (A) (A) (A) (A) (A) (A) (A) (A) (A) (A) (A)
                 (A) (A) (A) (A) (A) (A) (A) (A) (A) (A) (A) (A)
                 (A) (A) (A) (A) (A) (A) (A) (A) (A) (A) (A) (A)
                 (A) (A) (A) (A) (A) (A) (A) (A) (A) (A) (A) (A)
                 (A) (A) (A) (A) (A) (A) (A)
 The electronic state is 1-A.
 Alpha  occ. eigenvalues --  -92.12973 -15.87530 -15.72737 -11.48031 -11.46772
 Alpha  occ. eigenvalues --  -11.42776 -11.40471 -11.40038  -9.13154  -6.81293
 Alpha  occ. eigenvalues --   -6.81204  -6.81030  -1.49049  -1.42651  -1.24081
 Alpha  occ. eigenvalues --   -1.19911  -1.13685  -1.05284  -0.95448  -0.94546
 Alpha  occ. eigenvalues --   -0.92844  -0.87769  -0.83872  -0.81966  -0.77707
 Alpha  occ. eigenvalues --   -0.74803  -0.73093  -0.70046  -0.68355  -0.67704
 Alpha  occ. eigenvalues --   -0.63288  -0.57792  -0.52500  -0.46724
 Alpha virt. eigenvalues --   -0.10062  -0.07255  -0.06885  -0.05758  -0.04000
 Alpha virt. eigenvalues --   -0.03763  -0.03576  -0.03369  -0.02555  -0.01661
 Alpha virt. eigenvalues --   -0.01320  -0.00078   0.00029   0.01182   0.01704
 Alpha virt. eigenvalues --    0.02281   0.03017   0.03264   0.03640   0.03918
 Alpha virt. eigenvalues --    0.04570   0.05027   0.05597   0.05843   0.06244
 Alpha virt. eigenvalues --    0.07054   0.07790   0.07874   0.08105   0.09415
 Alpha virt. eigenvalues --    0.09990   0.10464   0.10619   0.11193   0.11960
 Alpha virt. eigenvalues --    0.12046   0.12924   0.13885   0.14139   0.15719
 Alpha virt. eigenvalues --    0.16098   0.16360   0.18752   0.19518   0.20428
 Alpha virt. eigenvalues --    0.20561   0.21767   0.22282   0.22600   0.23635
 Alpha virt. eigenvalues --    0.23872   0.24397   0.25653   0.27686   0.28490
 Alpha virt. eigenvalues --    0.28874   0.30131   0.30995   0.31682   0.32547
 Alpha virt. eigenvalues --    0.32921   0.33569   0.33845   0.34349   0.34677
 Alpha virt. eigenvalues --    0.35288   0.36134   0.37098   0.37448   0.38733
 Alpha virt. eigenvalues --    0.40046   0.40835   0.41318   0.42128   0.42510
 Alpha virt. eigenvalues --    0.43350   0.44294   0.44909   0.46419   0.47065
 Alpha virt. eigenvalues --    0.47287   0.48176   0.50166   0.50847   0.51350
 Alpha virt. eigenvalues --    0.52161   0.53246   0.54462   0.54695   0.55361
 Alpha virt. eigenvalues --    0.56280   0.57062   0.57220   0.58218   0.59475
 Alpha virt. eigenvalues --    0.61052   0.61522   0.62193   0.63276   0.64335
 Alpha virt. eigenvalues --    0.64501   0.65201   0.66558   0.67970   0.68322
 Alpha virt. eigenvalues --    0.69046   0.69938   0.71247   0.72059   0.74120
 Alpha virt. eigenvalues --    0.74616   0.75115   0.77091   0.78280   0.79383
 Alpha virt. eigenvalues --    0.79589   0.80558   0.82392   0.83034   0.86223
 Alpha virt. eigenvalues --    0.87013   0.87346   0.88438   0.90254   0.91992
 Alpha virt. eigenvalues --    0.92542   0.96247   0.97033   0.98695   1.00729
 Alpha virt. eigenvalues --    1.01508   1.03016   1.03601   1.04591   1.08263
 Alpha virt. eigenvalues --    1.09784   1.10188   1.10787   1.13211   1.14893
 Alpha virt. eigenvalues --    1.16162   1.16952   1.19729   1.23411   1.23868
 Alpha virt. eigenvalues --    1.26298   1.28533   1.30510   1.30905   1.36640
 Alpha virt. eigenvalues --    1.40466   1.41703   1.43711   1.44897   1.46653
 Alpha virt. eigenvalues --    1.48651   1.51560   1.54175   1.55305   1.57332
 Alpha virt. eigenvalues --    1.59377   1.60186   1.62365   1.63211   1.66006
 Alpha virt. eigenvalues --    1.67186   1.68063   1.70961   1.71299   1.74515
 Alpha virt. eigenvalues --    1.75818   1.76610   1.77118   1.80816   1.83525
 Alpha virt. eigenvalues --    1.86087   1.88118   1.90882   1.92800   1.93401
 Alpha virt. eigenvalues --    1.94402   1.97415   1.98694   2.00031   2.03438
 Alpha virt. eigenvalues --    2.03655   2.04442   2.07348   2.09420   2.12413
 Alpha virt. eigenvalues --    2.12976   2.15166   2.17670   2.18890   2.20437
 Alpha virt. eigenvalues --    2.23949   2.27137   2.29026   2.30516   2.31732
 Alpha virt. eigenvalues --    2.34088   2.35141   2.36548   2.38507   2.41980
 Alpha virt. eigenvalues --    2.44997   2.45930   2.47381   2.52089   2.54226
 Alpha virt. eigenvalues --    2.56327   2.59607   2.61622   2.66404   2.69415
 Alpha virt. eigenvalues --    2.71474   2.73477   2.74921   2.79430   2.80994
 Alpha virt. eigenvalues --    2.82911   2.83492   2.87871   2.90827   2.95516
 Alpha virt. eigenvalues --    2.98975   3.03281   3.07472   3.16028   3.28864
 Alpha virt. eigenvalues --    3.34416   3.35917   3.39092   3.56098   3.70380
          Condensed to atoms (all electrons):
               1          2          3          4          5          6
     1  N    6.472215   0.366153   0.439607  -0.024084  -0.069040  -0.102239
     2  H    0.366153   0.544625  -0.065504  -0.012333   0.022843  -0.034276
     3  H    0.439607  -0.065504   0.597679  -0.056195  -0.036524  -0.006337
     4  C   -0.024084  -0.012333  -0.056195   4.615673   0.215982   0.307392
     5  H   -0.069040   0.022843  -0.036524   0.215982   1.246979  -0.208271
     6  H   -0.102239  -0.034276  -0.006337   0.307392  -0.208271   1.174161
     7  C   -0.119206  -0.040332   0.036663   0.592872  -0.105025   0.031564
     8  H    0.020312   0.004950   0.000555   0.041628  -0.047972  -0.046931
     9  H    0.015330   0.005303  -0.004436  -0.192229   0.075958  -0.054089
    10  C    0.121204   0.013941  -0.015084  -0.377352   0.082173   0.019762
    11  N   -0.087020  -0.012671   0.001447   0.063701  -0.024404   0.003569
    12  C    0.000391  -0.001414  -0.000717  -0.078595  -0.026231   0.001847
    13  H    0.006482   0.001171   0.000724  -0.004215  -0.000207  -0.000302
    14  C    0.000164  -0.000495   0.000396   0.015787   0.004863   0.001111
    15  H   -0.000254  -0.000161  -0.000070   0.002219  -0.000161   0.000264
    16  S   -0.023983  -0.000532  -0.000536   0.025950   0.016910  -0.002966
    17  H    0.379650  -0.030431  -0.069007  -0.040232  -0.007228   0.018618
               7          8          9         10         11         12
     1  N   -0.119206   0.020312   0.015330   0.121204  -0.087020   0.000391
     2  H   -0.040332   0.004950   0.005303   0.013941  -0.012671  -0.001414
     3  H    0.036663   0.000555  -0.004436  -0.015084   0.001447  -0.000717
     4  C    0.592872   0.041628  -0.192229  -0.377352   0.063701  -0.078595
     5  H   -0.105025  -0.047972   0.075958   0.082173  -0.024404  -0.026231
     6  H    0.031564  -0.046931  -0.054089   0.019762   0.003569   0.001847
     7  C    5.481923   0.067011   0.265336  -0.315764   0.081204  -0.220674
     8  H    0.067011   1.096871  -0.138457  -0.013320   0.030123   0.013660
     9  H    0.265336  -0.138457   0.979967   0.036266  -0.044221  -0.033437
    10  C   -0.315764  -0.013320   0.036266   6.304551   0.384923  -0.229451
    11  N    0.081204   0.030123  -0.044221   0.384923   7.492896   0.131174
    12  C   -0.220674   0.013660  -0.033437  -0.229451   0.131174   5.615700
    13  H   -0.011363   0.000549  -0.000982   0.090184  -0.192560   0.280217
    14  C   -0.009479  -0.005227   0.009018  -0.085791  -0.112313   0.197407
    15  H    0.026223   0.001380   0.000935   0.030723   0.012187  -0.014125
    16  S    0.077803  -0.063849   0.044732   0.099641  -0.124886  -0.320253
    17  H   -0.009150  -0.002761   0.004494  -0.020016   0.065213  -0.001386
              13         14         15         16         17
     1  N    0.006482   0.000164  -0.000254  -0.023983   0.379650
     2  H    0.001171  -0.000495  -0.000161  -0.000532  -0.030431
     3  H    0.000724   0.000396  -0.000070  -0.000536  -0.069007
     4  C   -0.004215   0.015787   0.002219   0.025950  -0.040232
     5  H   -0.000207   0.004863  -0.000161   0.016910  -0.007228
     6  H   -0.000302   0.001111   0.000264  -0.002966   0.018618
     7  C   -0.011363  -0.009479   0.026223   0.077803  -0.009150
     8  H    0.000549  -0.005227   0.001380  -0.063849  -0.002761
     9  H   -0.000982   0.009018   0.000935   0.044732   0.004494
    10  C    0.090184  -0.085791   0.030723   0.099641  -0.020016
    11  N   -0.192560  -0.112313   0.012187  -0.124886   0.065213
    12  C    0.280217   0.197407  -0.014125  -0.320253  -0.001386
    13  H    1.268502  -0.125587  -0.039203  -0.001038  -0.013019
    14  C   -0.125587   5.414512   0.271687   0.286654  -0.000301
    15  H   -0.039203   0.271687   1.160689  -0.124189   0.001729
    16  S   -0.001038   0.286654  -0.124189  15.725663   0.003543
    17  H   -0.013019  -0.000301   0.001729   0.003543   0.464631
 Mulliken charges:
               1
     1  N   -0.395683
     2  H    0.239161
     3  H    0.177338
     4  C    0.904032
     5  H   -0.140647
     6  H   -0.102875
     7  C    0.170395
     8  H    0.041479
     9  H    0.030512
    10  C   -0.126590
    11  N   -0.668362
    12  C    0.685887
    13  H   -0.259354
    14  C    0.137594
    15  H   -0.329874
    16  S    0.381334
    17  H    0.255653
 Sum of Mulliken charges =   1.00000
 Mulliken charges with hydrogens summed into heavy atoms:
               1
     1  N    0.276469
     4  C    0.660510
     7  C    0.242387
    10  C   -0.126590
    11  N   -0.668362
    12  C    0.426533
    14  C   -0.192281
    16  S    0.381334
 Electronic spatial extent (au):  <R**2>=           1228.5450
 Charge=              1.0000 electrons
 Dipole moment (field-independent basis, Debye):
    X=             -8.8202    Y=              1.4198    Z=              0.2054  Tot=              8.9361
 Quadrupole moment (field-independent basis, Debye-Ang):
   XX=            -10.6795   YY=            -44.5724   ZZ=            -53.2319
   XY=             -3.1098   XZ=             -1.6768   YZ=             -0.0164
 Traceless Quadrupole moment (field-independent basis, Debye-Ang):
   XX=             25.4818   YY=             -8.4112   ZZ=            -17.0706
   XY=             -3.1098   XZ=             -1.6768   YZ=             -0.0164
 Octapole moment (field-independent basis, Debye-Ang**2):
  XXX=            -87.8682  YYY=             10.8200  ZZZ=              2.3639  XYY=            -15.0001
  XXY=             30.0958  XXZ=              0.1048  XZZ=            -19.1973  YZZ=             -0.1166
  YYZ=             -0.9741  XYZ=             -1.4267
 Hexadecapole moment (field-independent basis, Debye-Ang**3):
 XXXX=           -665.9644 YYYY=           -340.5553 ZZZZ=            -84.9527 XXXY=            -74.4062
 XXXZ=            -16.7321 YYYX=             -2.6525 YYYZ=              0.0063 ZZZX=             -6.0447
 ZZZY=              1.2083 XXYY=           -196.7175 XXZZ=           -186.8751 YYZZ=            -82.7651
 XXYZ=              0.1042 YYXZ=              0.7045 ZZXY=             -9.5827
 N-N= 4.460222135087D+02 E-N=-2.534193460109D+03  KE= 7.003090005650D+02
 Leave Link  601 at Sun Jul 11 16:30:27 2021, MaxMem=   262144000 cpu:               0.2 elap:               0.1
 (Enter /prod/apps/gaussian/g16b1/l9999.exe)
 1\1\GINC-PIRINEUS45\SP\RMP2-FC\Aug-CC-pVDZ\C5H9N2S1(1+)\UBATOR02\11-Ju
 l-2021\0\\#p mp2/aug-cc-pVDZ scf=tight maxdisk=180GB geom=allcheck\\SE
 T_328_BBB87_conf1.geo_285_105 geometry\\1,1\N,0,2.1376246052,0.2996305
 652,0.5541243234\H,0,2.1661970622,0.7991028753,1.4538125863\H,0,3.1092
 502163,0.0845242467,0.2854381332\C,0,1.4438708424,1.107952626,-0.50302
 03568\H,0,1.5573013889,0.5610347648,-1.4385357607\H,0,1.9685140808,2.0
 582368565,-0.5793683831\C,0,-0.0295798713,1.3273613295,-0.1585927131\H
 ,0,-0.4519250469,1.992262359,-0.9149895335\H,0,-0.1127948026,1.8553028
 302,0.7998155819\C,0,-0.814315932,0.0440547208,-0.0995698769\N,0,-0.32
 42093137,-1.084133962,0.3466410338\C,0,-1.2588081411,-2.0965870144,0.3
 102130842\H,0,-0.9817672078,-3.0856559428,0.6498447271\C,0,-2.48558377
 49,-1.7448281018,-0.1660477287\H,0,-3.3660836866,-2.3591850069,-0.2858
 112767\S,0,-2.4857714598,-0.067066737,-0.6026364832\H,0,1.6160810408,-
 0.5920064091,0.6986826429\\Version=ES64L-G16RevB.01\State=1-A\HF=-700.
 8312523\MP2=-702.0242317\RMSD=8.136e-09\PG=C01 [X(C5H9N2S1)]\\@


 DESK:  A WASTEBASKET WITH DRAWERS.
 Job cpu time:       0 days  0 hours  5 minutes 18.4 seconds.
 Elapsed time:       0 days  0 hours  1 minutes 19.8 seconds.
 File lengths (MBytes):  RWF=     43 Int=      0 D2E=      0 Chk=      8 Scr=      1
 Normal termination of Gaussian 16 at Sun Jul 11 16:30:27 2021.
