 Entering Gaussian System, Link 0=g16
 Initial command:
 /prod/apps/gaussian/g16b1/l1.exe "/tmp/ubator02/1834557/Gau-183204.inp" -scrdir="/tmp/ubator02/1834557/"
 Entering Link 1 = /prod/apps/gaussian/g16b1/l1.exe PID=    183205.
  
 Copyright (c) 1988-2017, Gaussian, Inc.  All Rights Reserved.
  
 This is part of the Gaussian(R) 16 program.  It is based on
 the Gaussian(R) 09 system (copyright 2009, Gaussian, Inc.),
 the Gaussian(R) 03 system (copyright 2003, Gaussian, Inc.),
 the Gaussian(R) 98 system (copyright 1998, Gaussian, Inc.),
 the Gaussian(R) 94 system (copyright 1995, Gaussian, Inc.),
 the Gaussian 92(TM) system (copyright 1992, Gaussian, Inc.),
 the Gaussian 90(TM) system (copyright 1990, Gaussian, Inc.),
 the Gaussian 88(TM) system (copyright 1988, Gaussian, Inc.),
 the Gaussian 86(TM) system (copyright 1986, Carnegie Mellon
 University), and the Gaussian 82(TM) system (copyright 1983,
 Carnegie Mellon University). Gaussian is a federally registered
 trademark of Gaussian, Inc.
  
 This software contains proprietary and confidential information,
 including trade secrets, belonging to Gaussian, Inc.
  
 This software is provided under written license and may be
 used, copied, transmitted, or stored only in accord with that
 written license.
  
 The following legend is applicable only to US Government
 contracts under FAR:
  
                    RESTRICTED RIGHTS LEGEND
  
 Use, reproduction and disclosure by the US Government is
 subject to restrictions as set forth in subparagraphs (a)
 and (c) of the Commercial Computer Software - Restricted
 Rights clause in FAR 52.227-19.
  
 Gaussian, Inc.
 340 Quinnipiac St., Bldg. 40, Wallingford CT 06492
  
  
 ---------------------------------------------------------------
 Warning -- This program may not be used in any manner that
 competes with the business of Gaussian, Inc. or will provide
 assistance to any competitor of Gaussian, Inc.  The licensee
 of this program is prohibited from giving any competitor of
 Gaussian, Inc. access to this program.  By using this program,
 the user acknowledges that Gaussian, Inc. is engaged in the
 business of creating and licensing software in the field of
 computational chemistry and represents and warrants to the
 licensee that it is not a competitor of Gaussian, Inc. and that
 it will not use this program in any manner prohibited above.
 ---------------------------------------------------------------
  

 Cite this work as:
 Gaussian 16, Revision B.01,
 M. J. Frisch, G. W. Trucks, H. B. Schlegel, G. E. Scuseria, 
 M. A. Robb, J. R. Cheeseman, G. Scalmani, V. Barone, 
 G. A. Petersson, H. Nakatsuji, X. Li, M. Caricato, A. V. Marenich, 
 J. Bloino, B. G. Janesko, R. Gomperts, B. Mennucci, H. P. Hratchian, 
 J. V. Ortiz, A. F. Izmaylov, J. L. Sonnenberg, D. Williams-Young, 
 F. Ding, F. Lipparini, F. Egidi, J. Goings, B. Peng, A. Petrone, 
 T. Henderson, D. Ranasinghe, V. G. Zakrzewski, J. Gao, N. Rega, 
 G. Zheng, W. Liang, M. Hada, M. Ehara, K. Toyota, R. Fukuda, 
 J. Hasegawa, M. Ishida, T. Nakajima, Y. Honda, O. Kitao, H. Nakai, 
 T. Vreven, K. Throssell, J. A. Montgomery, Jr., J. E. Peralta, 
 F. Ogliaro, M. J. Bearpark, J. J. Heyd, E. N. Brothers, K. N. Kudin, 
 V. N. Staroverov, T. A. Keith, R. Kobayashi, J. Normand, 
 K. Raghavachari, A. P. Rendell, J. C. Burant, S. S. Iyengar, 
 J. Tomasi, M. Cossi, J. M. Millam, M. Klene, C. Adamo, R. Cammi, 
 J. W. Ochterski, R. L. Martin, K. Morokuma, O. Farkas, 
 J. B. Foresman, and D. J. Fox, Gaussian, Inc., Wallingford CT, 2016.
 
 ******************************************
 Gaussian 16:  ES64L-G16RevB.01 20-Dec-2017
                11-Jul-2021 
 ******************************************
 %mem=800MB
 %nproc=4
 Will use up to    4 processors via shared memory.
 %chk=SET_328_BBB285_conf1.geo_300_300.chk
 -----------------------------------------------------------
 #p b3lyp/6-31G(d) opt freq scrf=(iefpcm,read,solvent=water)
 -----------------------------------------------------------
 1/18=20,19=15,26=3,38=1,40=2/1,3;
 2/9=110,12=2,17=6,18=5,40=1/2;
 3/5=1,6=6,7=1,11=2,25=1,30=1,70=2203,71=1,72=1,74=-5/1,2,3;
 4//1;
 5/5=2,38=5,53=1/2;
 6/7=2,8=2,9=2,10=2,28=1/1;
 7//1,2,3,16;
 1/18=20,19=15,26=3/3(2);
 2/9=110/2;
 99//99;
 2/9=110/2;
 3/5=1,6=6,7=1,11=2,25=1,30=1,70=2205,71=1,72=1,74=-5/1,2,3;
 4/5=5,16=3,69=1/1;
 5/5=2,38=5,53=1/2;
 7//1,2,3,16;
 1/18=20,19=15,26=3/3(-5);
 2/9=110/2;
 6/7=2,8=2,9=2,10=2,19=2,28=1/1;
 99/9=1/99;
 Leave Link    1 at Sun Jul 11 16:05:17 2021, MaxMem=   104857600 cpu:               0.1 elap:               0.0
 (Enter /prod/apps/gaussian/g16b1/l101.exe)
 -----------------------------------------
 SET_328_BBB285_conf1.geo_300_300 geometry
 -----------------------------------------
 Symbolic Z-matrix:
 Charge = -1 Multiplicity = 1
 N                     3.075    -2.996    -1.19 
 H                     3.047    -2.288    -0.472 
 C                     2.093    -3.129    -2.063 
 O                     2.127    -3.955    -2.942 
 C                     0.989    -2.182    -1.882 
 C                    -0.165    -2.2      -2.668 
 N                    -1.078    -1.408    -2.098 
 H                    -0.425    -2.822    -3.515 
 N                     0.846    -1.229    -0.952 
 N                    -0.35     -0.727    -1.208 
 C                    -1.034     0.284    -0.475 
 H                    -1.985     0.505    -0.982 
 O                    -1.211    -0.198     0.926 
 C                    -0.523     0.6       1.856 
 C                    -1.569     1.39      2.735 
 O                    -2.374     2.241     1.945 
 H                    -3.012     1.621     1.549 
 H                    -1.027     1.832     3.575 
 H                    -2.131     0.659     3.323 
 H                     0.006    -0.089     2.52 
 C                     0.394     1.568     1.098 
 O                     0.692     2.816     1.669 
 H                     1.099     3.354     0.966 
 H                     1.365     1.103     0.913 
 C                    -0.253     1.631    -0.331 
 H                     0.549     1.826    -1.047 
 O                    -1.18      2.706    -0.397 
 H                    -1.783     2.767     0.366 
 
 ITRead=  0  0  0  0  0  0  0  0  0  0  0  0  0  0  0  0  0  0  0  0
 ITRead=  0  0  0  0  0  0  0  0
 MicOpt= -1 -1 -1 -1 -1 -1 -1 -1 -1 -1 -1 -1 -1 -1 -1 -1 -1 -1 -1 -1
 MicOpt= -1 -1 -1 -1 -1 -1 -1 -1
 NAtoms=     28 NQM=       28 NQMF=       0 NMMI=      0 NMMIF=      0
                NMic=       0 NMicF=      0.
                    Isotopes and Nuclear Properties:
 (Nuclear quadrupole moments (NQMom) in fm**2, nuclear magnetic moments (NMagM)
  in nuclear magnetons)

  Atom         1           2           3           4           5           6           7           8           9          10
 IAtWgt=          14           1          12          16          12          12          14           1          14          14
 AtmWgt=  14.0030740   1.0078250  12.0000000  15.9949146  12.0000000  12.0000000  14.0030740   1.0078250  14.0030740  14.0030740
 NucSpn=           2           1           0           0           0           0           2           1           2           2
 AtZEff=  -0.0000000  -0.0000000  -0.0000000  -0.0000000  -0.0000000  -0.0000000  -0.0000000  -0.0000000  -0.0000000  -0.0000000
 NQMom=    2.0440000   0.0000000   0.0000000   0.0000000   0.0000000   0.0000000   2.0440000   0.0000000   2.0440000   2.0440000
 NMagM=    0.4037610   2.7928460   0.0000000   0.0000000   0.0000000   0.0000000   0.4037610   2.7928460   0.4037610   0.4037610
 AtZNuc=   7.0000000   1.0000000   6.0000000   8.0000000   6.0000000   6.0000000   7.0000000   1.0000000   7.0000000   7.0000000

  Atom        11          12          13          14          15          16          17          18          19          20
 IAtWgt=          12           1          16          12          12          16           1           1           1           1
 AtmWgt=  12.0000000   1.0078250  15.9949146  12.0000000  12.0000000  15.9949146   1.0078250   1.0078250   1.0078250   1.0078250
 NucSpn=           0           1           0           0           0           0           1           1           1           1
 AtZEff=  -0.0000000  -0.0000000  -0.0000000  -0.0000000  -0.0000000  -0.0000000  -0.0000000  -0.0000000  -0.0000000  -0.0000000
 NQMom=    0.0000000   0.0000000   0.0000000   0.0000000   0.0000000   0.0000000   0.0000000   0.0000000   0.0000000   0.0000000
 NMagM=    0.0000000   2.7928460   0.0000000   0.0000000   0.0000000   0.0000000   2.7928460   2.7928460   2.7928460   2.7928460
 AtZNuc=   6.0000000   1.0000000   8.0000000   6.0000000   6.0000000   8.0000000   1.0000000   1.0000000   1.0000000   1.0000000

  Atom        21          22          23          24          25          26          27          28
 IAtWgt=          12          16           1           1          12           1          16           1
 AtmWgt=  12.0000000  15.9949146   1.0078250   1.0078250  12.0000000   1.0078250  15.9949146   1.0078250
 NucSpn=           0           0           1           1           0           1           0           1
 AtZEff=  -0.0000000  -0.0000000  -0.0000000  -0.0000000  -0.0000000  -0.0000000  -0.0000000  -0.0000000
 NQMom=    0.0000000   0.0000000   0.0000000   0.0000000   0.0000000   0.0000000   0.0000000   0.0000000
 NMagM=    0.0000000   0.0000000   2.7928460   2.7928460   0.0000000   2.7928460   0.0000000   2.7928460
 AtZNuc=   6.0000000   8.0000000   1.0000000   1.0000000   6.0000000   1.0000000   8.0000000   1.0000000
 Leave Link  101 at Sun Jul 11 16:05:17 2021, MaxMem=   104857600 cpu:               0.8 elap:               0.2
 (Enter /prod/apps/gaussian/g16b1/l103.exe)

 GradGradGradGradGradGradGradGradGradGradGradGradGradGradGradGradGradGrad
 Berny optimization.
 Initialization pass.
                           ----------------------------
                           !    Initial Parameters    !
                           ! (Angstroms and Degrees)  !
 --------------------------                            --------------------------
 ! Name  Definition              Value          Derivative Info.                !
 --------------------------------------------------------------------------------
 ! R1    R(1,2)                  1.0087         estimate D2E/DX2                !
 ! R2    R(1,3)                  1.3207         estimate D2E/DX2                !
 ! R3    R(3,4)                  1.2067         estimate D2E/DX2                !
 ! R4    R(3,5)                  1.4657         estimate D2E/DX2                !
 ! R5    R(5,6)                  1.3964         estimate D2E/DX2                !
 ! R6    R(5,9)                  1.3392         estimate D2E/DX2                !
 ! R7    R(6,7)                  1.3363         estimate D2E/DX2                !
 ! R8    R(6,8)                  1.0825         estimate D2E/DX2                !
 ! R9    R(7,10)                 1.3364         estimate D2E/DX2                !
 ! R10   R(9,10)                 1.3221         estimate D2E/DX2                !
 ! R11   R(10,11)                1.4238         estimate D2E/DX2                !
 ! R12   R(11,12)                1.1001         estimate D2E/DX2                !
 ! R13   R(11,13)                1.4921         estimate D2E/DX2                !
 ! R14   R(11,25)                1.5637         estimate D2E/DX2                !
 ! R15   R(13,14)                1.4054         estimate D2E/DX2                !
 ! R16   R(14,15)                1.5782         estimate D2E/DX2                !
 ! R17   R(14,20)                1.0934         estimate D2E/DX2                !
 ! R18   R(14,21)                1.5338         estimate D2E/DX2                !
 ! R19   R(15,16)                1.4129         estimate D2E/DX2                !
 ! R20   R(15,18)                1.093          estimate D2E/DX2                !
 ! R21   R(15,19)                1.0936         estimate D2E/DX2                !
 ! R22   R(16,17)                0.9738         estimate D2E/DX2                !
 ! R23   R(21,22)                1.4044         estimate D2E/DX2                !
 ! R24   R(21,24)                1.0924         estimate D2E/DX2                !
 ! R25   R(21,25)                1.5699         estimate D2E/DX2                !
 ! R26   R(22,23)                0.9743         estimate D2E/DX2                !
 ! R27   R(25,26)                1.0927         estimate D2E/DX2                !
 ! R28   R(25,27)                1.421          estimate D2E/DX2                !
 ! R29   R(27,28)                0.9744         estimate D2E/DX2                !
 ! A1    A(2,1,3)              121.3691         estimate D2E/DX2                !
 ! A2    A(1,3,4)              121.9725         estimate D2E/DX2                !
 ! A3    A(1,3,5)              114.4163         estimate D2E/DX2                !
 ! A4    A(4,3,5)              123.6034         estimate D2E/DX2                !
 ! A5    A(3,5,6)              122.9996         estimate D2E/DX2                !
 ! A6    A(3,5,9)              128.7509         estimate D2E/DX2                !
 ! A7    A(6,5,9)              108.1686         estimate D2E/DX2                !
 ! A8    A(5,6,7)              108.4754         estimate D2E/DX2                !
 ! A9    A(5,6,8)              130.2641         estimate D2E/DX2                !
 ! A10   A(7,6,8)              120.6759         estimate D2E/DX2                !
 ! A11   A(6,7,10)             102.3513         estimate D2E/DX2                !
 ! A12   A(5,9,10)             103.4339         estimate D2E/DX2                !
 ! A13   A(7,10,9)             115.3578         estimate D2E/DX2                !
 ! A14   A(7,10,11)            116.2954         estimate D2E/DX2                !
 ! A15   A(9,10,11)            127.193          estimate D2E/DX2                !
 ! A16   A(10,11,12)           108.703          estimate D2E/DX2                !
 ! A17   A(10,11,13)           108.1187         estimate D2E/DX2                !
 ! A18   A(10,11,25)           114.78           estimate D2E/DX2                !
 ! A19   A(12,11,13)           113.2695         estimate D2E/DX2                !
 ! A20   A(12,11,25)           107.5266         estimate D2E/DX2                !
 ! A21   A(13,11,25)           104.5395         estimate D2E/DX2                !
 ! A22   A(11,13,14)           112.3237         estimate D2E/DX2                !
 ! A23   A(13,14,15)           109.1675         estimate D2E/DX2                !
 ! A24   A(13,14,20)           106.3149         estimate D2E/DX2                !
 ! A25   A(13,14,21)           108.9059         estimate D2E/DX2                !
 ! A26   A(15,14,20)           107.3291         estimate D2E/DX2                !
 ! A27   A(15,14,21)           110.829          estimate D2E/DX2                !
 ! A28   A(20,14,21)           114.1152         estimate D2E/DX2                !
 ! A29   A(14,15,16)           111.5729         estimate D2E/DX2                !
 ! A30   A(14,15,18)           107.565          estimate D2E/DX2                !
 ! A31   A(14,15,19)           107.7859         estimate D2E/DX2                !
 ! A32   A(16,15,18)           117.9467         estimate D2E/DX2                !
 ! A33   A(16,15,19)           114.2324         estimate D2E/DX2                !
 ! A34   A(18,15,19)            96.4262         estimate D2E/DX2                !
 ! A35   A(15,16,17)           102.5433         estimate D2E/DX2                !
 ! A36   A(14,21,22)           119.1281         estimate D2E/DX2                !
 ! A37   A(14,21,24)           110.2722         estimate D2E/DX2                !
 ! A38   A(14,21,25)           103.225          estimate D2E/DX2                !
 ! A39   A(22,21,24)           104.9819         estimate D2E/DX2                !
 ! A40   A(22,21,25)           114.9529         estimate D2E/DX2                !
 ! A41   A(24,21,25)           103.2535         estimate D2E/DX2                !
 ! A42   A(21,22,23)           106.6165         estimate D2E/DX2                !
 ! A43   A(11,25,21)           104.7793         estimate D2E/DX2                !
 ! A44   A(11,25,26)           117.3866         estimate D2E/DX2                !
 ! A45   A(11,25,27)           108.7578         estimate D2E/DX2                !
 ! A46   A(21,25,26)           107.5258         estimate D2E/DX2                !
 ! A47   A(21,25,27)           109.9673         estimate D2E/DX2                !
 ! A48   A(26,25,27)           108.2628         estimate D2E/DX2                !
 ! A49   A(25,27,28)           114.4992         estimate D2E/DX2                !
 ! D1    D(2,1,3,4)            178.5439         estimate D2E/DX2                !
 ! D2    D(2,1,3,5)             -0.4755         estimate D2E/DX2                !
 ! D3    D(1,3,5,6)           -177.2104         estimate D2E/DX2                !
 ! D4    D(1,3,5,9)             -0.8811         estimate D2E/DX2                !
 ! D5    D(4,3,5,6)              3.7884         estimate D2E/DX2                !
 ! D6    D(4,3,5,9)           -179.8823         estimate D2E/DX2                !
 ! D7    D(3,5,6,7)            167.8426         estimate D2E/DX2                !
 ! D8    D(3,5,6,8)             -3.2395         estimate D2E/DX2                !
 ! D9    D(9,5,6,7)             -9.1452         estimate D2E/DX2                !
 ! D10   D(9,5,6,8)            179.7728         estimate D2E/DX2                !
 ! D11   D(3,5,9,10)          -176.7987         estimate D2E/DX2                !
 ! D12   D(6,5,9,10)            -0.0383         estimate D2E/DX2                !
 ! D13   D(5,6,7,10)            13.882          estimate D2E/DX2                !
 ! D14   D(8,6,7,10)          -174.0233         estimate D2E/DX2                !
 ! D15   D(6,7,10,9)           -15.1365         estimate D2E/DX2                !
 ! D16   D(6,7,10,11)          176.2399         estimate D2E/DX2                !
 ! D17   D(5,9,10,7)             9.6706         estimate D2E/DX2                !
 ! D18   D(5,9,10,11)          176.8444         estimate D2E/DX2                !
 ! D19   D(7,10,11,12)         -15.6931         estimate D2E/DX2                !
 ! D20   D(7,10,11,13)         107.6476         estimate D2E/DX2                !
 ! D21   D(7,10,11,25)        -136.1217         estimate D2E/DX2                !
 ! D22   D(9,10,11,12)         177.2369         estimate D2E/DX2                !
 ! D23   D(9,10,11,13)         -59.4224         estimate D2E/DX2                !
 ! D24   D(9,10,11,25)          56.8083         estimate D2E/DX2                !
 ! D25   D(10,11,13,14)        116.3743         estimate D2E/DX2                !
 ! D26   D(12,11,13,14)       -123.0963         estimate D2E/DX2                !
 ! D27   D(25,11,13,14)         -6.3404         estimate D2E/DX2                !
 ! D28   D(10,11,25,21)        -98.8595         estimate D2E/DX2                !
 ! D29   D(10,11,25,26)         20.3119         estimate D2E/DX2                !
 ! D30   D(10,11,25,27)        143.5871         estimate D2E/DX2                !
 ! D31   D(12,11,25,21)        140.065          estimate D2E/DX2                !
 ! D32   D(12,11,25,26)       -100.7636         estimate D2E/DX2                !
 ! D33   D(12,11,25,27)         22.5117         estimate D2E/DX2                !
 ! D34   D(13,11,25,21)         19.4077         estimate D2E/DX2                !
 ! D35   D(13,11,25,26)        138.5792         estimate D2E/DX2                !
 ! D36   D(13,11,25,27)        -98.1456         estimate D2E/DX2                !
 ! D37   D(11,13,14,15)        111.1415         estimate D2E/DX2                !
 ! D38   D(11,13,14,20)       -133.371          estimate D2E/DX2                !
 ! D39   D(11,13,14,21)         -9.9875         estimate D2E/DX2                !
 ! D40   D(13,14,15,16)        -60.8665         estimate D2E/DX2                !
 ! D41   D(13,14,15,18)        168.3082         estimate D2E/DX2                !
 ! D42   D(13,14,15,19)         65.315          estimate D2E/DX2                !
 ! D43   D(20,14,15,16)       -175.7013         estimate D2E/DX2                !
 ! D44   D(20,14,15,18)         53.4734         estimate D2E/DX2                !
 ! D45   D(20,14,15,19)        -49.5198         estimate D2E/DX2                !
 ! D46   D(21,14,15,16)         59.0846         estimate D2E/DX2                !
 ! D47   D(21,14,15,18)        -71.7407         estimate D2E/DX2                !
 ! D48   D(21,14,15,19)       -174.7339         estimate D2E/DX2                !
 ! D49   D(13,14,21,22)        150.5749         estimate D2E/DX2                !
 ! D50   D(13,14,21,24)        -88.0054         estimate D2E/DX2                !
 ! D51   D(13,14,21,25)         21.7412         estimate D2E/DX2                !
 ! D52   D(15,14,21,22)         30.4677         estimate D2E/DX2                !
 ! D53   D(15,14,21,24)        151.8874         estimate D2E/DX2                !
 ! D54   D(15,14,21,25)        -98.3661         estimate D2E/DX2                !
 ! D55   D(20,14,21,22)        -90.8285         estimate D2E/DX2                !
 ! D56   D(20,14,21,24)         30.5913         estimate D2E/DX2                !
 ! D57   D(20,14,21,25)        140.3378         estimate D2E/DX2                !
 ! D58   D(14,15,16,17)         77.8655         estimate D2E/DX2                !
 ! D59   D(18,15,16,17)       -156.8864         estimate D2E/DX2                !
 ! D60   D(19,15,16,17)        -44.6936         estimate D2E/DX2                !
 ! D61   D(14,21,22,23)       -167.0067         estimate D2E/DX2                !
 ! D62   D(24,21,22,23)         68.9567         estimate D2E/DX2                !
 ! D63   D(25,21,22,23)        -43.7667         estimate D2E/DX2                !
 ! D64   D(14,21,25,11)        -24.7039         estimate D2E/DX2                !
 ! D65   D(14,21,25,26)       -150.3095         estimate D2E/DX2                !
 ! D66   D(14,21,25,27)         92.0202         estimate D2E/DX2                !
 ! D67   D(22,21,25,11)       -156.0692         estimate D2E/DX2                !
 ! D68   D(22,21,25,26)         78.3252         estimate D2E/DX2                !
 ! D69   D(22,21,25,27)        -39.3451         estimate D2E/DX2                !
 ! D70   D(24,21,25,11)         90.1945         estimate D2E/DX2                !
 ! D71   D(24,21,25,26)        -35.4111         estimate D2E/DX2                !
 ! D72   D(24,21,25,27)       -153.0814         estimate D2E/DX2                !
 ! D73   D(11,25,27,28)         68.4569         estimate D2E/DX2                !
 ! D74   D(21,25,27,28)        -45.7493         estimate D2E/DX2                !
 ! D75   D(26,25,27,28)       -162.9613         estimate D2E/DX2                !
 --------------------------------------------------------------------------------
 Trust Radius=3.00D-01 FncErr=1.00D-07 GrdErr=1.00D-06 EigMax=2.50D+02 EigMin=1.00D-04
 Number of steps in this run=    163 maximum allowed number of steps=    168.
 GradGradGradGradGradGradGradGradGradGradGradGradGradGradGradGradGradGrad

 Leave Link  103 at Sun Jul 11 16:05:17 2021, MaxMem=   104857600 cpu:               0.0 elap:               0.0
 (Enter /prod/apps/gaussian/g16b1/l202.exe)
                          Input orientation:                          
 ---------------------------------------------------------------------
 Center     Atomic      Atomic             Coordinates (Angstroms)
 Number     Number       Type             X           Y           Z
 ---------------------------------------------------------------------
      1          7           0        3.075000   -2.996000   -1.190000
      2          1           0        3.047000   -2.288000   -0.472000
      3          6           0        2.093000   -3.129000   -2.063000
      4          8           0        2.127000   -3.955000   -2.942000
      5          6           0        0.989000   -2.182000   -1.882000
      6          6           0       -0.165000   -2.200000   -2.668000
      7          7           0       -1.078000   -1.408000   -2.098000
      8          1           0       -0.425000   -2.822000   -3.515000
      9          7           0        0.846000   -1.229000   -0.952000
     10          7           0       -0.350000   -0.727000   -1.208000
     11          6           0       -1.034000    0.284000   -0.475000
     12          1           0       -1.985000    0.505000   -0.982000
     13          8           0       -1.211000   -0.198000    0.926000
     14          6           0       -0.523000    0.600000    1.856000
     15          6           0       -1.569000    1.390000    2.735000
     16          8           0       -2.374000    2.241000    1.945000
     17          1           0       -3.012000    1.621000    1.549000
     18          1           0       -1.027000    1.832000    3.575000
     19          1           0       -2.131000    0.659000    3.323000
     20          1           0        0.006000   -0.089000    2.520000
     21          6           0        0.394000    1.568000    1.098000
     22          8           0        0.692000    2.816000    1.669000
     23          1           0        1.099000    3.354000    0.966000
     24          1           0        1.365000    1.103000    0.913000
     25          6           0       -0.253000    1.631000   -0.331000
     26          1           0        0.549000    1.826000   -1.047000
     27          8           0       -1.180000    2.706000   -0.397000
     28          1           0       -1.783000    2.767000    0.366000
 ---------------------------------------------------------------------
                    Distance matrix (angstroms):
                    1          2          3          4          5
     1  N    0.000000
     2  H    1.008748   0.000000
     3  C    1.320660   2.036830   0.000000
     4  O    2.210857   3.118684   1.206678   0.000000
     5  C    2.343684   2.496938   1.465737   2.358426   0.000000
     6  C    3.649068   3.891928   2.515478   2.899718   1.396365
     7  N    4.538019   4.520387   3.608089   4.179901   2.217706
     8  H    4.205461   4.647557   2.922820   2.850390   2.252928
     9  N    2.854361   2.489233   2.529690   3.610005   1.339238
    10  N    4.108444   3.810253   3.531130   4.422925   2.089072
    11  C    5.305988   4.823873   4.893715   5.834992   3.486163
    12  H    6.156611   5.777713   5.568178   6.375088   4.107876
    13  O    5.538597   4.945004   5.333038   6.341823   4.081804
    14  C    5.929160   5.148303   6.008948   7.126804   4.898807
    15  C    7.497290   6.717141   7.540054   8.628892   6.373322
    16  O    8.182053   7.465988   8.053263   9.084723   6.746749
    17  H    8.116057   7.488405   7.853029   8.813069   6.499429
    18  H    7.927245   7.067537   8.132218   9.268677   7.067906
    19  H    7.799271   7.063888   7.823050   8.869599   6.700575
    20  H    5.624368   4.799515   5.882266   7.019832   4.972378
    21  C    5.766524   4.936805   5.911035   7.058925   4.826689
    22  O    6.901588   6.015041   7.157769   8.316669   6.138226
    23  H    6.991095   6.139602   7.224415   8.351690   6.226596
    24  H    4.914113   4.030661   5.224594   6.405079   4.329506
    25  C    5.763904   5.125275   5.582216   6.609472   4.299667
    26  H    5.445439   4.847229   5.288499   6.284988   4.117631
    27  O    7.158679   6.543179   6.894586   7.860165   5.549985
    28  H    7.696328   7.041603   7.462321   8.450813   6.101646
                    6          7          8          9         10
     6  C    0.000000
     7  N    1.336313   0.000000
     8  H    1.082540   2.105634   0.000000
     9  N    2.215766   2.246583   3.274456   0.000000
    10  N    2.082199   1.336355   3.117194   1.322103   0.000000
    11  C    3.425590   2.344980   4.388589   2.459898   1.423821
    12  H    3.670425   2.393256   4.463028   3.319972   2.059642
    13  O    4.244874   3.259811   5.217821   2.970033   2.361169
    14  C    5.332423   4.469251   6.369249   3.619981   3.343494
    15  C    6.637147   5.606048   7.623135   5.126925   4.638416
    16  O    6.773620   5.598273   7.697023   5.549947   4.779854
    17  H    6.363061   5.120137   7.216434   5.409405   4.494485
    18  H    7.481652   6.533233   8.502366   5.776814   5.466617
    19  H    6.923230   5.896485   7.860410   5.541002   5.061909
    20  H    5.603651   4.923489   6.638997   3.749665   3.798916
    21  C    5.356590   4.608446   6.420485   3.497144   3.337394
    22  O    6.686125   5.930039   7.740064   4.822383   4.681425
    23  H    6.756520   6.066636   7.781061   4.974598   4.845662
    24  H    5.106297   4.619469   6.181983   3.030810   3.284626
    25  C    4.488416   3.610877   5.476920   3.126186   2.517678
    26  H    4.398422   3.769680   5.351972   3.070873   2.711444
    27  O    5.500591   4.452954   6.391458   4.460597   3.623825
    28  H    6.041040   4.898872   6.938533   4.961530   4.091332
                   11         12         13         14         15
    11  C    0.000000
    12  H    1.100132   0.000000
    13  O    1.492131   2.175718   0.000000
    14  C    2.407185   3.193856   1.405364   0.000000
    15  C    3.437086   3.843484   2.433596   1.578245   0.000000
    16  O    3.388488   3.425251   2.887845   2.475278   1.412914
    17  H    3.129957   2.950618   2.634481   2.707732   1.882075
    18  H    4.335764   4.841998   3.342448   2.174121   1.093036
    19  H    3.971000   4.310227   2.706743   2.177437   1.093595
    20  H    3.192296   4.071968   2.008434   1.093370   2.171242
    21  C    2.482372   3.334068   2.392565   1.533779   2.562191
    22  O    3.739898   4.419825   3.641106   2.534137   2.877838
    23  H    4.006379   4.628451   4.237264   3.317755   3.755647
    24  H    2.890070   3.895013   2.885922   2.169517   3.465604
    25  C    1.563683   2.165987   2.417241   2.432865   3.345190
    26  H    2.282726   2.858395   3.329700   3.328614   4.356552
    27  O    2.427650   2.415502   3.191317   3.153235   3.419445
    28  H    2.726458   2.640938   3.071158   2.916091   2.748470
                   16         17         18         19         20
    16  O    0.000000
    17  H    0.973786   0.000000
    18  H    2.153739   2.844191   0.000000
    19  H    2.112027   2.201972   1.630414   0.000000
    20  H    3.379930   3.602120   2.422882   2.402308   0.000000
    21  C    2.971895   3.436138   2.867833   3.486048   2.217719
    22  O    3.131638   3.893847   2.748828   3.918889   3.103840
    23  H    3.776101   4.499278   3.693676   4.821968   3.932406
    24  H    4.042300   4.453195   3.652307   4.269339   2.418717
    25  C    3.170318   3.338650   3.987018   4.221775   3.339713
    26  H    4.203358   4.411571   4.883308   5.257489   4.084797
    27  O    2.669611   2.884504   4.069898   4.351208   4.210405
    28  H    1.766125   2.055054   3.426871   3.648098   3.999622
                   21         22         23         24         25
    21  C    0.000000
    22  O    1.404403   0.000000
    23  H    1.924642   0.974321   0.000000
    24  H    1.092379   1.989682   2.267282   0.000000
    25  C    1.569911   2.509432   2.545357   2.108138   0.000000
    26  H    2.166013   2.894340   2.586398   2.242807   1.092650
    27  O    2.451029   2.790133   2.733407   3.280661   1.421024
    28  H    2.590898   2.797469   3.001748   3.602500   2.029090
                   26         27         28
    26  H    0.000000
    27  O    2.046055   0.000000
    28  H    2.884489   0.974422   0.000000
 Stoichiometry    C8H11N4O5(1-)
 Framework group  C1[X(C8H11N4O5)]
 Deg. of freedom    78
 Full point group                 C1      NOp   1
 Largest Abelian subgroup         C1      NOp   1
 Largest concise Abelian subgroup C1      NOp   1
                         Standard orientation:                         
 ---------------------------------------------------------------------
 Center     Atomic      Atomic             Coordinates (Angstroms)
 Number     Number       Type             X           Y           Z
 ---------------------------------------------------------------------
      1          7           0       -3.820447    1.980886   -0.203093
      2          1           0       -2.891280    2.373394   -0.190521
      3          6           0       -4.018624    0.679735   -0.094134
      4          8           0       -5.126168    0.200912   -0.081958
      5          6           0       -2.791298   -0.111648    0.031446
      6          6           0       -2.789394   -1.506309    0.100383
      7          7           0       -1.534114   -1.936407   -0.057795
      8          1           0       -3.614420   -2.206799    0.123620
      9          7           0       -1.519601    0.308282    0.033284
     10          7           0       -0.825379   -0.814793    0.101958
     11          6           0        0.591284   -0.954165    0.071864
     12          1           0        0.843946   -2.017313    0.199025
     13          8           0        1.086839   -0.380113   -1.213182
     14          6           0        1.919235    0.734571   -1.014072
     15          6           0        3.397074    0.356647   -1.419069
     16          8           0        3.896705   -0.704032   -0.630617
     17          1           0        3.472194   -1.483499   -1.031220
     18          1           0        3.975776    1.283126   -1.457383
     19          1           0        3.408824    0.160415   -2.494849
     20          1           0        1.576399    1.502611   -1.712667
     21          6           0        1.847425    1.151411    0.460229
     22          8           0        2.962715    1.766661    1.051791
     23          1           0        2.806328    1.761499    2.013465
     24          1           0        1.023186    1.851167    0.615993
     25          6           0        1.352260   -0.153643    1.178745
     26          1           0        0.782484    0.151724    2.059649
     27          8           0        2.466596   -0.921009    1.613160
     28          1           0        3.172096   -1.021049    0.948509
 ---------------------------------------------------------------------
 Rotational constants (GHZ):           1.1052948           0.2428229           0.2295117
 Leave Link  202 at Sun Jul 11 16:05:17 2021, MaxMem=   104857600 cpu:               0.0 elap:               0.0
 (Enter /prod/apps/gaussian/g16b1/l301.exe)
 Standard basis: 6-31G(d) (6D, 7F)
 Ernie: Thresh=  0.10000D-02 Tol=  0.10000D-05 Strict=F.
 There are   277 symmetry adapted cartesian basis functions of A   symmetry.
 There are   277 symmetry adapted basis functions of A   symmetry.
   277 basis functions,   520 primitive gaussians,   277 cartesian basis functions
    64 alpha electrons       64 beta electrons
       nuclear repulsion energy      1282.6134515386 Hartrees.
 IExCor=  402 DFT=T Ex+Corr=B3LYP ExCW=0 ScaHFX=  0.200000
 ScaDFX=  0.800000  0.720000  1.000000  0.810000 ScalE2=  1.000000  1.000000
 IRadAn=      5 IRanWt=     -1 IRanGd=            0 ICorTp=0 IEmpDi=  4
 NAtoms=   28 NActive=   28 NUniq=   28 SFac= 1.00D+00 NAtFMM=   60 NAOKFM=F Big=F
 Integral buffers will be    131072 words long.
 Raffenetti 2 integral format.
 Two-electron integral symmetry is turned on.
 Using the following non-standard input for PCM:
 MSTModel=DFT cav MSTCharged
 --- end of non-standard input.
 MST model for solvation energy: B3LYP parametrization.
 MST cavity parameters:
 ISph   IAn     Re0     Alpha   Atom Type   QCorr
 ------------------------------------------------
   1      7     1.50     1.15      NH         T
   2      1     0.90     1.15      NH         T
   3      6     1.50     1.25      C          F
   4      8     1.40     1.25      O          F
   5      6     1.50     1.25      C          F
   6      6     1.50     1.25      CH         F
   7      7     1.40     1.25      N          F
   8      1     1.20     1.25      CH         F
   9      7     1.40     1.25      N          F
  10      7     1.40     1.25      N          F
  11      6     1.50     1.25      CH         F
  12      1     1.20     1.25      CH         F
  13      8     1.40     1.25      O          F
  14      6     1.50     1.25      CH         F
  15      6     1.50     1.25      CH2        F
  16      8     1.45     1.25      OH         F
  17      1     0.90     1.25      OH         F
  18      1     1.20     1.25      CH2        F
  19      1     1.20     1.25      CH2        F
  20      1     1.20     1.25      CH         F
  21      6     1.50     1.25      CH         F
  22      8     1.45     1.25      OH         F
  23      1     0.90     1.25      OH         F
  24      1     1.20     1.25      CH         F
  25      6     1.50     1.25      CH         F
  26      1     1.20     1.25      CH         F
  27      8     1.45     1.25      OH         F
  28      1     0.90     1.25      OH         F
 ------------------------------------------------------------------------------
 Polarizable Continuum Model (PCM)
 =================================
 Model                : PCM.
 Atomic radii         : MST.
 Polarization charges : Total charges.
 Charge compensation  : None.
 Solution method      : On-the-fly selection.
 Cavity type          : Scaled VdW (van der Waals Surface) (Alpha=1.250).
 Cavity algorithm     : GePol (No added spheres)
                        Default sphere list used, NSphG=   28.
                        Lebedev-Laikov grids with approx.  5.0 points / Ang**2.
                        Smoothing algorithm: York/Karplus (Gamma=1.0000).
                        Polarization charges: spherical gaussians, with
                                              point-specific exponents (IZeta= 3).
                        Self-potential: point-specific (ISelfS= 7).
                        Self-field    : sphere-specific E.n sum rule (ISelfD= 2).
 1st derivatives      : Analytical E(r).r(x)/FMM algorithm (CHGder, D1EAlg=3).
                        Cavity 1st derivative terms included.
 Solvent              : Water, Eps=  78.355300 Eps(inf)=   1.777849
 ------------------------------------------------------------------------------
 GePol: Number of generator spheres                  =      28
 GePol: Total number of spheres                      =      28
 GePol: Number of exposed spheres                    =      28 (100.00%)
 GePol: Number of points                             =    2035
 GePol: Average weight of points                     =       0.13
 GePol: Minimum weight of points                     =   0.14D-07
 GePol: Maximum weight of points                     =    0.22001
 GePol: Number of points with low weight             =     134
 GePol: Fraction of low-weight points (<1% of avg)   =       6.58%
 GePol: Cavity surface area                          =    265.848 Ang**2
 GePol: Cavity volume                                =    249.204 Ang**3
 PCM non-electrostatic energy =         0.0014351804 Hartrees.
 Nuclear repulsion after PCM non-electrostatic terms =     1282.6148867190 Hartrees.
 Leave Link  301 at Sun Jul 11 16:05:17 2021, MaxMem=   104857600 cpu:               0.3 elap:               0.1
 (Enter /prod/apps/gaussian/g16b1/l302.exe)
 NPDir=0 NMtPBC=     1 NCelOv=     1 NCel=       1 NClECP=     1 NCelD=      1
         NCelK=      1 NCelE2=     1 NClLst=     1 CellRange=     0.0.
 One-electron integrals computed using PRISM.
 One-electron integral symmetry used in STVInt
 NBasis=   277 RedAO= T EigKep=  1.04D-03  NBF=   277
 NBsUse=   277 1.00D-06 EigRej= -1.00D+00 NBFU=   277
 Precomputing XC quadrature grid using
 IXCGrd= 4 IRadAn=           5 IRanWt=          -1 IRanGd=           0 AccXCQ= 0.00D+00.
 Generated NRdTot=       0 NPtTot=           0 NUsed=           0 NTot=          32
 NSgBfM=   274   274   274   274   274 MxSgAt=    28 MxSgA2=    28.
 Leave Link  302 at Sun Jul 11 16:05:17 2021, MaxMem=   104857600 cpu:               1.3 elap:               0.3
 (Enter /prod/apps/gaussian/g16b1/l303.exe)
 DipDrv:  MaxL=1.
 Leave Link  303 at Sun Jul 11 16:05:17 2021, MaxMem=   104857600 cpu:               0.1 elap:               0.0
 (Enter /prod/apps/gaussian/g16b1/l401.exe)
 ExpMin= 1.61D-01 ExpMax= 5.48D+03 ExpMxC= 8.25D+02 IAcc=3 IRadAn=         5 AccDes= 0.00D+00
 Harris functional with IExCor=  402 and IRadAn=       5 diagonalized for initial guess.
 HarFok:  IExCor=  402 AccDes= 0.00D+00 IRadAn=         5 IDoV= 1 UseB2=F ITyADJ=14
 ICtDFT=  3500011 ScaDFX=  1.000000  1.000000  1.000000  1.000000
 FoFCou: FMM=F IPFlag=           0 FMFlag=      100000 FMFlg1=           0
         NFxFlg=           0 DoJE=T BraDBF=F KetDBF=T FulRan=T
         wScrn=  0.000000 ICntrl=       500 IOpCl=  0 I1Cent=   200000004 NGrid=           0
         NMat0=    1 NMatS0=      1 NMatT0=    0 NMatD0=    1 NMtDS0=    0 NMtDT0=    0
 Petite list used in FoFCou.
 Harris En= -906.634036740955    
 JPrj=0 DoOrth=F DoCkMO=F.
 Leave Link  401 at Sun Jul 11 16:05:19 2021, MaxMem=   104857600 cpu:               6.3 elap:               1.6
 (Enter /prod/apps/gaussian/g16b1/l502.exe)
 Integral symmetry usage will be decided dynamically.
 Closed shell SCF:
 Using DIIS extrapolation, IDIIS=  1040.
 NGot=   104857600 LenX=   104699417 LenY=   104622247
 Requested convergence on RMS density matrix=1.00D-08 within 128 cycles.
 Requested convergence on MAX density matrix=1.00D-06.
 Requested convergence on             energy=1.00D-06.
 No special actions if energy rises.
 Fock matrices will be formed incrementally for  20 cycles.

 Cycle   1  Pass 1  IDiag  1:
 FoFJK:  IHMeth= 1 ICntrl=       0 DoSepK=F KAlg= 0 I1Cent=           0 FoldK=F
 IRaf= 820000000 NMat=       1 IRICut=       1 DoRegI=T DoRafI=F ISym2E= 0 IDoP0=0 IntGTp=1.
 FoFCou: FMM=F IPFlag=           0 FMFlag=      100000 FMFlg1=           0
         NFxFlg=           0 DoJE=F BraDBF=F KetDBF=F FulRan=T
         wScrn=  0.000000 ICntrl=         0 IOpCl=  0 I1Cent=           0 NGrid=           0
         NMat0=    1 NMatS0=      1 NMatT0=    0 NMatD0=    1 NMtDS0=    0 NMtDT0=    0
 Symmetry not used in FoFCou.
 Inv3:  Mode=1 IEnd=    12423675.
 Iteration    1 A*A^-1 deviation from unit magnitude is 3.33D-15 for    741.
 Iteration    1 A*A^-1 deviation from orthogonality  is 2.04D-15 for   1669    488.
 Iteration    1 A^-1*A deviation from unit magnitude is 3.00D-15 for   1085.
 Iteration    1 A^-1*A deviation from orthogonality  is 3.36D-14 for   1757   1739.
 E= -906.196752165962    
 DIIS: error= 2.86D-02 at cycle   1 NSaved=   1.
 NSaved= 1 IEnMin= 1 EnMin= -906.196752165962     IErMin= 1 ErrMin= 2.86D-02
 ErrMax= 2.86D-02  0.00D+00 EMaxC= 1.00D-01 BMatC= 5.15D-01 BMatP= 5.15D-01
 IDIUse=3 WtCom= 7.14D-01 WtEn= 2.86D-01
 Coeff-Com:  0.100D+01
 Coeff-En:   0.100D+01
 Coeff:      0.100D+01
 Gap=     0.224 Goal=   None    Shift=    0.000
 GapD=    0.224 DampG=1.000 DampE=0.500 DampFc=0.5000 IDamp=-1.
 Damping current iteration by 5.00D-01
 RMSDP=6.72D-03 MaxDP=2.29D-01              OVMax= 3.26D-01

 Cycle   2  Pass 1  IDiag  1:
 RMSU=  3.36D-03    CP:  9.92D-01
 E= -906.339027047361     Delta-E=       -0.142274881400 Rises=F Damp=T
 DIIS: error= 5.84D-03 at cycle   2 NSaved=   2.
 NSaved= 2 IEnMin= 2 EnMin= -906.339027047361     IErMin= 2 ErrMin= 5.84D-03
 ErrMax= 5.84D-03  0.00D+00 EMaxC= 1.00D-01 BMatC= 5.45D-02 BMatP= 5.15D-01
 IDIUse=3 WtCom= 9.42D-01 WtEn= 5.84D-02
 Coeff-Com:  0.169D+00 0.831D+00
 Coeff-En:   0.284D+00 0.716D+00
 Coeff:      0.176D+00 0.824D+00
 Gap=     0.162 Goal=   None    Shift=    0.000
 RMSDP=1.75D-03 MaxDP=1.00D-01 DE=-1.42D-01 OVMax= 2.26D-01

 Cycle   3  Pass 1  IDiag  1:
 RMSU=  1.53D-03    CP:  9.81D-01  7.57D-01
 E= -906.594568189512     Delta-E=       -0.255541142151 Rises=F Damp=F
 DIIS: error= 6.01D-03 at cycle   3 NSaved=   3.
 NSaved= 3 IEnMin= 3 EnMin= -906.594568189512     IErMin= 2 ErrMin= 5.84D-03
 ErrMax= 6.01D-03  0.00D+00 EMaxC= 1.00D-01 BMatC= 2.62D-02 BMatP= 5.45D-02
 IDIUse=3 WtCom= 9.40D-01 WtEn= 6.01D-02
 Coeff-Com:  0.337D-01 0.403D+00 0.564D+00
 Coeff-En:   0.000D+00 0.000D+00 0.100D+01
 Coeff:      0.317D-01 0.379D+00 0.590D+00
 Gap=     0.156 Goal=   None    Shift=    0.000
 RMSDP=8.62D-04 MaxDP=5.81D-02 DE=-2.56D-01 OVMax= 6.28D-02

 Cycle   4  Pass 1  IDiag  1:
 RMSU=  5.92D-04    CP:  9.86D-01  8.00D-01  6.06D-01
 E= -906.612972577116     Delta-E=       -0.018404387604 Rises=F Damp=F
 DIIS: error= 3.41D-03 at cycle   4 NSaved=   4.
 NSaved= 4 IEnMin= 4 EnMin= -906.612972577116     IErMin= 4 ErrMin= 3.41D-03
 ErrMax= 3.41D-03  0.00D+00 EMaxC= 1.00D-01 BMatC= 6.62D-03 BMatP= 2.62D-02
 IDIUse=3 WtCom= 9.66D-01 WtEn= 3.41D-02
 Coeff-Com:  0.195D-02 0.107D+00 0.353D+00 0.538D+00
 Coeff-En:   0.000D+00 0.000D+00 0.204D+00 0.796D+00
 Coeff:      0.189D-02 0.104D+00 0.348D+00 0.546D+00
 Gap=     0.157 Goal=   None    Shift=    0.000
 RMSDP=3.32D-04 MaxDP=2.07D-02 DE=-1.84D-02 OVMax= 2.57D-02

 Cycle   5  Pass 1  IDiag  1:
 RMSU=  1.87D-04    CP:  9.85D-01  7.94D-01  6.92D-01  5.94D-01
 E= -906.618210389885     Delta-E=       -0.005237812768 Rises=F Damp=F
 DIIS: error= 1.30D-03 at cycle   5 NSaved=   5.
 NSaved= 5 IEnMin= 5 EnMin= -906.618210389885     IErMin= 5 ErrMin= 1.30D-03
 ErrMax= 1.30D-03  0.00D+00 EMaxC= 1.00D-01 BMatC= 5.95D-04 BMatP= 6.62D-03
 IDIUse=3 WtCom= 9.87D-01 WtEn= 1.30D-02
 Coeff-Com: -0.559D-03 0.119D-01 0.125D+00 0.305D+00 0.558D+00
 Coeff-En:   0.000D+00 0.000D+00 0.000D+00 0.273D-01 0.973D+00
 Coeff:     -0.551D-03 0.117D-01 0.123D+00 0.302D+00 0.564D+00
 Gap=     0.160 Goal=   None    Shift=    0.000
 RMSDP=9.68D-05 MaxDP=3.93D-03 DE=-5.24D-03 OVMax= 5.83D-03

 Cycle   6  Pass 1  IDiag  1:
 RMSU=  4.42D-05    CP:  9.85D-01  7.92D-01  7.06D-01  6.52D-01  5.98D-01
 E= -906.618709325041     Delta-E=       -0.000498935156 Rises=F Damp=F
 DIIS: error= 2.47D-04 at cycle   6 NSaved=   6.
 NSaved= 6 IEnMin= 6 EnMin= -906.618709325041     IErMin= 6 ErrMin= 2.47D-04
 ErrMax= 2.47D-04  0.00D+00 EMaxC= 1.00D-01 BMatC= 2.70D-05 BMatP= 5.95D-04
 IDIUse=3 WtCom= 9.98D-01 WtEn= 2.47D-03
 Coeff-Com: -0.355D-03-0.110D-02 0.386D-01 0.111D+00 0.272D+00 0.580D+00
 Coeff-En:   0.000D+00 0.000D+00 0.000D+00 0.000D+00 0.000D+00 0.100D+01
 Coeff:     -0.354D-03-0.110D-02 0.385D-01 0.111D+00 0.272D+00 0.581D+00
 Gap=     0.161 Goal=   None    Shift=    0.000
 RMSDP=2.14D-05 MaxDP=9.73D-04 DE=-4.99D-04 OVMax= 1.18D-03

 Cycle   7  Pass 1  IDiag  1:
 RMSU=  1.38D-05    CP:  9.85D-01  7.91D-01  7.07D-01  6.54D-01  6.26D-01
                    CP:  6.63D-01
 E= -906.618730224681     Delta-E=       -0.000020899640 Rises=F Damp=F
 DIIS: error= 7.37D-05 at cycle   7 NSaved=   7.
 NSaved= 7 IEnMin= 7 EnMin= -906.618730224681     IErMin= 7 ErrMin= 7.37D-05
 ErrMax= 7.37D-05  0.00D+00 EMaxC= 1.00D-01 BMatC= 2.97D-06 BMatP= 2.70D-05
 IDIUse=1 WtCom= 1.00D+00 WtEn= 0.00D+00
 Coeff-Com: -0.843D-04-0.157D-02 0.127D-01 0.397D-01 0.112D+00 0.322D+00
 Coeff-Com:  0.515D+00
 Coeff:     -0.843D-04-0.157D-02 0.127D-01 0.397D-01 0.112D+00 0.322D+00
 Coeff:      0.515D+00
 Gap=     0.161 Goal=   None    Shift=    0.000
 RMSDP=6.95D-06 MaxDP=4.08D-04 DE=-2.09D-05 OVMax= 5.95D-04

 Cycle   8  Pass 1  IDiag  1:
 RMSU=  4.67D-06    CP:  9.85D-01  7.91D-01  7.07D-01  6.55D-01  6.32D-01
                    CP:  7.02D-01  6.72D-01
 E= -906.618732485329     Delta-E=       -0.000002260648 Rises=F Damp=F
 DIIS: error= 2.55D-05 at cycle   8 NSaved=   8.
 NSaved= 8 IEnMin= 8 EnMin= -906.618732485329     IErMin= 8 ErrMin= 2.55D-05
 ErrMax= 2.55D-05  0.00D+00 EMaxC= 1.00D-01 BMatC= 2.83D-07 BMatP= 2.97D-06
 IDIUse=1 WtCom= 1.00D+00 WtEn= 0.00D+00
 Coeff-Com:  0.285D-04-0.692D-03 0.268D-02 0.883D-02 0.303D-01 0.106D+00
 Coeff-Com:  0.278D+00 0.576D+00
 Coeff:      0.285D-04-0.692D-03 0.268D-02 0.883D-02 0.303D-01 0.106D+00
 Coeff:      0.278D+00 0.576D+00
 Gap=     0.161 Goal=   None    Shift=    0.000
 RMSDP=2.44D-06 MaxDP=1.30D-04 DE=-2.26D-06 OVMax= 2.21D-04

 Cycle   9  Pass 1  IDiag  1:
 RMSU=  1.73D-06    CP:  9.85D-01  7.91D-01  7.07D-01  6.55D-01  6.33D-01
                    CP:  7.10D-01  7.17D-01  6.83D-01
 E= -906.618732693875     Delta-E=       -0.000000208546 Rises=F Damp=F
 DIIS: error= 1.13D-05 at cycle   9 NSaved=   9.
 NSaved= 9 IEnMin= 9 EnMin= -906.618732693875     IErMin= 9 ErrMin= 1.13D-05
 ErrMax= 1.13D-05  0.00D+00 EMaxC= 1.00D-01 BMatC= 4.72D-08 BMatP= 2.83D-07
 IDIUse=1 WtCom= 1.00D+00 WtEn= 0.00D+00
 Coeff-Com:  0.333D-04-0.184D-03-0.457D-03-0.134D-02-0.303D-03 0.957D-02
 Coeff-Com:  0.804D-01 0.339D+00 0.574D+00
 Coeff:      0.333D-04-0.184D-03-0.457D-03-0.134D-02-0.303D-03 0.957D-02
 Coeff:      0.804D-01 0.339D+00 0.574D+00
 Gap=     0.161 Goal=   None    Shift=    0.000
 RMSDP=8.73D-07 MaxDP=4.69D-05 DE=-2.09D-07 OVMax= 7.17D-05

 Cycle  10  Pass 1  IDiag  1:
 RMSU=  4.58D-07    CP:  9.85D-01  7.91D-01  7.07D-01  6.55D-01  6.33D-01
                    CP:  7.12D-01  7.30D-01  7.76D-01  6.85D-01
 E= -906.618732736039     Delta-E=       -0.000000042165 Rises=F Damp=F
 DIIS: error= 1.65D-06 at cycle  10 NSaved=  10.
 NSaved=10 IEnMin=10 EnMin= -906.618732736039     IErMin=10 ErrMin= 1.65D-06
 ErrMax= 1.65D-06  0.00D+00 EMaxC= 1.00D-01 BMatC= 2.26D-09 BMatP= 4.72D-08
 IDIUse=1 WtCom= 1.00D+00 WtEn= 0.00D+00
 Coeff-Com:  0.157D-04-0.425D-04-0.359D-03-0.118D-02-0.192D-02-0.215D-02
 Coeff-Com:  0.207D-01 0.123D+00 0.267D+00 0.595D+00
 Coeff:      0.157D-04-0.425D-04-0.359D-03-0.118D-02-0.192D-02-0.215D-02
 Coeff:      0.207D-01 0.123D+00 0.267D+00 0.595D+00
 Gap=     0.161 Goal=   None    Shift=    0.000
 RMSDP=2.17D-07 MaxDP=9.79D-06 DE=-4.22D-08 OVMax= 1.62D-05

 Cycle  11  Pass 1  IDiag  1:
 RMSU=  1.53D-07    CP:  9.85D-01  7.91D-01  7.07D-01  6.55D-01  6.33D-01
                    CP:  7.12D-01  7.34D-01  7.80D-01  7.23D-01  7.30D-01
 E= -906.618732737635     Delta-E=       -0.000000001596 Rises=F Damp=F
 DIIS: error= 7.05D-07 at cycle  11 NSaved=  11.
 NSaved=11 IEnMin=11 EnMin= -906.618732737635     IErMin=11 ErrMin= 7.05D-07
 ErrMax= 7.05D-07  0.00D+00 EMaxC= 1.00D-01 BMatC= 4.42D-10 BMatP= 2.26D-09
 IDIUse=1 WtCom= 1.00D+00 WtEn= 0.00D+00
 Coeff-Com:  0.450D-05-0.125D-05-0.142D-03-0.512D-03-0.106D-02-0.261D-02
 Coeff-Com:  0.868D-03 0.241D-01 0.704D-01 0.343D+00 0.566D+00
 Coeff:      0.450D-05-0.125D-05-0.142D-03-0.512D-03-0.106D-02-0.261D-02
 Coeff:      0.868D-03 0.241D-01 0.704D-01 0.343D+00 0.566D+00
 Gap=     0.161 Goal=   None    Shift=    0.000
 RMSDP=7.86D-08 MaxDP=3.51D-06 DE=-1.60D-09 OVMax= 4.20D-06

 Cycle  12  Pass 1  IDiag  1:
 RMSU=  4.07D-08    CP:  9.85D-01  7.91D-01  7.07D-01  6.55D-01  6.33D-01
                    CP:  7.12D-01  7.34D-01  7.84D-01  7.29D-01  7.92D-01
                    CP:  6.62D-01
 E= -906.618732738010     Delta-E=       -0.000000000375 Rises=F Damp=F
 DIIS: error= 1.09D-07 at cycle  12 NSaved=  12.
 NSaved=12 IEnMin=12 EnMin= -906.618732738010     IErMin=12 ErrMin= 1.09D-07
 ErrMax= 1.09D-07  0.00D+00 EMaxC= 1.00D-01 BMatC= 1.17D-11 BMatP= 4.42D-10
 IDIUse=1 WtCom= 1.00D+00 WtEn= 0.00D+00
 Coeff-Com:  0.673D-06 0.248D-05-0.281D-04-0.113D-03-0.255D-03-0.813D-03
 Coeff-Com: -0.106D-02 0.428D-03 0.589D-02 0.872D-01 0.201D+00 0.708D+00
 Coeff:      0.673D-06 0.248D-05-0.281D-04-0.113D-03-0.255D-03-0.813D-03
 Coeff:     -0.106D-02 0.428D-03 0.589D-02 0.872D-01 0.201D+00 0.708D+00
 Gap=     0.161 Goal=   None    Shift=    0.000
 RMSDP=1.85D-08 MaxDP=6.74D-07 DE=-3.75D-10 OVMax= 1.51D-06

 Cycle  13  Pass 1  IDiag  1:
 RMSU=  1.36D-08    CP:  9.85D-01  7.91D-01  7.07D-01  6.55D-01  6.33D-01
                    CP:  7.12D-01  7.34D-01  7.85D-01  7.30D-01  8.09D-01
                    CP:  7.01D-01  8.60D-01
 E= -906.618732738016     Delta-E=       -0.000000000006 Rises=F Damp=F
 DIIS: error= 6.84D-08 at cycle  13 NSaved=  13.
 NSaved=13 IEnMin=13 EnMin= -906.618732738016     IErMin=13 ErrMin= 6.84D-08
 ErrMax= 6.84D-08  0.00D+00 EMaxC= 1.00D-01 BMatC= 3.67D-12 BMatP= 1.17D-11
 IDIUse=1 WtCom= 1.00D+00 WtEn= 0.00D+00
 Coeff-Com: -0.142D-06 0.133D-05 0.148D-05-0.297D-05-0.150D-04-0.153D-03
 Coeff-Com: -0.704D-03-0.269D-02-0.518D-02 0.100D-01 0.472D-01 0.404D+00
 Coeff-Com:  0.548D+00
 Coeff:     -0.142D-06 0.133D-05 0.148D-05-0.297D-05-0.150D-04-0.153D-03
 Coeff:     -0.704D-03-0.269D-02-0.518D-02 0.100D-01 0.472D-01 0.404D+00
 Coeff:      0.548D+00
 Gap=     0.161 Goal=   None    Shift=    0.000
 RMSDP=8.17D-09 MaxDP=3.81D-07 DE=-5.91D-12 OVMax= 7.02D-07

 Error on total polarization charges =  0.02004
 SCF Done:  E(RB3LYP) =  -906.618732738     A.U. after   13 cycles
            NFock= 13  Conv=0.82D-08     -V/T= 2.0084
 KE= 8.990846199120D+02 PE=-4.703164575668D+03 EE= 1.614846336299D+03
 Leave Link  502 at Sun Jul 11 16:06:08 2021, MaxMem=   104857600 cpu:             194.5 elap:              48.7
 (Enter /prod/apps/gaussian/g16b1/l601.exe)
 Copying SCF densities to generalized density rwf, IOpCl= 0 IROHF=0.

 **********************************************************************

            Population analysis using the SCF Density.

 **********************************************************************

 Orbital symmetries:
       Occupied  (A) (A) (A) (A) (A) (A) (A) (A) (A) (A) (A) (A)
                 (A) (A) (A) (A) (A) (A) (A) (A) (A) (A) (A) (A)
                 (A) (A) (A) (A) (A) (A) (A) (A) (A) (A) (A) (A)
                 (A) (A) (A) (A) (A) (A) (A) (A) (A) (A) (A) (A)
                 (A) (A) (A) (A) (A) (A) (A) (A) (A) (A) (A) (A)
                 (A) (A) (A) (A)
       Virtual   (A) (A) (A) (A) (A) (A) (A) (A) (A) (A) (A) (A)
                 (A) (A) (A) (A) (A) (A) (A) (A) (A) (A) (A) (A)
                 (A) (A) (A) (A) (A) (A) (A) (A) (A) (A) (A) (A)
                 (A) (A) (A) (A) (A) (A) (A) (A) (A) (A) (A) (A)
                 (A) (A) (A) (A) (A) (A) (A) (A) (A) (A) (A) (A)
                 (A) (A) (A) (A) (A) (A) (A) (A) (A) (A) (A) (A)
                 (A) (A) (A) (A) (A) (A) (A) (A) (A) (A) (A) (A)
                 (A) (A) (A) (A) (A) (A) (A) (A) (A) (A) (A) (A)
                 (A) (A) (A) (A) (A) (A) (A) (A) (A) (A) (A) (A)
                 (A) (A) (A) (A) (A) (A) (A) (A) (A) (A) (A) (A)
                 (A) (A) (A) (A) (A) (A) (A) (A) (A) (A) (A) (A)
                 (A) (A) (A) (A) (A) (A) (A) (A) (A) (A) (A) (A)
                 (A) (A) (A) (A) (A) (A) (A) (A) (A) (A) (A) (A)
                 (A) (A) (A) (A) (A) (A) (A) (A) (A) (A) (A) (A)
                 (A) (A) (A) (A) (A) (A) (A) (A) (A) (A) (A) (A)
                 (A) (A) (A) (A) (A) (A) (A) (A) (A) (A) (A) (A)
                 (A) (A) (A) (A) (A) (A) (A) (A) (A) (A) (A) (A)
                 (A) (A) (A) (A) (A) (A) (A) (A) (A)
 The electronic state is 1-A.
 Alpha  occ. eigenvalues --  -19.16930 -19.16535 -19.14889 -19.13078 -19.05910
 Alpha  occ. eigenvalues --  -14.44593 -14.37006 -14.36790 -14.22951 -10.28796
 Alpha  occ. eigenvalues --  -10.24566 -10.24012 -10.23640 -10.23157 -10.22543
 Alpha  occ. eigenvalues --  -10.20765 -10.20503  -1.11576  -1.05683  -1.03235
 Alpha  occ. eigenvalues --   -1.02507  -1.00107  -0.99244  -0.89526  -0.85856
 Alpha  occ. eigenvalues --   -0.79677  -0.76257  -0.74121  -0.68565  -0.64377
 Alpha  occ. eigenvalues --   -0.62571  -0.60009  -0.57928  -0.53756  -0.52974
 Alpha  occ. eigenvalues --   -0.51776  -0.51138  -0.49953  -0.48860  -0.47050
 Alpha  occ. eigenvalues --   -0.46401  -0.45666  -0.45325  -0.44403  -0.42677
 Alpha  occ. eigenvalues --   -0.40152  -0.39148  -0.38093  -0.37099  -0.36990
 Alpha  occ. eigenvalues --   -0.34656  -0.33634  -0.33172  -0.31540  -0.30974
 Alpha  occ. eigenvalues --   -0.30470  -0.28692  -0.27664  -0.27301  -0.25087
 Alpha  occ. eigenvalues --   -0.24716  -0.22148  -0.20267  -0.18386
 Alpha virt. eigenvalues --   -0.02320   0.02834   0.06925   0.08389   0.10791
 Alpha virt. eigenvalues --    0.11283   0.12054   0.13837   0.15085   0.15582
 Alpha virt. eigenvalues --    0.16111   0.16735   0.16985   0.18007   0.19363
 Alpha virt. eigenvalues --    0.19573   0.20567   0.21747   0.22798   0.23328
 Alpha virt. eigenvalues --    0.25400   0.26223   0.27258   0.28364   0.30519
 Alpha virt. eigenvalues --    0.31228   0.34702   0.35907   0.37750   0.41591
 Alpha virt. eigenvalues --    0.44558   0.47082   0.52829   0.53018   0.53731
 Alpha virt. eigenvalues --    0.54719   0.55426   0.56111   0.57654   0.58676
 Alpha virt. eigenvalues --    0.59042   0.61458   0.61610   0.61978   0.62824
 Alpha virt. eigenvalues --    0.64060   0.64783   0.66713   0.67258   0.67639
 Alpha virt. eigenvalues --    0.68546   0.69945   0.72575   0.73671   0.74623
 Alpha virt. eigenvalues --    0.75352   0.76400   0.77385   0.78977   0.80322
 Alpha virt. eigenvalues --    0.81133   0.81407   0.81969   0.82307   0.82883
 Alpha virt. eigenvalues --    0.83600   0.86002   0.86672   0.87860   0.88646
 Alpha virt. eigenvalues --    0.89275   0.90483   0.92016   0.94048   0.94997
 Alpha virt. eigenvalues --    0.96387   0.97465   0.98828   0.99280   1.01024
 Alpha virt. eigenvalues --    1.01667   1.03340   1.04540   1.04737   1.07355
 Alpha virt. eigenvalues --    1.08472   1.10424   1.12501   1.13478   1.15078
 Alpha virt. eigenvalues --    1.16030   1.18068   1.18817   1.20935   1.21860
 Alpha virt. eigenvalues --    1.25177   1.26086   1.30822   1.32129   1.34155
 Alpha virt. eigenvalues --    1.34821   1.38234   1.39083   1.40389   1.42069
 Alpha virt. eigenvalues --    1.45679   1.47250   1.48992   1.50375   1.51506
 Alpha virt. eigenvalues --    1.53153   1.55783   1.57257   1.58013   1.58704
 Alpha virt. eigenvalues --    1.62244   1.64852   1.66653   1.68321   1.71945
 Alpha virt. eigenvalues --    1.72385   1.74071   1.74853   1.76979   1.77611
 Alpha virt. eigenvalues --    1.79664   1.80401   1.82537   1.83468   1.83950
 Alpha virt. eigenvalues --    1.86382   1.86712   1.87818   1.88644   1.90548
 Alpha virt. eigenvalues --    1.92871   1.96305   1.97019   1.98219   1.98839
 Alpha virt. eigenvalues --    2.00861   2.01362   2.03472   2.04118   2.07004
 Alpha virt. eigenvalues --    2.08957   2.11312   2.12319   2.15498   2.16637
 Alpha virt. eigenvalues --    2.17329   2.19463   2.22149   2.23552   2.25436
 Alpha virt. eigenvalues --    2.26066   2.31143   2.31942   2.33098   2.36516
 Alpha virt. eigenvalues --    2.36936   2.39160   2.40470   2.41474   2.43448
 Alpha virt. eigenvalues --    2.45177   2.46586   2.48894   2.50834   2.51436
 Alpha virt. eigenvalues --    2.55023   2.56671   2.60192   2.61266   2.62743
 Alpha virt. eigenvalues --    2.65036   2.65297   2.69776   2.70702   2.74100
 Alpha virt. eigenvalues --    2.75260   2.77594   2.79015   2.81419   2.82110
 Alpha virt. eigenvalues --    2.85773   2.87358   2.92788   2.95464   2.98013
 Alpha virt. eigenvalues --    3.01355   3.02993   3.05149   3.11163   3.25240
 Alpha virt. eigenvalues --    3.31663   3.72215   3.80047   3.81799   3.85716
 Alpha virt. eigenvalues --    3.90490   3.98560   4.04602   4.07485   4.16619
 Alpha virt. eigenvalues --    4.24186   4.28765   4.35222   4.46890   4.55841
 Alpha virt. eigenvalues --    4.65386   4.66214   4.67519
          Condensed to atoms (all electrons):
               1          2          3          4          5          6
     1  N    7.422006   0.268079   0.500116  -0.125431  -0.179970   0.014501
     2  H    0.268079   0.498987  -0.045368   0.006788  -0.005793   0.000170
     3  C    0.500116  -0.045368   4.331069   0.626006   0.230231  -0.020371
     4  O   -0.125431   0.006788   0.626006   8.265650  -0.127836   0.009508
     5  C   -0.179970  -0.005793   0.230231  -0.127836   5.227284   0.396624
     6  C    0.014501   0.000170  -0.020371   0.009508   0.396624   5.101016
     7  N   -0.000306   0.000000   0.006087   0.000393  -0.021796   0.374534
     8  H    0.000147  -0.000038  -0.001483   0.005681  -0.040243   0.372710
     9  N   -0.021453   0.007392  -0.039937   0.002541   0.371023  -0.091986
    10  N    0.000631   0.000317   0.004265  -0.000070  -0.101683  -0.121434
    11  C    0.000019  -0.000029  -0.000148   0.000001   0.004219   0.007709
    12  H    0.000000   0.000000  -0.000002  -0.000000  -0.000539   0.000966
    13  O    0.000000   0.000001  -0.000005  -0.000000   0.000422   0.000095
    14  C   -0.000000   0.000002  -0.000000  -0.000000  -0.000037   0.000016
    15  C   -0.000000   0.000000  -0.000000  -0.000000   0.000001  -0.000000
    16  O   -0.000000   0.000000   0.000000   0.000000   0.000000   0.000000
    17  H    0.000000   0.000000   0.000000   0.000000   0.000000   0.000000
    18  H   -0.000000   0.000000   0.000000   0.000000  -0.000000  -0.000000
    19  H    0.000000  -0.000000  -0.000000   0.000000  -0.000000  -0.000000
    20  H   -0.000000   0.000002   0.000001   0.000000  -0.000006  -0.000001
    21  C   -0.000000  -0.000011   0.000001   0.000000  -0.000030   0.000008
    22  O    0.000000   0.000000  -0.000000   0.000000  -0.000000  -0.000000
    23  H   -0.000000  -0.000000   0.000000  -0.000000  -0.000000  -0.000000
    24  H   -0.000004   0.000101  -0.000001  -0.000000   0.000253  -0.000007
    25  C   -0.000000   0.000002   0.000005  -0.000000   0.000575  -0.000544
    26  H    0.000000   0.000001   0.000001  -0.000000   0.000057  -0.000017
    27  O   -0.000000   0.000000  -0.000000   0.000000   0.000001   0.000002
    28  H   -0.000000   0.000000   0.000000  -0.000000   0.000000  -0.000000
               7          8          9         10         11         12
     1  N   -0.000306   0.000147  -0.021453   0.000631   0.000019   0.000000
     2  H    0.000000  -0.000038   0.007392   0.000317  -0.000029   0.000000
     3  C    0.006087  -0.001483  -0.039937   0.004265  -0.000148  -0.000002
     4  O    0.000393   0.005681   0.002541  -0.000070   0.000001  -0.000000
     5  C   -0.021796  -0.040243   0.371023  -0.101683   0.004219  -0.000539
     6  C    0.374534   0.372710  -0.091986  -0.121434   0.007709   0.000966
     7  N    6.874291  -0.042797  -0.100483   0.263935  -0.054601   0.006336
     8  H   -0.042797   0.525908   0.005420   0.006131  -0.000133  -0.000016
     9  N   -0.100483   0.005420   7.079936   0.228450  -0.048449   0.004568
    10  N    0.263935   0.006131   0.228450   6.718215   0.163581  -0.046024
    11  C   -0.054601  -0.000133  -0.048449   0.163581   4.991767   0.364103
    12  H    0.006336  -0.000016   0.004568  -0.046024   0.364103   0.527744
    13  O    0.000548   0.000002   0.004159  -0.065692   0.223662  -0.028978
    14  C   -0.000091  -0.000000   0.001617   0.001580  -0.052041   0.004182
    15  C    0.000002   0.000000   0.000041  -0.000296   0.000992   0.000089
    16  O   -0.000000   0.000000  -0.000000   0.000048   0.003375   0.000275
    17  H   -0.000001  -0.000000  -0.000000   0.000086   0.000658  -0.000192
    18  H   -0.000000  -0.000000  -0.000000   0.000007   0.000038  -0.000007
    19  H    0.000000  -0.000000  -0.000000  -0.000002  -0.000211   0.000001
    20  H    0.000004  -0.000000  -0.000003   0.000623   0.003793  -0.000203
    21  C   -0.000114   0.000000  -0.001212  -0.001237  -0.043632   0.004946
    22  O    0.000000  -0.000000   0.000012   0.000003   0.002643  -0.000067
    23  H    0.000000  -0.000000  -0.000001  -0.000014   0.000262  -0.000013
    24  H    0.000066  -0.000000   0.005999  -0.000227   0.004303  -0.000274
    25  C    0.003298   0.000003  -0.000115  -0.026283   0.282845  -0.043847
    26  H    0.000051  -0.000000   0.001623   0.001955  -0.044035   0.001468
    27  O   -0.000071  -0.000000   0.000033   0.003139  -0.043762   0.008558
    28  H    0.000002   0.000000  -0.000002  -0.000000   0.000571   0.000110
              13         14         15         16         17         18
     1  N    0.000000  -0.000000  -0.000000  -0.000000   0.000000  -0.000000
     2  H    0.000001   0.000002   0.000000   0.000000   0.000000   0.000000
     3  C   -0.000005  -0.000000  -0.000000   0.000000   0.000000   0.000000
     4  O   -0.000000  -0.000000  -0.000000   0.000000   0.000000   0.000000
     5  C    0.000422  -0.000037   0.000001   0.000000   0.000000  -0.000000
     6  C    0.000095   0.000016  -0.000000   0.000000   0.000000  -0.000000
     7  N    0.000548  -0.000091   0.000002  -0.000000  -0.000001  -0.000000
     8  H    0.000002  -0.000000   0.000000   0.000000  -0.000000  -0.000000
     9  N    0.004159   0.001617   0.000041  -0.000000  -0.000000  -0.000000
    10  N   -0.065692   0.001580  -0.000296   0.000048   0.000086   0.000007
    11  C    0.223662  -0.052041   0.000992   0.003375   0.000658   0.000038
    12  H   -0.028978   0.004182   0.000089   0.000275  -0.000192  -0.000007
    13  O    8.328443   0.225508  -0.049443  -0.001330   0.007956   0.003274
    14  C    0.225508   4.984573   0.305711  -0.047321  -0.003690  -0.038550
    15  C   -0.049443   0.305711   4.972348   0.237659  -0.024501   0.355320
    16  O   -0.001330  -0.047321   0.237659   8.222222   0.238878  -0.024125
    17  H    0.007956  -0.003690  -0.024501   0.238878   0.324367   0.005755
    18  H    0.003274  -0.038550   0.355320  -0.024125   0.005755   0.582096
    19  H   -0.000782  -0.040497   0.367087  -0.026477  -0.009494  -0.053738
    20  H   -0.044670   0.365104  -0.051150   0.003232   0.000144   0.005873
    21  C   -0.036356   0.308597  -0.038567  -0.000037  -0.000344  -0.005265
    22  O    0.000916  -0.040773   0.007936  -0.001209   0.000014   0.003957
    23  H   -0.000073   0.005125  -0.000055  -0.000024   0.000000  -0.000088
    24  H    0.003887  -0.052755   0.006605  -0.000099  -0.000014   0.000015
    25  C   -0.043183  -0.039003  -0.010780   0.001825   0.000273   0.000527
    26  H    0.002566   0.006734  -0.000142  -0.000049   0.000008  -0.000008
    27  O    0.000787  -0.000347   0.003164  -0.028810   0.002661   0.000005
    28  H    0.000292  -0.000301  -0.005809   0.064328  -0.004529  -0.000271
              19         20         21         22         23         24
     1  N    0.000000  -0.000000  -0.000000   0.000000  -0.000000  -0.000004
     2  H   -0.000000   0.000002  -0.000011   0.000000  -0.000000   0.000101
     3  C   -0.000000   0.000001   0.000001  -0.000000   0.000000  -0.000001
     4  O    0.000000   0.000000   0.000000   0.000000  -0.000000  -0.000000
     5  C   -0.000000  -0.000006  -0.000030  -0.000000  -0.000000   0.000253
     6  C   -0.000000  -0.000001   0.000008  -0.000000  -0.000000  -0.000007
     7  N    0.000000   0.000004  -0.000114   0.000000   0.000000   0.000066
     8  H   -0.000000  -0.000000   0.000000  -0.000000  -0.000000  -0.000000
     9  N   -0.000000  -0.000003  -0.001212   0.000012  -0.000001   0.005999
    10  N   -0.000002   0.000623  -0.001237   0.000003  -0.000014  -0.000227
    11  C   -0.000211   0.003793  -0.043632   0.002643   0.000262   0.004303
    12  H    0.000001  -0.000203   0.004946  -0.000067  -0.000013  -0.000274
    13  O   -0.000782  -0.044670  -0.036356   0.000916  -0.000073   0.003887
    14  C   -0.040497   0.365104   0.308597  -0.040773   0.005125  -0.052755
    15  C    0.367087  -0.051150  -0.038567   0.007936  -0.000055   0.006605
    16  O   -0.026477   0.003232  -0.000037  -0.001209  -0.000024  -0.000099
    17  H   -0.009494   0.000144  -0.000344   0.000014   0.000000  -0.000014
    18  H   -0.053738   0.005873  -0.005265   0.003957  -0.000088   0.000015
    19  H    0.602665  -0.000468   0.005688   0.000194  -0.000001  -0.000107
    20  H   -0.000468   0.602328  -0.034443   0.001743  -0.000169  -0.009722
    21  C    0.005688  -0.034443   4.933745   0.245781  -0.025653   0.364065
    22  O    0.000194   0.001743   0.245781   8.287557   0.244498  -0.048103
    23  H   -0.000001  -0.000169  -0.025653   0.244498   0.327565  -0.000100
    24  H   -0.000107  -0.009722   0.364065  -0.048103  -0.000100   0.646342
    25  C   -0.000111   0.005955   0.295050  -0.037280  -0.005683  -0.056236
    26  H    0.000002  -0.000144  -0.040620   0.000507   0.001180  -0.006090
    27  O   -0.000105  -0.000077  -0.048804  -0.001067   0.005339   0.004545
    28  H    0.000787  -0.000004  -0.001891   0.003054  -0.000003   0.000127
              25         26         27         28
     1  N   -0.000000   0.000000  -0.000000  -0.000000
     2  H    0.000002   0.000001   0.000000   0.000000
     3  C    0.000005   0.000001  -0.000000   0.000000
     4  O   -0.000000  -0.000000   0.000000  -0.000000
     5  C    0.000575   0.000057   0.000001   0.000000
     6  C   -0.000544  -0.000017   0.000002  -0.000000
     7  N    0.003298   0.000051  -0.000071   0.000002
     8  H    0.000003  -0.000000  -0.000000   0.000000
     9  N   -0.000115   0.001623   0.000033  -0.000002
    10  N   -0.026283   0.001955   0.003139  -0.000000
    11  C    0.282845  -0.044035  -0.043762   0.000571
    12  H   -0.043847   0.001468   0.008558   0.000110
    13  O   -0.043183   0.002566   0.000787   0.000292
    14  C   -0.039003   0.006734  -0.000347  -0.000301
    15  C   -0.010780  -0.000142   0.003164  -0.005809
    16  O    0.001825  -0.000049  -0.028810   0.064328
    17  H    0.000273   0.000008   0.002661  -0.004529
    18  H    0.000527  -0.000008   0.000005  -0.000271
    19  H   -0.000111   0.000002  -0.000105   0.000787
    20  H    0.005955  -0.000144  -0.000077  -0.000004
    21  C    0.295050  -0.040620  -0.048804  -0.001891
    22  O   -0.037280   0.000507  -0.001067   0.003054
    23  H   -0.005683   0.001180   0.005339  -0.000003
    24  H   -0.056236  -0.006090   0.004545   0.000127
    25  C    4.994973   0.379421   0.258864  -0.032183
    26  H    0.379421   0.554989  -0.037805   0.004126
    27  O    0.258864  -0.037805   8.353324   0.224157
    28  H   -0.032183   0.004126   0.224157   0.306648
 Mulliken charges:
               1
     1  N   -0.878337
     2  H    0.269397
     3  C    0.409534
     4  O   -0.663231
     5  C    0.247242
     6  C   -0.043498
     7  N   -0.309285
     8  H    0.168706
     9  N   -0.409172
    10  N   -0.030001
    11  C    0.232499
    12  H    0.196815
    13  O   -0.532007
    14  C    0.106657
    15  C   -0.076213
    16  O   -0.642361
    17  H    0.461965
    18  H    0.165185
    19  H    0.155570
    20  H    0.152258
    21  C    0.120336
    22  O   -0.670317
    23  H    0.447909
    24  H    0.137432
    25  C    0.071633
    26  H    0.174225
    27  O   -0.703732
    28  H    0.440792
 Sum of Mulliken charges =  -1.00000
 Mulliken charges with hydrogens summed into heavy atoms:
               1
     1  N   -0.608940
     3  C    0.409534
     4  O   -0.663231
     5  C    0.247242
     6  C    0.125208
     7  N   -0.309285
     9  N   -0.409172
    10  N   -0.030001
    11  C    0.429314
    13  O   -0.532007
    14  C    0.258916
    15  C    0.244542
    16  O   -0.180396
    21  C    0.257768
    22  O   -0.222408
    25  C    0.245857
    27  O   -0.262940
 Electronic spatial extent (au):  <R**2>=           4780.2693
 Charge=             -1.0000 electrons
 Dipole moment (field-independent basis, Debye):
    X=             21.5265    Y=             -4.7544    Z=              0.2992  Tot=             22.0473
 Quadrupole moment (field-independent basis, Debye-Ang):
   XX=           -209.5468   YY=           -110.3991   ZZ=            -95.2358
   XY=             23.3045   XZ=            -11.0793   YZ=              5.1267
 Traceless Quadrupole moment (field-independent basis, Debye-Ang):
   XX=            -71.1529   YY=             27.9948   ZZ=             43.1581
   XY=             23.3045   XZ=            -11.0793   YZ=              5.1267
 Octapole moment (field-independent basis, Debye-Ang**2):
  XXX=            512.0248  YYY=            -29.8728  ZZZ=              6.3154  XYY=             73.7892
  XXY=           -133.1230  XXZ=             -5.6270  XZZ=             29.6208  YZZ=             16.0439
  YYZ=              1.0181  XYZ=              5.8307
 Hexadecapole moment (field-independent basis, Debye-Ang**3):
 XXXX=          -7512.3112 YYYY=           -902.5719 ZZZZ=           -470.6859 XXXY=            500.8116
 XXXZ=           -135.8933 YYYX=             88.3986 YYYZ=             24.5265 ZZZX=             -0.2066
 ZZZY=             43.9786 XXYY=          -1115.6803 XXZZ=           -826.7913 YYZZ=           -208.6756
 XXYZ=             49.2131 YYXZ=            -25.3104 ZZXY=             49.6536
 N-N= 1.282614886719D+03 E-N=-4.703164575915D+03  KE= 8.990846199120D+02
 No NMR shielding tensors so no spin-rotation constants.
 Leave Link  601 at Sun Jul 11 16:06:08 2021, MaxMem=   104857600 cpu:               0.4 elap:               0.1
 (Enter /prod/apps/gaussian/g16b1/l701.exe)
 ... and contract with generalized density number  0.
 Compute integral first derivatives.
 D1PCM: PCM CHGder 1st derivatives, ID1Alg=3 FixD1E=F DoIter=F DoCFld=F I1PDM=0.
 GePol: Maximum number of non-zero 1st derivatives   =     213
 Leave Link  701 at Sun Jul 11 16:06:10 2021, MaxMem=   104857600 cpu:               6.9 elap:               1.7
 (Enter /prod/apps/gaussian/g16b1/l702.exe)
 L702 exits ... SP integral derivatives will be done elsewhere.
 Leave Link  702 at Sun Jul 11 16:06:10 2021, MaxMem=   104857600 cpu:               0.1 elap:               0.0
 (Enter /prod/apps/gaussian/g16b1/l703.exe)
 Integral derivatives from FoFJK, PRISM(SPDF).
 Compute integral first derivatives, UseDBF=F ICtDFT=           0.
 Calling FoFJK, ICntrl=      2127 FMM=F ISym2X=0 I1Cent= 0 IOpClX= 0 NMat=1 NMatS=1 NMatT=0.
 FoFJK:  IHMeth= 1 ICntrl=    2127 DoSepK=F KAlg= 0 I1Cent=           0 FoldK=F
 IRaf=         0 NMat=       1 IRICut=       1 DoRegI=T DoRafI=F ISym2E= 0 IDoP0=0 IntGTp=1.
 FoFCou: FMM=F IPFlag=           0 FMFlag=      100000 FMFlg1=         800
         NFxFlg=           0 DoJE=F BraDBF=F KetDBF=F FulRan=T
         wScrn=  0.000000 ICntrl=      2127 IOpCl=  0 I1Cent=           0 NGrid=           0
         NMat0=    1 NMatS0=      1 NMatT0=    0 NMatD0=    1 NMtDS0=    0 NMtDT0=    0
 Symmetry not used in FoFCou.
 Leave Link  703 at Sun Jul 11 16:06:22 2021, MaxMem=   104857600 cpu:              50.1 elap:              12.5
 (Enter /prod/apps/gaussian/g16b1/l716.exe)
 Dipole        = 8.46917206D+00-1.87052855D+00 1.17728719D-01
 ***** Axes restored to original set *****
 -------------------------------------------------------------------
 Center     Atomic                   Forces (Hartrees/Bohr)
 Number     Number              X              Y              Z
 -------------------------------------------------------------------
      1        7           0.034103827   -0.021940084    0.004930312
      2        1          -0.017626515    0.009996885   -0.001794055
      3        6           0.042599904    0.060608818    0.084684051
      4        8          -0.019703382   -0.053931959   -0.071303153
      5        6          -0.017797578    0.002425038   -0.020721147
      6        6          -0.025674428   -0.015428425    0.009103506
      7        7           0.011009648    0.017735686   -0.034352601
      8        1           0.001839397   -0.001379689    0.004081949
      9        7           0.014442758    0.006144621   -0.001535353
     10        7          -0.030020309   -0.015210188    0.006030948
     11        6           0.018803473    0.017485695    0.038668347
     12        1           0.005896302   -0.009571921    0.006847206
     13        8          -0.009387691    0.003808604   -0.041283185
     14        6          -0.014659361    0.029207576    0.034524176
     15        6           0.029643921   -0.032421829    0.007947302
     16        8          -0.006953830   -0.003065507    0.012812350
     17        1          -0.005114747    0.004687143   -0.002035201
     18        1           0.001578245    0.023763810   -0.010809174
     19        1          -0.013661180   -0.004834253   -0.011210841
     20        1           0.004989528    0.002573253    0.001211364
     21        6           0.021753192   -0.019296347   -0.033244790
     22        8          -0.016287847    0.004493731    0.010113712
     23        1          -0.000466512   -0.000420643    0.001088848
     24        1           0.001017458   -0.012945215    0.002522688
     25        6          -0.019610959    0.012644063    0.029794597
     26        1          -0.008829964   -0.004084032   -0.006162436
     27        8           0.010621605    0.009099900   -0.030656290
     28        1           0.007495047   -0.010144731    0.010746870
 -------------------------------------------------------------------
 Cartesian Forces:  Max     0.084684051 RMS     0.022655631
 Leave Link  716 at Sun Jul 11 16:06:22 2021, MaxMem=   104857600 cpu:               0.1 elap:               0.0
 (Enter /prod/apps/gaussian/g16b1/l103.exe)

 GradGradGradGradGradGradGradGradGradGradGradGradGradGradGradGradGradGrad
 Berny optimization.
 FormGI is forming the generalized inverse of G from B-inverse, IUseBI=4.
 Internal  Forces:  Max     0.088302630 RMS     0.011961470
 Search for a local minimum.
 Step number   1 out of a maximum of  163
 All quantities printed in internal units (Hartrees-Bohrs-Radians)
 RMS Force = .11961D-01 SwitMx=.10000D-02 MixMth= 1
 Mixed Optimization -- RFO/linear search
 Second derivative matrix not updated -- first step.
 ITU=  0
     Eigenvalues ---    0.00230   0.00327   0.00684   0.01219   0.01377
     Eigenvalues ---    0.01414   0.01521   0.01634   0.01715   0.01789
     Eigenvalues ---    0.01894   0.02268   0.02362   0.02386   0.02741
     Eigenvalues ---    0.03026   0.03248   0.04358   0.04452   0.04557
     Eigenvalues ---    0.05030   0.05314   0.05800   0.06056   0.06119
     Eigenvalues ---    0.06525   0.06676   0.07466   0.08001   0.10577
     Eigenvalues ---    0.11351   0.13881   0.14024   0.15821   0.15912
     Eigenvalues ---    0.16000   0.16000   0.16000   0.16000   0.17106
     Eigenvalues ---    0.18690   0.19298   0.21631   0.23475   0.24640
     Eigenvalues ---    0.24722   0.24957   0.24998   0.25000   0.25108
     Eigenvalues ---    0.25383   0.25599   0.27994   0.32293   0.33667
     Eigenvalues ---    0.34401   0.34426   0.34464   0.34508   0.34539
     Eigenvalues ---    0.35689   0.36255   0.41890   0.42306   0.42521
     Eigenvalues ---    0.42802   0.43546   0.44899   0.46183   0.52078
     Eigenvalues ---    0.52483   0.52504   0.52611   0.54481   0.57689
     Eigenvalues ---    0.59831   0.61767   1.01538
 RFO step:  Lambda=-6.77732030D-02 EMin= 2.30000000D-03
 Linear search not attempted -- first point.
 Maximum step size (   0.300) exceeded in Quadratic search.
    -- Step size scaled by   0.730
 Iteration  1 RMS(Cart)=  0.06521026 RMS(Int)=  0.00238314
 Iteration  2 RMS(Cart)=  0.00297660 RMS(Int)=  0.00049409
 Iteration  3 RMS(Cart)=  0.00000309 RMS(Int)=  0.00049408
 Iteration  4 RMS(Cart)=  0.00000000 RMS(Int)=  0.00049408
 ITry= 1 IFail=0 DXMaxC= 2.55D-01 DCOld= 1.00D+10 DXMaxT= 3.00D-01 DXLimC= 3.00D+00 Rises=F
 Variable       Old X    -DE/DX   Delta X   Delta X   Delta X     New X
                                 (Linear)    (Quad)   (Total)
    R1        1.90626   0.00623   0.00000   0.00859   0.00859   1.91484
    R2        2.49569   0.01312   0.00000   0.01398   0.01398   2.50966
    R3        2.28029   0.08830   0.00000   0.05951   0.05951   2.33980
    R4        2.76984   0.03102   0.00000   0.05262   0.05262   2.82246
    R5        2.63875   0.01615   0.00000   0.02156   0.02166   2.66040
    R6        2.53079   0.00385   0.00000   0.00379   0.00411   2.53491
    R7        2.52527   0.00280   0.00000   0.00344   0.00321   2.52847
    R8        2.04570  -0.00284   0.00000  -0.00489  -0.00489   2.04082
    R9        2.52535   0.01060   0.00000   0.01257   0.01229   2.53763
   R10        2.49841   0.01182   0.00000   0.01289   0.01298   2.51139
   R11        2.69063   0.01527   0.00000   0.02290   0.02290   2.71353
   R12        2.07895  -0.01018   0.00000  -0.01837  -0.01837   2.06058
   R13        2.81972  -0.02121   0.00000  -0.04101  -0.04113   2.77858
   R14        2.95493  -0.00781   0.00000  -0.02106  -0.02137   2.93357
   R15        2.65575   0.01495   0.00000   0.02278   0.02295   2.67870
   R16        2.98245  -0.01143   0.00000  -0.02595  -0.02595   2.95651
[...]
 Alpha virt. eigenvalues --    0.83910   0.84648   0.85091   0.85882   0.86230
 Alpha virt. eigenvalues --    0.86585   0.87801   0.88026   0.88387   0.88804
 Alpha virt. eigenvalues --    0.89165   0.89982   0.90357   0.90851   0.91852
 Alpha virt. eigenvalues --    0.92512   0.92864   0.93402   0.93627   0.94646
 Alpha virt. eigenvalues --    0.95154   0.95929   0.96462   0.97202   0.98087
 Alpha virt. eigenvalues --    0.98743   0.99244   1.00291   1.00330   1.01310
 Alpha virt. eigenvalues --    1.02011   1.02852   1.03579   1.04334   1.05077
 Alpha virt. eigenvalues --    1.05205   1.05845   1.06036   1.07384   1.07886
 Alpha virt. eigenvalues --    1.08463   1.09557   1.10027   1.10567   1.11364
 Alpha virt. eigenvalues --    1.12238   1.13325   1.13853   1.14532   1.15546
 Alpha virt. eigenvalues --    1.17078   1.17543   1.18085   1.19313   1.20867
 Alpha virt. eigenvalues --    1.21535   1.22511   1.23958   1.24448   1.25544
 Alpha virt. eigenvalues --    1.27470   1.27677   1.28099   1.28729   1.28872
 Alpha virt. eigenvalues --    1.30300   1.30462   1.31159   1.32258   1.32736
 Alpha virt. eigenvalues --    1.33685   1.34739   1.36436   1.37153   1.38281
 Alpha virt. eigenvalues --    1.38859   1.39739   1.40338   1.41836   1.42549
 Alpha virt. eigenvalues --    1.43653   1.44203   1.44432   1.44952   1.46623
 Alpha virt. eigenvalues --    1.47929   1.48647   1.49526   1.51205   1.51547
 Alpha virt. eigenvalues --    1.52691   1.53405   1.53928   1.54816   1.56108
 Alpha virt. eigenvalues --    1.58471   1.58737   1.59942   1.61513   1.63683
 Alpha virt. eigenvalues --    1.64574   1.66619   1.66946   1.67902   1.68847
 Alpha virt. eigenvalues --    1.70777   1.71392   1.71741   1.71952   1.73045
 Alpha virt. eigenvalues --    1.74781   1.75349   1.75578   1.76372   1.78157
 Alpha virt. eigenvalues --    1.79559   1.81701   1.82747   1.84058   1.84552
 Alpha virt. eigenvalues --    1.85148   1.85443   1.86579   1.87754   1.88750
 Alpha virt. eigenvalues --    1.89054   1.90134   1.91737   1.93445   1.93757
 Alpha virt. eigenvalues --    1.94136   1.94787   1.95459   1.97071   1.99408
 Alpha virt. eigenvalues --    2.00034   2.00208   2.01514   2.02403   2.03062
 Alpha virt. eigenvalues --    2.05554   2.07686   2.08605   2.10219   2.10900
 Alpha virt. eigenvalues --    2.11983   2.13385   2.13873   2.14410   2.15773
 Alpha virt. eigenvalues --    2.16340   2.16498   2.18073   2.19395   2.20400
 Alpha virt. eigenvalues --    2.20945   2.21655   2.23699   2.23875   2.24567
 Alpha virt. eigenvalues --    2.26189   2.26835   2.28297   2.28934   2.31224
 Alpha virt. eigenvalues --    2.31622   2.32248   2.33493   2.34183   2.36452
 Alpha virt. eigenvalues --    2.36744   2.37570   2.40936   2.41327   2.42618
 Alpha virt. eigenvalues --    2.42959   2.44141   2.46108   2.47130   2.48122
 Alpha virt. eigenvalues --    2.48287   2.49387   2.51293   2.53152   2.54217
 Alpha virt. eigenvalues --    2.55859   2.57696   2.57773   2.59269   2.59870
 Alpha virt. eigenvalues --    2.60327   2.62388   2.63674   2.64637   2.65127
 Alpha virt. eigenvalues --    2.67301   2.68657   2.69449   2.71092   2.72113
 Alpha virt. eigenvalues --    2.73940   2.75123   2.75907   2.76135   2.78585
 Alpha virt. eigenvalues --    2.78851   2.79937   2.80979   2.81987   2.84802
 Alpha virt. eigenvalues --    2.86834   2.87407   2.89736   2.91315   2.93572
 Alpha virt. eigenvalues --    2.95541   2.96403   2.98240   2.98905   3.00097
 Alpha virt. eigenvalues --    3.01076   3.02692   3.03608   3.05194   3.06783
 Alpha virt. eigenvalues --    3.08525   3.08695   3.10481   3.13083   3.14479
 Alpha virt. eigenvalues --    3.16257   3.16607   3.18805   3.20458   3.24875
 Alpha virt. eigenvalues --    3.27093   3.27253   3.28681   3.31573   3.34251
 Alpha virt. eigenvalues --    3.36339   3.37892   3.39823   3.40794   3.45826
 Alpha virt. eigenvalues --    3.50040   3.51830   3.58026   3.64636   3.68262
 Alpha virt. eigenvalues --    3.71153   3.75695   3.76789   3.80124   3.82881
 Alpha virt. eigenvalues --    3.85936   3.91296   3.92381   3.94137   3.96475
 Alpha virt. eigenvalues --    3.98030   3.98725   3.99400   4.01168   4.01456
 Alpha virt. eigenvalues --    4.02343   4.03556   4.06099   4.07649   4.09731
 Alpha virt. eigenvalues --    4.10868   4.12165   4.15836   4.18547   4.21016
 Alpha virt. eigenvalues --    4.22054   4.23492   4.24408   4.35656   4.40313
 Alpha virt. eigenvalues --    4.42637   4.48145   4.54066   4.61228   4.69578
 Alpha virt. eigenvalues --    4.94108
          Condensed to atoms (all electrons):
               1          2          3          4          5          6
     1  N    7.602895   0.229743  -0.214203  -0.169790   0.542439  -0.084303
     2  H    0.229743   0.827402   0.079678   0.016664  -0.267738  -0.028051
     3  C   -0.214203   0.079678   6.138801   0.121501  -1.514551   0.183132
     4  O   -0.169790   0.016664   0.121501   9.038430   0.028844   0.030538
     5  C    0.542439  -0.267738  -1.514551   0.028844   8.126616  -0.912448
     6  C   -0.084303  -0.028051   0.183132   0.030538  -0.912448   6.288319
     7  N    0.008178   0.023026  -0.027331   0.004686   0.245145   0.465925
     8  H   -0.002897   0.000914   0.072379  -0.015752  -0.052680   0.157259
     9  N   -0.149523  -0.003010   0.023924   0.005426   0.080017   0.346034
    10  N   -0.075000   0.150820   0.276032  -0.038484  -0.811468  -0.844697
    11  C   -0.027274   0.015706   0.012505  -0.004862  -0.346330  -0.180274
    12  H   -0.001372  -0.000951  -0.002896  -0.000483  -0.060178   0.050680
    13  O    0.000451  -0.000056  -0.000056  -0.000114   0.022168   0.005445
    14  C    0.004047   0.006596  -0.003964  -0.000569   0.064466  -0.029712
    15  C    0.000031   0.001784   0.001404  -0.000059   0.010153  -0.005979
    16  O    0.000011   0.000092  -0.000150   0.000001  -0.001154   0.001077
    17  H    0.000000   0.000022   0.000028   0.000001   0.000287  -0.000397
    18  H   -0.000010  -0.000047   0.000177  -0.000007   0.001356  -0.000952
    19  H    0.000025   0.000030  -0.000224   0.000004  -0.000914   0.000655
    20  H    0.000137   0.001355   0.001525  -0.000021  -0.014350   0.009416
    21  C   -0.004038  -0.009628  -0.004842   0.000962  -0.098860   0.064250
    22  O    0.000219   0.000058   0.000378  -0.000006  -0.000496  -0.001025
    23  H   -0.000009   0.000052  -0.000155   0.000014  -0.000429   0.000641
    24  H   -0.002677  -0.014742   0.003597   0.000627   0.009338   0.002773
    25  C    0.005617   0.006129  -0.005491  -0.000709   0.092298  -0.043668
    26  H    0.000848  -0.000388  -0.003862  -0.000309  -0.004855  -0.024683
    27  O    0.000195   0.000481  -0.000399   0.000017   0.011295   0.003445
    28  H    0.000072   0.000219   0.000052  -0.000002   0.001443   0.000195
               7          8          9         10         11         12
     1  N    0.008178  -0.002897  -0.149523  -0.075000  -0.027274  -0.001372
     2  H    0.023026   0.000914  -0.003010   0.150820   0.015706  -0.000951
     3  C   -0.027331   0.072379   0.023924   0.276032   0.012505  -0.002896
     4  O    0.004686  -0.015752   0.005426  -0.038484  -0.004862  -0.000483
     5  C    0.245145  -0.052680   0.080017  -0.811468  -0.346330  -0.060178
     6  C    0.465925   0.157259   0.346034  -0.844697  -0.180274   0.050680
     7  N   10.645055  -0.269226  -1.949313  -1.406607  -0.516501   0.310752
     8  H   -0.269226   1.258344  -0.068309   0.246046  -0.009958  -0.003115
     9  N   -1.949313  -0.068309  11.737431  -1.696934  -0.572825  -0.101211
    10  N   -1.406607   0.246046  -1.696934  12.070611  -0.299356  -0.345056
    11  C   -0.516501  -0.009958  -0.572825  -0.299356   8.915402  -0.059433
    12  H    0.310752  -0.003115  -0.101211  -0.345056  -0.059433   1.726310
    13  O   -0.161735   0.001088   0.175742   0.019915  -0.057519  -0.181259
    14  C    0.047454   0.001067   0.072190  -0.083742  -1.705701  -0.182352
    15  C    0.001020  -0.000037   0.019453   0.035486   0.107152   0.022849
    16  O    0.011426  -0.000049  -0.013703   0.012803  -0.075850   0.015192
    17  H    0.000738   0.000008  -0.001032  -0.002750  -0.000218   0.005540
    18  H   -0.002027  -0.000014   0.006866  -0.013116   0.011886   0.001658
    19  H    0.002470  -0.000015  -0.004360   0.005288   0.026337   0.001637
    20  H    0.036705   0.000326  -0.087219   0.159536  -0.071472   0.009364
    21  C   -0.005621  -0.000691  -0.049316  -0.059325   0.880720   0.208524
    22  O    0.004204  -0.000026  -0.007134   0.022758   0.075699   0.000810
    23  H    0.000157   0.000010   0.009174  -0.018062   0.019213   0.001873
    24  H   -0.008330  -0.001145  -0.009181   0.078038  -0.239647   0.002844
    25  C    0.004957   0.001283   0.106477   0.266568  -2.063674  -0.068445
    26  H   -0.074658   0.001058   0.089696  -0.209432   0.476919   0.005894
    27  O    0.038968   0.000019   0.005182   0.033944   0.043802   0.014977
    28  H    0.002068   0.000025   0.000643  -0.006458  -0.048399  -0.015070
              13         14         15         16         17         18
     1  N    0.000451   0.004047   0.000031   0.000011   0.000000  -0.000010
     2  H   -0.000056   0.006596   0.001784   0.000092   0.000022  -0.000047
     3  C   -0.000056  -0.003964   0.001404  -0.000150   0.000028   0.000177
     4  O   -0.000114  -0.000569  -0.000059   0.000001   0.000001  -0.000007
     5  C    0.022168   0.064466   0.010153  -0.001154   0.000287   0.001356
     6  C    0.005445  -0.029712  -0.005979   0.001077  -0.000397  -0.000952
     7  N   -0.161735   0.047454   0.001020   0.011426   0.000738  -0.002027
     8  H    0.001088   0.001067  -0.000037  -0.000049   0.000008  -0.000014
     9  N    0.175742   0.072190   0.019453  -0.013703  -0.001032   0.006866
    10  N    0.019915  -0.083742   0.035486   0.012803  -0.002750  -0.013116
    11  C   -0.057519  -1.705701   0.107152  -0.075850  -0.000218   0.011886
    12  H   -0.181259  -0.182352   0.022849   0.015192   0.005540   0.001658
    13  O    9.701152  -0.292792   0.026603  -0.062507   0.033263   0.085281
    14  C   -0.292792   9.867088  -0.412902   0.166205  -0.095593  -0.199912
    15  C    0.026603  -0.412902   4.718383   0.007581   0.014677   0.243446
    16  O   -0.062507   0.166205   0.007581   8.648583   0.344736  -0.138762
    17  H    0.033263  -0.095593   0.014677   0.344736   0.490851   0.024715
    18  H    0.085281  -0.199912   0.243446  -0.138762   0.024715   1.363537
    19  H   -0.035876   0.106929   0.163902  -0.066161  -0.059233  -0.260348
    20  H   -0.134426  -0.728375   0.001201   0.045374   0.009708  -0.055220
    21  C   -0.013426  -2.400586  -0.165717  -0.114526   0.020088   0.049984
    22  O    0.003604  -0.167161   0.073757   0.017697   0.001285  -0.011276
    23  H    0.002440  -0.046340   0.006284  -0.000637  -0.000058  -0.003281
    24  H    0.002367   0.244331  -0.018119  -0.008618  -0.001031   0.022763
    25  C    0.006967   1.297122  -0.108842   0.121586   0.012464   0.006300
    26  H    0.056506  -0.156537   0.016203  -0.002227   0.000644   0.003723
    27  O   -0.016603   0.030314   0.039390  -0.075319   0.001856  -0.002473
    28  H    0.019910   0.145865  -0.034931  -0.015393  -0.007734  -0.005651
              19         20         21         22         23         24
     1  N    0.000025   0.000137  -0.004038   0.000219  -0.000009  -0.002677
     2  H    0.000030   0.001355  -0.009628   0.000058   0.000052  -0.014742
     3  C   -0.000224   0.001525  -0.004842   0.000378  -0.000155   0.003597
     4  O    0.000004  -0.000021   0.000962  -0.000006   0.000014   0.000627
     5  C   -0.000914  -0.014350  -0.098860  -0.000496  -0.000429   0.009338
     6  C    0.000655   0.009416   0.064250  -0.001025   0.000641   0.002773
     7  N    0.002470   0.036705  -0.005621   0.004204   0.000157  -0.008330
     8  H   -0.000015   0.000326  -0.000691  -0.000026   0.000010  -0.001145
     9  N   -0.004360  -0.087219  -0.049316  -0.007134   0.009174  -0.009181
    10  N    0.005288   0.159536  -0.059325   0.022758  -0.018062   0.078038
    11  C    0.026337  -0.071472   0.880720   0.075699   0.019213  -0.239647
    12  H    0.001637   0.009364   0.208524   0.000810   0.001873   0.002844
    13  O   -0.035876  -0.134426  -0.013426   0.003604   0.002440   0.002367
    14  C    0.106929  -0.728375  -2.400586  -0.167161  -0.046340   0.244331
    15  C    0.163902   0.001201  -0.165717   0.073757   0.006284  -0.018119
    16  O   -0.066161   0.045374  -0.114526   0.017697  -0.000637  -0.008618
    17  H   -0.059233   0.009708   0.020088   0.001285  -0.000058  -0.001031
    18  H   -0.260348  -0.055220   0.049984  -0.011276  -0.003281   0.022763
    19  H    1.214963  -0.025583   0.076354  -0.000093   0.002838   0.000536
    20  H   -0.025583   1.840567   0.331874   0.045290   0.002188  -0.067950
    21  C    0.076354   0.331874   8.808005  -0.367765   0.035185  -0.272563
    22  O   -0.000093   0.045290  -0.367765   8.845225   0.356260  -0.142347
    23  H    0.002838   0.002188   0.035185   0.356260   0.571761  -0.030502
    24  H    0.000536  -0.067950  -0.272563  -0.142347  -0.030502   1.400211
    25  C   -0.050770   0.008338  -1.892259   0.132484  -0.061197   0.182998
    26  H   -0.001818  -0.009398   0.175787   0.004105   0.008068  -0.028524
    27  O   -0.000005   0.002179  -0.023438  -0.022412   0.013325  -0.002518
    28  H    0.001039   0.001054  -0.145555   0.008675   0.000764   0.009700
              25         26         27         28
     1  N    0.005617   0.000848   0.000195   0.000072
     2  H    0.006129  -0.000388   0.000481   0.000219
     3  C   -0.005491  -0.003862  -0.000399   0.000052
     4  O   -0.000709  -0.000309   0.000017  -0.000002
     5  C    0.092298  -0.004855   0.011295   0.001443
     6  C   -0.043668  -0.024683   0.003445   0.000195
     7  N    0.004957  -0.074658   0.038968   0.002068
     8  H    0.001283   0.001058   0.000019   0.000025
     9  N    0.106477   0.089696   0.005182   0.000643
    10  N    0.266568  -0.209432   0.033944  -0.006458
    11  C   -2.063674   0.476919   0.043802  -0.048399
    12  H   -0.068445   0.005894   0.014977  -0.015070
    13  O    0.006967   0.056506  -0.016603   0.019910
    14  C    1.297122  -0.156537   0.030314   0.145865
    15  C   -0.108842   0.016203   0.039390  -0.034931
    16  O    0.121586  -0.002227  -0.075319  -0.015393
    17  H    0.012464   0.000644   0.001856  -0.007734
    18  H    0.006300   0.003723  -0.002473  -0.005651
    19  H   -0.050770  -0.001818  -0.000005   0.001039
    20  H    0.008338  -0.009398   0.002179   0.001054
    21  C   -1.892259   0.175787  -0.023438  -0.145555
    22  O    0.132484   0.004105  -0.022412   0.008675
    23  H   -0.061197   0.008068   0.013325   0.000764
    24  H    0.182998  -0.028524  -0.002518   0.009700
    25  C    8.266135  -0.547358  -0.387407   0.031170
    26  H   -0.547358   1.607797  -0.152146   0.001429
    27  O   -0.387407  -0.152146   9.027006   0.273574
    28  H    0.031170   0.001429   0.273574   0.527994
 Mulliken charges:
               1
     1  N   -0.663812
     2  H   -0.036163
     3  C    0.863012
     4  O   -1.016550
     5  C    0.850581
     6  C    0.546404
     7  N   -0.431587
     8  H   -0.315910
     9  N   -0.965185
    10  N   -0.467359
    11  C    1.693951
    12  H   -0.357086
    13  O   -1.206535
    14  C    0.452562
    15  C    1.235829
    16  O   -0.817308
    17  H    0.207134
    18  H   -0.128597
    19  H   -0.097606
    20  H   -0.312123
    21  C    0.976422
    22  O   -0.872766
    23  H    0.130422
    24  H   -0.112229
    25  C    0.680926
    26  H   -0.232480
    27  O   -0.857249
    28  H    0.253302
 Sum of Mulliken charges =  -1.00000
 Mulliken charges with hydrogens summed into heavy atoms:
               1
     1  N   -0.699975
     3  C    0.863012
     4  O   -1.016550
     5  C    0.850581
     6  C    0.230493
     7  N   -0.431587
     9  N   -0.965185
    10  N   -0.467359
    11  C    1.336865
    13  O   -1.206535
    14  C    0.140439
    15  C    1.009626
    16  O   -0.610175
    21  C    0.864193
    22  O   -0.742345
    25  C    0.448447
    27  O   -0.603947
 Electronic spatial extent (au):  <R**2>=           4722.4242
 Charge=             -1.0000 electrons
 Dipole moment (field-independent basis, Debye):
    X=             18.5710    Y=             -3.1952    Z=             -0.3542  Tot=             18.8472
 Quadrupole moment (field-independent basis, Debye-Ang):
   XX=           -209.9850   YY=           -115.0404   ZZ=           -103.4773
   XY=             23.3096   XZ=            -11.4141   YZ=              4.8549
 Traceless Quadrupole moment (field-independent basis, Debye-Ang):
   XX=            -67.1508   YY=             27.7938   ZZ=             39.3570
   XY=             23.3096   XZ=            -11.4141   YZ=              4.8549
 Octapole moment (field-independent basis, Debye-Ang**2):
  XXX=            478.9857  YYY=            -26.6678  ZZZ=             -3.9168  XYY=             84.9182
  XXY=           -120.3313  XXZ=             -5.1596  XZZ=             23.0077  YZZ=             14.0003
  YYZ=              8.1119  XYZ=              4.1060
 Hexadecapole moment (field-independent basis, Debye-Ang**3):
 XXXX=          -7504.9856 YYYY=          -1032.3967 ZZZZ=           -511.5314 XXXY=            479.3327
 XXXZ=           -150.0747 YYYX=            138.6559 YYYZ=             47.3457 ZZZX=            -30.4614
 ZZZY=             35.3275 XXYY=          -1145.3256 XXZZ=           -899.7657 YYZZ=           -230.7242
 XXYZ=             46.8623 YYXZ=             -1.7381 ZZXY=             46.0898
 N-N= 1.283421826953D+03 E-N=-4.702135706721D+03  KE= 9.001197112275D+02
 Leave Link  601 at Sun Jul 11 17:36:16 2021, MaxMem=   262144000 cpu:               0.5 elap:               0.2
 (Enter /prod/apps/gaussian/g16b1/l9999.exe)
 1\1\GINC-PIRINEUS27\SP\RMP2-FC\Aug-CC-pVDZ\C8H11N4O5(1-)\UBATOR02\11-J
 ul-2021\0\\#p mp2/aug-cc-pVDZ scf=tight maxdisk=180GB geom=allcheck\\S
 ET_328_BBB285_conf1.geo_300_300 geometry\\-1,1\N,0,3.2884060551,-2.674
 6683786,-1.2039570206\H,0,3.0361881353,-1.901127993,-0.5867127776\C,0,
 2.2547785667,-2.9521067771,-1.9745350876\O,0,2.2093094688,-3.858706935
 ,-2.862354652\C,0,0.9744682899,-2.1560168999,-1.8406076358\C,0,-0.2132
 916435,-2.3259428946,-2.5798161343\N,0,-1.1196022328,-1.4358129095,-2.
 1752694847\H,0,-0.4303312419,-3.0355260221,-3.3619534586\N,0,0.7726509
 704,-1.1460613797,-0.9832112569\N,0,-0.478556906,-0.7490626408,-1.2213
 58415\C,0,-1.1406782543,0.3194846084,-0.4734637698\H,0,-2.0666056041,0
 .5049066325,-1.0164101232\O,0,-1.4400489595,-0.1068761345,0.8457982103
 \C,0,-0.6244242934,0.5744502667,1.8259346097\C,0,-1.5334246216,1.39835
 81729,2.7344313028\O,0,-2.3788427061,2.2957020992,2.0072758798\H,0,-3.
 0783320117,1.7562957916,1.5970519723\H,0,-0.9193741355,2.0071993509,3.
 3987208009\H,0,-2.1455607825,0.7241020852,3.3418477023\H,0,-0.12477874
 05,-0.1842568108,2.4372800806\C,0,0.4065670149,1.3896649667,1.01407766
 46\O,0,0.7374542745,2.5781354993,1.7008572556\H,0,1.4289706074,3.03190
 79282,1.1871375817\H,0,1.2911819725,0.7662024414,0.8495680952\C,0,-0.2
 908733779,1.6037298231,-0.3507227303\H,0,0.4223189161,1.6775449753,-1.
 1719620537\O,0,-1.0881167054,2.764036734,-0.3895474668\H,0,-1.56745205
 48,2.8144444002,0.4709009114\\Version=ES64L-G16RevB.01\State=1-A\HF=-9
 01.5408107\MP2=-904.3617712\RMSD=8.056e-09\PG=C01 [X(C8H11N4O5)]\\@


 ACHIEVEMENT--  THE MAN WHO ROWS THE BOAT GENERALLY 
                DOESN'T HAVE TIME TO ROCK IT.

                   -- FROM THE BACK OF A SUGAR PACKET
 Job cpu time:       0 days  2 hours 57 minutes  2.7 seconds.
 Elapsed time:       0 days  0 hours 55 minutes  1.9 seconds.
 File lengths (MBytes):  RWF=  58189 Int=      0 D2E=      0 Chk=     21 Scr=      1
 Normal termination of Gaussian 16 at Sun Jul 11 17:36:20 2021.
