 Entering Gaussian System, Link 0=g16
 Initial command:
 /prod/apps/gaussian/g16b1/l1.exe "/tmp/ubator02/1834525/Gau-210472.inp" -scrdir="/tmp/ubator02/1834525/"
 Entering Link 1 = /prod/apps/gaussian/g16b1/l1.exe PID=    210474.
  
 Copyright (c) 1988-2017, Gaussian, Inc.  All Rights Reserved.
  
 This is part of the Gaussian(R) 16 program.  It is based on
 the Gaussian(R) 09 system (copyright 2009, Gaussian, Inc.),
 the Gaussian(R) 03 system (copyright 2003, Gaussian, Inc.),
 the Gaussian(R) 98 system (copyright 1998, Gaussian, Inc.),
 the Gaussian(R) 94 system (copyright 1995, Gaussian, Inc.),
 the Gaussian 92(TM) system (copyright 1992, Gaussian, Inc.),
 the Gaussian 90(TM) system (copyright 1990, Gaussian, Inc.),
 the Gaussian 88(TM) system (copyright 1988, Gaussian, Inc.),
 the Gaussian 86(TM) system (copyright 1986, Carnegie Mellon
 University), and the Gaussian 82(TM) system (copyright 1983,
 Carnegie Mellon University). Gaussian is a federally registered
 trademark of Gaussian, Inc.
  
 This software contains proprietary and confidential information,
 including trade secrets, belonging to Gaussian, Inc.
  
 This software is provided under written license and may be
 used, copied, transmitted, or stored only in accord with that
 written license.
  
 The following legend is applicable only to US Government
 contracts under FAR:
  
                    RESTRICTED RIGHTS LEGEND
  
 Use, reproduction and disclosure by the US Government is
 subject to restrictions as set forth in subparagraphs (a)
 and (c) of the Commercial Computer Software - Restricted
 Rights clause in FAR 52.227-19.
  
 Gaussian, Inc.
 340 Quinnipiac St., Bldg. 40, Wallingford CT 06492
  
  
 ---------------------------------------------------------------
 Warning -- This program may not be used in any manner that
 competes with the business of Gaussian, Inc. or will provide
 assistance to any competitor of Gaussian, Inc.  The licensee
 of this program is prohibited from giving any competitor of
 Gaussian, Inc. access to this program.  By using this program,
 the user acknowledges that Gaussian, Inc. is engaged in the
 business of creating and licensing software in the field of
 computational chemistry and represents and warrants to the
 licensee that it is not a competitor of Gaussian, Inc. and that
 it will not use this program in any manner prohibited above.
 ---------------------------------------------------------------
  

 Cite this work as:
 Gaussian 16, Revision B.01,
 M. J. Frisch, G. W. Trucks, H. B. Schlegel, G. E. Scuseria, 
 M. A. Robb, J. R. Cheeseman, G. Scalmani, V. Barone, 
 G. A. Petersson, H. Nakatsuji, X. Li, M. Caricato, A. V. Marenich, 
 J. Bloino, B. G. Janesko, R. Gomperts, B. Mennucci, H. P. Hratchian, 
 J. V. Ortiz, A. F. Izmaylov, J. L. Sonnenberg, D. Williams-Young, 
 F. Ding, F. Lipparini, F. Egidi, J. Goings, B. Peng, A. Petrone, 
 T. Henderson, D. Ranasinghe, V. G. Zakrzewski, J. Gao, N. Rega, 
 G. Zheng, W. Liang, M. Hada, M. Ehara, K. Toyota, R. Fukuda, 
 J. Hasegawa, M. Ishida, T. Nakajima, Y. Honda, O. Kitao, H. Nakai, 
 T. Vreven, K. Throssell, J. A. Montgomery, Jr., J. E. Peralta, 
 F. Ogliaro, M. J. Bearpark, J. J. Heyd, E. N. Brothers, K. N. Kudin, 
 V. N. Staroverov, T. A. Keith, R. Kobayashi, J. Normand, 
 K. Raghavachari, A. P. Rendell, J. C. Burant, S. S. Iyengar, 
 J. Tomasi, M. Cossi, J. M. Millam, M. Klene, C. Adamo, R. Cammi, 
 J. W. Ochterski, R. L. Martin, K. Morokuma, O. Farkas, 
 J. B. Foresman, and D. J. Fox, Gaussian, Inc., Wallingford CT, 2016.
 
 ******************************************
 Gaussian 16:  ES64L-G16RevB.01 20-Dec-2017
                11-Jul-2021 
 ******************************************
 %mem=800MB
 %nproc=4
 Will use up to    4 processors via shared memory.
 %chk=SET_328_BBB212_conf1.geo_060_225.chk
 -----------------------------------------------------------
 #p b3lyp/6-31G(d) opt freq scrf=(iefpcm,read,solvent=water)
 -----------------------------------------------------------
 1/18=20,19=15,26=3,38=1,40=2/1,3;
 2/9=110,12=2,17=6,18=5,40=1/2;
 3/5=1,6=6,7=1,11=2,25=1,30=1,70=2203,71=1,72=1,74=-5/1,2,3;
 4//1;
 5/5=2,38=5,53=1/2;
 6/7=2,8=2,9=2,10=2,28=1/1;
 7//1,2,3,16;
 1/18=20,19=15,26=3/3(2);
 2/9=110/2;
 99//99;
 2/9=110/2;
 3/5=1,6=6,7=1,11=2,25=1,30=1,70=2205,71=1,72=1,74=-5/1,2,3;
 4/5=5,16=3,69=1/1;
 5/5=2,38=5,53=1/2;
 7//1,2,3,16;
 1/18=20,19=15,26=3/3(-5);
 2/9=110/2;
 6/7=2,8=2,9=2,10=2,19=2,28=1/1;
 99/9=1/99;
 Leave Link    1 at Sun Jul 11 15:57:25 2021, MaxMem=   104857600 cpu:               0.1 elap:               0.0
 (Enter /prod/apps/gaussian/g16b1/l101.exe)
 -----------------------------------------
 SET_328_BBB212_conf1.geo_060_225 geometry
 -----------------------------------------
 Symbolic Z-matrix:
 Charge = -1 Multiplicity = 1
 C                    -1.509     1.077    -1.671 
 H                    -2.018     0.127    -1.85 
 H                    -1.182     1.441    -2.647 
 H                    -2.312     1.72     -1.304 
 C                    -0.355     0.934    -0.619 
 C                     0.157     2.397    -0.563 
 H                     0.762     2.509     0.34 
 H                    -0.626     3.158    -0.564 
 H                     0.75      2.677    -1.437 
 C                     0.746     0.037    -1.165 
 C                     0.264    -1.3      -1.381 
 C                     1.098    -2.365    -1.658 
 C                     2.493    -2.011    -1.849 
 O                     3.345    -3.043    -2.006 
 H                     4.2      -2.58     -2.066 
 C                     2.982    -0.694    -1.722 
 C                     2.093     0.321    -1.406 
 H                     2.463     1.34     -1.334 
 H                     3.996    -0.382    -1.956 
 H                     0.686    -3.365    -1.761 
 H                    -0.763    -1.507    -1.09 
 C                    -0.918     0.428     0.746 
 C                    -2.263     0.378     1.006 
 H                    -3.029     0.701     0.306 
 C                    -2.701     0.009     2.261 
 H                    -3.762     0.163     2.439 
 C                    -1.793    -0.308     3.278 
 O                    -2.214    -0.748     4.442 
 C                    -0.434    -0.199     3.034 
 H                     0.293    -0.436     3.806 
 C                    -0.023     0.106     1.77 
 H                     1.043     0.055     1.561 
 
 ITRead=  0  0  0  0  0  0  0  0  0  0  0  0  0  0  0  0  0  0  0  0
 ITRead=  0  0  0  0  0  0  0  0  0  0  0  0
 MicOpt= -1 -1 -1 -1 -1 -1 -1 -1 -1 -1 -1 -1 -1 -1 -1 -1 -1 -1 -1 -1
 MicOpt= -1 -1 -1 -1 -1 -1 -1 -1 -1 -1 -1 -1
 NAtoms=     32 NQM=       32 NQMF=       0 NMMI=      0 NMMIF=      0
                NMic=       0 NMicF=      0.
                    Isotopes and Nuclear Properties:
 (Nuclear quadrupole moments (NQMom) in fm**2, nuclear magnetic moments (NMagM)
  in nuclear magnetons)

  Atom         1           2           3           4           5           6           7           8           9          10
 IAtWgt=          12           1           1           1          12          12           1           1           1          12
 AtmWgt=  12.0000000   1.0078250   1.0078250   1.0078250  12.0000000  12.0000000   1.0078250   1.0078250   1.0078250  12.0000000
 NucSpn=           0           1           1           1           0           0           1           1           1           0
 AtZEff=  -0.0000000  -0.0000000  -0.0000000  -0.0000000  -0.0000000  -0.0000000  -0.0000000  -0.0000000  -0.0000000  -0.0000000
 NQMom=    0.0000000   0.0000000   0.0000000   0.0000000   0.0000000   0.0000000   0.0000000   0.0000000   0.0000000   0.0000000
 NMagM=    0.0000000   2.7928460   2.7928460   2.7928460   0.0000000   0.0000000   2.7928460   2.7928460   2.7928460   0.0000000
 AtZNuc=   6.0000000   1.0000000   1.0000000   1.0000000   6.0000000   6.0000000   1.0000000   1.0000000   1.0000000   6.0000000

  Atom        11          12          13          14          15          16          17          18          19          20
 IAtWgt=          12          12          12          16           1          12          12           1           1           1
 AtmWgt=  12.0000000  12.0000000  12.0000000  15.9949146   1.0078250  12.0000000  12.0000000   1.0078250   1.0078250   1.0078250
 NucSpn=           0           0           0           0           1           0           0           1           1           1
 AtZEff=  -0.0000000  -0.0000000  -0.0000000  -0.0000000  -0.0000000  -0.0000000  -0.0000000  -0.0000000  -0.0000000  -0.0000000
 NQMom=    0.0000000   0.0000000   0.0000000   0.0000000   0.0000000   0.0000000   0.0000000   0.0000000   0.0000000   0.0000000
 NMagM=    0.0000000   0.0000000   0.0000000   0.0000000   2.7928460   0.0000000   0.0000000   2.7928460   2.7928460   2.7928460
 AtZNuc=   6.0000000   6.0000000   6.0000000   8.0000000   1.0000000   6.0000000   6.0000000   1.0000000   1.0000000   1.0000000

  Atom        21          22          23          24          25          26          27          28          29          30
 IAtWgt=           1          12          12           1          12           1          12          16          12           1
 AtmWgt=   1.0078250  12.0000000  12.0000000   1.0078250  12.0000000   1.0078250  12.0000000  15.9949146  12.0000000   1.0078250
 NucSpn=           1           0           0           1           0           1           0           0           0           1
 AtZEff=  -0.0000000  -0.0000000  -0.0000000  -0.0000000  -0.0000000  -0.0000000  -0.0000000  -0.0000000  -0.0000000  -0.0000000
 NQMom=    0.0000000   0.0000000   0.0000000   0.0000000   0.0000000   0.0000000   0.0000000   0.0000000   0.0000000   0.0000000
 NMagM=    2.7928460   0.0000000   0.0000000   2.7928460   0.0000000   2.7928460   0.0000000   0.0000000   0.0000000   2.7928460
 AtZNuc=   1.0000000   6.0000000   6.0000000   1.0000000   6.0000000   1.0000000   6.0000000   8.0000000   6.0000000   1.0000000

  Atom        31          32
 IAtWgt=          12           1
 AtmWgt=  12.0000000   1.0078250
 NucSpn=           0           1
 AtZEff=  -0.0000000  -0.0000000
 NQMom=    0.0000000   0.0000000
 NMagM=    0.0000000   2.7928460
 AtZNuc=   6.0000000   1.0000000
 Leave Link  101 at Sun Jul 11 15:57:25 2021, MaxMem=   104857600 cpu:               0.5 elap:               0.1
 (Enter /prod/apps/gaussian/g16b1/l103.exe)

 GradGradGradGradGradGradGradGradGradGradGradGradGradGradGradGradGradGrad
 Berny optimization.
 Initialization pass.
                           ----------------------------
                           !    Initial Parameters    !
                           ! (Angstroms and Degrees)  !
 --------------------------                            --------------------------
 ! Name  Definition              Value          Derivative Info.                !
 --------------------------------------------------------------------------------
 ! R1    R(1,2)                  1.0925         estimate D2E/DX2                !
 ! R2    R(1,3)                  1.0918         estimate D2E/DX2                !
 ! R3    R(1,4)                  1.0922         estimate D2E/DX2                !
 ! R4    R(1,5)                  1.5681         estimate D2E/DX2                !
 ! R5    R(5,6)                  1.551          estimate D2E/DX2                !
 ! R6    R(5,10)                 1.5215         estimate D2E/DX2                !
 ! R7    R(5,22)                 1.5608         estimate D2E/DX2                !
 ! R8    R(6,7)                  1.0927         estimate D2E/DX2                !
 ! R9    R(6,8)                  1.0919         estimate D2E/DX2                !
 ! R10   R(6,9)                  1.0927         estimate D2E/DX2                !
 ! R11   R(10,11)                1.4375         estimate D2E/DX2                !
 ! R12   R(10,17)                1.3975         estimate D2E/DX2                !
 ! R13   R(11,12)                1.3808         estimate D2E/DX2                !
 ! R14   R(11,21)                1.0873         estimate D2E/DX2                !
 ! R15   R(12,13)                1.4518         estimate D2E/DX2                !
 ! R16   R(12,20)                1.0864         estimate D2E/DX2                !
 ! R17   R(13,14)                1.3474         estimate D2E/DX2                !
 ! R18   R(13,16)                1.4106         estimate D2E/DX2                !
 ! R19   R(14,15)                0.9742         estimate D2E/DX2                !
 ! R20   R(16,17)                1.3858         estimate D2E/DX2                !
 ! R21   R(16,19)                1.0864         estimate D2E/DX2                !
 ! R22   R(17,18)                1.0865         estimate D2E/DX2                !
 ! R23   R(22,23)                1.3708         estimate D2E/DX2                !
 ! R24   R(22,31)                1.3976         estimate D2E/DX2                !
 ! R25   R(23,24)                1.0868         estimate D2E/DX2                !
 ! R26   R(23,25)                1.3795         estimate D2E/DX2                !
 ! R27   R(25,26)                1.0868         estimate D2E/DX2                !
 ! R28   R(25,27)                1.3997         estimate D2E/DX2                !
 ! R29   R(27,28)                1.3137         estimate D2E/DX2                !
 ! R30   R(27,29)                1.385          estimate D2E/DX2                !
 ! R31   R(29,30)                1.0866         estimate D2E/DX2                !
 ! R32   R(29,31)                1.3637         estimate D2E/DX2                !
 ! R33   R(31,32)                1.0875         estimate D2E/DX2                !
 ! A1    A(2,1,3)              106.438          estimate D2E/DX2                !
 ! A2    A(2,1,4)              102.9697         estimate D2E/DX2                !
 ! A3    A(2,1,5)              111.9307         estimate D2E/DX2                !
 ! A4    A(3,1,4)              108.9233         estimate D2E/DX2                !
 ! A5    A(3,1,5)              114.1873         estimate D2E/DX2                !
 ! A6    A(4,1,5)              111.6736         estimate D2E/DX2                !
 ! A7    A(1,5,6)              100.4361         estimate D2E/DX2                !
 ! A8    A(1,5,10)             110.2158         estimate D2E/DX2                !
 ! A9    A(1,5,22)             110.5374         estimate D2E/DX2                !
 ! A10   A(6,5,10)             109.2797         estimate D2E/DX2                !
 ! A11   A(6,5,22)             113.1589         estimate D2E/DX2                !
 ! A12   A(10,5,22)            112.5646         estimate D2E/DX2                !
 ! A13   A(5,6,7)              108.0166         estimate D2E/DX2                !
 ! A14   A(5,6,8)              114.8759         estimate D2E/DX2                !
 ! A15   A(5,6,9)              113.078          estimate D2E/DX2                !
 ! A16   A(7,6,8)              109.0484         estimate D2E/DX2                !
 ! A17   A(7,6,9)              109.5279         estimate D2E/DX2                !
 ! A18   A(8,6,9)              102.1135         estimate D2E/DX2                !
 ! A19   A(5,10,11)            111.0762         estimate D2E/DX2                !
 ! A20   A(5,10,17)            129.7574         estimate D2E/DX2                !
 ! A21   A(11,10,17)           119.0946         estimate D2E/DX2                !
 ! A22   A(10,11,12)           123.0236         estimate D2E/DX2                !
 ! A23   A(10,11,21)           116.9711         estimate D2E/DX2                !
 ! A24   A(12,11,21)           118.5129         estimate D2E/DX2                !
 ! A25   A(11,12,13)           114.752          estimate D2E/DX2                !
 ! A26   A(11,12,20)           119.994          estimate D2E/DX2                !
 ! A27   A(13,12,20)           125.193          estimate D2E/DX2                !
 ! A28   A(12,13,14)           115.8579         estimate D2E/DX2                !
 ! A29   A(12,13,16)           123.2918         estimate D2E/DX2                !
 ! A30   A(14,13,16)           120.4229         estimate D2E/DX2                !
 ! A31   A(13,14,15)           101.4274         estimate D2E/DX2                !
 ! A32   A(13,16,17)           118.8151         estimate D2E/DX2                !
 ! A33   A(13,16,19)           124.9106         estimate D2E/DX2                !
 ! A34   A(17,16,19)           115.9461         estimate D2E/DX2                !
 ! A35   A(10,17,16)           120.5834         estimate D2E/DX2                !
 ! A36   A(10,17,18)           120.4904         estimate D2E/DX2                !
 ! A37   A(16,17,18)           118.9201         estimate D2E/DX2                !
 ! A38   A(5,22,23)            122.114          estimate D2E/DX2                !
 ! A39   A(5,22,31)            118.9768         estimate D2E/DX2                !
 ! A40   A(23,22,31)           118.7478         estimate D2E/DX2                !
 ! A41   A(22,23,24)           123.9561         estimate D2E/DX2                !
 ! A42   A(22,23,25)           119.5929         estimate D2E/DX2                !
 ! A43   A(24,23,25)           116.2114         estimate D2E/DX2                !
 ! A44   A(23,25,26)           114.9021         estimate D2E/DX2                !
 ! A45   A(23,25,27)           121.0381         estimate D2E/DX2                !
 ! A46   A(26,25,27)           123.1198         estimate D2E/DX2                !
 ! A47   A(25,27,28)           120.7805         estimate D2E/DX2                !
 ! A48   A(25,27,29)           119.3856         estimate D2E/DX2                !
 ! A49   A(28,27,29)           119.7958         estimate D2E/DX2                !
 ! A50   A(27,29,30)           120.9414         estimate D2E/DX2                !
 ! A51   A(27,29,31)           118.4648         estimate D2E/DX2                !
 ! A52   A(30,29,31)           120.3762         estimate D2E/DX2                !
 ! A53   A(22,31,29)           122.5238         estimate D2E/DX2                !
 ! A54   A(22,31,32)           119.8494         estimate D2E/DX2                !
 ! A55   A(29,31,32)           117.586          estimate D2E/DX2                !
 ! D1    D(2,1,5,6)           -179.4835         estimate D2E/DX2                !
 ! D2    D(2,1,5,10)            65.328          estimate D2E/DX2                !
 ! D3    D(2,1,5,22)           -59.7451         estimate D2E/DX2                !
 ! D4    D(3,1,5,6)             59.5026         estimate D2E/DX2                !
 ! D5    D(3,1,5,10)           -55.686          estimate D2E/DX2                !
 ! D6    D(3,1,5,22)           179.2409         estimate D2E/DX2                !
 ! D7    D(4,1,5,6)            -64.6263         estimate D2E/DX2                !
 ! D8    D(4,1,5,10)          -179.8149         estimate D2E/DX2                !
 ! D9    D(4,1,5,22)            55.112          estimate D2E/DX2                !
 ! D10   D(1,5,6,7)            163.4555         estimate D2E/DX2                !
 ! D11   D(1,5,6,8)             41.511          estimate D2E/DX2                !
 ! D12   D(1,5,6,9)            -75.1682         estimate D2E/DX2                !
 ! D13   D(10,5,6,7)           -80.6527         estimate D2E/DX2                !
 ! D14   D(10,5,6,8)           157.4028         estimate D2E/DX2                !
 ! D15   D(10,5,6,9)            40.7236         estimate D2E/DX2                !
 ! D16   D(22,5,6,7)            45.6307         estimate D2E/DX2                !
 ! D17   D(22,5,6,8)           -76.3138         estimate D2E/DX2                !
 ! D18   D(22,5,6,9)           167.007          estimate D2E/DX2                !
 ! D19   D(1,5,10,11)          -63.7698         estimate D2E/DX2                !
 ! D20   D(1,5,10,17)          119.396          estimate D2E/DX2                !
 ! D21   D(6,5,10,11)         -173.2395         estimate D2E/DX2                !
 ! D22   D(6,5,10,17)            9.9263         estimate D2E/DX2                !
 ! D23   D(22,5,10,11)          60.1379         estimate D2E/DX2                !
 ! D24   D(22,5,10,17)        -116.6963         estimate D2E/DX2                !
 ! D25   D(1,5,22,23)          -11.2202         estimate D2E/DX2                !
 ! D26   D(1,5,22,31)          173.4579         estimate D2E/DX2                !
 ! D27   D(6,5,22,23)          100.5346         estimate D2E/DX2                !
 ! D28   D(6,5,22,31)          -74.7874         estimate D2E/DX2                !
 ! D29   D(10,5,22,23)        -134.9495         estimate D2E/DX2                !
 ! D30   D(10,5,22,31)          49.7285         estimate D2E/DX2                !
 ! D31   D(5,10,11,12)        -168.9398         estimate D2E/DX2                !
 ! D32   D(5,10,11,21)          -3.1058         estimate D2E/DX2                !
 ! D33   D(17,10,11,12)          8.2754         estimate D2E/DX2                !
 ! D34   D(17,10,11,21)        174.1094         estimate D2E/DX2                !
 ! D35   D(5,10,17,16)         170.3594         estimate D2E/DX2                !
 ! D36   D(5,10,17,18)          -8.7262         estimate D2E/DX2                !
 ! D37   D(11,10,17,16)         -6.2599         estimate D2E/DX2                !
 ! D38   D(11,10,17,18)        174.6545         estimate D2E/DX2                !
 ! D39   D(10,11,12,13)         -5.9204         estimate D2E/DX2                !
 ! D40   D(10,11,12,20)        176.7739         estimate D2E/DX2                !
 ! D41   D(21,11,12,13)       -171.5481         estimate D2E/DX2                !
 ! D42   D(21,11,12,20)         11.1461         estimate D2E/DX2                !
 ! D43   D(11,12,13,14)        174.4981         estimate D2E/DX2                !
 ! D44   D(11,12,13,16)          1.9884         estimate D2E/DX2                !
 ! D45   D(20,12,13,14)         -8.3574         estimate D2E/DX2                !
 ! D46   D(20,12,13,16)        179.1329         estimate D2E/DX2                !
 ! D47   D(12,13,14,15)       -177.0838         estimate D2E/DX2                !
 ! D48   D(16,13,14,15)         -4.3434         estimate D2E/DX2                !
 ! D49   D(12,13,16,17)         -0.3406         estimate D2E/DX2                !
 ! D50   D(12,13,16,19)       -173.4805         estimate D2E/DX2                !
 ! D51   D(14,13,16,17)       -172.522          estimate D2E/DX2                !
 ! D52   D(14,13,16,19)         14.3382         estimate D2E/DX2                !
 ! D53   D(13,16,17,10)          2.525          estimate D2E/DX2                !
 ! D54   D(13,16,17,18)       -178.3751         estimate D2E/DX2                !
 ! D55   D(19,16,17,10)        176.2713         estimate D2E/DX2                !
 ! D56   D(19,16,17,18)         -4.6289         estimate D2E/DX2                !
 ! D57   D(5,22,23,24)          -1.4218         estimate D2E/DX2                !
 ! D58   D(5,22,23,25)        -175.5779         estimate D2E/DX2                !
 ! D59   D(31,22,23,24)        173.9105         estimate D2E/DX2                !
 ! D60   D(31,22,23,25)         -0.2456         estimate D2E/DX2                !
 ! D61   D(5,22,31,29)         172.5256         estimate D2E/DX2                !
 ! D62   D(5,22,31,32)          -9.854          estimate D2E/DX2                !
 ! D63   D(23,22,31,29)         -2.9555         estimate D2E/DX2                !
 ! D64   D(23,22,31,32)        174.665          estimate D2E/DX2                !
 ! D65   D(22,23,25,26)        169.6349         estimate D2E/DX2                !
 ! D66   D(22,23,25,27)          0.3957         estimate D2E/DX2                !
 ! D67   D(24,23,25,26)         -4.9636         estimate D2E/DX2                !
 ! D68   D(24,23,25,27)       -174.2028         estimate D2E/DX2                !
 ! D69   D(23,25,27,28)       -175.23           estimate D2E/DX2                !
 ! D70   D(23,25,27,29)          2.5201         estimate D2E/DX2                !
 ! D71   D(26,25,27,28)         16.4358         estimate D2E/DX2                !
 ! D72   D(26,25,27,29)       -165.8141         estimate D2E/DX2                !
 ! D73   D(25,27,29,30)        179.834          estimate D2E/DX2                !
 ! D74   D(25,27,29,31)         -5.5055         estimate D2E/DX2                !
 ! D75   D(28,27,29,30)         -2.3934         estimate D2E/DX2                !
 ! D76   D(28,27,29,31)        172.2671         estimate D2E/DX2                !
 ! D77   D(27,29,31,22)          5.8364         estimate D2E/DX2                !
 ! D78   D(27,29,31,32)       -171.835          estimate D2E/DX2                !
 ! D79   D(30,29,31,22)       -179.4719         estimate D2E/DX2                !
 ! D80   D(30,29,31,32)          2.8567         estimate D2E/DX2                !
 --------------------------------------------------------------------------------
 Trust Radius=3.00D-01 FncErr=1.00D-07 GrdErr=1.00D-06 EigMax=2.50D+02 EigMin=1.00D-04
 Number of steps in this run=    178 maximum allowed number of steps=    192.
 GradGradGradGradGradGradGradGradGradGradGradGradGradGradGradGradGradGrad

 Leave Link  103 at Sun Jul 11 15:57:25 2021, MaxMem=   104857600 cpu:               0.1 elap:               0.0
 (Enter /prod/apps/gaussian/g16b1/l202.exe)
                          Input orientation:                          
 ---------------------------------------------------------------------
 Center     Atomic      Atomic             Coordinates (Angstroms)
 Number     Number       Type             X           Y           Z
 ---------------------------------------------------------------------
      1          6           0       -1.509000    1.077000   -1.671000
      2          1           0       -2.018000    0.127000   -1.850000
      3          1           0       -1.182000    1.441000   -2.647000
      4          1           0       -2.312000    1.720000   -1.304000
      5          6           0       -0.355000    0.934000   -0.619000
      6          6           0        0.157000    2.397000   -0.563000
      7          1           0        0.762000    2.509000    0.340000
      8          1           0       -0.626000    3.158000   -0.564000
      9          1           0        0.750000    2.677000   -1.437000
     10          6           0        0.746000    0.037000   -1.165000
     11          6           0        0.264000   -1.300000   -1.381000
     12          6           0        1.098000   -2.365000   -1.658000
     13          6           0        2.493000   -2.011000   -1.849000
     14          8           0        3.345000   -3.043000   -2.006000
     15          1           0        4.200000   -2.580000   -2.066000
     16          6           0        2.982000   -0.694000   -1.722000
     17          6           0        2.093000    0.321000   -1.406000
     18          1           0        2.463000    1.340000   -1.334000
     19          1           0        3.996000   -0.382000   -1.956000
     20          1           0        0.686000   -3.365000   -1.761000
     21          1           0       -0.763000   -1.507000   -1.090000
     22          6           0       -0.918000    0.428000    0.746000
     23          6           0       -2.263000    0.378000    1.006000
     24          1           0       -3.029000    0.701000    0.306000
     25          6           0       -2.701000    0.009000    2.261000
     26          1           0       -3.762000    0.163000    2.439000
     27          6           0       -1.793000   -0.308000    3.278000
     28          8           0       -2.214000   -0.748000    4.442000
     29          6           0       -0.434000   -0.199000    3.034000
     30          1           0        0.293000   -0.436000    3.806000
     31          6           0       -0.023000    0.106000    1.770000
     32          1           0        1.043000    0.055000    1.561000
 ---------------------------------------------------------------------
                    Distance matrix (angstroms):
                    1          2          3          4          5
     1  C    0.000000
     2  H    1.092530   0.000000
     3  H    1.091788   1.749486   0.000000
     4  H    1.092221   1.709445   1.777186   0.000000
     5  C    1.568078   2.220851   2.248057   2.217402   0.000000
     6  C    2.397002   3.397042   2.655167   2.665215   1.551015
     7  H    3.354428   4.265961   3.720474   3.574176   2.155921
     8  H    2.517081   3.574692   2.756105   2.336245   2.241125
     9  H    2.778100   3.786145   2.593149   3.210823   2.219955
    10  C    2.534297   2.849039   2.807975   3.493304   1.521488
    11  C    2.979557   2.731998   3.347649   3.970152   2.440197
    12  C    4.317868   3.994544   4.545565   5.332977   3.751550
    13  C    5.058007   4.992010   5.104776   6.107816   4.277503
    14  O    6.375574   6.231774   6.403973   7.428366   5.606273
    15  H    6.791344   6.785133   6.743287   7.840713   5.932119
    16  C    4.827849   5.068572   4.769984   5.833400   3.873314
    17  C    3.690009   4.139456   3.676970   4.622946   2.643453
    18  H    3.994937   4.670866   3.875590   4.790190   2.935504
    19  H    5.702187   6.036432   5.532856   6.680896   4.738209
    20  H    4.955551   4.417420   5.231831   5.920648   4.568287
    21  H    2.751569   2.196038   3.360136   3.585907   2.519283
    22  C    2.571453   2.835457   3.550819   2.795532   1.560843
    23  C    2.867655   2.877458   3.955116   2.671978   2.567143
    24  H    2.521965   2.449476   3.560789   2.035817   2.839047
    25  C    4.245246   4.169021   5.333521   3.973420   3.828021
    26  H    4.775302   4.630157   5.844406   4.305438   4.642570
    27  C    5.146988   5.151333   6.207894   5.037546   4.335553
    28  O    6.418444   6.355573   7.490705   6.254370   5.647896
    29  C    4.992076   5.144783   5.960106   5.101734   3.825485
    30  H    5.961032   6.135799   6.880404   6.127517   4.677331
    31  C    3.871888   4.133384   4.757667   4.158605   2.550123
    32  H    4.242996   4.583648   4.957710   4.715557   2.734857
                    6          7          8          9         10
     6  C    0.000000
     7  H    1.092693   0.000000
     8  H    1.091884   1.779034   0.000000
     9  H    1.092669   1.784964   1.699078   0.000000
    10  C    2.505778   2.894143   3.461824   2.653978   0.000000
    11  C    3.787926   4.209314   4.618804   4.006977   1.437550
    12  C    4.976058   5.278331   5.888339   5.058825   2.477208
    13  C    5.151811   5.312107   6.172353   5.018480   2.777439
    14  O    6.468322   6.557462   7.503373   6.306836   4.116853
    15  H    6.585999   6.595953   7.646628   6.319350   4.426128
    16  C    4.344904   4.409020   5.403382   4.052985   2.417500
    17  C    2.961169   3.099584   4.018768   2.712074   1.397550
    18  H    2.651288   2.657487   3.666053   2.175442   2.162050
    19  H    4.939758   4.907979   5.985996   4.490363   3.371015
    20  H    5.908950   6.238898   6.760450   6.051019   3.454334
    21  H    4.045410   4.527558   4.696559   4.462671   2.160241
    22  C    2.597319   2.705143   3.042082   3.550453   2.563922
    23  C    3.520585   3.759700   3.587906   4.509082   3.726071
    24  H    3.712435   4.200202   3.545160   4.606893   4.105528
    25  C    4.673937   4.683226   4.711948   5.718639   4.860048
    26  H    5.418609   5.511451   5.274707   6.457687   5.772933
    27  C    5.086532   4.805763   5.304339   6.132561   5.128918
    28  O    6.368885   6.024204   6.545122   7.421493   6.388762
    29  C    4.475143   4.002664   4.924624   5.446382   4.368031
    30  H    5.208891   4.572323   5.732216   6.114627   5.013958
    31  C    3.274747   2.904399   3.889199   4.182394   3.034855
    32  H    3.283494   2.755344   4.114583   3.993587   2.742191
                   11         12         13         14         15
    11  C    0.000000
    12  C    1.380764   0.000000
    13  C    2.385998   1.451834   0.000000
    14  O    3.594612   2.372719   1.347433   0.000000
    15  H    4.195202   3.136095   1.812374   0.974163   0.000000
    16  C    2.805538   2.519086   1.410581   2.393789   2.271312
    17  C    2.444076   2.875435   2.407171   3.639231   3.645662
    18  H    3.436191   3.961720   3.390476   4.521084   4.349643
    19  H    3.886023   3.524131   2.219031   2.739931   2.210186
    20  H    2.141660   1.086441   2.259714   2.689608   3.613509
    21  H    1.087317   2.126525   3.381070   4.480404   5.170616
    22  C    2.984499   4.200514   4.931295   6.147724   6.568815
    23  C    3.859946   5.090900   6.039692   7.226690   7.743211
    24  H    4.206402   5.503615   6.518547   7.745370   8.285517
    25  C    4.875333   5.952045   6.924604   8.004755   8.546909
    26  H    5.739464   6.840745   7.889122   8.974737   9.550524
    27  C    5.188602   6.078917   6.896096   7.861293   8.344841
    28  O    6.352363   7.126993   7.957870   8.817381   9.319318
    29  C    4.603437   5.390125   5.974476   6.911641   7.290618
    30  H    5.258546   5.850159   6.268943   7.063321   7.371687
    31  C    3.462370   4.371918   4.889694   5.959681   6.305809
    32  H    3.331401   4.027578   4.242518   5.255502   5.483156
                   16         17         18         19         20
    16  C    0.000000
    17  C    1.385786   0.000000
    18  H    2.134727   1.086483   0.000000
    19  H    1.086414   2.101932   2.387940   0.000000
    20  H    3.522411   3.961347   5.047483   4.460091   0.000000
    21  H    3.883995   3.405609   4.309527   4.966252   2.449899
    22  C    4.749727   3.702523   4.072997   5.666066   4.821277
    23  C    6.008427   4.979531   5.360608   6.966070   5.510258
    24  H    6.495455   5.413892   5.767147   7.459233   5.882692
    25  C    6.975313   6.043730   6.431367   7.923748   6.247570
    26  H    7.970565   7.006427   7.373702   8.933063   7.061975
    27  C    6.924566   6.118537   6.488450   7.804662   6.393920
    28  O    8.062024   7.341125   7.719861   8.923702   7.330477
    29  C    5.876531   5.135146   5.462651   6.675215   5.854057
    30  H    6.152729   5.565788   5.855141   6.849509   6.302775
    31  C    4.675905   3.822389   4.163865   5.502143   5.001848
    32  H    3.885719   3.158535   3.471117   4.613076   4.781164
                   21         22         23         24         25
    21  H    0.000000
    22  C    2.671918   0.000000
    23  C    3.193187   1.370812   0.000000
    24  H    3.458155   2.173580   1.086777   0.000000
    25  C    4.157319   2.376947   1.379504   2.099636   0.000000
    26  H    4.923083   3.320363   2.084878   2.318711   1.086794
    27  C    4.645205   2.778191   2.419397   3.373212   1.399729
    28  O    5.769273   4.089377   3.616127   4.457614   2.359445
    29  C    4.338949   2.421225   2.791228   3.871177   2.404180
    30  H    5.121815   3.402443   3.877594   4.957666   3.398395
    31  C    3.365853   1.397600   2.382285   3.396080   2.724367
    32  H    3.567812   2.156125   3.367787   4.309701   3.809154
                   26         27         28         29         30
    26  H    0.000000
    27  C    2.191512   0.000000
    28  O    2.690397   1.313673   0.000000
    29  C    3.400096   1.385026   2.335009   0.000000
    30  H    4.320939   2.155589   2.605166   1.086592   0.000000
    31  C    3.798807   2.361855   3.559407   1.363687   2.130473
    32  H    4.885752   3.335079   4.421880   2.101374   2.417355
                   31         32
    31  C    0.000000
    32  H    1.087492   0.000000
 Stoichiometry    C15H15O2(1-)
 Framework group  C1[X(C15H15O2)]
 Deg. of freedom    90
 Full point group                 C1      NOp   1
 Largest Abelian subgroup         C1      NOp   1
 Largest concise Abelian subgroup C1      NOp   1
                         Standard orientation:                         
 ---------------------------------------------------------------------
 Center     Atomic      Atomic             Coordinates (Angstroms)
 Number     Number       Type             X           Y           Z
 ---------------------------------------------------------------------
      1          6           0        0.105214    2.477503    1.133635
      2          1           0        0.092838    1.973318    2.102792
      3          1           0       -0.719279    3.193067    1.147084
      4          1           0        1.049949    3.025222    1.154300
      5          6           0        0.052375    1.458734   -0.057241
      6          6           0        0.095965    2.433428   -1.262944
      7          1           0        0.361729    1.858172   -2.153129
      8          1           0        0.793880    3.266222   -1.155330
      9          1           0       -0.852441    2.949334   -1.431148
     10          6           0       -1.276961    0.718604   -0.057384
     11          6           0       -1.424458   -0.079417    1.129189
     12          6           0       -2.425029   -1.018049    1.285201
     13          6           0       -3.403578   -1.047327    0.213097
     14          8           0       -4.323149   -2.029681    0.283433
     15          1           0       -4.824584   -1.883910   -0.538946
     16          6           0       -3.328614   -0.219347   -0.926450
     17          6           0       -2.275589    0.675052   -1.034109
     18          1           0       -2.230688    1.332261   -1.898115
     19          1           0       -4.094619   -0.146287   -1.693389
     20          1           0       -2.459591   -1.631196    2.181420
     21          1           0       -0.584684   -0.096315    1.819662
     22          6           0        1.276357    0.491580   -0.005181
     23          6           0        2.342126    0.709204    0.829025
     24          1           0        2.429578    1.566553    1.491135
     25          6           0        3.437216   -0.127484    0.767687
     26          1           0        4.304156    0.211582    1.328553
     27          6           0        3.481961   -1.192333   -0.139692
     28          8           0        4.484476   -2.041231   -0.131089
     29          6           0        2.432119   -1.376073   -1.024209
     30          1           0        2.441883   -2.192660   -1.740988
     31          6           0        1.333528   -0.577146   -0.903982
     32          1           0        0.465460   -0.819653   -1.512494
 ---------------------------------------------------------------------
 Rotational constants (GHZ):           0.8050721           0.2819025           0.2434680
 Leave Link  202 at Sun Jul 11 15:57:25 2021, MaxMem=   104857600 cpu:               0.0 elap:               0.0
 (Enter /prod/apps/gaussian/g16b1/l301.exe)
 Standard basis: 6-31G(d) (6D, 7F)
 Ernie: Thresh=  0.10000D-02 Tol=  0.10000D-05 Strict=F.
 There are   285 symmetry adapted cartesian basis functions of A   symmetry.
 There are   285 symmetry adapted basis functions of A   symmetry.
   285 basis functions,   536 primitive gaussians,   285 cartesian basis functions
    61 alpha electrons       61 beta electrons
       nuclear repulsion energy      1137.7271886406 Hartrees.
 IExCor=  402 DFT=T Ex+Corr=B3LYP ExCW=0 ScaHFX=  0.200000
 ScaDFX=  0.800000  0.720000  1.000000  0.810000 ScalE2=  1.000000  1.000000
 IRadAn=      5 IRanWt=     -1 IRanGd=            0 ICorTp=0 IEmpDi=  4
 NAtoms=   32 NActive=   32 NUniq=   32 SFac= 1.00D+00 NAtFMM=   60 NAOKFM=F Big=F
 Integral buffers will be    131072 words long.
 Raffenetti 2 integral format.
 Two-electron integral symmetry is turned on.
 Using the following non-standard input for PCM:
 MSTModel=DFT cav MSTCharged
 --- end of non-standard input.
 MST model for solvation energy: B3LYP parametrization.
 MST cavity parameters:
 ISph   IAn     Re0     Alpha   Atom Type   QCorr
 ------------------------------------------------
   1      6     1.50     1.25      CH3        F
   2      1     1.20     1.25      CH3        F
   3      1     1.20     1.25      CH3        F
   4      1     1.20     1.25      CH3        F
   5      6     1.50     1.25      C          F
   6      6     1.50     1.25      CH3        F
   7      1     1.20     1.25      CH3        F
   8      1     1.20     1.25      CH3        F
   9      1     1.20     1.25      CH3        F
  10      6     1.50     1.25      C          F
  11      6     1.50     1.25      CH         F
  12      6     1.50     1.25      CH         F
  13      6     1.50     1.25      C          F
  14      8     1.45     1.25      OH         F
  15      1     0.90     1.25      OH         F
  16      6     1.50     1.25      CH         F
  17      6     1.50     1.25      CH         F
  18      1     1.20     1.25      CH         F
  19      1     1.20     1.25      CH         F
  20      1     1.20     1.25      CH         F
  21      1     1.20     1.25      CH         F
  22      6     1.50     1.25      C          F
  23      6     1.50     1.25      CH         F
  24      1     1.20     1.25      CH         F
  25      6     1.50     1.25      CH         F
  26      1     1.20     1.25      CH         F
  27      6     1.50     1.25      C          F
  28      8     1.40     1.15      O          T
  29      6     1.50     1.25      CH         F
  30      1     1.20     1.25      CH         F
  31      6     1.50     1.25      CH         F
  32      1     1.20     1.25      CH         F
 ------------------------------------------------------------------------------
 Polarizable Continuum Model (PCM)
 =================================
 Model                : PCM.
 Atomic radii         : MST.
 Polarization charges : Total charges.
 Charge compensation  : None.
 Solution method      : On-the-fly selection.
 Cavity type          : Scaled VdW (van der Waals Surface) (Alpha=1.250).
 Cavity algorithm     : GePol (No added spheres)
                        Default sphere list used, NSphG=   32.
                        Lebedev-Laikov grids with approx.  5.0 points / Ang**2.
                        Smoothing algorithm: York/Karplus (Gamma=1.0000).
                        Polarization charges: spherical gaussians, with
                                              point-specific exponents (IZeta= 3).
                        Self-potential: point-specific (ISelfS= 7).
                        Self-field    : sphere-specific E.n sum rule (ISelfD= 2).
 1st derivatives      : Analytical E(r).r(x)/FMM algorithm (CHGder, D1EAlg=3).
                        Cavity 1st derivative terms included.
 Solvent              : Water, Eps=  78.355300 Eps(inf)=   1.777849
 ------------------------------------------------------------------------------
 GePol: Number of generator spheres                  =      32
 GePol: Total number of spheres                      =      32
 GePol: Number of exposed spheres                    =      32 (100.00%)
 GePol: Number of points                             =    2302
 GePol: Average weight of points                     =       0.13
 GePol: Minimum weight of points                     =   0.55D-10
 GePol: Maximum weight of points                     =    0.21416
 GePol: Number of points with low weight             =     166
 GePol: Fraction of low-weight points (<1% of avg)   =       7.21%
 GePol: Cavity surface area                          =    290.081 Ang**2
 GePol: Cavity volume                                =    280.797 Ang**3
 PCM non-electrostatic energy =         0.0020311175 Hartrees.
 Nuclear repulsion after PCM non-electrostatic terms =     1137.7292197581 Hartrees.
 Leave Link  301 at Sun Jul 11 15:57:25 2021, MaxMem=   104857600 cpu:               0.3 elap:               0.1
 (Enter /prod/apps/gaussian/g16b1/l302.exe)
 NPDir=0 NMtPBC=     1 NCelOv=     1 NCel=       1 NClECP=     1 NCelD=      1
         NCelK=      1 NCelE2=     1 NClLst=     1 CellRange=     0.0.
 One-electron integrals computed using PRISM.
 One-electron integral symmetry used in STVInt
 NBasis=   285 RedAO= T EigKep=  4.36D-04  NBF=   285
 NBsUse=   285 1.00D-06 EigRej= -1.00D+00 NBFU=   285
 Precomputing XC quadrature grid using
 IXCGrd= 4 IRadAn=           5 IRanWt=          -1 IRanGd=           0 AccXCQ= 0.00D+00.
 Generated NRdTot=       0 NPtTot=           0 NUsed=           0 NTot=          32
 NSgBfM=   284   284   284   284   284 MxSgAt=    32 MxSgA2=    32.
 Leave Link  302 at Sun Jul 11 15:57:26 2021, MaxMem=   104857600 cpu:               1.4 elap:               0.4
 (Enter /prod/apps/gaussian/g16b1/l303.exe)
 DipDrv:  MaxL=1.
 Leave Link  303 at Sun Jul 11 15:57:26 2021, MaxMem=   104857600 cpu:               0.1 elap:               0.1
 (Enter /prod/apps/gaussian/g16b1/l401.exe)
 ExpMin= 1.61D-01 ExpMax= 5.48D+03 ExpMxC= 8.25D+02 IAcc=3 IRadAn=         5 AccDes= 0.00D+00
 Harris functional with IExCor=  402 and IRadAn=       5 diagonalized for initial guess.
 HarFok:  IExCor=  402 AccDes= 0.00D+00 IRadAn=         5 IDoV= 1 UseB2=F ITyADJ=14
 ICtDFT=  3500011 ScaDFX=  1.000000  1.000000  1.000000  1.000000
 FoFCou: FMM=F IPFlag=           0 FMFlag=      100000 FMFlg1=           0
         NFxFlg=           0 DoJE=T BraDBF=F KetDBF=T FulRan=T
         wScrn=  0.000000 ICntrl=       500 IOpCl=  0 I1Cent=   200000004 NGrid=           0
         NMat0=    1 NMatS0=      1 NMatT0=    0 NMatD0=    1 NMtDS0=    0 NMtDT0=    0
 Petite list used in FoFCou.
 Harris En= -731.318431569824    
 JPrj=0 DoOrth=F DoCkMO=F.
 Leave Link  401 at Sun Jul 11 15:57:28 2021, MaxMem=   104857600 cpu:               7.4 elap:               1.9
 (Enter /prod/apps/gaussian/g16b1/l502.exe)
 Integral symmetry usage will be decided dynamically.
 Closed shell SCF:
 Using DIIS extrapolation, IDIIS=  1040.
 NGot=   104857600 LenX=   104690189 LenY=   104608523
 Requested convergence on RMS density matrix=1.00D-08 within 128 cycles.
 Requested convergence on MAX density matrix=1.00D-06.
 Requested convergence on             energy=1.00D-06.
 No special actions if energy rises.
 Fock matrices will be formed incrementally for  20 cycles.

 Cycle   1  Pass 1  IDiag  1:
 FoFJK:  IHMeth= 1 ICntrl=       0 DoSepK=F KAlg= 0 I1Cent=           0 FoldK=F
 IRaf= 850000000 NMat=       1 IRICut=       1 DoRegI=T DoRafI=F ISym2E= 0 IDoP0=0 IntGTp=1.
 FoFCou: FMM=F IPFlag=           0 FMFlag=      100000 FMFlg1=           0
         NFxFlg=           0 DoJE=F BraDBF=F KetDBF=F FulRan=T
         wScrn=  0.000000 ICntrl=         0 IOpCl=  0 I1Cent=           0 NGrid=           0
         NMat0=    1 NMatS0=      1 NMatT0=    0 NMatD0=    1 NMtDS0=    0 NMtDT0=    0
 Symmetry not used in FoFCou.
 Inv3:  Mode=1 IEnd=    15897612.
 Iteration    1 A*A^-1 deviation from unit magnitude is 3.11D-15 for   1116.
 Iteration    1 A*A^-1 deviation from orthogonality  is 4.00D-15 for   1987    914.
 Iteration    1 A^-1*A deviation from unit magnitude is 2.89D-15 for   1864.
 Iteration    1 A^-1*A deviation from orthogonality  is 4.27D-15 for   1217   1172.
 E= -730.650689390073    
 DIIS: error= 3.20D-02 at cycle   1 NSaved=   1.
 NSaved= 1 IEnMin= 1 EnMin= -730.650689390073     IErMin= 1 ErrMin= 3.20D-02
 ErrMax= 3.20D-02  0.00D+00 EMaxC= 1.00D-01 BMatC= 5.03D-01 BMatP= 5.03D-01
 IDIUse=3 WtCom= 6.80D-01 WtEn= 3.20D-01
 Coeff-Com:  0.100D+01
 Coeff-En:   0.100D+01
 Coeff:      0.100D+01
 Gap=     0.177 Goal=   None    Shift=    0.000
 GapD=    0.177 DampG=1.000 DampE=0.500 DampFc=0.5000 IDamp=-1.
 Damping current iteration by 5.00D-01
 RMSDP=6.00D-03 MaxDP=1.89D-01              OVMax= 2.16D-01

 Cycle   2  Pass 1  IDiag  1:
 RMSU=  2.97D-03    CP:  9.79D-01
 E= -730.889274359325     Delta-E=       -0.238584969253 Rises=F Damp=T
 DIIS: error= 1.01D-02 at cycle   2 NSaved=   2.
 NSaved= 2 IEnMin= 2 EnMin= -730.889274359325     IErMin= 2 ErrMin= 1.01D-02
 ErrMax= 1.01D-02  0.00D+00 EMaxC= 1.00D-01 BMatC= 2.50D-02 BMatP= 5.03D-01
 IDIUse=3 WtCom= 8.99D-01 WtEn= 1.01D-01
 Coeff-Com:  0.395D-01 0.961D+00
 Coeff-En:   0.302D-01 0.970D+00
 Coeff:      0.385D-01 0.961D+00
 Gap=     0.216 Goal=   None    Shift=    0.000
 RMSDP=1.42D-03 MaxDP=5.21D-02 DE=-2.39D-01 OVMax= 1.30D-01

 Cycle   3  Pass 1  IDiag  1:
 RMSU=  1.34D-03    CP:  9.68D-01  8.52D-01
 E= -731.138306504105     Delta-E=       -0.249032144779 Rises=F Damp=F
 DIIS: error= 1.02D-02 at cycle   3 NSaved=   3.
 NSaved= 3 IEnMin= 3 EnMin= -731.138306504105     IErMin= 2 ErrMin= 1.01D-02
 ErrMax= 1.02D-02  0.00D+00 EMaxC= 1.00D-01 BMatC= 2.20D-02 BMatP= 2.50D-02
 IDIUse=3 WtCom= 8.98D-01 WtEn= 1.02D-01
 Coeff-Com: -0.194D-01 0.486D+00 0.534D+00
 Coeff-En:   0.000D+00 0.000D+00 0.100D+01
 Coeff:     -0.174D-01 0.436D+00 0.581D+00
 Gap=     0.152 Goal=   None    Shift=    0.000
 RMSDP=8.35D-04 MaxDP=3.78D-02 DE=-2.49D-01 OVMax= 6.45D-02

 Cycle   4  Pass 1  IDiag  1:
 RMSU=  6.03D-04    CP:  9.71D-01  9.32D-01  6.08D-01
 E= -731.151589649861     Delta-E=       -0.013283145756 Rises=F Damp=F
 DIIS: error= 5.62D-03 at cycle   4 NSaved=   4.
 NSaved= 4 IEnMin= 4 EnMin= -731.151589649861     IErMin= 4 ErrMin= 5.62D-03
 ErrMax= 5.62D-03  0.00D+00 EMaxC= 1.00D-01 BMatC= 6.39D-03 BMatP= 2.20D-02
 IDIUse=3 WtCom= 9.44D-01 WtEn= 5.62D-02
 Coeff-Com: -0.973D-02 0.746D-01 0.359D+00 0.576D+00
 Coeff-En:   0.000D+00 0.000D+00 0.254D+00 0.746D+00
 Coeff:     -0.919D-02 0.704D-01 0.353D+00 0.585D+00
 Gap=     0.153 Goal=   None    Shift=    0.000
 RMSDP=3.39D-04 MaxDP=1.50D-02 DE=-1.33D-02 OVMax= 2.54D-02

 Cycle   5  Pass 1  IDiag  1:
 RMSU=  1.14D-04    CP:  9.69D-01  8.99D-01  7.47D-01  6.02D-01
 E= -731.156743929704     Delta-E=       -0.005154279843 Rises=F Damp=F
 DIIS: error= 6.53D-04 at cycle   5 NSaved=   5.
 NSaved= 5 IEnMin= 5 EnMin= -731.156743929704     IErMin= 5 ErrMin= 6.53D-04
 ErrMax= 6.53D-04  0.00D+00 EMaxC= 1.00D-01 BMatC= 2.01D-04 BMatP= 6.39D-03
 IDIUse=3 WtCom= 9.93D-01 WtEn= 6.53D-03
 Coeff-Com: -0.351D-02 0.129D-01 0.148D+00 0.294D+00 0.548D+00
 Coeff-En:   0.000D+00 0.000D+00 0.000D+00 0.000D+00 0.100D+01
 Coeff:     -0.349D-02 0.128D-01 0.148D+00 0.292D+00 0.551D+00
 Gap=     0.153 Goal=   None    Shift=    0.000
 RMSDP=5.97D-05 MaxDP=2.11D-03 DE=-5.15D-03 OVMax= 3.64D-03

 Cycle   6  Pass 1  IDiag  1:
 RMSU=  3.77D-05    CP:  9.69D-01  9.06D-01  7.40D-01  6.25D-01  6.58D-01
 E= -731.156910569467     Delta-E=       -0.000166639763 Rises=F Damp=F
 DIIS: error= 1.63D-04 at cycle   6 NSaved=   6.
 NSaved= 6 IEnMin= 6 EnMin= -731.156910569467     IErMin= 6 ErrMin= 1.63D-04
 ErrMax= 1.63D-04  0.00D+00 EMaxC= 1.00D-01 BMatC= 1.27D-05 BMatP= 2.01D-04
 IDIUse=3 WtCom= 9.98D-01 WtEn= 1.63D-03
 Coeff-Com: -0.967D-03 0.785D-03 0.403D-01 0.906D-01 0.265D+00 0.604D+00
 Coeff-En:   0.000D+00 0.000D+00 0.000D+00 0.000D+00 0.000D+00 0.100D+01
 Coeff:     -0.966D-03 0.784D-03 0.403D-01 0.904D-01 0.265D+00 0.605D+00
 Gap=     0.153 Goal=   None    Shift=    0.000
 RMSDP=1.42D-05 MaxDP=5.87D-04 DE=-1.67D-04 OVMax= 7.98D-04

 Cycle   7  Pass 1  IDiag  1:
 RMSU=  7.35D-06    CP:  9.69D-01  9.04D-01  7.42D-01  6.31D-01  6.85D-01
                    CP:  7.18D-01
 E= -731.156921126237     Delta-E=       -0.000010556770 Rises=F Damp=F
 DIIS: error= 2.83D-05 at cycle   7 NSaved=   7.
 NSaved= 7 IEnMin= 7 EnMin= -731.156921126237     IErMin= 7 ErrMin= 2.83D-05
 ErrMax= 2.83D-05  0.00D+00 EMaxC= 1.00D-01 BMatC= 8.27D-07 BMatP= 1.27D-05
 IDIUse=1 WtCom= 1.00D+00 WtEn= 0.00D+00
 Coeff-Com: -0.346D-03-0.121D-03 0.136D-01 0.325D-01 0.111D+00 0.308D+00
 Coeff-Com:  0.536D+00
 Coeff:     -0.346D-03-0.121D-03 0.136D-01 0.325D-01 0.111D+00 0.308D+00
 Coeff:      0.536D+00
 Gap=     0.153 Goal=   None    Shift=    0.000
 RMSDP=4.06D-06 MaxDP=1.15D-04 DE=-1.06D-05 OVMax= 2.80D-04

 Cycle   8  Pass 1  IDiag  1:
 RMSU=  2.50D-06    CP:  9.69D-01  9.04D-01  7.42D-01  6.32D-01  6.88D-01
                    CP:  7.19D-01  5.87D-01
 E= -731.156921817395     Delta-E=       -0.000000691158 Rises=F Damp=F
 DIIS: error= 9.02D-06 at cycle   8 NSaved=   8.
 NSaved= 8 IEnMin= 8 EnMin= -731.156921817395     IErMin= 8 ErrMin= 9.02D-06
 ErrMax= 9.02D-06  0.00D+00 EMaxC= 1.00D-01 BMatC= 7.11D-08 BMatP= 8.27D-07
 IDIUse=1 WtCom= 1.00D+00 WtEn= 0.00D+00
 Coeff-Com: -0.374D-04-0.198D-03 0.105D-02 0.334D-02 0.174D-01 0.642D-01
 Coeff-Com:  0.254D+00 0.660D+00
 Coeff:     -0.374D-04-0.198D-03 0.105D-02 0.334D-02 0.174D-01 0.642D-01
 Coeff:      0.254D+00 0.660D+00
 Gap=     0.153 Goal=   None    Shift=    0.000
 RMSDP=1.26D-06 MaxDP=5.20D-05 DE=-6.91D-07 OVMax= 1.16D-04

 Cycle   9  Pass 1  IDiag  1:
 RMSU=  6.97D-07    CP:  9.69D-01  9.04D-01  7.42D-01  6.32D-01  6.90D-01
                    CP:  7.26D-01  6.73D-01  7.16D-01
 E= -731.156921878925     Delta-E=       -0.000000061530 Rises=F Damp=F
 DIIS: error= 3.42D-06 at cycle   9 NSaved=   9.
 NSaved= 9 IEnMin= 9 EnMin= -731.156921878925     IErMin= 9 ErrMin= 3.42D-06
 ErrMax= 3.42D-06  0.00D+00 EMaxC= 1.00D-01 BMatC= 1.04D-08 BMatP= 7.11D-08
 IDIUse=1 WtCom= 1.00D+00 WtEn= 0.00D+00
 Coeff-Com:  0.151D-06-0.876D-04-0.420D-03-0.549D-03 0.177D-02 0.140D-01
 Coeff-Com:  0.103D+00 0.366D+00 0.516D+00
 Coeff:      0.151D-06-0.876D-04-0.420D-03-0.549D-03 0.177D-02 0.140D-01
 Coeff:      0.103D+00 0.366D+00 0.516D+00
 Gap=     0.153 Goal=   None    Shift=    0.000
 RMSDP=4.89D-07 MaxDP=1.89D-05 DE=-6.15D-08 OVMax= 4.14D-05

 Cycle  10  Pass 1  IDiag  1:
 RMSU=  3.14D-07    CP:  9.69D-01  9.04D-01  7.42D-01  6.32D-01  6.90D-01
                    CP:  7.26D-01  6.58D-01  7.98D-01  6.22D-01
 E= -731.156921888697     Delta-E=       -0.000000009772 Rises=F Damp=F
 DIIS: error= 1.02D-06 at cycle  10 NSaved=  10.
 NSaved=10 IEnMin=10 EnMin= -731.156921888697     IErMin=10 ErrMin= 1.02D-06
 ErrMax= 1.02D-06  0.00D+00 EMaxC= 1.00D-01 BMatC= 9.19D-10 BMatP= 1.04D-08
 IDIUse=1 WtCom= 1.00D+00 WtEn= 0.00D+00
 Coeff-Com:  0.389D-05-0.159D-04-0.319D-03-0.665D-03-0.122D-02-0.127D-02
 Coeff-Com:  0.180D-01 0.965D-01 0.272D+00 0.617D+00
 Coeff:      0.389D-05-0.159D-04-0.319D-03-0.665D-03-0.122D-02-0.127D-02
 Coeff:      0.180D-01 0.965D-01 0.272D+00 0.617D+00
 Gap=     0.153 Goal=   None    Shift=    0.000
 RMSDP=1.67D-07 MaxDP=3.89D-06 DE=-9.77D-09 OVMax= 1.45D-05

 Cycle  11  Pass 1  IDiag  1:
 RMSU=  7.85D-08    CP:  9.69D-01  9.04D-01  7.42D-01  6.32D-01  6.90D-01
                    CP:  7.27D-01  6.67D-01  7.94D-01  6.95D-01  6.26D-01
 E= -731.156921889598     Delta-E=       -0.000000000902 Rises=F Damp=F
 DIIS: error= 3.08D-07 at cycle  11 NSaved=  11.
 NSaved=11 IEnMin=11 EnMin= -731.156921889598     IErMin=11 ErrMin= 3.08D-07
 ErrMax= 3.08D-07  0.00D+00 EMaxC= 1.00D-01 BMatC= 9.00D-11 BMatP= 9.19D-10
 IDIUse=1 WtCom= 1.00D+00 WtEn= 0.00D+00
 Coeff-Com:  0.201D-05-0.267D-05-0.160D-03-0.358D-03-0.828D-03-0.166D-02
 Coeff-Com:  0.362D-02 0.314D-01 0.120D+00 0.343D+00 0.505D+00
 Coeff:      0.201D-05-0.267D-05-0.160D-03-0.358D-03-0.828D-03-0.166D-02
 Coeff:      0.362D-02 0.314D-01 0.120D+00 0.343D+00 0.505D+00
 Gap=     0.153 Goal=   None    Shift=    0.000
 RMSDP=4.16D-08 MaxDP=1.20D-06 DE=-9.02D-10 OVMax= 3.74D-06

 Cycle  12  Pass 1  IDiag  1:
 RMSU=  2.48D-08    CP:  9.69D-01  9.04D-01  7.42D-01  6.32D-01  6.90D-01
                    CP:  7.26D-01  6.66D-01  7.95D-01  6.98D-01  6.85D-01
                    CP:  6.66D-01
 E= -731.156921889688     Delta-E=       -0.000000000090 Rises=F Damp=F
 DIIS: error= 8.91D-08 at cycle  12 NSaved=  12.
 NSaved=12 IEnMin=12 EnMin= -731.156921889688     IErMin=12 ErrMin= 8.91D-08
 ErrMax= 8.91D-08  0.00D+00 EMaxC= 1.00D-01 BMatC= 4.13D-12 BMatP= 9.00D-11
 IDIUse=1 WtCom= 1.00D+00 WtEn= 0.00D+00
 Coeff-Com:  0.121D-06 0.120D-05-0.161D-04-0.446D-04-0.141D-03-0.472D-03
 Coeff-Com: -0.132D-02-0.160D-02 0.785D-02 0.482D-01 0.192D+00 0.755D+00
 Coeff:      0.121D-06 0.120D-05-0.161D-04-0.446D-04-0.141D-03-0.472D-03
 Coeff:     -0.132D-02-0.160D-02 0.785D-02 0.482D-01 0.192D+00 0.755D+00
 Gap=     0.153 Goal=   None    Shift=    0.000
 RMSDP=1.13D-08 MaxDP=3.15D-07 DE=-8.96D-11 OVMax= 1.12D-06

 Cycle  13  Pass 1  IDiag  1:
 RMSU=  8.33D-09    CP:  9.69D-01  9.04D-01  7.42D-01  6.32D-01  6.90D-01
                    CP:  7.26D-01  6.66D-01  7.96D-01  7.01D-01  6.88D-01
                    CP:  7.28D-01  8.60D-01
 E= -731.156921889694     Delta-E=       -0.000000000006 Rises=F Damp=F
 DIIS: error= 2.93D-08 at cycle  13 NSaved=  13.
 NSaved=13 IEnMin=13 EnMin= -731.156921889694     IErMin=13 ErrMin= 2.93D-08
 ErrMax= 2.93D-08  0.00D+00 EMaxC= 1.00D-01 BMatC= 7.59D-13 BMatP= 4.13D-12
 IDIUse=1 WtCom= 1.00D+00 WtEn= 0.00D+00
 Coeff-Com: -0.975D-07 0.862D-06 0.383D-05 0.424D-05-0.809D-05-0.110D-03
 Coeff-Com: -0.926D-03-0.296D-02-0.498D-02-0.135D-02 0.548D-01 0.389D+00
 Coeff-Com:  0.567D+00
 Coeff:     -0.975D-07 0.862D-06 0.383D-05 0.424D-05-0.809D-05-0.110D-03
 Coeff:     -0.926D-03-0.296D-02-0.498D-02-0.135D-02 0.548D-01 0.389D+00
 Coeff:      0.567D+00
 Gap=     0.153 Goal=   None    Shift=    0.000
 RMSDP=4.22D-09 MaxDP=1.27D-07 DE=-6.37D-12 OVMax= 3.23D-07

 Error on total polarization charges =  0.02219
 SCF Done:  E(RB3LYP) =  -731.156921890     A.U. after   13 cycles
            NFock= 13  Conv=0.42D-08     -V/T= 2.0089
 KE= 7.247067027445D+02 PE=-3.993007573490D+03 EE= 1.399414729098D+03
 Leave Link  502 at Sun Jul 11 15:58:26 2021, MaxMem=   104857600 cpu:             234.4 elap:              58.6
 (Enter /prod/apps/gaussian/g16b1/l601.exe)
 Copying SCF densities to generalized density rwf, IOpCl= 0 IROHF=0.

 **********************************************************************

            Population analysis using the SCF Density.

 **********************************************************************

 Orbital symmetries:
       Occupied  (A) (A) (A) (A) (A) (A) (A) (A) (A) (A) (A) (A)
                 (A) (A) (A) (A) (A) (A) (A) (A) (A) (A) (A) (A)
                 (A) (A) (A) (A) (A) (A) (A) (A) (A) (A) (A) (A)
                 (A) (A) (A) (A) (A) (A) (A) (A) (A) (A) (A) (A)
                 (A) (A) (A) (A) (A) (A) (A) (A) (A) (A) (A) (A)
                 (A)
       Virtual   (A) (A) (A) (A) (A) (A) (A) (A) (A) (A) (A) (A)
                 (A) (A) (A) (A) (A) (A) (A) (A) (A) (A) (A) (A)
                 (A) (A) (A) (A) (A) (A) (A) (A) (A) (A) (A) (A)
                 (A) (A) (A) (A) (A) (A) (A) (A) (A) (A) (A) (A)
                 (A) (A) (A) (A) (A) (A) (A) (A) (A) (A) (A) (A)
                 (A) (A) (A) (A) (A) (A) (A) (A) (A) (A) (A) (A)
                 (A) (A) (A) (A) (A) (A) (A) (A) (A) (A) (A) (A)
                 (A) (A) (A) (A) (A) (A) (A) (A) (A) (A) (A) (A)
                 (A) (A) (A) (A) (A) (A) (A) (A) (A) (A) (A) (A)
                 (A) (A) (A) (A) (A) (A) (A) (A) (A) (A) (A) (A)
                 (A) (A) (A) (A) (A) (A) (A) (A) (A) (A) (A) (A)
                 (A) (A) (A) (A) (A) (A) (A) (A) (A) (A) (A) (A)
                 (A) (A) (A) (A) (A) (A) (A) (A) (A) (A) (A) (A)
                 (A) (A) (A) (A) (A) (A) (A) (A) (A) (A) (A) (A)
                 (A) (A) (A) (A) (A) (A) (A) (A) (A) (A) (A) (A)
                 (A) (A) (A) (A) (A) (A) (A) (A) (A) (A) (A) (A)
                 (A) (A) (A) (A) (A) (A) (A) (A) (A) (A) (A) (A)
                 (A) (A) (A) (A) (A) (A) (A) (A) (A) (A) (A) (A)
                 (A) (A) (A) (A) (A) (A) (A) (A)
 The electronic state is 1-A.
 Alpha  occ. eigenvalues --  -19.17272 -19.03231 -10.25094 -10.19476 -10.19019
 Alpha  occ. eigenvalues --  -10.18631 -10.18502 -10.18316 -10.18144 -10.18102
 Alpha  occ. eigenvalues --  -10.16314 -10.16135 -10.15961 -10.15831 -10.15575
 Alpha  occ. eigenvalues --  -10.14220 -10.13941  -1.06300  -0.91785  -0.84904
 Alpha  occ. eigenvalues --   -0.82274  -0.78285  -0.74741  -0.72447  -0.70669
 Alpha  occ. eigenvalues --   -0.68224  -0.67102  -0.61284  -0.60908  -0.57554
 Alpha  occ. eigenvalues --   -0.56720  -0.54023  -0.52867  -0.48742  -0.46661
 Alpha  occ. eigenvalues --   -0.44880  -0.43744  -0.43226  -0.42527  -0.42120
 Alpha  occ. eigenvalues --   -0.40870  -0.40521  -0.40264  -0.39096  -0.37871
 Alpha  occ. eigenvalues --   -0.37479  -0.36202  -0.35574  -0.34743  -0.33931
 Alpha  occ. eigenvalues --   -0.33208  -0.32762  -0.30946  -0.30231  -0.29988
 Alpha  occ. eigenvalues --   -0.27266  -0.25243  -0.23102  -0.20392  -0.18523
 Alpha  occ. eigenvalues --   -0.15301
 Alpha virt. eigenvalues --   -0.00008   0.01033   0.02437   0.05558   0.10043
 Alpha virt. eigenvalues --    0.10235   0.11565   0.13314   0.13993   0.14469
 Alpha virt. eigenvalues --    0.15064   0.15724   0.16561   0.17246   0.18112
 Alpha virt. eigenvalues --    0.19227   0.19832   0.20867   0.21644   0.23123
 Alpha virt. eigenvalues --    0.23747   0.24440   0.25164   0.26350   0.27936
 Alpha virt. eigenvalues --    0.28118   0.30282   0.30754   0.33662   0.35697
 Alpha virt. eigenvalues --    0.36493   0.37481   0.38082   0.39902   0.41585
 Alpha virt. eigenvalues --    0.49781   0.50569   0.51298   0.52192   0.52478
 Alpha virt. eigenvalues --    0.53697   0.54030   0.54831   0.55562   0.57093
 Alpha virt. eigenvalues --    0.57329   0.58385   0.58888   0.59154   0.60182
 Alpha virt. eigenvalues --    0.60747   0.61980   0.62519   0.62584   0.63575
 Alpha virt. eigenvalues --    0.64523   0.64987   0.67199   0.67535   0.68060
 Alpha virt. eigenvalues --    0.68757   0.69818   0.70976   0.73685   0.74531
 Alpha virt. eigenvalues --    0.75163   0.76226   0.78022   0.78704   0.81127
 Alpha virt. eigenvalues --    0.81202   0.83161   0.83921   0.85167   0.85421
 Alpha virt. eigenvalues --    0.86377   0.87653   0.87901   0.88510   0.89182
 Alpha virt. eigenvalues --    0.89665   0.90280   0.91454   0.91830   0.94098
 Alpha virt. eigenvalues --    0.94343   0.95665   0.96543   0.97402   0.98020
 Alpha virt. eigenvalues --    0.99432   1.00469   1.02397   1.02865   1.03612
 Alpha virt. eigenvalues --    1.04855   1.05649   1.07418   1.09165   1.10205
 Alpha virt. eigenvalues --    1.12898   1.14927   1.15997   1.17831   1.18691
 Alpha virt. eigenvalues --    1.20405   1.21493   1.24345   1.24491   1.27004
 Alpha virt. eigenvalues --    1.28784   1.29357   1.31717   1.32832   1.37947
 Alpha virt. eigenvalues --    1.39025   1.40682   1.42428   1.43023   1.44307
 Alpha virt. eigenvalues --    1.46729   1.48130   1.50649   1.50918   1.54906
 Alpha virt. eigenvalues --    1.56677   1.58045   1.63265   1.65803   1.65962
 Alpha virt. eigenvalues --    1.69473   1.69766   1.73480   1.74874   1.76082
 Alpha virt. eigenvalues --    1.77795   1.79381   1.82321   1.84161   1.85857
 Alpha virt. eigenvalues --    1.86594   1.88037   1.89087   1.89951   1.91369
 Alpha virt. eigenvalues --    1.92326   1.94268   1.96499   1.96933   1.97480
 Alpha virt. eigenvalues --    1.99325   1.99443   2.03269   2.04474   2.07492
 Alpha virt. eigenvalues --    2.08675   2.09904   2.11153   2.12775   2.13768
 Alpha virt. eigenvalues --    2.15252   2.18053   2.19723   2.20725   2.21337
 Alpha virt. eigenvalues --    2.21847   2.26156   2.27636   2.28197   2.28992
 Alpha virt. eigenvalues --    2.31458   2.32173   2.34048   2.34661   2.35739
 Alpha virt. eigenvalues --    2.37603   2.39000   2.41039   2.43131   2.44688
 Alpha virt. eigenvalues --    2.47310   2.49552   2.57091   2.59889   2.61860
 Alpha virt. eigenvalues --    2.62720   2.64063   2.64536   2.66973   2.67409
 Alpha virt. eigenvalues --    2.69554   2.72465   2.74787   2.76892   2.79622
 Alpha virt. eigenvalues --    2.82733   2.85397   2.89088   2.91372   2.94238
 Alpha virt. eigenvalues --    2.99869   3.01666   3.03042   3.15063   3.23222
 Alpha virt. eigenvalues --    3.37031   3.47785   3.91572   3.98092   4.10691
 Alpha virt. eigenvalues --    4.12811   4.16114   4.17046   4.24481   4.26245
 Alpha virt. eigenvalues --    4.29325   4.32080   4.34074   4.38753   4.45787
 Alpha virt. eigenvalues --    4.52458   4.68493   4.76303   4.81491
          Condensed to atoms (all electrons):
               1          2          3          4          5          6
     1  C    5.237678   0.355937   0.364824   0.356342   0.341066  -0.081384
     2  H    0.355937   0.597185  -0.031766  -0.039419  -0.024595   0.007746
     3  H    0.364824  -0.031766   0.575992  -0.028664  -0.025505  -0.004450
     4  H    0.356342  -0.039419  -0.028664   0.583912  -0.018515  -0.009740
     5  C    0.341066  -0.024595  -0.025505  -0.018515   5.008570   0.342069
     6  C   -0.081384   0.007746  -0.004450  -0.009740   0.342069   5.244349
     7  H    0.007777  -0.000297   0.000074   0.000068  -0.029804   0.353285
     8  H   -0.010467   0.000272  -0.000146   0.005205  -0.024228   0.366258
     9  H   -0.003490  -0.000185   0.002838   0.000246  -0.021431   0.354169
    10  C   -0.048543  -0.009181  -0.000754   0.005355   0.359162  -0.048617
    11  C   -0.012533   0.005072   0.000005   0.000334  -0.053890   0.007119
    12  C    0.000686   0.000052  -0.000066  -0.000003   0.005872  -0.000285
    13  C   -0.000040  -0.000013  -0.000002   0.000000   0.000303   0.000007
    14  O    0.000000  -0.000000   0.000000  -0.000000  -0.000001   0.000000
    15  H    0.000000   0.000000   0.000000   0.000000  -0.000001   0.000000
    16  C   -0.000112   0.000011  -0.000026   0.000001   0.006446   0.000028
    17  C    0.003663  -0.000375   0.000667  -0.000052  -0.049210  -0.011430
    18  H    0.000246  -0.000006  -0.000064  -0.000009  -0.011504   0.006451
    19  H    0.000002   0.000000   0.000000  -0.000000  -0.000145   0.000005
    20  H    0.000007   0.000016  -0.000001  -0.000000  -0.000170   0.000002
    21  H   -0.002442   0.004139   0.000132  -0.000165  -0.009007   0.000687
    22  C   -0.038150  -0.005692   0.003661  -0.008557   0.364233  -0.049971
    23  C   -0.014542   0.002208   0.000425   0.002427  -0.051093   0.001951
    24  H    0.005528   0.001325  -0.000050   0.002459  -0.015100   0.000332
    25  C    0.000151  -0.000040  -0.000006   0.000336   0.006834  -0.000044
    26  H    0.000011  -0.000002  -0.000000   0.000007  -0.000225   0.000001
    27  C   -0.000009  -0.000001   0.000000  -0.000006   0.000480   0.000016
    28  O    0.000000   0.000000  -0.000000  -0.000000   0.000000  -0.000000
    29  C   -0.000140   0.000002   0.000002  -0.000001   0.005484   0.000072
    30  H    0.000002   0.000000  -0.000000   0.000000  -0.000169  -0.000000
    31  C    0.006804  -0.000113  -0.000077  -0.000358  -0.062415  -0.010291
    32  H    0.000287  -0.000006  -0.000008  -0.000006  -0.011822  -0.000204
               7          8          9         10         11         12
     1  C    0.007777  -0.010467  -0.003490  -0.048543  -0.012533   0.000686
     2  H   -0.000297   0.000272  -0.000185  -0.009181   0.005072   0.000052
     3  H    0.000074  -0.000146   0.002838  -0.000754   0.000005  -0.000066
     4  H    0.000068   0.005205   0.000246   0.005355   0.000334  -0.000003
     5  C   -0.029804  -0.024228  -0.021431   0.359162  -0.053890   0.005872
     6  C    0.353285   0.366258   0.354169  -0.048617   0.007119  -0.000285
     7  H    0.590006  -0.028723  -0.028228  -0.004480  -0.000169   0.000008
     8  H   -0.028723   0.583978  -0.038525   0.004463  -0.000103   0.000003
     9  H   -0.028228  -0.038525   0.588385  -0.008682  -0.000138  -0.000001
    10  C   -0.004480   0.004463  -0.008682   4.782066   0.501435  -0.029755
    11  C   -0.000169  -0.000103  -0.000138   0.501435   5.049468   0.497723
    12  C    0.000008   0.000003  -0.000001  -0.029755   0.497723   5.033848
    13  C   -0.000001  -0.000000  -0.000006  -0.035244  -0.021049   0.508595
    14  O    0.000000  -0.000000   0.000000   0.000348   0.002762  -0.054977
    15  H    0.000000  -0.000000   0.000000  -0.000034  -0.000253   0.005882
    16  C    0.000002  -0.000002   0.000237  -0.026294  -0.039141  -0.054402
    17  C    0.002475   0.000199   0.002344   0.541947  -0.052913  -0.031988
    18  H    0.000779  -0.000252   0.002911  -0.039934   0.006147   0.000209
    19  H   -0.000001  -0.000000   0.000005   0.003330   0.000361   0.003389
    20  H   -0.000000  -0.000000   0.000000   0.003673  -0.034729   0.355285
    21  H   -0.000007  -0.000016  -0.000022  -0.047948   0.353978  -0.043222
    22  C   -0.006522  -0.000181   0.004682  -0.051467  -0.012043   0.000100
    23  C   -0.000318   0.000925  -0.000063   0.001671   0.000408   0.000017
    24  H    0.000001  -0.000130  -0.000016   0.000228  -0.000096  -0.000000
    25  C   -0.000040  -0.000033   0.000001  -0.000046  -0.000027  -0.000000
    26  H    0.000001   0.000001  -0.000000   0.000002   0.000000   0.000000
    27  C   -0.000010  -0.000004   0.000000  -0.000026  -0.000005   0.000002
    28  O   -0.000000   0.000000   0.000000  -0.000000  -0.000000  -0.000000
    29  C   -0.000134  -0.000002  -0.000001   0.000458  -0.000013  -0.000024
    30  H    0.000007  -0.000000  -0.000000   0.000005   0.000003  -0.000000
    31  C    0.007554  -0.000149   0.000166  -0.005561  -0.002375  -0.000152
    32  H    0.001971   0.000009  -0.000080   0.007941   0.000266  -0.000032
              13         14         15         16         17         18
     1  C   -0.000040   0.000000   0.000000  -0.000112   0.003663   0.000246
     2  H   -0.000013  -0.000000   0.000000   0.000011  -0.000375  -0.000006
     3  H   -0.000002   0.000000   0.000000  -0.000026   0.000667  -0.000064
     4  H    0.000000  -0.000000   0.000000   0.000001  -0.000052  -0.000009
     5  C    0.000303  -0.000001  -0.000001   0.006446  -0.049210  -0.011504
     6  C    0.000007   0.000000   0.000000   0.000028  -0.011430   0.006451
     7  H   -0.000001   0.000000   0.000000   0.000002   0.002475   0.000779
     8  H   -0.000000  -0.000000  -0.000000  -0.000002   0.000199  -0.000252
     9  H   -0.000006   0.000000   0.000000   0.000237   0.002344   0.002911
    10  C   -0.035244   0.000348  -0.000034  -0.026294   0.541947  -0.039934
    11  C   -0.021049   0.002762  -0.000253  -0.039141  -0.052913   0.006147
    12  C    0.508595  -0.054977   0.005882  -0.054402  -0.031988   0.000209
    13  C    4.563347   0.274616  -0.036339   0.516880  -0.015868   0.003869
    14  O    0.274616   8.239418   0.249909  -0.056255   0.005157  -0.000061
    15  H   -0.036339   0.249909   0.318813  -0.001053   0.000709  -0.000021
    16  C    0.516880  -0.056255  -0.001053   5.130078   0.440736  -0.044172
    17  C   -0.015868   0.005157   0.000709   0.440736   5.050598   0.353132
    18  H    0.003869  -0.000061  -0.000021  -0.044172   0.353132   0.584057
    19  H   -0.038794  -0.004824   0.006460   0.355702  -0.034002  -0.005722
    20  H   -0.036298  -0.000608  -0.000190   0.004002   0.000121   0.000015
    21  H    0.004458  -0.000074   0.000008   0.000393   0.005629  -0.000155
    22  C    0.000087  -0.000000   0.000000  -0.000007  -0.001909   0.000057
    23  C    0.000001  -0.000000  -0.000000   0.000002  -0.000329   0.000003
    24  H   -0.000000   0.000000  -0.000000   0.000000   0.000002   0.000000
    25  C   -0.000000   0.000000   0.000000  -0.000000   0.000001   0.000000
    26  H   -0.000000   0.000000  -0.000000   0.000000  -0.000000  -0.000000
    27  C    0.000000  -0.000000   0.000000   0.000000   0.000000  -0.000000
    28  O    0.000000  -0.000000   0.000000   0.000000  -0.000000  -0.000000
    29  C   -0.000001   0.000000   0.000000  -0.000001   0.000056   0.000000
    30  H   -0.000000   0.000000  -0.000000  -0.000000   0.000000   0.000000
    31  C    0.000003   0.000000  -0.000000  -0.000142   0.001737  -0.000073
    32  H   -0.000107  -0.000000  -0.000000   0.000330   0.003029   0.000046
              19         20         21         22         23         24
     1  C    0.000002   0.000007  -0.002442  -0.038150  -0.014542   0.005528
     2  H    0.000000   0.000016   0.004139  -0.005692   0.002208   0.001325
     3  H    0.000000  -0.000001   0.000132   0.003661   0.000425  -0.000050
     4  H   -0.000000  -0.000000  -0.000165  -0.008557   0.002427   0.002459
     5  C   -0.000145  -0.000170  -0.009007   0.364233  -0.051093  -0.015100
     6  C    0.000005   0.000002   0.000687  -0.049971   0.001951   0.000332
     7  H   -0.000001  -0.000000  -0.000007  -0.006522  -0.000318   0.000001
     8  H   -0.000000  -0.000000  -0.000016  -0.000181   0.000925  -0.000130
     9  H    0.000005   0.000000  -0.000022   0.004682  -0.000063  -0.000016
    10  C    0.003330   0.003673  -0.047948  -0.051467   0.001671   0.000228
    11  C    0.000361  -0.034729   0.353978  -0.012043   0.000408  -0.000096
    12  C    0.003389   0.355285  -0.043222   0.000100   0.000017  -0.000000
    13  C   -0.038794  -0.036298   0.004458   0.000087   0.000001  -0.000000
    14  O   -0.004824  -0.000608  -0.000074  -0.000000  -0.000000   0.000000
    15  H    0.006460  -0.000190   0.000008   0.000000  -0.000000  -0.000000
    16  C    0.355702   0.004002   0.000393  -0.000007   0.000002   0.000000
    17  C   -0.034002   0.000121   0.005629  -0.001909  -0.000329   0.000002
    18  H   -0.005722   0.000015  -0.000155   0.000057   0.000003   0.000000
    19  H    0.554688  -0.000075   0.000014   0.000000  -0.000000  -0.000000
    20  H   -0.000075   0.560364  -0.005296  -0.000014  -0.000001  -0.000000
    21  H    0.000014  -0.005296   0.585692   0.009252   0.002102  -0.000046
    22  C    0.000000  -0.000014   0.009252   4.798474   0.540887  -0.042819
    23  C   -0.000000  -0.000001   0.002102   0.540887   5.137719   0.344570
    24  H   -0.000000  -0.000000  -0.000046  -0.042819   0.344570   0.623387
    25  C    0.000000   0.000000  -0.000075  -0.035551   0.380514  -0.038871
    26  H   -0.000000  -0.000000  -0.000002   0.005251  -0.044871  -0.008085
    27  C    0.000000  -0.000000  -0.000012  -0.036342   0.000534   0.003446
    28  O    0.000000   0.000000   0.000000   0.000344   0.007779  -0.000101
    29  C    0.000000  -0.000000  -0.000167  -0.037825  -0.033008   0.000241
    30  H   -0.000000   0.000000  -0.000001   0.005031  -0.000215   0.000025
    31  C    0.000000   0.000000   0.000661   0.525762  -0.067255   0.006281
    32  H    0.000000   0.000002  -0.000063  -0.050917   0.006714  -0.000189
              25         26         27         28         29         30
     1  C    0.000151   0.000011  -0.000009   0.000000  -0.000140   0.000002
     2  H   -0.000040  -0.000002  -0.000001   0.000000   0.000002   0.000000
     3  H   -0.000006  -0.000000   0.000000  -0.000000   0.000002  -0.000000
     4  H    0.000336   0.000007  -0.000006  -0.000000  -0.000001   0.000000
     5  C    0.006834  -0.000225   0.000480   0.000000   0.005484  -0.000169
     6  C   -0.000044   0.000001   0.000016  -0.000000   0.000072  -0.000000
     7  H   -0.000040   0.000001  -0.000010  -0.000000  -0.000134   0.000007
     8  H   -0.000033   0.000001  -0.000004   0.000000  -0.000002  -0.000000
     9  H    0.000001  -0.000000   0.000000   0.000000  -0.000001  -0.000000
    10  C   -0.000046   0.000002  -0.000026  -0.000000   0.000458   0.000005
    11  C   -0.000027   0.000000  -0.000005  -0.000000  -0.000013   0.000003
    12  C   -0.000000   0.000000   0.000002  -0.000000  -0.000024  -0.000000
    13  C   -0.000000  -0.000000   0.000000   0.000000  -0.000001  -0.000000
    14  O    0.000000   0.000000  -0.000000  -0.000000   0.000000   0.000000
    15  H    0.000000  -0.000000   0.000000   0.000000   0.000000  -0.000000
    16  C   -0.000000   0.000000   0.000000   0.000000  -0.000001  -0.000000
    17  C    0.000001  -0.000000   0.000000  -0.000000   0.000056   0.000000
    18  H    0.000000  -0.000000  -0.000000  -0.000000   0.000000   0.000000
    19  H    0.000000  -0.000000   0.000000   0.000000   0.000000  -0.000000
    20  H    0.000000  -0.000000  -0.000000   0.000000  -0.000000   0.000000
    21  H   -0.000075  -0.000002  -0.000012   0.000000  -0.000167  -0.000001
    22  C   -0.035551   0.005251  -0.036342   0.000344  -0.037825   0.005031
    23  C    0.380514  -0.044871   0.000534   0.007779  -0.033008  -0.000215
    24  H   -0.038871  -0.008085   0.003446  -0.000101   0.000241   0.000025
    25  C    5.369204   0.341548   0.443245  -0.078648  -0.071809   0.009421
    26  H    0.341548   0.652567  -0.043502  -0.000543   0.007884  -0.000147
    27  C    0.443245  -0.043502   4.390187   0.425450   0.461250  -0.044483
    28  O   -0.078648  -0.000543   0.425450   8.582975  -0.079537   0.000764
    29  C   -0.071809   0.007884   0.461250  -0.079537   5.289080   0.338620
    30  H    0.009421  -0.000147  -0.044483   0.000764   0.338620   0.650123
    31  C   -0.043766   0.000339  -0.003118   0.008171   0.402849  -0.045527
    32  H    0.000133   0.000026   0.003816  -0.000128  -0.037035  -0.007436
              31         32
     1  C    0.006804   0.000287
     2  H   -0.000113  -0.000006
     3  H   -0.000077  -0.000008
     4  H   -0.000358  -0.000006
     5  C   -0.062415  -0.011822
     6  C   -0.010291  -0.000204
     7  H    0.007554   0.001971
     8  H   -0.000149   0.000009
     9  H    0.000166  -0.000080
    10  C   -0.005561   0.007941
    11  C   -0.002375   0.000266
    12  C   -0.000152  -0.000032
    13  C    0.000003  -0.000107
    14  O    0.000000  -0.000000
    15  H   -0.000000  -0.000000
    16  C   -0.000142   0.000330
    17  C    0.001737   0.003029
    18  H   -0.000073   0.000046
    19  H    0.000000   0.000000
    20  H    0.000000   0.000002
    21  H    0.000661  -0.000063
    22  C    0.525762  -0.050917
    23  C   -0.067255   0.006714
    24  H    0.006281  -0.000189
    25  C   -0.043766   0.000133
    26  H    0.000339   0.000026
    27  C   -0.003118   0.003816
    28  O    0.008171  -0.000128
    29  C    0.402849  -0.037035
    30  H   -0.045527  -0.007436
    31  C    5.154788   0.340659
    32  H    0.340659   0.632545
 Mulliken charges:
               1
     1  C   -0.469161
     2  H    0.137727
     3  H    0.142966
     4  H    0.148802
     5  C   -0.031692
     6  C   -0.468131
     7  H    0.134726
     8  H    0.141648
     9  H    0.144881
    10  C    0.144485
    11  C   -0.195605
    12  C   -0.196764
    13  C    0.311596
    14  O   -0.655411
    15  H    0.456111
    16  C   -0.233242
    17  C   -0.214128
    18  H    0.144052
    19  H    0.159606
    20  H    0.153896
    21  H    0.141574
    22  C    0.120148
    23  C   -0.219162
    24  H    0.117677
    25  C   -0.282433
    26  H    0.089737
    27  C    0.399093
    28  O   -0.866527
    29  C   -0.246300
    30  H    0.093977
    31  C   -0.214403
    32  H    0.110255
 Sum of Mulliken charges =  -1.00000
 Mulliken charges with hydrogens summed into heavy atoms:
               1
     1  C   -0.039666
     5  C   -0.031692
     6  C   -0.046876
    10  C    0.144485
    11  C   -0.054031
    12  C   -0.042868
    13  C    0.311596
    14  O   -0.199300
    16  C   -0.073635
    17  C   -0.070076
    22  C    0.120148
    23  C   -0.101485
    25  C   -0.192696
    27  C    0.399093
    28  O   -0.866527
    29  C   -0.152323
    31  C   -0.104147
 Electronic spatial extent (au):  <R**2>=           4634.5964
 Charge=             -1.0000 electrons
 Dipole moment (field-independent basis, Debye):
    X=            -18.5069    Y=              7.8306    Z=             -1.1846  Tot=             20.1302
 Quadrupole moment (field-independent basis, Debye-Ang):
   XX=           -170.1271   YY=           -118.5578   ZZ=            -99.3382
   XY=             33.1939   XZ=             12.8639   YZ=              1.6803
 Traceless Quadrupole moment (field-independent basis, Debye-Ang):
   XX=            -40.7861   YY=             10.7832   ZZ=             30.0028
   XY=             33.1939   XZ=             12.8639   YZ=              1.6803
 Octapole moment (field-independent basis, Debye-Ang**2):
  XXX=           -412.1118  YYY=             31.5319  ZZZ=              1.2709  XYY=            -67.7969
  XXY=            140.8068  XXZ=            -36.9138  XZZ=            -19.5540  YZZ=             -7.5076
  YYZ=             -3.5248  XYZ=             -8.9617
 Hexadecapole moment (field-independent basis, Debye-Ang**3):
 XXXX=          -5370.9526 YYYY=          -1430.0642 ZZZZ=           -617.7990 XXXY=            783.8442
 XXXZ=            286.3583 YYYX=            151.8828 YYYZ=              7.6448 ZZZX=              8.7998
 ZZZY=             -8.0455 XXYY=          -1256.5841 XXZZ=           -776.1775 YYZZ=           -321.4790
[...]
 FoFCou: FMM=F IPFlag=           0 FMFlag=      100000 FMFlg1=           0
         NFxFlg=           0 DoJE=T BraDBF=F KetDBF=T FulRan=T
         wScrn=  0.000000 ICntrl=       500 IOpCl=  0 I1Cent=   200000004 NGrid=           0
         NMat0=    1 NMatS0=      1 NMatT0=    0 NMatD0=    1 NMtDS0=    0 NMtDT0=    0
 Petite list used in FoFCou.
 Harris En= -727.770545246057    
 JPrj=0 DoOrth=F DoCkMO=F.
 Leave Link  401 at Sun Jul 11 16:21:03 2021, MaxMem=   262144000 cpu:              12.2 elap:               3.1
 (Enter /prod/apps/gaussian/g16b1/l502.exe)
 Integral symmetry usage will be decided dynamically.
 Closed shell SCF:
 Using DIIS extrapolation, IDIIS=  1040.
 NGot=   262144000 LenX=   261508168 LenY=   261194008
 Requested convergence on RMS density matrix=1.00D-08 within 128 cycles.
 Requested convergence on MAX density matrix=1.00D-06.
 Requested convergence on             energy=1.00D-06.
 No special actions if energy rises.
 Fock matrices will be formed incrementally for  20 cycles.

 Cycle   1  Pass 1  IDiag  1:
 FoFJK:  IHMeth= 1 ICntrl=       0 DoSepK=F KAlg= 0 I1Cent=           0 FoldK=F
 IRaf= 950000000 NMat=       1 IRICut=       1 DoRegI=T DoRafI=F ISym2E= 0 IDoP0=0 IntGTp=1.
 FoFCou: FMM=F IPFlag=           0 FMFlag=      100000 FMFlg1=           0
         NFxFlg=           0 DoJE=F BraDBF=F KetDBF=F FulRan=T
         wScrn=  0.000000 ICntrl=         0 IOpCl=  0 I1Cent=           0 NGrid=           0
         NMat0=    1 NMatS0=      1 NMatT0=    0 NMatD0=    1 NMtDS0=    0 NMtDT0=    0
 Symmetry not used in FoFCou.
 E= -725.789031200677    
 DIIS: error= 1.75D-02 at cycle   1 NSaved=   1.
 NSaved= 1 IEnMin= 1 EnMin= -725.789031200677     IErMin= 1 ErrMin= 1.75D-02
 ErrMax= 1.75D-02  0.00D+00 EMaxC= 1.00D-01 BMatC= 9.01D-01 BMatP= 9.01D-01
 IDIUse=3 WtCom= 8.25D-01 WtEn= 1.75D-01
 Coeff-Com:  0.100D+01
 Coeff-En:   0.100D+01
 Coeff:      0.100D+01
 Gap=     0.287 Goal=   None    Shift=    0.000
 GapD=    0.287 DampG=1.000 DampE=0.500 DampFc=0.5000 IDamp=-1.
 Damping current iteration by 5.00D-01
 RMSDP=8.81D-01 MaxDP=1.79D+02              OVMax= 9.99D-01

 Cycle   2  Pass 1  IDiag  1:
 RMSU=  4.39D-01    CP:  1.20D+00
 E= -726.011347566287     Delta-E=       -0.222316365610 Rises=F Damp=T
 DIIS: error= 1.08D-02 at cycle   2 NSaved=   2.
 NSaved= 2 IEnMin= 2 EnMin= -726.011347566287     IErMin= 2 ErrMin= 1.08D-02
 ErrMax= 1.08D-02  0.00D+00 EMaxC= 1.00D-01 BMatC= 1.57D-01 BMatP= 9.01D-01
 IDIUse=3 WtCom= 8.92D-01 WtEn= 1.08D-01
 Coeff-Com: -0.267D+00 0.127D+01
 Coeff-En:   0.103D+00 0.897D+00
 Coeff:     -0.227D+00 0.123D+01
 Gap=    -0.299 Goal=   None    Shift=    0.000
 RMSDP=4.51D-01 MaxDP=9.29D+01 DE=-2.22D-01 OVMax= 8.63D-01

 Cycle   3  Pass 1  IDiag  1:
 RMSU=  3.47D-02    CP:  5.08D-01  7.86D-03
 E= -726.446023266391     Delta-E=       -0.434675700104 Rises=F Damp=F
 DIIS: error= 8.20D-03 at cycle   3 NSaved=   3.
 NSaved= 3 IEnMin= 3 EnMin= -726.446023266391     IErMin= 3 ErrMin= 8.20D-03
 ErrMax= 8.20D-03  0.00D+00 EMaxC= 1.00D-01 BMatC= 9.83D-02 BMatP= 1.57D-01
 IDIUse=3 WtCom= 9.18D-01 WtEn= 8.20D-02
 Coeff-Com: -0.283D+00 0.667D+00 0.615D+00
 Coeff-En:   0.000D+00 0.000D+00 0.100D+01
 Coeff:     -0.259D+00 0.613D+00 0.647D+00
 Gap=     0.229 Goal=   None    Shift=    0.000
 RMSDP=4.92D-03 MaxDP=2.64D-01 DE=-4.35D-01 OVMax= 7.66D-02

 Cycle   4  Pass 1  IDiag  1:
 RMSU=  4.70D-03    CP:  5.06D-01  6.74D-03  9.62D-01
 E= -726.552998446142     Delta-E=       -0.106975179751 Rises=F Damp=F
 DIIS: error= 2.69D-03 at cycle   4 NSaved=   4.
 NSaved= 4 IEnMin= 4 EnMin= -726.552998446142     IErMin= 4 ErrMin= 2.69D-03
 ErrMax= 2.69D-03  0.00D+00 EMaxC= 1.00D-01 BMatC= 8.87D-03 BMatP= 9.83D-02
 IDIUse=3 WtCom= 9.73D-01 WtEn= 2.69D-02
 Coeff-Com: -0.132D+00 0.243D+00 0.410D-01 0.848D+00
 Coeff-En:   0.000D+00 0.000D+00 0.000D+00 0.100D+01
 Coeff:     -0.128D+00 0.236D+00 0.399D-01 0.852D+00
 Gap=     0.172 Goal=   None    Shift=    0.000
 RMSDP=2.30D-03 MaxDP=1.67D-01 DE=-1.07D-01 OVMax= 1.88D-02

 Cycle   5  Pass 1  IDiag  1:
 RMSU=  1.89D-03    CP:  5.04D-01  6.64D-03  9.39D-01  1.22D+00
 E= -726.565527502997     Delta-E=       -0.012529056855 Rises=F Damp=F
 DIIS: error= 1.15D-03 at cycle   5 NSaved=   5.
 NSaved= 5 IEnMin= 5 EnMin= -726.565527502997     IErMin= 5 ErrMin= 1.15D-03
 ErrMax= 1.15D-03  0.00D+00 EMaxC= 1.00D-01 BMatC= 2.21D-03 BMatP= 8.87D-03
 IDIUse=3 WtCom= 9.89D-01 WtEn= 1.15D-02
 Coeff-Com: -0.242D-01 0.547D-01-0.941D-01-0.497D-01 0.111D+01
 Coeff-En:   0.000D+00 0.000D+00 0.000D+00 0.000D+00 0.100D+01
 Coeff:     -0.240D-01 0.541D-01-0.930D-01-0.491D-01 0.111D+01
 Gap=     0.177 Goal=   None    Shift=    0.000
 RMSDP=1.28D-03 MaxDP=7.33D-02 DE=-1.25D-02 OVMax= 1.85D-02

 Cycle   6  Pass 1  IDiag  1:
 RMSU=  8.15D-04    CP:  5.06D-01  6.59D-03  9.33D-01  1.30D+00  1.46D+00
 E= -726.569361146576     Delta-E=       -0.003833643579 Rises=F Damp=F
 DIIS: error= 4.15D-04 at cycle   6 NSaved=   6.
 NSaved= 6 IEnMin= 6 EnMin= -726.569361146576     IErMin= 6 ErrMin= 4.15D-04
 ErrMax= 4.15D-04  0.00D+00 EMaxC= 1.00D-01 BMatC= 2.36D-04 BMatP= 2.21D-03
 IDIUse=3 WtCom= 9.96D-01 WtEn= 4.15D-03
 Coeff-Com:  0.124D-01-0.144D-01-0.289D-01-0.212D+00 0.209D+00 0.103D+01
 Coeff-En:   0.000D+00 0.000D+00 0.000D+00 0.000D+00 0.000D+00 0.100D+01
 Coeff:      0.123D-01-0.143D-01-0.287D-01-0.211D+00 0.208D+00 0.103D+01
 Gap=     0.181 Goal=   None    Shift=    0.000
 RMSDP=6.61D-04 MaxDP=3.99D-02 DE=-3.83D-03 OVMax= 9.66D-03

 Cycle   7  Pass 1  IDiag  1:
 RMSU=  3.04D-04    CP:  5.06D-01  6.62D-03  9.29D-01  1.32D+00  1.70D+00
                    CP:  1.40D+00
 E= -726.569940048159     Delta-E=       -0.000578901583 Rises=F Damp=F
 DIIS: error= 1.44D-04 at cycle   7 NSaved=   7.
 NSaved= 7 IEnMin= 7 EnMin= -726.569940048159     IErMin= 7 ErrMin= 1.44D-04
 ErrMax= 1.44D-04  0.00D+00 EMaxC= 1.00D-01 BMatC= 2.17D-05 BMatP= 2.36D-04
 IDIUse=3 WtCom= 9.99D-01 WtEn= 1.44D-03
 Coeff-Com: -0.198D-02 0.218D-02 0.217D-01 0.385D-01-0.168D+00 0.134D-01
 Coeff-Com:  0.109D+01
 Coeff-En:   0.000D+00 0.000D+00 0.000D+00 0.000D+00 0.000D+00 0.000D+00
 Coeff-En:   0.100D+01
 Coeff:     -0.198D-02 0.218D-02 0.216D-01 0.384D-01-0.167D+00 0.134D-01
 Coeff:      0.109D+01
 Gap=     0.183 Goal=   None    Shift=    0.000
 RMSDP=2.06D-04 MaxDP=1.91D-02 DE=-5.79D-04 OVMax= 3.45D-03

 Cycle   8  Pass 1  IDiag  1:
 RMSU=  1.43D-04    CP:  5.05D-01  6.65D-03  9.30D-01  1.30D+00  1.66D+00
                    CP:  1.45D+00  1.22D+00
 E= -726.570002227437     Delta-E=       -0.000062179277 Rises=F Damp=F
 DIIS: error= 6.42D-05 at cycle   8 NSaved=   8.
 NSaved= 8 IEnMin= 8 EnMin= -726.570002227437     IErMin= 8 ErrMin= 6.42D-05
 ErrMax= 6.42D-05  0.00D+00 EMaxC= 1.00D-01 BMatC= 4.29D-06 BMatP= 2.17D-05
 IDIUse=1 WtCom= 1.00D+00 WtEn= 0.00D+00
 Coeff-Com: -0.232D-02 0.314D-02 0.441D-02 0.320D-01-0.374D-01-0.157D+00
 Coeff-Com:  0.986D-01 0.106D+01
 Coeff:     -0.232D-02 0.314D-02 0.441D-02 0.320D-01-0.374D-01-0.157D+00
 Coeff:      0.986D-01 0.106D+01
 Gap=     0.183 Goal=   None    Shift=    0.000
 RMSDP=9.43D-05 MaxDP=6.18D-03 DE=-6.22D-05 OVMax= 2.26D-03

 Cycle   9  Pass 1  IDiag  1:
 RMSU=  4.75D-05    CP:  5.05D-01  6.65D-03  9.30D-01  1.30D+00  1.65D+00
                    CP:  1.44D+00  1.31D+00  1.50D+00
 E= -726.570018253802     Delta-E=       -0.000016026365 Rises=F Damp=F
 DIIS: error= 3.80D-05 at cycle   9 NSaved=   9.
 NSaved= 9 IEnMin= 9 EnMin= -726.570018253802     IErMin= 9 ErrMin= 3.80D-05
 ErrMax= 3.80D-05  0.00D+00 EMaxC= 1.00D-01 BMatC= 1.24D-06 BMatP= 4.29D-06
 IDIUse=1 WtCom= 1.00D+00 WtEn= 0.00D+00
 Coeff-Com:  0.153D-04 0.178D-03-0.371D-02-0.429D-02 0.211D-01-0.365D-01
 Coeff-Com: -0.170D+00 0.166D+00 0.103D+01
 Coeff:      0.153D-04 0.178D-03-0.371D-02-0.429D-02 0.211D-01-0.365D-01
 Coeff:     -0.170D+00 0.166D+00 0.103D+01
 Gap=     0.183 Goal=   None    Shift=    0.000
 RMSDP=5.24D-05 MaxDP=3.58D-03 DE=-1.60D-05 OVMax= 1.28D-03

 Cycle  10  Pass 1  IDiag  1:
 RMSU=  2.34D-05    CP:  5.05D-01  6.65D-03  9.29D-01  1.31D+00  1.66D+00
                    CP:  1.44D+00  1.33D+00  1.74D+00  1.40D+00
 E= -726.570022963753     Delta-E=       -0.000004709951 Rises=F Damp=F
 DIIS: error= 1.48D-05 at cycle  10 NSaved=  10.
 NSaved=10 IEnMin=10 EnMin= -726.570022963753     IErMin=10 ErrMin= 1.48D-05
 ErrMax= 1.48D-05  0.00D+00 EMaxC= 1.00D-01 BMatC= 1.74D-07 BMatP= 1.24D-06
 IDIUse=1 WtCom= 1.00D+00 WtEn= 0.00D+00
 Coeff-Com:  0.459D-03-0.619D-03-0.963D-03-0.648D-02 0.850D-02 0.269D-01
 Coeff-Com: -0.236D-01-0.219D+00 0.973D-01 0.112D+01
 Coeff:      0.459D-03-0.619D-03-0.963D-03-0.648D-02 0.850D-02 0.269D-01
 Coeff:     -0.236D-01-0.219D+00 0.973D-01 0.112D+01
 Gap=     0.183 Goal=   None    Shift=    0.000
 RMSDP=2.46D-05 MaxDP=1.87D-03 DE=-4.71D-06 OVMax= 7.49D-04

 Cycle  11  Pass 1  IDiag  1:
 RMSU=  8.73D-06    CP:  5.05D-01  6.65D-03  9.29D-01  1.31D+00  1.66D+00
                    CP:  1.44D+00  1.33D+00  1.84D+00  1.66D+00  1.29D+00
 E= -726.570023814222     Delta-E=       -0.000000850469 Rises=F Damp=F
 DIIS: error= 7.32D-06 at cycle  11 NSaved=  11.
 NSaved=11 IEnMin=11 EnMin= -726.570023814222     IErMin=11 ErrMin= 7.32D-06
 ErrMax= 7.32D-06  0.00D+00 EMaxC= 1.00D-01 BMatC= 5.34D-08 BMatP= 1.74D-07
 IDIUse=1 WtCom= 1.00D+00 WtEn= 0.00D+00
 Coeff-Com:  0.170D-03-0.329D-03 0.651D-03-0.406D-03-0.170D-02 0.120D-01
 Coeff-Com:  0.260D-01-0.787D-01-0.158D+00 0.205D+00 0.995D+00
 Coeff:      0.170D-03-0.329D-03 0.651D-03-0.406D-03-0.170D-02 0.120D-01
 Coeff:      0.260D-01-0.787D-01-0.158D+00 0.205D+00 0.995D+00
 Gap=     0.183 Goal=   None    Shift=    0.000
 RMSDP=7.87D-06 MaxDP=3.64D-04 DE=-8.50D-07 OVMax= 2.59D-04

 Cycle  12  Pass 1  IDiag  1:
 RMSU=  4.11D-06    CP:  5.05D-01  6.65D-03  9.29D-01  1.31D+00  1.66D+00
                    CP:  1.44D+00  1.33D+00  1.87D+00  1.71D+00  1.45D+00
                    CP:  1.31D+00
 E= -726.570023974046     Delta-E=       -0.000000159824 Rises=F Damp=F
 DIIS: error= 2.68D-06 at cycle  12 NSaved=  12.
 NSaved=12 IEnMin=12 EnMin= -726.570023974046     IErMin=12 ErrMin= 2.68D-06
 ErrMax= 2.68D-06  0.00D+00 EMaxC= 1.00D-01 BMatC= 9.76D-09 BMatP= 5.34D-08
 IDIUse=1 WtCom= 1.00D+00 WtEn= 0.00D+00
 Coeff-Com:  0.610D-05-0.593D-04 0.207D-03 0.767D-03-0.459D-03-0.294D-02
 Coeff-Com:  0.495D-02 0.283D-01-0.302D-01-0.190D+00 0.799D-01 0.111D+01
 Coeff:      0.610D-05-0.593D-04 0.207D-03 0.767D-03-0.459D-03-0.294D-02
 Coeff:      0.495D-02 0.283D-01-0.302D-01-0.190D+00 0.799D-01 0.111D+01
 Gap=     0.183 Goal=   None    Shift=    0.000
 RMSDP=4.15D-06 MaxDP=2.21D-04 DE=-1.60D-07 OVMax= 1.25D-04

 Cycle  13  Pass 1  IDiag  1:
 RMSU=  1.74D-06    CP:  5.05D-01  6.65D-03  9.29D-01  1.31D+00  1.66D+00
                    CP:  1.44D+00  1.33D+00  1.87D+00  1.71D+00  1.50D+00
                    CP:  1.52D+00  1.40D+00
 E= -726.570024007597     Delta-E=       -0.000000033552 Rises=F Damp=F
 DIIS: error= 1.18D-06 at cycle  13 NSaved=  13.
 NSaved=13 IEnMin=13 EnMin= -726.570024007597     IErMin=13 ErrMin= 1.18D-06
 ErrMax= 1.18D-06  0.00D+00 EMaxC= 1.00D-01 BMatC= 1.54D-09 BMatP= 9.76D-09
 IDIUse=1 WtCom= 1.00D+00 WtEn= 0.00D+00
 Coeff-Com: -0.590D-05 0.304D-05-0.947D-04 0.680D-04 0.546D-03-0.229D-02
 Coeff-Com: -0.338D-02 0.179D-01 0.208D-01-0.672D-01-0.181D+00 0.236D+00
 Coeff-Com:  0.978D+00
 Coeff:     -0.590D-05 0.304D-05-0.947D-04 0.680D-04 0.546D-03-0.229D-02
 Coeff:     -0.338D-02 0.179D-01 0.208D-01-0.672D-01-0.181D+00 0.236D+00
 Coeff:      0.978D+00
 Gap=     0.183 Goal=   None    Shift=    0.000
 RMSDP=1.49D-06 MaxDP=8.30D-05 DE=-3.36D-08 OVMax= 3.76D-05

 Cycle  14  Pass 1  IDiag  1:
 RMSU=  7.44D-07    CP:  5.05D-01  6.65D-03  9.29D-01  1.31D+00  1.66D+00
                    CP:  1.45D+00  1.33D+00  1.88D+00  1.71D+00  1.50D+00
                    CP:  1.57D+00  1.57D+00  1.31D+00
 E= -726.570024011499     Delta-E=       -0.000000003902 Rises=F Damp=F
 DIIS: error= 4.00D-07 at cycle  14 NSaved=  14.
 NSaved=14 IEnMin=14 EnMin= -726.570024011499     IErMin=14 ErrMin= 4.00D-07
 ErrMax= 4.00D-07  0.00D+00 EMaxC= 1.00D-01 BMatC= 1.46D-10 BMatP= 1.54D-09
 IDIUse=1 WtCom= 1.00D+00 WtEn= 0.00D+00
 Coeff-Com:  0.696D-05-0.550D-05-0.567D-04-0.197D-03 0.265D-03 0.252D-03
 Coeff-Com: -0.145D-02-0.298D-02 0.689D-02 0.288D-01-0.411D-01-0.139D+00
 Coeff-Com:  0.139D+00 0.101D+01
 Coeff:      0.696D-05-0.550D-05-0.567D-04-0.197D-03 0.265D-03 0.252D-03
 Coeff:     -0.145D-02-0.298D-02 0.689D-02 0.288D-01-0.411D-01-0.139D+00
 Coeff:      0.139D+00 0.101D+01
 Gap=     0.183 Goal=   None    Shift=    0.000
 RMSDP=5.01D-07 MaxDP=4.91D-05 DE=-3.90D-09 OVMax= 1.52D-05

 Cycle  15  Pass 1  IDiag  1:
 RMSU=  3.54D-07    CP:  5.05D-01  6.65D-03  9.29D-01  1.31D+00  1.66D+00
                    CP:  1.44D+00  1.33D+00  1.88D+00  1.71D+00  1.50D+00
                    CP:  1.57D+00  1.57D+00  1.43D+00  1.27D+00
 E= -726.570024011930     Delta-E=       -0.000000000431 Rises=F Damp=F
 DIIS: error= 1.46D-07 at cycle  15 NSaved=  15.
 NSaved=15 IEnMin=15 EnMin= -726.570024011930     IErMin=15 ErrMin= 1.46D-07
 ErrMax= 1.46D-07  0.00D+00 EMaxC= 1.00D-01 BMatC= 2.09D-11 BMatP= 1.46D-10
 IDIUse=1 WtCom= 1.00D+00 WtEn= 0.00D+00
 Coeff-Com:  0.205D-05-0.316D-05 0.132D-04-0.165D-04-0.348D-04 0.273D-03
 Coeff-Com:  0.416D-03-0.220D-02-0.312D-02 0.106D-01 0.190D-01-0.282D-01
 Coeff-Com: -0.131D+00-0.331D-02 0.114D+01
 Coeff:      0.205D-05-0.316D-05 0.132D-04-0.165D-04-0.348D-04 0.273D-03
 Coeff:      0.416D-03-0.220D-02-0.312D-02 0.106D-01 0.190D-01-0.282D-01
 Coeff:     -0.131D+00-0.331D-02 0.114D+01
 Gap=     0.183 Goal=   None    Shift=    0.000
 RMSDP=2.60D-07 MaxDP=1.98D-05 DE=-4.31D-10 OVMax= 4.12D-06

 Cycle  16  Pass 1  IDiag  1:
 RMSU=  1.06D-07    CP:  5.05D-01  6.65D-03  9.29D-01  1.31D+00  1.66D+00
                    CP:  1.44D+00  1.33D+00  1.88D+00  1.71D+00  1.50D+00
                    CP:  1.57D+00  1.55D+00  1.47D+00  1.36D+00  1.38D+00
 E= -726.570024012024     Delta-E=       -0.000000000094 Rises=F Damp=F
 DIIS: error= 4.19D-08 at cycle  16 NSaved=  16.
 NSaved=16 IEnMin=16 EnMin= -726.570024012024     IErMin=16 ErrMin= 4.19D-08
 ErrMax= 4.19D-08  0.00D+00 EMaxC= 1.00D-01 BMatC= 2.69D-12 BMatP= 2.09D-11
 IDIUse=1 WtCom= 1.00D+00 WtEn= 0.00D+00
 Coeff-Com: -0.207D-06-0.506D-06 0.834D-05 0.192D-04-0.189D-04-0.240D-04
 Coeff-Com:  0.177D-03 0.208D-03-0.115D-02-0.214D-02 0.432D-02 0.152D-01
 Coeff-Com: -0.220D-01-0.117D+00 0.474D-01 0.108D+01
 Coeff:     -0.207D-06-0.506D-06 0.834D-05 0.192D-04-0.189D-04-0.240D-04
 Coeff:      0.177D-03 0.208D-03-0.115D-02-0.214D-02 0.432D-02 0.152D-01
 Coeff:     -0.220D-01-0.117D+00 0.474D-01 0.108D+01
 Gap=     0.183 Goal=   None    Shift=    0.000
 RMSDP=8.67D-08 MaxDP=4.00D-06 DE=-9.37D-11 OVMax= 1.31D-06

 Cycle  17  Pass 1  IDiag  1:
 RMSU=  3.33D-08    CP:  5.05D-01  6.65D-03  9.29D-01  1.31D+00  1.66D+00
                    CP:  1.44D+00  1.33D+00  1.88D+00  1.71D+00  1.50D+00
                    CP:  1.57D+00  1.55D+00  1.47D+00  1.36D+00  1.52D+00
                    CP:  1.29D+00
 E= -726.570024012037     Delta-E=       -0.000000000013 Rises=F Damp=F
 DIIS: error= 1.12D-08 at cycle  17 NSaved=  17.
 NSaved=17 IEnMin=17 EnMin= -726.570024012037     IErMin=17 ErrMin= 1.12D-08
 ErrMax= 1.12D-08  0.00D+00 EMaxC= 1.00D-01 BMatC= 2.53D-13 BMatP= 2.69D-12
 IDIUse=1 WtCom= 1.00D+00 WtEn= 0.00D+00
 Coeff-Com: -0.236D-06 0.250D-06-0.628D-06 0.305D-05 0.556D-05-0.375D-04
 Coeff-Com: -0.296D-04 0.286D-03 0.248D-03-0.129D-02-0.223D-02 0.488D-02
 Coeff-Com:  0.148D-01-0.971D-02-0.135D+00 0.674D-01 0.106D+01
 Coeff:     -0.236D-06 0.250D-06-0.628D-06 0.305D-05 0.556D-05-0.375D-04
 Coeff:     -0.296D-04 0.286D-03 0.248D-03-0.129D-02-0.223D-02 0.488D-02
 Coeff:      0.148D-01-0.971D-02-0.135D+00 0.674D-01 0.106D+01
 Gap=     0.183 Goal=   None    Shift=    0.000
 RMSDP=2.26D-08 MaxDP=1.60D-06 DE=-1.32D-11 OVMax= 4.57D-07

 Cycle  18  Pass 1  IDiag  1:
 RMSU=  1.32D-08    CP:  5.05D-01  6.65D-03  9.29D-01  1.31D+00  1.66D+00
                    CP:  1.44D+00  1.33D+00  1.88D+00  1.71D+00  1.50D+00
                    CP:  1.57D+00  1.55D+00  1.47D+00  1.36D+00  1.54D+00
                    CP:  1.37D+00  1.32D+00
 E= -726.570024012005     Delta-E=        0.000000000032 Rises=F Damp=F
 DIIS: error= 5.03D-09 at cycle  18 NSaved=  18.
 NSaved=18 IEnMin=17 EnMin= -726.570024012037     IErMin=18 ErrMin= 5.03D-09
 ErrMax= 5.03D-09  0.00D+00 EMaxC= 1.00D-01 BMatC= 3.24D-14 BMatP= 2.53D-13
 IDIUse=1 WtCom= 1.00D+00 WtEn= 0.00D+00
 Coeff-Com: -0.101D-07 0.868D-07-0.812D-06-0.117D-05 0.130D-05-0.155D-05
 Coeff-Com: -0.140D-04-0.264D-05 0.925D-04 0.152D-03-0.453D-03-0.131D-02
 Coeff-Com:  0.263D-02 0.110D-01-0.697D-02-0.110D+00 0.529D-01 0.105D+01
 Coeff:     -0.101D-07 0.868D-07-0.812D-06-0.117D-05 0.130D-05-0.155D-05
 Coeff:     -0.140D-04-0.264D-05 0.925D-04 0.152D-03-0.453D-03-0.131D-02
 Coeff:      0.263D-02 0.110D-01-0.697D-02-0.110D+00 0.529D-01 0.105D+01
 Gap=     0.183 Goal=   None    Shift=    0.000
 RMSDP=1.02D-08 MaxDP=4.30D-07 DE= 3.23D-11 OVMax= 2.23D-07

 Cycle  19  Pass 1  IDiag  1:
 RMSU=  4.01D-09    CP:  5.05D-01  6.65D-03  9.29D-01  1.31D+00  1.66D+00
                    CP:  1.44D+00  1.33D+00  1.88D+00  1.71D+00  1.50D+00
                    CP:  1.57D+00  1.55D+00  1.47D+00  1.36D+00  1.53D+00
                    CP:  1.36D+00  1.41D+00  1.42D+00
 E= -726.570024012048     Delta-E=       -0.000000000043 Rises=F Damp=F
 DIIS: error= 2.60D-09 at cycle  19 NSaved=  19.
 NSaved=19 IEnMin=19 EnMin= -726.570024012048     IErMin=19 ErrMin= 2.60D-09
 ErrMax= 2.60D-09  0.00D+00 EMaxC= 1.00D-01 BMatC= 8.91D-15 BMatP= 3.24D-14
 IDIUse=1 WtCom= 1.00D+00 WtEn= 0.00D+00
 Coeff-Com:  0.514D-07-0.483D-07 0.350D-07-0.683D-06-0.136D-05 0.750D-05
 Coeff-Com:  0.552D-05-0.582D-04-0.472D-04 0.260D-03 0.484D-03-0.118D-02
 Coeff-Com: -0.280D-02 0.297D-02 0.274D-01-0.293D-01-0.205D+00 0.914D-01
 Coeff-Com:  0.112D+01
 Coeff:      0.514D-07-0.483D-07 0.350D-07-0.683D-06-0.136D-05 0.750D-05
 Coeff:      0.552D-05-0.582D-04-0.472D-04 0.260D-03 0.484D-03-0.118D-02
 Coeff:     -0.280D-02 0.297D-02 0.274D-01-0.293D-01-0.205D+00 0.914D-01
 Coeff:      0.112D+01
 Gap=     0.183 Goal=   None    Shift=    0.000
 RMSDP=5.49D-09 MaxDP=1.96D-07 DE=-4.32D-11 OVMax= 1.35D-07

 SCF Done:  E(RHF) =  -726.570024012     A.U. after   19 cycles
            NFock= 19  Conv=0.55D-08     -V/T= 2.0011
 KE= 7.257920087832D+02 PE=-3.972239424188D+03 EE= 1.390778886168D+03
 Leave Link  502 at Sun Jul 11 16:33:29 2021, MaxMem=   262144000 cpu:            2984.1 elap:             746.1
 (Enter /prod/apps/gaussian/g16b1/l801.exe)
 ExpMin= 2.97D-02 ExpMax= 1.17D+04 ExpMxC= 4.01D+02 IAcc=3 IRadAn=         5 AccDes= 0.00D+00
 HarFok:  IExCor=  205 AccDes= 0.00D+00 IRadAn=         5 IDoV=-2 UseB2=F ITyADJ=14
 ICtDFT= 12500011 ScaDFX=  1.000000  1.000000  1.000000  1.000000
 Largest valence mixing into a core orbital is  1.14D-04
 Largest core mixing into a valence orbital is  4.46D-05
 Range of M.O.s used for correlation:    18   526
 NBasis=   526 NAE=    61 NBE=    61 NFC=    17 NFV=     0
 NROrb=    509 NOA=    44 NOB=    44 NVA=   465 NVB=   465

 **** Warning!!: The largest alpha MO coefficient is  0.11681072D+03

 Leave Link  801 at Sun Jul 11 16:33:29 2021, MaxMem=   262144000 cpu:               0.9 elap:               0.2
 (Enter /prod/apps/gaussian/g16b1/l906.exe)
 FulOut=F Deriv=F AODrv=F NAtomX=    32
   MMem=           5  MDisk=          44 MDiskD=          44
  W3Min=    11457600 MinDsk=    12229780 NBas6D=         560
 NBas2D=      157833    NTT=      157080    LW2=     2000000
    MDV=   260169029 MDiskM=        6403 NBas2p=      146807
 Disk-based method using OVN memory for 44 occupieds at a time.
 Estimated scratch disk usage=  9270352564 words.
 IMap=   1   2   3   4   5   6   7   8   9  10  11  12  13  14  15  16  17  18  19  20
 IMap=  21  22  23  24  25  26  27  28  29  30  31  32  33  34  35  36  37  38  39  40
 IMap=  41  42  43  44
 Actual    scratch disk usage=  9034577588 words.
 JobTyp=1 Pass  1:  I=   1 to  44 NPSUse=  4 ParTrn=T ParDer=T DoDerP=F.
