 Entering Gaussian System, Link 0=g16
 Initial command:
 /prod/apps/gaussian/g16b1/l1.exe "/tmp/ubator02/1834620/Gau-101673.inp" -scrdir="/tmp/ubator02/1834620/"
 Entering Link 1 = /prod/apps/gaussian/g16b1/l1.exe PID=    101674.
  
 Copyright (c) 1988-2017, Gaussian, Inc.  All Rights Reserved.
  
 This is part of the Gaussian(R) 16 program.  It is based on
 the Gaussian(R) 09 system (copyright 2009, Gaussian, Inc.),
 the Gaussian(R) 03 system (copyright 2003, Gaussian, Inc.),
 the Gaussian(R) 98 system (copyright 1998, Gaussian, Inc.),
 the Gaussian(R) 94 system (copyright 1995, Gaussian, Inc.),
 the Gaussian 92(TM) system (copyright 1992, Gaussian, Inc.),
 the Gaussian 90(TM) system (copyright 1990, Gaussian, Inc.),
 the Gaussian 88(TM) system (copyright 1988, Gaussian, Inc.),
 the Gaussian 86(TM) system (copyright 1986, Carnegie Mellon
 University), and the Gaussian 82(TM) system (copyright 1983,
 Carnegie Mellon University). Gaussian is a federally registered
 trademark of Gaussian, Inc.
  
 This software contains proprietary and confidential information,
 including trade secrets, belonging to Gaussian, Inc.
  
 This software is provided under written license and may be
 used, copied, transmitted, or stored only in accord with that
 written license.
  
 The following legend is applicable only to US Government
 contracts under FAR:
  
                    RESTRICTED RIGHTS LEGEND
  
 Use, reproduction and disclosure by the US Government is
 subject to restrictions as set forth in subparagraphs (a)
 and (c) of the Commercial Computer Software - Restricted
 Rights clause in FAR 52.227-19.
  
 Gaussian, Inc.
 340 Quinnipiac St., Bldg. 40, Wallingford CT 06492
  
  
 ---------------------------------------------------------------
 Warning -- This program may not be used in any manner that
 competes with the business of Gaussian, Inc. or will provide
 assistance to any competitor of Gaussian, Inc.  The licensee
 of this program is prohibited from giving any competitor of
 Gaussian, Inc. access to this program.  By using this program,
 the user acknowledges that Gaussian, Inc. is engaged in the
 business of creating and licensing software in the field of
 computational chemistry and represents and warrants to the
 licensee that it is not a competitor of Gaussian, Inc. and that
 it will not use this program in any manner prohibited above.
 ---------------------------------------------------------------
  

 Cite this work as:
 Gaussian 16, Revision B.01,
 M. J. Frisch, G. W. Trucks, H. B. Schlegel, G. E. Scuseria, 
 M. A. Robb, J. R. Cheeseman, G. Scalmani, V. Barone, 
 G. A. Petersson, H. Nakatsuji, X. Li, M. Caricato, A. V. Marenich, 
 J. Bloino, B. G. Janesko, R. Gomperts, B. Mennucci, H. P. Hratchian, 
 J. V. Ortiz, A. F. Izmaylov, J. L. Sonnenberg, D. Williams-Young, 
 F. Ding, F. Lipparini, F. Egidi, J. Goings, B. Peng, A. Petrone, 
 T. Henderson, D. Ranasinghe, V. G. Zakrzewski, J. Gao, N. Rega, 
 G. Zheng, W. Liang, M. Hada, M. Ehara, K. Toyota, R. Fukuda, 
 J. Hasegawa, M. Ishida, T. Nakajima, Y. Honda, O. Kitao, H. Nakai, 
 T. Vreven, K. Throssell, J. A. Montgomery, Jr., J. E. Peralta, 
 F. Ogliaro, M. J. Bearpark, J. J. Heyd, E. N. Brothers, K. N. Kudin, 
 V. N. Staroverov, T. A. Keith, R. Kobayashi, J. Normand, 
 K. Raghavachari, A. P. Rendell, J. C. Burant, S. S. Iyengar, 
 J. Tomasi, M. Cossi, J. M. Millam, M. Klene, C. Adamo, R. Cammi, 
 J. W. Ochterski, R. L. Martin, K. Morokuma, O. Farkas, 
 J. B. Foresman, and D. J. Fox, Gaussian, Inc., Wallingford CT, 2016.
 
 ******************************************
 Gaussian 16:  ES64L-G16RevB.01 20-Dec-2017
                11-Jul-2021 
 ******************************************
 %mem=800MB
 %nproc=4
 Will use up to    4 processors via shared memory.
 %chk=SET_328_BBB315_conf1.geo_060_075.chk
 -----------------------------------------------------------
 #p b3lyp/6-31G(d) opt freq scrf=(iefpcm,read,solvent=water)
 -----------------------------------------------------------
 1/18=20,19=15,26=3,38=1,40=2/1,3;
 2/9=110,12=2,17=6,18=5,40=1/2;
 3/5=1,6=6,7=1,11=2,25=1,30=1,70=2203,71=1,72=1,74=-5/1,2,3;
 4//1;
 5/5=2,38=5,53=1/2;
 6/7=2,8=2,9=2,10=2,28=1/1;
 7//1,2,3,16;
 1/18=20,19=15,26=3/3(2);
 2/9=110/2;
 99//99;
 2/9=110/2;
 3/5=1,6=6,7=1,11=2,25=1,30=1,70=2205,71=1,72=1,74=-5/1,2,3;
 4/5=5,16=3,69=1/1;
 5/5=2,38=5,53=1/2;
 7//1,2,3,16;
 1/18=20,19=15,26=3/3(-5);
 2/9=110/2;
 6/7=2,8=2,9=2,10=2,19=2,28=1/1;
 99/9=1/99;
 Leave Link    1 at Sun Jul 11 16:24:51 2021, MaxMem=   104857600 cpu:               0.1 elap:               0.0
 (Enter /prod/apps/gaussian/g16b1/l101.exe)
 -----------------------------------------
 SET_328_BBB315_conf1.geo_060_075 geometry
 -----------------------------------------
 Symbolic Z-matrix:
 Charge =  1 Multiplicity = 1
 N                    -1.977    -1.998    -1.659 
 H                    -2.261    -1.903    -2.613 
 H                    -1.877    -1.091    -1.249 
 C                    -0.657    -2.727    -1.597 
 H                    -0.626    -3.479    -2.389 
 H                    -0.661    -3.051    -0.553 
 C                     0.479    -1.745    -1.701 
 H                     0.564    -1.248    -2.67 
 H                     1.371    -2.358    -1.559 
 C                     0.471    -0.726    -0.603 
 C                    -0.018     0.551    -0.819 
 H                    -0.436     1.061    -1.679 
 N                     0.184     1.231     0.346 
 C                    -0.019     2.586     0.606 
 H                    -0.347     3.246    -0.188 
 C                     0.172     2.983     1.942 
 H                     0.157     4.04      2.185 
 C                     0.708     2.054     2.872 
 H                     1.18      2.466     3.758 
 C                     0.823     0.696     2.535 
 H                     1.209    -0.016     3.258 
 C                     0.658     0.264     1.173 
 N                     0.849    -0.928     0.649 
 H                    -2.668    -2.517    -1.156 
 
 ITRead=  0  0  0  0  0  0  0  0  0  0  0  0  0  0  0  0  0  0  0  0
 ITRead=  0  0  0  0
 MicOpt= -1 -1 -1 -1 -1 -1 -1 -1 -1 -1 -1 -1 -1 -1 -1 -1 -1 -1 -1 -1
 MicOpt= -1 -1 -1 -1
 NAtoms=     24 NQM=       24 NQMF=       0 NMMI=      0 NMMIF=      0
                NMic=       0 NMicF=      0.
                    Isotopes and Nuclear Properties:
 (Nuclear quadrupole moments (NQMom) in fm**2, nuclear magnetic moments (NMagM)
  in nuclear magnetons)

  Atom         1           2           3           4           5           6           7           8           9          10
 IAtWgt=          14           1           1          12           1           1          12           1           1          12
 AtmWgt=  14.0030740   1.0078250   1.0078250  12.0000000   1.0078250   1.0078250  12.0000000   1.0078250   1.0078250  12.0000000
 NucSpn=           2           1           1           0           1           1           0           1           1           0
 AtZEff=  -0.0000000  -0.0000000  -0.0000000  -0.0000000  -0.0000000  -0.0000000  -0.0000000  -0.0000000  -0.0000000  -0.0000000
 NQMom=    2.0440000   0.0000000   0.0000000   0.0000000   0.0000000   0.0000000   0.0000000   0.0000000   0.0000000   0.0000000
 NMagM=    0.4037610   2.7928460   2.7928460   0.0000000   2.7928460   2.7928460   0.0000000   2.7928460   2.7928460   0.0000000
 AtZNuc=   7.0000000   1.0000000   1.0000000   6.0000000   1.0000000   1.0000000   6.0000000   1.0000000   1.0000000   6.0000000

  Atom        11          12          13          14          15          16          17          18          19          20
 IAtWgt=          12           1          14          12           1          12           1          12           1          12
 AtmWgt=  12.0000000   1.0078250  14.0030740  12.0000000   1.0078250  12.0000000   1.0078250  12.0000000   1.0078250  12.0000000
 NucSpn=           0           1           2           0           1           0           1           0           1           0
 AtZEff=  -0.0000000  -0.0000000  -0.0000000  -0.0000000  -0.0000000  -0.0000000  -0.0000000  -0.0000000  -0.0000000  -0.0000000
 NQMom=    0.0000000   0.0000000   2.0440000   0.0000000   0.0000000   0.0000000   0.0000000   0.0000000   0.0000000   0.0000000
 NMagM=    0.0000000   2.7928460   0.4037610   0.0000000   2.7928460   0.0000000   2.7928460   0.0000000   2.7928460   0.0000000
 AtZNuc=   6.0000000   1.0000000   7.0000000   6.0000000   1.0000000   6.0000000   1.0000000   6.0000000   1.0000000   6.0000000

  Atom        21          22          23          24
 IAtWgt=           1          12          14           1
 AtmWgt=   1.0078250  12.0000000  14.0030740   1.0078250
 NucSpn=           1           0           2           1
 AtZEff=  -0.0000000  -0.0000000  -0.0000000  -0.0000000
 NQMom=    0.0000000   0.0000000   2.0440000   0.0000000
 NMagM=    2.7928460   0.0000000   0.4037610   2.7928460
 AtZNuc=   1.0000000   6.0000000   7.0000000   1.0000000
 Leave Link  101 at Sun Jul 11 16:24:52 2021, MaxMem=   104857600 cpu:               0.6 elap:               0.2
 (Enter /prod/apps/gaussian/g16b1/l103.exe)

 GradGradGradGradGradGradGradGradGradGradGradGradGradGradGradGradGradGrad
 Berny optimization.
 Initialization pass.
                           ----------------------------
                           !    Initial Parameters    !
                           ! (Angstroms and Degrees)  !
 --------------------------                            --------------------------
 ! Name  Definition              Value          Derivative Info.                !
 --------------------------------------------------------------------------------
 ! R1    R(1,2)                  0.9999         estimate D2E/DX2                !
 ! R2    R(1,3)                  1.0004         estimate D2E/DX2                !
 ! R3    R(1,4)                  1.5092         estimate D2E/DX2                !
 ! R4    R(1,24)                 0.9999         estimate D2E/DX2                !
 ! R5    R(4,5)                  1.0926         estimate D2E/DX2                !
 ! R6    R(4,6)                  1.0931         estimate D2E/DX2                !
 ! R7    R(4,7)                  1.5052         estimate D2E/DX2                !
 ! R8    R(7,8)                  1.0923         estimate D2E/DX2                !
 ! R9    R(7,9)                  1.0916         estimate D2E/DX2                !
 ! R10   R(7,10)                 1.498          estimate D2E/DX2                !
 ! R11   R(10,11)                1.3844         estimate D2E/DX2                !
 ! R12   R(10,23)                1.3233         estimate D2E/DX2                !
 ! R13   R(11,12)                1.0837         estimate D2E/DX2                !
 ! R14   R(11,13)                1.364          estimate D2E/DX2                !
 ! R15   R(13,14)                1.3946         estimate D2E/DX2                !
 ! R16   R(13,22)                1.3578         estimate D2E/DX2                !
 ! R17   R(14,15)                1.0833         estimate D2E/DX2                !
 ! R18   R(14,16)                1.4068         estimate D2E/DX2                !
 ! R19   R(16,17)                1.0847         estimate D2E/DX2                !
 ! R20   R(16,18)                1.4196         estimate D2E/DX2                !
 ! R21   R(18,19)                1.0851         estimate D2E/DX2                !
 ! R22   R(18,20)                1.4039         estimate D2E/DX2                !
 ! R23   R(20,21)                1.0857         estimate D2E/DX2                !
 ! R24   R(20,22)                1.4384         estimate D2E/DX2                !
 ! R25   R(22,23)                1.316          estimate D2E/DX2                !
 ! A1    A(2,1,3)              109.4682         estimate D2E/DX2                !
 ! A2    A(2,1,4)              109.482          estimate D2E/DX2                !
 ! A3    A(2,1,24)             109.4498         estimate D2E/DX2                !
 ! A4    A(3,1,4)              109.4925         estimate D2E/DX2                !
 ! A5    A(3,1,24)             109.4815         estimate D2E/DX2                !
 ! A6    A(4,1,24)             109.4533         estimate D2E/DX2                !
 ! A7    A(1,4,5)              109.1172         estimate D2E/DX2                !
 ! A8    A(1,4,6)              100.3235         estimate D2E/DX2                !
 ! A9    A(1,4,7)              110.0065         estimate D2E/DX2                !
 ! A10   A(5,4,6)              119.2362         estimate D2E/DX2                !
 ! A11   A(5,4,7)              112.1812         estimate D2E/DX2                !
 ! A12   A(6,4,7)              105.1959         estimate D2E/DX2                !
 ! A13   A(4,7,8)              114.6363         estimate D2E/DX2                !
 ! A14   A(4,7,9)              103.9669         estimate D2E/DX2                !
 ! A15   A(4,7,10)             112.8994         estimate D2E/DX2                !
 ! A16   A(8,7,9)              107.8974         estimate D2E/DX2                !
 ! A17   A(8,7,10)             109.9457         estimate D2E/DX2                !
 ! A18   A(9,7,10)             106.9184         estimate D2E/DX2                !
 ! A19   A(7,10,11)            120.9973         estimate D2E/DX2                !
 ! A20   A(7,10,23)            126.0227         estimate D2E/DX2                !
 ! A21   A(11,10,23)           112.9122         estimate D2E/DX2                !
 ! A22   A(10,11,12)           133.9608         estimate D2E/DX2                !
 ! A23   A(10,11,13)           105.9201         estimate D2E/DX2                !
 ! A24   A(12,11,13)           120.0206         estimate D2E/DX2                !
 ! A25   A(11,13,14)           128.468          estimate D2E/DX2                !
 ! A26   A(11,13,22)           102.525          estimate D2E/DX2                !
 ! A27   A(14,13,22)           128.9927         estimate D2E/DX2                !
 ! A28   A(13,14,15)           119.9583         estimate D2E/DX2                !
 ! A29   A(13,14,16)           115.5625         estimate D2E/DX2                !
 ! A30   A(15,14,16)           124.4183         estimate D2E/DX2                !
 ! A31   A(14,16,17)           119.0708         estimate D2E/DX2                !
 ! A32   A(14,16,18)           119.2583         estimate D2E/DX2                !
 ! A33   A(17,16,18)           119.747          estimate D2E/DX2                !
 ! A34   A(16,18,19)           116.7862         estimate D2E/DX2                !
 ! A35   A(16,18,20)           120.4433         estimate D2E/DX2                !
 ! A36   A(19,18,20)           121.845          estimate D2E/DX2                !
 ! A37   A(18,20,21)           120.2411         estimate D2E/DX2                !
 ! A38   A(18,20,22)           120.5589         estimate D2E/DX2                !
 ! A39   A(21,20,22)           118.321          estimate D2E/DX2                !
 ! A40   A(13,22,20)           113.7582         estimate D2E/DX2                !
 ! A41   A(13,22,23)           116.9496         estimate D2E/DX2                !
 ! A42   A(20,22,23)           129.2287         estimate D2E/DX2                !
 ! A43   A(10,23,22)           101.3611         estimate D2E/DX2                !
 ! D1    D(2,1,4,5)            -35.2543         estimate D2E/DX2                !
 ! D2    D(2,1,4,6)           -161.3094         estimate D2E/DX2                !
 ! D3    D(2,1,4,7)             88.2114         estimate D2E/DX2                !
 ! D4    D(3,1,4,5)           -155.2702         estimate D2E/DX2                !
 ! D5    D(3,1,4,6)             78.6747         estimate D2E/DX2                !
 ! D6    D(3,1,4,7)            -31.8045         estimate D2E/DX2                !
 ! D7    D(24,1,4,5)            84.7151         estimate D2E/DX2                !
 ! D8    D(24,1,4,6)           -41.34           estimate D2E/DX2                !
 ! D9    D(24,1,4,7)          -151.8192         estimate D2E/DX2                !
 ! D10   D(1,4,7,8)            -67.215          estimate D2E/DX2                !
 ! D11   D(1,4,7,9)            175.2396         estimate D2E/DX2                !
 ! D12   D(1,4,7,10)            59.7347         estimate D2E/DX2                !
 ! D13   D(5,4,7,8)             54.4422         estimate D2E/DX2                !
 ! D14   D(5,4,7,9)            -63.1032         estimate D2E/DX2                !
 ! D15   D(5,4,7,10)          -178.6081         estimate D2E/DX2                !
 ! D16   D(6,4,7,8)           -174.4638         estimate D2E/DX2                !
 ! D17   D(6,4,7,9)             67.9909         estimate D2E/DX2                !
 ! D18   D(6,4,7,10)           -47.514          estimate D2E/DX2                !
 ! D19   D(4,7,10,11)         -100.6256         estimate D2E/DX2                !
 ! D20   D(4,7,10,23)           76.1605         estimate D2E/DX2                !
 ! D21   D(8,7,10,11)           28.771          estimate D2E/DX2                !
 ! D22   D(8,7,10,23)         -154.4429         estimate D2E/DX2                !
 ! D23   D(9,7,10,11)          145.6493         estimate D2E/DX2                !
 ! D24   D(9,7,10,23)          -37.5646         estimate D2E/DX2                !
 ! D25   D(7,10,11,12)          -0.6758         estimate D2E/DX2                !
 ! D26   D(7,10,11,13)        -176.9178         estimate D2E/DX2                !
 ! D27   D(23,10,11,12)       -177.8541         estimate D2E/DX2                !
 ! D28   D(23,10,11,13)          5.9038         estimate D2E/DX2                !
 ! D29   D(7,10,23,22)         179.4559         estimate D2E/DX2                !
 ! D30   D(11,10,23,22)         -3.5348         estimate D2E/DX2                !
 ! D31   D(10,11,13,14)        173.4124         estimate D2E/DX2                !
 ! D32   D(10,11,13,22)         -5.2975         estimate D2E/DX2                !
 ! D33   D(12,11,13,14)         -3.4641         estimate D2E/DX2                !
 ! D34   D(12,11,13,22)        177.826          estimate D2E/DX2                !
 ! D35   D(11,13,14,15)         -2.3738         estimate D2E/DX2                !
 ! D36   D(11,13,14,16)        174.912          estimate D2E/DX2                !
 ! D37   D(22,13,14,15)        176.0057         estimate D2E/DX2                !
 ! D38   D(22,13,14,16)         -6.7085         estimate D2E/DX2                !
 ! D39   D(11,13,22,20)       -173.729          estimate D2E/DX2                !
 ! D40   D(11,13,22,23)          3.642          estimate D2E/DX2                !
 ! D41   D(14,13,22,20)          7.5707         estimate D2E/DX2                !
 ! D42   D(14,13,22,23)       -175.0584         estimate D2E/DX2                !
 ! D43   D(13,14,16,17)        172.0838         estimate D2E/DX2                !
 ! D44   D(13,14,16,18)          7.8999         estimate D2E/DX2                !
 ! D45   D(15,14,16,17)        -10.767          estimate D2E/DX2                !
 ! D46   D(15,14,16,18)       -174.9508         estimate D2E/DX2                !
 ! D47   D(14,16,18,19)        157.8549         estimate D2E/DX2                !
 ! D48   D(14,16,18,20)        -11.3371         estimate D2E/DX2                !
 ! D49   D(17,16,18,19)         -6.2205         estimate D2E/DX2                !
 ! D50   D(17,16,18,20)       -175.4125         estimate D2E/DX2                !
 ! D51   D(16,18,20,21)       -178.3843         estimate D2E/DX2                !
 ! D52   D(16,18,20,22)         12.5271         estimate D2E/DX2                !
 ! D53   D(19,18,20,21)         12.9807         estimate D2E/DX2                !
 ! D54   D(19,18,20,22)       -156.108          estimate D2E/DX2                !
 ! D55   D(18,20,22,13)        -10.0223         estimate D2E/DX2                !
 ! D56   D(18,20,22,23)        173.0034         estimate D2E/DX2                !
 ! D57   D(21,20,22,13)       -179.3165         estimate D2E/DX2                !
 ! D58   D(21,20,22,23)          3.7092         estimate D2E/DX2                !
 ! D59   D(13,22,23,10)         -0.1645         estimate D2E/DX2                !
 ! D60   D(20,22,23,10)        176.7288         estimate D2E/DX2                !
 --------------------------------------------------------------------------------
 Trust Radius=3.00D-01 FncErr=1.00D-07 GrdErr=1.00D-06 EigMax=2.50D+02 EigMin=1.00D-04
 Number of steps in this run=    138 maximum allowed number of steps=    144.
 GradGradGradGradGradGradGradGradGradGradGradGradGradGradGradGradGradGrad

 Leave Link  103 at Sun Jul 11 16:24:52 2021, MaxMem=   104857600 cpu:               0.1 elap:               0.0
 (Enter /prod/apps/gaussian/g16b1/l202.exe)
                          Input orientation:                          
 ---------------------------------------------------------------------
 Center     Atomic      Atomic             Coordinates (Angstroms)
 Number     Number       Type             X           Y           Z
 ---------------------------------------------------------------------
      1          7           0       -1.977000   -1.998000   -1.659000
      2          1           0       -2.261000   -1.903000   -2.613000
      3          1           0       -1.877000   -1.091000   -1.249000
      4          6           0       -0.657000   -2.727000   -1.597000
      5          1           0       -0.626000   -3.479000   -2.389000
      6          1           0       -0.661000   -3.051000   -0.553000
      7          6           0        0.479000   -1.745000   -1.701000
      8          1           0        0.564000   -1.248000   -2.670000
      9          1           0        1.371000   -2.358000   -1.559000
     10          6           0        0.471000   -0.726000   -0.603000
     11          6           0       -0.018000    0.551000   -0.819000
     12          1           0       -0.436000    1.061000   -1.679000
     13          7           0        0.184000    1.231000    0.346000
     14          6           0       -0.019000    2.586000    0.606000
     15          1           0       -0.347000    3.246000   -0.188000
     16          6           0        0.172000    2.983000    1.942000
     17          1           0        0.157000    4.040000    2.185000
     18          6           0        0.708000    2.054000    2.872000
     19          1           0        1.180000    2.466000    3.758000
     20          6           0        0.823000    0.696000    2.535000
     21          1           0        1.209000   -0.016000    3.258000
     22          6           0        0.658000    0.264000    1.173000
     23          7           0        0.849000   -0.928000    0.649000
     24          1           0       -2.668000   -2.517000   -1.156000
 ---------------------------------------------------------------------
                    Distance matrix (angstroms):
                    1          2          3          4          5
     1  N    0.000000
     2  H    0.999898   0.000000
     3  H    1.000374   1.633186   0.000000
     4  C    1.509200   2.069794   2.070266   0.000000
     5  H    2.133416   2.281924   2.926969   1.092579   0.000000
     6  H    2.015912   2.849825   2.409289   1.093128   1.885552
     7  C    2.469354   2.892111   2.486515   1.505203   2.168208
     8  H    2.835719   2.900500   2.828846   2.197638   2.544096
     9  H    3.368784   3.809116   3.500128   2.061647   2.435888
    10  C    2.953951   3.590161   2.462447   2.502883   3.460089
    11  C    3.322752   3.777777   2.517329   3.429124   4.367547
    12  H    3.425283   3.603925   2.625354   3.795327   4.599109
    13  N    4.372229   4.955367   3.490477   4.488685   5.506399
    14  C    5.475130   5.961514   4.518132   5.786901   6.791369
    15  H    5.685093   6.004683   4.719766   6.144763   7.081516
    16  C    6.511203   7.109185   5.565821   6.768742   7.819962
    17  H    7.469119   8.011665   6.500513   7.794768   8.835719
    18  C    6.645140   7.386341   5.792745   6.685293   7.750598
    19  H    7.696612   8.456848   6.860579   7.682307   8.740153
    20  C    5.717278   6.539706   4.980163   5.566036   6.616344
    21  H    6.185128   7.076038   5.567052   5.865365   6.873733
    22  C    4.481082   5.248833   3.758768   4.283481   5.324148
    23  N    3.802373   4.611222   3.325665   3.247915   4.232336
    24  H    0.999925   1.632634   1.633342   2.069469   2.572061
                    6          7          8          9         10
     6  H    0.000000
     7  C    2.079216   0.000000
     8  H    3.038605   1.092335   0.000000
     9  H    2.370930   1.091603   1.765692   0.000000
    10  C    2.586416   1.498008   2.133922   2.094603   0.000000
    11  C    3.668598   2.509293   2.646002   3.307446   1.384379
    12  H    4.269314   2.951499   2.704360   3.869006   2.274598
    13  N    4.456204   3.624060   3.922512   4.233074   2.193814
    14  C    5.790614   4.932323   5.076576   5.573371   3.559652
    15  H    6.315380   5.280296   5.214047   6.019633   4.076534
    16  C    6.582406   5.976595   6.271010   6.497760   4.508116
    17  H    7.645132   6.976454   7.190245   7.511707   5.530488
    18  C    6.298080   5.949552   6.452728   6.288010   4.456478
    19  H    7.239564   6.929979   7.449325   7.181779   5.450676
    20  C    5.077205   4.901073   5.562216   5.136931   3.463096
    21  H    5.218414   5.302266   6.088927   5.358610   3.994504
    22  C    3.963340   3.511125   4.130815   3.853190   2.041873
    23  N    2.869152   2.515331   3.346548   2.681911   1.323326
    24  H    2.162594   3.285821   3.787926   4.062168   3.656065
                   11         12         13         14         15
    11  C    0.000000
    12  H    1.083708   0.000000
    13  N    1.363975   2.124600   0.000000
    14  C    2.484321   2.778622   1.394573   0.000000
    15  H    2.787369   2.646739   2.151126   1.083337   0.000000
    16  C    3.684270   4.144320   2.369992   1.406764   2.208038
    17  H    4.607360   4.914935   3.357548   2.153679   2.552564
    18  C    4.050872   4.796497   2.707874   2.438505   3.449274
    19  H    5.104053   5.843496   3.762843   3.374478   4.302446
    20  C    3.460870   4.413174   2.342278   2.828799   3.909748
    21  H    4.295224   5.314125   3.329471   3.912990   4.993666
    22  C    2.123066   3.156889   1.357827   2.484251   3.428508
    23  N    2.257023   3.320682   2.279323   3.619871   4.421907
    24  H    4.068008   4.249404   4.943421   6.013523   6.287785
                   16         17         18         19         20
    16  C    0.000000
    17  H    1.084676   0.000000
    18  C    1.419590   2.172502   0.000000
    19  H    2.140376   2.449150   1.085138   0.000000
    20  C    2.450677   3.427593   1.403908   2.180843   0.000000
    21  H    3.435291   4.325410   2.164462   2.532028   1.085665
    22  C    2.867145   3.941233   2.468441   3.435624   1.438365
    23  N    4.174458   5.245873   3.722087   4.614616   2.488985
    24  H    6.921936   7.882712   6.965357   7.986538   6.011151
                   21         22         23         24
    21  H    0.000000
    22  C    2.174678   0.000000
    23  N    2.787154   1.316025   0.000000
    24  H    6.385102   4.921430   4.260544   0.000000
 Stoichiometry    C9H12N3(1+)
 Framework group  C1[X(C9H12N3)]
 Deg. of freedom    66
 Full point group                 C1      NOp   1
 Largest Abelian subgroup         C1      NOp   1
 Largest concise Abelian subgroup C1      NOp   1
                         Standard orientation:                         
 ---------------------------------------------------------------------
 Center     Atomic      Atomic             Coordinates (Angstroms)
 Number     Number       Type             X           Y           Z
 ---------------------------------------------------------------------
      1          7           0       -3.156307    0.754556    1.159788
      2          1           0       -3.753432    1.511388    0.894374
      3          1           0       -2.201783    1.049838    1.110370
      4          6           0       -3.372516   -0.409309    0.223649
      5          1           0       -4.426630   -0.448510   -0.061021
      6          1           0       -2.950104   -1.221872    0.820505
      7          6           0       -2.465500   -0.284601   -0.971092
      8          1           0       -2.694521    0.555225   -1.630969
      9          1           0       -2.637226   -1.206626   -1.529640
     10          6           0       -1.014024   -0.262859   -0.601266
     11          6           0       -0.310123    0.927931   -0.546044
     12          1           0       -0.568771    1.963966   -0.730860
     13          7           0        0.977933    0.587913   -0.253250
     14          6           0        2.103869    1.409678   -0.210763
     15          1           0        2.017784    2.458917   -0.466316
     16          6           0        3.288425    0.793868    0.232621
     17          1           0        4.223206    1.339999    0.165917
     18          6           0        3.306401   -0.611181    0.434493
     19          1           0        4.276733   -1.096351    0.410194
     20          6           0        2.110319   -1.346228    0.427241
     21          1           0        2.125249   -2.416639    0.607976
     22          6           0        0.888903   -0.750810   -0.044472
     23          7           0       -0.286558   -1.308468   -0.242536
     24          1           0       -3.370500    0.473734    2.095261
 ---------------------------------------------------------------------
 Rotational constants (GHZ):           2.5165001           0.5424343           0.4986754
 Leave Link  202 at Sun Jul 11 16:24:52 2021, MaxMem=   104857600 cpu:               0.1 elap:               0.0
 (Enter /prod/apps/gaussian/g16b1/l301.exe)
 Standard basis: 6-31G(d) (6D, 7F)
 Ernie: Thresh=  0.10000D-02 Tol=  0.10000D-05 Strict=F.
 There are   204 symmetry adapted cartesian basis functions of A   symmetry.
 There are   204 symmetry adapted basis functions of A   symmetry.
   204 basis functions,   384 primitive gaussians,   204 cartesian basis functions
    43 alpha electrons       43 beta electrons
       nuclear repulsion energy       684.2718510901 Hartrees.
 IExCor=  402 DFT=T Ex+Corr=B3LYP ExCW=0 ScaHFX=  0.200000
 ScaDFX=  0.800000  0.720000  1.000000  0.810000 ScalE2=  1.000000  1.000000
 IRadAn=      5 IRanWt=     -1 IRanGd=            0 ICorTp=0 IEmpDi=  4
 NAtoms=   24 NActive=   24 NUniq=   24 SFac= 1.00D+00 NAtFMM=   60 NAOKFM=F Big=F
 Integral buffers will be    131072 words long.
 Raffenetti 2 integral format.
 Two-electron integral symmetry is turned on.
 Using the following non-standard input for PCM:
 MSTModel=DFT cav MSTCharged
 --- end of non-standard input.
 MST model for solvation energy: B3LYP parametrization.
 MST cavity parameters:
 ISph   IAn     Re0     Alpha   Atom Type   QCorr
 ------------------------------------------------
   1      7     1.70     1.15      NH         T
   2      1     0.90     1.15      NH         T
   3      1     0.90     1.15      NH         T
   4      6     1.50     1.25      CH2        F
   5      1     1.20     1.25      CH2        F
   6      1     1.20     1.25      CH2        F
   7      6     1.50     1.25      CH2        F
   8      1     1.20     1.25      CH2        F
   9      1     1.20     1.25      CH2        F
  10      6     1.50     1.25      C          F
  11      6     1.50     1.25      CH         F
  12      1     1.20     1.25      CH         F
  13      7     1.40     1.25      N          F
  14      6     1.50     1.25      CH         F
  15      1     1.20     1.25      CH         F
  16      6     1.50     1.25      CH         F
  17      1     1.20     1.25      CH         F
  18      6     1.50     1.25      CH         F
  19      1     1.20     1.25      CH         F
  20      6     1.50     1.25      CH         F
  21      1     1.20     1.25      CH         F
  22      6     1.50     1.25      C          F
  23      7     1.40     1.25      N          F
  24      1     0.90     1.15      NH         T
 ------------------------------------------------------------------------------
 Polarizable Continuum Model (PCM)
 =================================
 Model                : PCM.
 Atomic radii         : MST.
 Polarization charges : Total charges.
 Charge compensation  : None.
 Solution method      : On-the-fly selection.
 Cavity type          : Scaled VdW (van der Waals Surface) (Alpha=1.250).
 Cavity algorithm     : GePol (No added spheres)
                        Default sphere list used, NSphG=   24.
                        Lebedev-Laikov grids with approx.  5.0 points / Ang**2.
                        Smoothing algorithm: York/Karplus (Gamma=1.0000).
                        Polarization charges: spherical gaussians, with
                                              point-specific exponents (IZeta= 3).
                        Self-potential: point-specific (ISelfS= 7).
                        Self-field    : sphere-specific E.n sum rule (ISelfD= 2).
 1st derivatives      : Analytical E(r).r(x)/FMM algorithm (CHGder, D1EAlg=3).
                        Cavity 1st derivative terms included.
 Solvent              : Water, Eps=  78.355300 Eps(inf)=   1.777849
 ------------------------------------------------------------------------------
 GePol: Number of generator spheres                  =      24
 GePol: Total number of spheres                      =      24
 GePol: Number of exposed spheres                    =      24 (100.00%)
 GePol: Number of points                             =    1770
 GePol: Average weight of points                     =       0.13
 GePol: Minimum weight of points                     =   0.51D-11
 GePol: Maximum weight of points                     =    0.22001
 GePol: Number of points with low weight             =     124
 GePol: Fraction of low-weight points (<1% of avg)   =       7.01%
 GePol: Cavity surface area                          =    222.497 Ang**2
 GePol: Cavity volume                                =    202.347 Ang**3
 PCM non-electrostatic energy =         0.0008932985 Hartrees.
 Nuclear repulsion after PCM non-electrostatic terms =      684.2727443886 Hartrees.
 Leave Link  301 at Sun Jul 11 16:24:52 2021, MaxMem=   104857600 cpu:               0.4 elap:               0.1
 (Enter /prod/apps/gaussian/g16b1/l302.exe)
 NPDir=0 NMtPBC=     1 NCelOv=     1 NCel=       1 NClECP=     1 NCelD=      1
         NCelK=      1 NCelE2=     1 NClLst=     1 CellRange=     0.0.
 One-electron integrals computed using PRISM.
 One-electron integral symmetry used in STVInt
 NBasis=   204 RedAO= T EigKep=  9.08D-04  NBF=   204
 NBsUse=   204 1.00D-06 EigRej= -1.00D+00 NBFU=   204
 Precomputing XC quadrature grid using
 IXCGrd= 4 IRadAn=           5 IRanWt=          -1 IRanGd=           0 AccXCQ= 0.00D+00.
 Generated NRdTot=       0 NPtTot=           0 NUsed=           0 NTot=          32
 NSgBfM=   203   203   203   203   203 MxSgAt=    24 MxSgA2=    24.
 Leave Link  302 at Sun Jul 11 16:24:52 2021, MaxMem=   104857600 cpu:               1.1 elap:               0.3
 (Enter /prod/apps/gaussian/g16b1/l303.exe)
 DipDrv:  MaxL=1.
 Leave Link  303 at Sun Jul 11 16:24:52 2021, MaxMem=   104857600 cpu:               0.1 elap:               0.1
 (Enter /prod/apps/gaussian/g16b1/l401.exe)
 ExpMin= 1.61D-01 ExpMax= 4.17D+03 ExpMxC= 6.27D+02 IAcc=3 IRadAn=         5 AccDes= 0.00D+00
 Harris functional with IExCor=  402 and IRadAn=       5 diagonalized for initial guess.
 HarFok:  IExCor=  402 AccDes= 0.00D+00 IRadAn=         5 IDoV= 1 UseB2=F ITyADJ=14
 ICtDFT=  3500011 ScaDFX=  1.000000  1.000000  1.000000  1.000000
 FoFCou: FMM=F IPFlag=           0 FMFlag=      100000 FMFlg1=           0
         NFxFlg=           0 DoJE=T BraDBF=F KetDBF=T FulRan=T
         wScrn=  0.000000 ICntrl=       500 IOpCl=  0 I1Cent=   200000004 NGrid=           0
         NMat0=    1 NMatS0=      1 NMatT0=    0 NMatD0=    1 NMtDS0=    0 NMtDT0=    0
 Petite list used in FoFCou.
 Harris En= -514.174170196093    
 JPrj=0 DoOrth=F DoCkMO=F.
 Leave Link  401 at Sun Jul 11 16:24:54 2021, MaxMem=   104857600 cpu:               6.5 elap:               1.6
 (Enter /prod/apps/gaussian/g16b1/l502.exe)
 Integral symmetry usage will be decided dynamically.
 Closed shell SCF:
 Using DIIS extrapolation, IDIIS=  1040.
 NGot=   104857600 LenX=   104770734 LenY=   104728677
 Requested convergence on RMS density matrix=1.00D-08 within 128 cycles.
 Requested convergence on MAX density matrix=1.00D-06.
 Requested convergence on             energy=1.00D-06.
 No special actions if energy rises.
 Fock matrices will be formed incrementally for  20 cycles.

 Cycle   1  Pass 1  IDiag  1:
 FoFJK:  IHMeth= 1 ICntrl=       0 DoSepK=F KAlg= 0 I1Cent=           0 FoldK=F
 IRaf= 900000000 NMat=       1 IRICut=       1 DoRegI=T DoRafI=F ISym2E= 0 IDoP0=0 IntGTp=1.
 FoFCou: FMM=F IPFlag=           0 FMFlag=      100000 FMFlg1=           0
         NFxFlg=           0 DoJE=F BraDBF=F KetDBF=F FulRan=T
         wScrn=  0.000000 ICntrl=         0 IOpCl=  0 I1Cent=           0 NGrid=           0
         NMat0=    1 NMatS0=      1 NMatT0=    0 NMatD0=    1 NMtDS0=    0 NMtDT0=    0
 Symmetry not used in FoFCou.
 Inv3:  Mode=1 IEnd=     9398700.
 Iteration    1 A*A^-1 deviation from unit magnitude is 2.66D-15 for    185.
 Iteration    1 A*A^-1 deviation from orthogonality  is 1.96D-15 for   1679    153.
 Iteration    1 A^-1*A deviation from unit magnitude is 2.89D-15 for    185.
 Iteration    1 A^-1*A deviation from orthogonality  is 2.06D-15 for   1317    274.
 E= -514.069942208276    
 DIIS: error= 2.00D-02 at cycle   1 NSaved=   1.
 NSaved= 1 IEnMin= 1 EnMin= -514.069942208276     IErMin= 1 ErrMin= 2.00D-02
 ErrMax= 2.00D-02  0.00D+00 EMaxC= 1.00D-01 BMatC= 2.10D-01 BMatP= 2.10D-01
 IDIUse=3 WtCom= 8.00D-01 WtEn= 2.00D-01
 Coeff-Com:  0.100D+01
 Coeff-En:   0.100D+01
 Coeff:      0.100D+01
 Gap=     0.164 Goal=   None    Shift=    0.000
 GapD=    0.164 DampG=1.000 DampE=0.500 DampFc=0.5000 IDamp=-1.
 Damping current iteration by 5.00D-01
 RMSDP=5.16D-03 MaxDP=1.88D-01              OVMax= 2.02D-01

 Cycle   2  Pass 1  IDiag  1:
 RMSU=  2.51D-03    CP:  9.75D-01
 E= -514.164281841830     Delta-E=       -0.094339633554 Rises=F Damp=T
 DIIS: error= 7.34D-03 at cycle   2 NSaved=   2.
 NSaved= 2 IEnMin= 2 EnMin= -514.164281841830     IErMin= 2 ErrMin= 7.34D-03
 ErrMax= 7.34D-03  0.00D+00 EMaxC= 1.00D-01 BMatC= 1.92D-02 BMatP= 2.10D-01
 IDIUse=3 WtCom= 9.27D-01 WtEn= 7.34D-02
 Coeff-Com:  0.443D-01 0.956D+00
 Coeff-En:   0.714D-01 0.929D+00
 Coeff:      0.463D-01 0.954D+00
 Gap=     0.175 Goal=   None    Shift=    0.000
 RMSDP=1.42D-03 MaxDP=4.91D-02 DE=-9.43D-02 OVMax= 1.58D-01

 Cycle   3  Pass 1  IDiag  1:
 RMSU=  1.40D-03    CP:  9.65D-01  9.78D-01
 E= -514.262113915704     Delta-E=       -0.097832073874 Rises=F Damp=F
 DIIS: error= 9.79D-03 at cycle   3 NSaved=   3.
 NSaved= 3 IEnMin= 3 EnMin= -514.262113915704     IErMin= 2 ErrMin= 7.34D-03
 ErrMax= 9.79D-03  0.00D+00 EMaxC= 1.00D-01 BMatC= 1.94D-02 BMatP= 1.92D-02
 IDIUse=3 WtCom= 9.02D-01 WtEn= 9.79D-02
 Coeff-Com: -0.482D-01 0.523D+00 0.526D+00
 Coeff-En:   0.000D+00 0.000D+00 0.100D+01
 Coeff:     -0.435D-01 0.471D+00 0.572D+00
 Gap=     0.168 Goal=   None    Shift=    0.000
 RMSDP=9.12D-04 MaxDP=3.96D-02 DE=-9.78D-02 OVMax= 6.02D-02

 Cycle   4  Pass 1  IDiag  1:
 RMSU=  6.01D-04    CP:  9.68D-01  1.08D+00  5.48D-01
 E= -514.277292657122     Delta-E=       -0.015178741418 Rises=F Damp=F
 DIIS: error= 5.26D-03 at cycle   4 NSaved=   4.
 NSaved= 4 IEnMin= 4 EnMin= -514.277292657122     IErMin= 4 ErrMin= 5.26D-03
 ErrMax= 5.26D-03  0.00D+00 EMaxC= 1.00D-01 BMatC= 3.92D-03 BMatP= 1.92D-02
 IDIUse=3 WtCom= 9.47D-01 WtEn= 5.26D-02
 Coeff-Com: -0.175D-01 0.910D-01 0.331D+00 0.595D+00
 Coeff-En:   0.000D+00 0.000D+00 0.193D+00 0.807D+00
 Coeff:     -0.166D-01 0.862D-01 0.324D+00 0.606D+00
 Gap=     0.169 Goal=   None    Shift=    0.000
 RMSDP=3.24D-04 MaxDP=1.38D-02 DE=-1.52D-02 OVMax= 1.99D-02

 Cycle   5  Pass 1  IDiag  1:
 RMSU=  1.23D-04    CP:  9.67D-01  1.05D+00  6.77D-01  6.33D-01
 E= -514.280929337589     Delta-E=       -0.003636680467 Rises=F Damp=F
 DIIS: error= 7.83D-04 at cycle   5 NSaved=   5.
 NSaved= 5 IEnMin= 5 EnMin= -514.280929337589     IErMin= 5 ErrMin= 7.83D-04
 ErrMax= 7.83D-04  0.00D+00 EMaxC= 1.00D-01 BMatC= 1.45D-04 BMatP= 3.92D-03
 IDIUse=3 WtCom= 9.92D-01 WtEn= 7.83D-03
 Coeff-Com: -0.575D-02 0.178D-01 0.135D+00 0.308D+00 0.544D+00
 Coeff-En:   0.000D+00 0.000D+00 0.000D+00 0.000D+00 0.100D+01
 Coeff:     -0.571D-02 0.177D-01 0.134D+00 0.306D+00 0.548D+00
 Gap=     0.169 Goal=   None    Shift=    0.000
 RMSDP=7.15D-05 MaxDP=2.56D-03 DE=-3.64D-03 OVMax= 4.39D-03

 Cycle   6  Pass 1  IDiag  1:
 RMSU=  4.35D-05    CP:  9.67D-01  1.05D+00  6.78D-01  6.55D-01  5.73D-01
 E= -514.281054269306     Delta-E=       -0.000124931717 Rises=F Damp=F
 DIIS: error= 1.62D-04 at cycle   6 NSaved=   6.
 NSaved= 6 IEnMin= 6 EnMin= -514.281054269306     IErMin= 6 ErrMin= 1.62D-04
 ErrMax= 1.62D-04  0.00D+00 EMaxC= 1.00D-01 BMatC= 1.10D-05 BMatP= 1.45D-04
 IDIUse=3 WtCom= 9.98D-01 WtEn= 1.62D-03
 Coeff-Com: -0.148D-02 0.197D-02 0.409D-01 0.105D+00 0.283D+00 0.570D+00
 Coeff-En:   0.000D+00 0.000D+00 0.000D+00 0.000D+00 0.000D+00 0.100D+01
 Coeff:     -0.147D-02 0.196D-02 0.409D-01 0.105D+00 0.283D+00 0.571D+00
 Gap=     0.169 Goal=   None    Shift=    0.000
 RMSDP=1.99D-05 MaxDP=7.21D-04 DE=-1.25D-04 OVMax= 1.37D-03

 Cycle   7  Pass 1  IDiag  1:
 RMSU=  9.18D-06    CP:  9.67D-01  1.05D+00  6.79D-01  6.60D-01  6.35D-01
                    CP:  6.48D-01
 E= -514.281064429913     Delta-E=       -0.000010160606 Rises=F Damp=F
 DIIS: error= 3.50D-05 at cycle   7 NSaved=   7.
 NSaved= 7 IEnMin= 7 EnMin= -514.281064429913     IErMin= 7 ErrMin= 3.50D-05
 ErrMax= 3.50D-05  0.00D+00 EMaxC= 1.00D-01 BMatC= 8.39D-07 BMatP= 1.10D-05
 IDIUse=1 WtCom= 1.00D+00 WtEn= 0.00D+00
 Coeff-Com: -0.472D-03-0.306D-04 0.144D-01 0.391D-01 0.123D+00 0.307D+00
 Coeff-Com:  0.518D+00
 Coeff:     -0.472D-03-0.306D-04 0.144D-01 0.391D-01 0.123D+00 0.307D+00
 Coeff:      0.518D+00
 Gap=     0.169 Goal=   None    Shift=    0.000
 RMSDP=5.14D-06 MaxDP=1.68D-04 DE=-1.02D-05 OVMax= 3.81D-04

 Cycle   8  Pass 1  IDiag  1:
 RMSU=  2.81D-06    CP:  9.67D-01  1.05D+00  6.78D-01  6.61D-01  6.31D-01
                    CP:  6.83D-01  5.75D-01
 E= -514.281065233155     Delta-E=       -0.000000803243 Rises=F Damp=F
 DIIS: error= 6.98D-06 at cycle   8 NSaved=   8.
 NSaved= 8 IEnMin= 8 EnMin= -514.281065233155     IErMin= 8 ErrMin= 6.98D-06
 ErrMax= 6.98D-06  0.00D+00 EMaxC= 1.00D-01 BMatC= 4.07D-08 BMatP= 8.39D-07
 IDIUse=1 WtCom= 1.00D+00 WtEn= 0.00D+00
 Coeff-Com: -0.576D-05-0.231D-03 0.113D-02 0.349D-02 0.175D-01 0.568D-01
 Coeff-Com:  0.212D+00 0.709D+00
 Coeff:     -0.576D-05-0.231D-03 0.113D-02 0.349D-02 0.175D-01 0.568D-01
 Coeff:      0.212D+00 0.709D+00
 Gap=     0.169 Goal=   None    Shift=    0.000
 RMSDP=1.21D-06 MaxDP=3.83D-05 DE=-8.03D-07 OVMax= 8.47D-05

 Cycle   9  Pass 1  IDiag  1:
 RMSU=  7.61D-07    CP:  9.67D-01  1.05D+00  6.79D-01  6.61D-01  6.34D-01
                    CP:  6.82D-01  6.34D-01  7.85D-01
 E= -514.281065267132     Delta-E=       -0.000000033977 Rises=F Damp=F
 DIIS: error= 2.49D-06 at cycle   9 NSaved=   9.
 NSaved= 9 IEnMin= 9 EnMin= -514.281065267132     IErMin= 9 ErrMin= 2.49D-06
 ErrMax= 2.49D-06  0.00D+00 EMaxC= 1.00D-01 BMatC= 5.26D-09 BMatP= 4.07D-08
 IDIUse=1 WtCom= 1.00D+00 WtEn= 0.00D+00
 Coeff-Com:  0.263D-04-0.125D-03-0.259D-03-0.550D-03 0.179D-02 0.109D-01
 Coeff-Com:  0.796D-01 0.368D+00 0.540D+00
 Coeff:      0.263D-04-0.125D-03-0.259D-03-0.550D-03 0.179D-02 0.109D-01
 Coeff:      0.796D-01 0.368D+00 0.540D+00
 Gap=     0.169 Goal=   None    Shift=    0.000
 RMSDP=3.91D-07 MaxDP=1.15D-05 DE=-3.40D-08 OVMax= 2.85D-05

 Cycle  10  Pass 1  IDiag  1:
 RMSU=  2.36D-07    CP:  9.67D-01  1.05D+00  6.79D-01  6.61D-01  6.34D-01
                    CP:  6.84D-01  6.39D-01  8.29D-01  6.53D-01
 E= -514.281065272000     Delta-E=       -0.000000004868 Rises=F Damp=F
 DIIS: error= 5.68D-07 at cycle  10 NSaved=  10.
 NSaved=10 IEnMin=10 EnMin= -514.281065272000     IErMin=10 ErrMin= 5.68D-07
 ErrMax= 5.68D-07  0.00D+00 EMaxC= 1.00D-01 BMatC= 1.76D-10 BMatP= 5.26D-09
 IDIUse=1 WtCom= 1.00D+00 WtEn= 0.00D+00
 Coeff-Com:  0.111D-04-0.261D-04-0.181D-03-0.505D-03-0.832D-03-0.776D-03
 Coeff-Com:  0.108D-01 0.713D-01 0.199D+00 0.721D+00
 Coeff:      0.111D-04-0.261D-04-0.181D-03-0.505D-03-0.832D-03-0.776D-03
 Coeff:      0.108D-01 0.713D-01 0.199D+00 0.721D+00
 Gap=     0.169 Goal=   None    Shift=    0.000
 RMSDP=8.78D-08 MaxDP=3.44D-06 DE=-4.87D-09 OVMax= 7.50D-06

 Cycle  11  Pass 1  IDiag  1:
 RMSU=  5.80D-08    CP:  9.67D-01  1.05D+00  6.79D-01  6.61D-01  6.34D-01
                    CP:  6.84D-01  6.40D-01  8.34D-01  7.11D-01  8.32D-01
 E= -514.281065272165     Delta-E=       -0.000000000165 Rises=F Damp=F
 DIIS: error= 2.32D-07 at cycle  11 NSaved=  11.
 NSaved=11 IEnMin=11 EnMin= -514.281065272165     IErMin=11 ErrMin= 2.32D-07
 ErrMax= 2.32D-07  0.00D+00 EMaxC= 1.00D-01 BMatC= 2.09D-11 BMatP= 1.76D-10
 IDIUse=1 WtCom= 1.00D+00 WtEn= 0.00D+00
 Coeff-Com:  0.424D-05-0.661D-05-0.705D-04-0.216D-03-0.498D-03-0.933D-03
 Coeff-Com:  0.103D-02 0.144D-01 0.680D-01 0.346D+00 0.572D+00
 Coeff:      0.424D-05-0.661D-05-0.705D-04-0.216D-03-0.498D-03-0.933D-03
 Coeff:      0.103D-02 0.144D-01 0.680D-01 0.346D+00 0.572D+00
 Gap=     0.169 Goal=   None    Shift=    0.000
 RMSDP=2.84D-08 MaxDP=1.27D-06 DE=-1.65D-10 OVMax= 2.60D-06

 Cycle  12  Pass 1  IDiag  1:
 RMSU=  1.96D-08    CP:  9.67D-01  1.05D+00  6.79D-01  6.61D-01  6.34D-01
                    CP:  6.84D-01  6.40D-01  8.37D-01  7.12D-01  8.79D-01
                    CP:  7.61D-01
 E= -514.281065272189     Delta-E=       -0.000000000023 Rises=F Damp=F
 DIIS: error= 6.36D-08 at cycle  12 NSaved=  12.
 NSaved=12 IEnMin=12 EnMin= -514.281065272189     IErMin=12 ErrMin= 6.36D-08
 ErrMax= 6.36D-08  0.00D+00 EMaxC= 1.00D-01 BMatC= 2.52D-12 BMatP= 2.09D-11
 IDIUse=1 WtCom= 1.00D+00 WtEn= 0.00D+00
 Coeff-Com:  0.325D-06 0.850D-06-0.202D-05-0.193D-04-0.102D-03-0.326D-03
 Coeff-Com: -0.139D-02-0.586D-02-0.905D-03 0.423D-01 0.271D+00 0.696D+00
 Coeff:      0.325D-06 0.850D-06-0.202D-05-0.193D-04-0.102D-03-0.326D-03
 Coeff:     -0.139D-02-0.586D-02-0.905D-03 0.423D-01 0.271D+00 0.696D+00
 Gap=     0.169 Goal=   None    Shift=    0.000
 RMSDP=9.83D-09 MaxDP=3.48D-07 DE=-2.32D-11 OVMax= 1.06D-06

 Error on total polarization charges =  0.01605
 SCF Done:  E(RB3LYP) =  -514.281065272     A.U. after   12 cycles
            NFock= 12  Conv=0.98D-08     -V/T= 2.0092
 KE= 5.095788066333D+02 PE=-2.547847797542D+03 EE= 8.397151812481D+02
 Leave Link  502 at Sun Jul 11 16:25:28 2021, MaxMem=   104857600 cpu:             137.7 elap:              34.5
 (Enter /prod/apps/gaussian/g16b1/l601.exe)
 Copying SCF densities to generalized density rwf, IOpCl= 0 IROHF=0.

 **********************************************************************

            Population analysis using the SCF Density.

 **********************************************************************

 Orbital symmetries:
       Occupied  (A) (A) (A) (A) (A) (A) (A) (A) (A) (A) (A) (A)
                 (A) (A) (A) (A) (A) (A) (A) (A) (A) (A) (A) (A)
                 (A) (A) (A) (A) (A) (A) (A) (A) (A) (A) (A) (A)
                 (A) (A) (A) (A) (A) (A) (A)
       Virtual   (A) (A) (A) (A) (A) (A) (A) (A) (A) (A) (A) (A)
                 (A) (A) (A) (A) (A) (A) (A) (A) (A) (A) (A) (A)
                 (A) (A) (A) (A) (A) (A) (A) (A) (A) (A) (A) (A)
                 (A) (A) (A) (A) (A) (A) (A) (A) (A) (A) (A) (A)
                 (A) (A) (A) (A) (A) (A) (A) (A) (A) (A) (A) (A)
                 (A) (A) (A) (A) (A) (A) (A) (A) (A) (A) (A) (A)
                 (A) (A) (A) (A) (A) (A) (A) (A) (A) (A) (A) (A)
                 (A) (A) (A) (A) (A) (A) (A) (A) (A) (A) (A) (A)
                 (A) (A) (A) (A) (A) (A) (A) (A) (A) (A) (A) (A)
                 (A) (A) (A) (A) (A) (A) (A) (A) (A) (A) (A) (A)
                 (A) (A) (A) (A) (A) (A) (A) (A) (A) (A) (A) (A)
                 (A) (A) (A) (A) (A) (A) (A) (A) (A) (A) (A) (A)
                 (A) (A) (A) (A) (A) (A) (A) (A) (A) (A) (A) (A)
                 (A) (A) (A) (A) (A)
 The electronic state is 1-A.
 Alpha  occ. eigenvalues --  -14.44077 -14.42187 -14.32395 -10.25781 -10.25309
 Alpha  occ. eigenvalues --  -10.25034 -10.22127 -10.21181 -10.20834 -10.20787
 Alpha  occ. eigenvalues --  -10.20702 -10.20269  -1.05535  -1.00582  -0.93036
 Alpha  occ. eigenvalues --   -0.83039  -0.80643  -0.75989  -0.73525  -0.67400
 Alpha  occ. eigenvalues --   -0.64747  -0.61646  -0.59756  -0.58668  -0.57663
 Alpha  occ. eigenvalues --   -0.53343  -0.51121  -0.49547  -0.47745  -0.47457
 Alpha  occ. eigenvalues --   -0.46659  -0.45158  -0.43974  -0.40920  -0.39233
 Alpha  occ. eigenvalues --   -0.38615  -0.37774  -0.36939  -0.34574  -0.31635
 Alpha  occ. eigenvalues --   -0.29980  -0.25052  -0.21285
 Alpha virt. eigenvalues --   -0.04396  -0.00267   0.04951   0.06004   0.09713
 Alpha virt. eigenvalues --    0.11013   0.11334   0.12428   0.13071   0.13863
 Alpha virt. eigenvalues --    0.14672   0.15342   0.15609   0.16001   0.16565
 Alpha virt. eigenvalues --    0.17881   0.18743   0.19977   0.22339   0.24868
 Alpha virt. eigenvalues --    0.25493   0.27356   0.29026   0.30670   0.31996
 Alpha virt. eigenvalues --    0.39559   0.43452   0.45250   0.46695   0.47732
 Alpha virt. eigenvalues --    0.49307   0.50324   0.52171   0.53527   0.54831
 Alpha virt. eigenvalues --    0.55509   0.55812   0.56897   0.57546   0.58407
 Alpha virt. eigenvalues --    0.59537   0.60742   0.61802   0.62946   0.64370
 Alpha virt. eigenvalues --    0.66360   0.67507   0.68956   0.71197   0.71494
 Alpha virt. eigenvalues --    0.74172   0.75689   0.78800   0.79625   0.80739
 Alpha virt. eigenvalues --    0.81351   0.82591   0.83606   0.84353   0.85296
 Alpha virt. eigenvalues --    0.85833   0.87825   0.88056   0.89482   0.89941
 Alpha virt. eigenvalues --    0.91001   0.91143   0.92818   0.94211   0.96756
 Alpha virt. eigenvalues --    0.97865   0.98848   1.00717   1.05208   1.06387
 Alpha virt. eigenvalues --    1.07933   1.11297   1.14427   1.18118   1.19116
 Alpha virt. eigenvalues --    1.26143   1.27942   1.28943   1.33622   1.35120
 Alpha virt. eigenvalues --    1.35711   1.39792   1.40068   1.42500   1.46052
 Alpha virt. eigenvalues --    1.48142   1.49813   1.52561   1.55413   1.56559
 Alpha virt. eigenvalues --    1.60505   1.65122   1.72677   1.75422   1.76338
 Alpha virt. eigenvalues --    1.77397   1.82871   1.83691   1.89228   1.90595
 Alpha virt. eigenvalues --    1.92008   1.93495   1.95945   1.97788   2.00126
 Alpha virt. eigenvalues --    2.01241   2.02852   2.03720   2.05245   2.07730
 Alpha virt. eigenvalues --    2.09404   2.12594   2.16364   2.18788   2.20944
 Alpha virt. eigenvalues --    2.22980   2.24335   2.26583   2.28472   2.33072
 Alpha virt. eigenvalues --    2.33592   2.35714   2.36617   2.38903   2.43754
 Alpha virt. eigenvalues --    2.46727   2.48986   2.55186   2.56568   2.59193
 Alpha virt. eigenvalues --    2.60861   2.62264   2.65161   2.66752   2.67701
 Alpha virt. eigenvalues --    2.71900   2.78302   2.78665   2.82609   2.88237
 Alpha virt. eigenvalues --    3.02873   3.12115   3.19758   3.40041   3.79116
 Alpha virt. eigenvalues --    4.05207   4.07032   4.13374   4.16645   4.22375
 Alpha virt. eigenvalues --    4.26312   4.32863   4.39738   4.47367   4.51747
 Alpha virt. eigenvalues --    4.64660
          Condensed to atoms (all electrons):
               1          2          3          4          5          6
     1  N    6.763467   0.302503   0.277417   0.220408  -0.032318  -0.046196
     2  H    0.302503   0.274599  -0.008773  -0.017202  -0.003441   0.003750
     3  H    0.277417  -0.008773   0.292258  -0.027136   0.003549   0.000043
     4  C    0.220408  -0.017202  -0.027136   5.013448   0.379994   0.389830
     5  H   -0.032318  -0.003441   0.003549   0.379994   0.474485  -0.016425
     6  H   -0.046196   0.003750   0.000043   0.389830  -0.016425   0.504257
     7  C   -0.053497   0.000062  -0.006197   0.352427  -0.028582  -0.048364
     8  H   -0.002778   0.001453   0.000229  -0.033475  -0.002139   0.004839
     9  H    0.004589  -0.000090   0.000517  -0.038912  -0.002557  -0.002457
    10  C   -0.012645   0.000107   0.017618  -0.041933   0.003866  -0.006173
    11  C   -0.004334   0.000232   0.022954  -0.004024  -0.000120   0.000776
    12  H    0.000028   0.000024   0.000122   0.000145  -0.000005  -0.000010
    13  N   -0.000086   0.000001  -0.000344  -0.000045   0.000001  -0.000001
    14  C    0.000003  -0.000000  -0.000084   0.000001  -0.000000  -0.000001
    15  H   -0.000000  -0.000000  -0.000001  -0.000000  -0.000000   0.000000
    16  C    0.000000  -0.000000  -0.000002   0.000000  -0.000000   0.000000
    17  H    0.000000  -0.000000  -0.000000   0.000000  -0.000000   0.000000
    18  C   -0.000000   0.000000   0.000002  -0.000000   0.000000   0.000000
    19  H   -0.000000   0.000000   0.000000   0.000000  -0.000000  -0.000000
    20  C    0.000002  -0.000000  -0.000011   0.000012  -0.000000   0.000003
    21  H    0.000000  -0.000000  -0.000000  -0.000000  -0.000000   0.000002
    22  C    0.000251  -0.000003  -0.000723   0.000386  -0.000004   0.000029
    23  N    0.000110   0.000003  -0.001028  -0.002499  -0.000001   0.007218
    24  H    0.308159  -0.010344  -0.010295  -0.017238  -0.000057  -0.005194
               7          8          9         10         11         12
     1  N   -0.053497  -0.002778   0.004589  -0.012645  -0.004334   0.000028
     2  H    0.000062   0.001453  -0.000090   0.000107   0.000232   0.000024
     3  H   -0.006197   0.000229   0.000517   0.017618   0.022954   0.000122
     4  C    0.352427  -0.033475  -0.038912  -0.041933  -0.004024   0.000145
     5  H   -0.028582  -0.002139  -0.002557   0.003866  -0.000120  -0.000005
     6  H   -0.048364   0.004839  -0.002457  -0.006173   0.000776  -0.000010
     7  C    5.158262   0.371128   0.364117   0.363383  -0.068693  -0.000221
     8  H    0.371128   0.521050  -0.023828  -0.029522  -0.002061   0.001795
     9  H    0.364117  -0.023828   0.533867  -0.030269   0.004098  -0.000117
    10  C    0.363383  -0.029522  -0.030269   4.700671   0.540796  -0.032587
    11  C   -0.068693  -0.002061   0.004098   0.540796   5.074009   0.363564
    12  H   -0.000221   0.001795  -0.000117  -0.032587   0.363564   0.509436
    13  N    0.005281   0.000035  -0.000097  -0.037420   0.337004  -0.041981
    14  C   -0.000078  -0.000006   0.000002   0.006264  -0.051542   0.000150
    15  H   -0.000003   0.000000   0.000000   0.000052  -0.002420   0.002294
    16  C    0.000005  -0.000000  -0.000000  -0.000422   0.004150   0.000124
    17  H   -0.000000  -0.000000   0.000000   0.000007  -0.000119  -0.000003
    18  C    0.000006  -0.000000  -0.000000  -0.000128   0.001108   0.000014
    19  H   -0.000000   0.000000  -0.000000   0.000001   0.000012  -0.000000
    20  C   -0.000510   0.000006   0.000000   0.001013   0.013528  -0.000366
    21  H    0.000000   0.000000   0.000001   0.000281  -0.000294   0.000002
    22  C    0.002839  -0.000061   0.000359  -0.091976  -0.091742   0.004926
    23  N   -0.061629   0.002857   0.000065   0.454895  -0.093166   0.005274
    24  H    0.003676  -0.000033  -0.000124   0.000142   0.000029   0.000005
              13         14         15         16         17         18
     1  N   -0.000086   0.000003  -0.000000   0.000000   0.000000  -0.000000
     2  H    0.000001  -0.000000  -0.000000  -0.000000  -0.000000   0.000000
     3  H   -0.000344  -0.000084  -0.000001  -0.000002  -0.000000   0.000002
     4  C   -0.000045   0.000001  -0.000000   0.000000   0.000000  -0.000000
     5  H    0.000001  -0.000000  -0.000000  -0.000000  -0.000000   0.000000
     6  H   -0.000001  -0.000001   0.000000   0.000000   0.000000   0.000000
     7  C    0.005281  -0.000078  -0.000003   0.000005  -0.000000   0.000006
     8  H    0.000035  -0.000006   0.000000  -0.000000  -0.000000  -0.000000
     9  H   -0.000097   0.000002   0.000000  -0.000000   0.000000  -0.000000
    10  C   -0.037420   0.006264   0.000052  -0.000422   0.000007  -0.000128
    11  C    0.337004  -0.051542  -0.002420   0.004150  -0.000119   0.001108
    12  H   -0.041981   0.000150   0.002294   0.000124  -0.000003   0.000014
    13  N    6.749923   0.327117  -0.038647  -0.018095   0.003087  -0.036152
    14  C    0.327117   4.862542   0.370607   0.554838  -0.036523  -0.041332
    15  H   -0.038647   0.370607   0.486675  -0.034490  -0.002351   0.003452
    16  C   -0.018095   0.554838  -0.034490   4.930628   0.366667   0.478159
    17  H    0.003087  -0.036523  -0.002351   0.366667   0.529274  -0.034052
    18  C   -0.036152  -0.041332   0.003452   0.478159  -0.034052   4.915226
    19  H   -0.000044   0.004743  -0.000143  -0.041409  -0.004849   0.369298
    20  C   -0.042395  -0.037074   0.000150  -0.020622   0.004111   0.524776
    21  H    0.005500   0.000296   0.000015   0.004428  -0.000131  -0.039408
    22  C    0.327075  -0.023981   0.001700  -0.027219   0.000508  -0.014837
    23  N   -0.094857   0.005964  -0.000135  -0.000055   0.000003   0.003601
    24  H    0.000002  -0.000000  -0.000000  -0.000000   0.000000   0.000000
              19         20         21         22         23         24
     1  N   -0.000000   0.000002   0.000000   0.000251   0.000110   0.308159
     2  H    0.000000  -0.000000  -0.000000  -0.000003   0.000003  -0.010344
     3  H    0.000000  -0.000011  -0.000000  -0.000723  -0.001028  -0.010295
     4  C    0.000000   0.000012  -0.000000   0.000386  -0.002499  -0.017238
     5  H   -0.000000  -0.000000  -0.000000  -0.000004  -0.000001  -0.000057
     6  H   -0.000000   0.000003   0.000002   0.000029   0.007218  -0.005194
     7  C   -0.000000  -0.000510   0.000000   0.002839  -0.061629   0.003676
     8  H    0.000000   0.000006   0.000000  -0.000061   0.002857  -0.000033
     9  H   -0.000000   0.000000   0.000001   0.000359   0.000065  -0.000124
    10  C    0.000001   0.001013   0.000281  -0.091976   0.454895   0.000142
    11  C    0.000012   0.013528  -0.000294  -0.091742  -0.093166   0.000029
    12  H   -0.000000  -0.000366   0.000002   0.004926   0.005274   0.000005
    13  N   -0.000044  -0.042395   0.005500   0.327075  -0.094857   0.000002
    14  C    0.004743  -0.037074   0.000296  -0.023981   0.005964  -0.000000
    15  H   -0.000143   0.000150   0.000015   0.001700  -0.000135  -0.000000
    16  C   -0.041409  -0.020622   0.004428  -0.027219  -0.000055  -0.000000
    17  H   -0.004849   0.004111  -0.000131   0.000508   0.000003   0.000000
    18  C    0.369298   0.524776  -0.039408  -0.014837   0.003601   0.000000
    19  H    0.534994  -0.034163  -0.004816   0.002701  -0.000072   0.000000
    20  C   -0.034163   5.069138   0.357345   0.455299  -0.068996   0.000000
    21  H   -0.004816   0.357345   0.551831  -0.036522  -0.001056  -0.000000
    22  C    0.002701   0.455299  -0.036522   4.472029   0.486131  -0.000007
    23  N   -0.000072  -0.068996  -0.001056   0.486131   6.941846  -0.000029
    24  H    0.000000   0.000000  -0.000000  -0.000007  -0.000029   0.270267
 Mulliken charges:
               1
     1  N   -0.725084
     2  H    0.457119
     3  H    0.439886
     4  C   -0.174190
     5  H    0.223755
     6  H    0.214074
     7  C   -0.353413
     8  H    0.190509
     9  H    0.190835
    10  C    0.193978
    11  C   -0.043746
    12  H    0.187387
    13  N   -0.444863
    14  C    0.058094
    15  H    0.213245
    16  C   -0.196686
    17  H    0.174371
    18  C   -0.129733
    19  H    0.173747
    20  C   -0.221247
    21  H    0.162526
    22  C    0.532842
    23  N   -0.584447
    24  H    0.461041
 Sum of Mulliken charges =   1.00000
 Mulliken charges with hydrogens summed into heavy atoms:
               1
     1  N    0.632963
     4  C    0.263639
     7  C    0.027930
    10  C    0.193978
    11  C    0.143641
    13  N   -0.444863
    14  C    0.271338
    16  C   -0.022315
    18  C    0.044014
    20  C   -0.058721
    22  C    0.532842
    23  N   -0.584447
 Electronic spatial extent (au):  <R**2>=           2290.3275
 Charge=              1.0000 electrons
 Dipole moment (field-independent basis, Debye):
    X=            -11.7375    Y=              6.8525    Z=              4.1301  Tot=             14.2051
 Quadrupole moment (field-independent basis, Debye-Ang):
   XX=             -5.6585   YY=            -60.0164   ZZ=            -62.2462
   XY=             -9.1387   XZ=            -14.1475   YZ=              1.0933
 Traceless Quadrupole moment (field-independent basis, Debye-Ang):
   XX=             36.9818   YY=            -17.3760   ZZ=            -19.6058
   XY=             -9.1387   XZ=            -14.1475   YZ=              1.0933
 Octapole moment (field-independent basis, Debye-Ang**2):
  XXX=           -156.2654  YYY=             30.9075  ZZZ=             20.4414  XYY=             -9.0570
  XXY=             39.2490  XXZ=             49.4506  XZZ=            -43.6652  YZZ=              6.8196
  YYZ=              4.2545  XYZ=            -15.4231
 Hexadecapole moment (field-independent basis, Debye-Ang**3):
 XXXX=          -1437.6352 YYYY=           -407.2784 ZZZZ=           -192.3305 XXXY=           -119.2489
 XXXZ=           -174.7291 YYYX=            -30.0360 YYYZ=             -6.7241 ZZZX=            -79.3633
 ZZZY=             14.2927 XXYY=           -362.7632 XXZZ=           -350.4029 YYZZ=           -107.7254
 XXYZ=             36.0247 YYXZ=            -19.7996 ZZXY=            -19.4468
 N-N= 6.842727443886D+02 E-N=-2.547847797088D+03  KE= 5.095788066333D+02
 No NMR shielding tensors so no spin-rotation constants.
 Leave Link  601 at Sun Jul 11 16:25:29 2021, MaxMem=   104857600 cpu:               0.4 elap:               0.1
 (Enter /prod/apps/gaussian/g16b1/l701.exe)
 ... and contract with generalized density number  0.
 Compute integral first derivatives.
 D1PCM: PCM CHGder 1st derivatives, ID1Alg=3 FixD1E=F DoIter=F DoCFld=F I1PDM=0.
 GePol: Maximum number of non-zero 1st derivatives   =     283
 Leave Link  701 at Sun Jul 11 16:25:30 2021, MaxMem=   104857600 cpu:               5.3 elap:               1.3
 (Enter /prod/apps/gaussian/g16b1/l702.exe)
 L702 exits ... SP integral derivatives will be done elsewhere.
 Leave Link  702 at Sun Jul 11 16:25:30 2021, MaxMem=   104857600 cpu:               0.1 elap:               0.0
 (Enter /prod/apps/gaussian/g16b1/l703.exe)
 Integral derivatives from FoFJK, PRISM(SPDF).
 Compute integral first derivatives, UseDBF=F ICtDFT=           0.
 Calling FoFJK, ICntrl=      2127 FMM=F ISym2X=0 I1Cent= 0 IOpClX= 0 NMat=1 NMatS=1 NMatT=0.
 FoFJK:  IHMeth= 1 ICntrl=    2127 DoSepK=F KAlg= 0 I1Cent=           0 FoldK=F
 IRaf=         0 NMat=       1 IRICut=       1 DoRegI=T DoRafI=F ISym2E= 0 IDoP0=0 IntGTp=1.
 FoFCou: FMM=F IPFlag=           0 FMFlag=      100000 FMFlg1=         800
         NFxFlg=           0 DoJE=F BraDBF=F KetDBF=F FulRan=T
         wScrn=  0.000000 ICntrl=      2127 IOpCl=  0 I1Cent=           0 NGrid=           0
         NMat0=    1 NMatS0=      1 NMatT0=    0 NMatD0=    1 NMtDS0=    0 NMtDT0=    0
 Symmetry not used in FoFCou.
 Leave Link  703 at Sun Jul 11 16:25:39 2021, MaxMem=   104857600 cpu:              34.7 elap:               8.7
 (Enter /prod/apps/gaussian/g16b1/l716.exe)
 Dipole        =-4.61790199D+00 2.69597185D+00 1.62488870D+00
 ***** Axes restored to original set *****
 -------------------------------------------------------------------
 Center     Atomic                   Forces (Hartrees/Bohr)
 Number     Number              X              Y              Z
 -------------------------------------------------------------------
      1        7           0.026519022   -0.016622270   -0.013299318
      2        1          -0.011897877    0.006335254   -0.022744606
      3        1          -0.002470191    0.023280032    0.011241842
      4        6          -0.008733057    0.011992659    0.013902463
      5        1          -0.003362985   -0.002975346    0.010082028
      6        1           0.005330715   -0.018469714   -0.007814319
      7        6           0.019757713   -0.002271605    0.005520205
      8        1          -0.003163505   -0.002529137   -0.000867885
      9        1           0.004783783   -0.000352665   -0.004745262
     10        6          -0.024276474    0.004795944   -0.062370687
     11        6           0.000952138    0.007941085   -0.025759257
     12        1           0.004767188   -0.005251152   -0.000835584
     13        7          -0.018443022    0.018974744   -0.035754539
     14        6           0.000502781   -0.008735574    0.050604762
     15        1           0.000101731   -0.006480718   -0.001695764
     16        6           0.015735938   -0.004838147   -0.039354106
     17        1          -0.004871923   -0.000614843   -0.000168087
     18        6           0.000694664   -0.018877221   -0.012182840
     19        1          -0.010710328   -0.007057924    0.007986008
     20        6           0.016917148    0.014005852   -0.000584033
     21        1           0.000997164    0.000728774   -0.001330883
     22        6           0.007903711    0.026590409    0.102195517
     23        7           0.007103060   -0.007255440    0.015601652
     24        1          -0.024137396   -0.012312995    0.012372693
 -------------------------------------------------------------------
 Cartesian Forces:  Max     0.102195517 RMS     0.020219934
 Leave Link  716 at Sun Jul 11 16:25:39 2021, MaxMem=   104857600 cpu:               0.1 elap:               0.1
 (Enter /prod/apps/gaussian/g16b1/l103.exe)

 GradGradGradGradGradGradGradGradGradGradGradGradGradGradGradGradGradGrad
 Berny optimization.
 FormGI is forming the generalized inverse of G from B-inverse, IUseBI=4.
 Internal  Forces:  Max     0.051281797 RMS     0.011462148
 Search for a local minimum.
 Step number   1 out of a maximum of  138
 All quantities printed in internal units (Hartrees-Bohrs-Radians)
 RMS Force = .11462D-01 SwitMx=.10000D-02 MixMth= 1
 Mixed Optimization -- RFO/linear search
 Second derivative matrix not updated -- first step.
 ITU=  0
     Eigenvalues ---    0.00247   0.00697   0.00792   0.01602   0.01788
     Eigenvalues ---    0.01863   0.01890   0.01928   0.02027   0.02054
     Eigenvalues ---    0.02067   0.02124   0.02201   0.02250   0.02537
     Eigenvalues ---    0.04069   0.04080   0.05570   0.05723   0.05728
     Eigenvalues ---    0.05818   0.07609   0.09497   0.11670   0.12995
     Eigenvalues ---    0.15361   0.15681   0.15814   0.15949   0.15980
     Eigenvalues ---    0.16000   0.16000   0.16000   0.21859   0.22000
     Eigenvalues ---    0.22315   0.22407   0.23754   0.24439   0.24927
     Eigenvalues ---    0.24970   0.31431   0.31838   0.32587   0.34454
     Eigenvalues ---    0.34516   0.34544   0.34628   0.35318   0.35381
     Eigenvalues ---    0.35435   0.35550   0.35594   0.38099   0.39814
     Eigenvalues ---    0.42724   0.43330   0.44357   0.45951   0.47623
     Eigenvalues ---    0.47701   0.47706   0.48308   0.50629   0.58846
     Eigenvalues ---    0.60457
 RFO step:  Lambda=-5.02843453D-02 EMin= 2.47272160D-03
 Linear search not attempted -- first point.
 Maximum step size (   0.300) exceeded in Quadratic search.
    -- Step size scaled by   0.870
 Iteration  1 RMS(Cart)=  0.07053745 RMS(Int)=  0.00163512
 Iteration  2 RMS(Cart)=  0.00236805 RMS(Int)=  0.00063597
 Iteration  3 RMS(Cart)=  0.00000289 RMS(Int)=  0.00063596
 Iteration  4 RMS(Cart)=  0.00000000 RMS(Int)=  0.00063596
 ITry= 1 IFail=0 DXMaxC= 2.30D-01 DCOld= 1.00D+10 DXMaxT= 3.00D-01 DXLimC= 3.00D+00 Rises=F
 Variable       Old X    -DE/DX   Delta X   Delta X   Delta X     New X
                                 (Linear)    (Quad)   (Total)
    R1        1.88953   0.02568   0.00000   0.04236   0.04236   1.93189
    R2        1.89043   0.02547   0.00000   0.04207   0.04207   1.93250
    R3        2.85197   0.01133   0.00000   0.02703   0.02703   2.87900
    R4        1.88959   0.02929   0.00000   0.04831   0.04831   1.93790
    R5        2.06468  -0.00536   0.00000  -0.01178  -0.01178   2.05290
    R6        2.06571  -0.00201   0.00000  -0.00443  -0.00443   2.06128
    R7        2.84442   0.02013   0.00000   0.04749   0.04749   2.89191
    R8        2.06421  -0.00063   0.00000  -0.00138  -0.00138   2.06283
    R9        2.06283   0.00349   0.00000   0.00765   0.00765   2.07048
   R10        2.83083   0.00681   0.00000   0.01575   0.01575   2.84658
   R11        2.61610   0.00245   0.00000   0.00228   0.00177   2.61787
   R12        2.50072   0.05128   0.00000   0.06768   0.06762   2.56834
   R13        2.04791  -0.00365   0.00000  -0.00782  -0.00782   2.04009
   R14        2.57754   0.03212   0.00000   0.04765   0.04745   2.62499
   R15        2.63536  -0.01870   0.00000  -0.03114  -0.03080   2.60456
   R16        2.56592   0.03139   0.00000   0.04961   0.05006   2.61598
   R17        2.04721  -0.00274   0.00000  -0.00586  -0.00586   2.04135
   R18        2.65840  -0.02972   0.00000  -0.05449  -0.05427   2.60413
   R19        2.04974  -0.00057   0.00000  -0.00123  -0.00123   2.04852
   R20        2.68264   0.00516   0.00000   0.00681   0.00672   2.68936
   R21        2.05061  -0.00082   0.00000  -0.00176  -0.00176   2.04885
   R22        2.65300  -0.02683   0.00000  -0.04687  -0.04722   2.60579
   R23        2.05161  -0.00101   0.00000  -0.00217  -0.00217   2.04944
   R24        2.71812  -0.01615   0.00000  -0.02882  -0.02904   2.68908
   R25        2.48693   0.02144   0.00000   0.02892   0.02937   2.51629
    A1        1.91058  -0.00495   0.00000  -0.01947  -0.01974   1.89084
    A2        1.91082   0.00648   0.00000   0.02743   0.02715   1.93797
    A3        1.91026  -0.00549   0.00000  -0.02241  -0.02269   1.88757
    A4        1.91100   0.00405   0.00000   0.01660   0.01640   1.92740
    A5        1.91081  -0.00478   0.00000  -0.02106  -0.02118   1.88963
    A6        1.91032   0.00469   0.00000   0.01890   0.01869   1.92901
    A7        1.90445  -0.00604   0.00000  -0.03546  -0.03507   1.86938
    A8        1.75098   0.00746   0.00000   0.06101   0.05933   1.81030
    A9        1.91998   0.00552   0.00000   0.02709   0.02602   1.94599
   A10        2.08107  -0.00783   0.00000  -0.06606  -0.06522   2.01585
   A11        1.95793  -0.00022   0.00000  -0.00841  -0.00808   1.94985
   A12        1.83602   0.00289   0.00000   0.03493   0.03270   1.86872
   A13        2.00078  -0.00565   0.00000  -0.03009  -0.03003   1.97075
   A14        1.81457   0.00121   0.00000   0.01268   0.01235   1.82692
   A15        1.97047   0.00511   0.00000   0.01831   0.01816   1.98862
   A16        1.88316  -0.00065   0.00000  -0.01008  -0.01005   1.87312
   A17        1.91891  -0.00001   0.00000  -0.00051  -0.00040   1.91851
   A18        1.86608   0.00015   0.00000   0.01197   0.01162   1.87770
   A19        2.11180   0.01914   0.00000   0.05577   0.05615   2.16795
   A20        2.19951  -0.00912   0.00000  -0.02633  -0.02602   2.17349
   A21        1.97069  -0.00994   0.00000  -0.02852  -0.02940   1.94129
   A22        2.33806  -0.00367   0.00000  -0.01458  -0.01419   2.32386
   A23        1.84865  -0.00350   0.00000  -0.01394  -0.01502   1.83363
   A24        2.09475   0.00730   0.00000   0.03018   0.03048   2.12523
   A25        2.24219   0.00535   0.00000   0.01216   0.01204   2.25423
   A26        1.78940   0.02551   0.00000   0.07253   0.07219   1.86158
   A27        2.25135  -0.03087   0.00000  -0.08503  -0.08471   2.16664
   A28        2.09367  -0.01198   0.00000  -0.04267  -0.04292   2.05075
   A29        2.01695   0.01134   0.00000   0.03356   0.03405   2.05100
   A30        2.17151   0.00067   0.00000   0.00937   0.00909   2.18060
   A31        2.07818  -0.00422   0.00000  -0.00480  -0.00595   2.07223
   A32        2.08145   0.00850   0.00000   0.02342   0.02263   2.10407
   A33        2.08998  -0.00261   0.00000   0.00196   0.00077   2.09075
   A34        2.03830   0.00538   0.00000   0.02704   0.02726   2.06556
   A35        2.10213   0.00037   0.00000  -0.00187  -0.00269   2.09944
   A36        2.12660  -0.00522   0.00000  -0.01807  -0.01819   2.10841
   A37        2.09860   0.00488   0.00000   0.01675   0.01660   2.11520
   A38        2.10415  -0.00930   0.00000  -0.02334  -0.02466   2.07949
   A39        2.06509   0.00525   0.00000   0.01726   0.01689   2.08198
   A40        1.98545   0.02117   0.00000   0.06824   0.06799   2.05344
   A41        2.04116  -0.03550   0.00000  -0.10179  -0.10134   1.93982
   A42        2.25547   0.01431   0.00000   0.03373   0.03357   2.28903
   A43        1.76908   0.02393   0.00000   0.07806   0.07819   1.84728
    D1       -0.61530  -0.00316   0.00000  -0.02803  -0.02816  -0.64346
    D2       -2.81538   0.00463   0.00000   0.03136   0.03207  -2.78331
    D3        1.53958  -0.00382   0.00000  -0.04438  -0.04496   1.49462
    D4       -2.70998  -0.00354   0.00000  -0.03118  -0.03134  -2.74132
    D5        1.37313   0.00424   0.00000   0.02822   0.02889   1.40202
    D6       -0.55509  -0.00421   0.00000  -0.04752  -0.04814  -0.60324
    D7        1.47856  -0.00304   0.00000  -0.02713  -0.02721   1.45135
    D8       -0.72152   0.00474   0.00000   0.03227   0.03302  -0.68850
    D9       -2.64974  -0.00371   0.00000  -0.04347  -0.04401  -2.69376
   D10       -1.17312   0.00462   0.00000   0.04200   0.04233  -1.13079
   D11        3.05851   0.00757   0.00000   0.06170   0.06209   3.12059
   D12        1.04257   0.00423   0.00000   0.03132   0.03154   1.07411
   D13        0.95020   0.00066   0.00000   0.01010   0.01018   0.96037
   D14       -1.10136   0.00360   0.00000   0.02980   0.02993  -1.07143
   D15       -3.11730   0.00027   0.00000  -0.00057  -0.00061  -3.11791
   D16       -3.04497  -0.00739   0.00000  -0.05435  -0.05469  -3.09966
   D17        1.18667  -0.00445   0.00000  -0.03465  -0.03494   1.15172
   D18       -0.82928  -0.00778   0.00000  -0.06502  -0.06549  -0.89476
   D19       -1.75625   0.00076   0.00000  -0.00464  -0.00439  -1.76064
   D20        1.32925   0.00257   0.00000   0.01645   0.01634   1.34559
   D21        0.50215  -0.00275   0.00000  -0.03099  -0.03079   0.47136
   D22       -2.69554  -0.00094   0.00000  -0.00990  -0.01007  -2.70560
   D23        2.54206  -0.00344   0.00000  -0.03651  -0.03642   2.50564
   D24       -0.65563  -0.00163   0.00000  -0.01541  -0.01569  -0.67132
   D25       -0.01179  -0.00143   0.00000  -0.00777  -0.00706  -0.01886
   D26       -3.08780  -0.00419   0.00000  -0.04073  -0.03941  -3.12721
   D27       -3.10414  -0.00290   0.00000  -0.02593  -0.02506  -3.12920
   D28        0.10304  -0.00566   0.00000  -0.05889  -0.05741   0.04564
   D29        3.13210   0.00005   0.00000   0.00970   0.01111  -3.13998
   D30       -0.06169   0.00255   0.00000   0.03171   0.03194  -0.02976
   D31        3.02662   0.00155   0.00000   0.03163   0.03209   3.05870
   D32       -0.09246   0.00272   0.00000   0.04793   0.04997  -0.04249
   D33       -0.06046  -0.00032   0.00000   0.00596   0.00609  -0.05437
   D34        3.10365   0.00085   0.00000   0.02226   0.02398   3.12763
   D35       -0.04143   0.00276   0.00000   0.03374   0.03362  -0.00781
   D36        3.05279   0.00370   0.00000   0.03966   0.03914   3.09193
   D37        3.07188   0.00217   0.00000   0.01567   0.01514   3.08702
   D38       -0.11709   0.00311   0.00000   0.02158   0.02065  -0.09644
   D39       -3.03214  -0.00316   0.00000  -0.04201  -0.04240  -3.07454
   D40        0.06357  -0.00304   0.00000  -0.03698  -0.03681   0.02676
   D41        0.13213  -0.00266   0.00000  -0.02737  -0.02723   0.10490
   D42       -3.05534  -0.00253   0.00000  -0.02234  -0.02164  -3.07699
   D43        3.00343   0.00426   0.00000   0.05150   0.05173   3.05516
   D44        0.13788  -0.00202   0.00000  -0.03150  -0.03191   0.10597
   D45       -0.18792   0.00487   0.00000   0.05617   0.05619  -0.13173
   D46       -3.05347  -0.00141   0.00000  -0.02684  -0.02745  -3.08092
   D47        2.75509   0.00727   0.00000   0.10340   0.10488   2.85996
   D48       -0.19787   0.00478   0.00000   0.06425   0.06478  -0.13308
   D49       -0.10857   0.00119   0.00000   0.02088   0.02138  -0.08719
   D50       -3.06153  -0.00130   0.00000  -0.01827  -0.01871  -3.08024
   D51       -3.11339  -0.00159   0.00000  -0.01244  -0.01173  -3.12512
   D52        0.21864  -0.00724   0.00000  -0.07992  -0.07890   0.13974
   D53        0.22656  -0.00540   0.00000  -0.05866  -0.05785   0.16870
   D54       -2.72460  -0.01106   0.00000  -0.12615  -0.12503  -2.84963
   D55       -0.17492   0.00301   0.00000   0.05018   0.05128  -0.12364
   D56        3.01948   0.00444   0.00000   0.04859   0.04840   3.06787
   D57       -3.12966  -0.00254   0.00000  -0.01609  -0.01468   3.13884
   D58        0.06474  -0.00111   0.00000  -0.01768  -0.01757   0.04717
   D59       -0.00287   0.00035   0.00000   0.00473   0.00419   0.00132
   D60        3.08450   0.00036   0.00000   0.01080   0.01100   3.09550
         Item               Value     Threshold  Converged?
 Maximum Force            0.051282     0.000450     NO 
 RMS     Force            0.011462     0.000300     NO 
 Maximum Displacement     0.229862     0.001800     NO 
 RMS     Displacement     0.070138     0.001200     NO 
 Predicted change in Energy=-2.957538D-02
 Lowest energy point so far.  Saving SCF results.
 GradGradGradGradGradGradGradGradGradGradGradGradGradGradGradGradGradGrad

 Leave Link  103 at Sun Jul 11 16:25:39 2021, MaxMem=   104857600 cpu:               0.1 elap:               0.1
 (Enter /prod/apps/gaussian/g16b1/l202.exe)
                          Input orientation:                          
 ---------------------------------------------------------------------
 Center     Atomic      Atomic             Coordinates (Angstroms)
 Number     Number       Type             X           Y           Z
 ---------------------------------------------------------------------
      1          7           0       -2.028989   -2.065403   -1.731432
      2          1           0       -2.288865   -1.990831   -2.717347
      3          1           0       -1.998638   -1.123401   -1.334573
      4          6           0       -0.679017   -2.753358   -1.572205
      5          1           0       -0.624554   -3.529625   -2.330223
      6          1           0       -0.687998   -3.105046   -0.539710
      7          6           0        0.476157   -1.757472   -1.697498
      8          1           0        0.546818   -1.311314   -2.691254
      9          1           0        1.379070   -2.359111   -1.545075
     10          6           0        0.467426   -0.676149   -0.648814
     11          6           0        0.012012    0.614299   -0.864323
     12          1           0       -0.387561    1.121354   -1.729604
     13          7           0        0.201510    1.270607    0.345182
     14          6           0       -0.000379    2.598107    0.656023
     15          1           0       -0.349245    3.247756   -0.133381
     16          6           0        0.209455    2.985206    1.961831
     17          1           0        0.135861    4.037494    2.211611
     18          6           0        0.741680    2.068597    2.911522
     19          1           0        1.139594    2.462358    3.840027
     20          6           0        0.907276    0.740605    2.579194
     21          1           0        1.297288    0.026567    3.296281
     22          6           0        0.703768    0.332947    1.231112
     23          7           0        0.866987   -0.848386    0.638764
     24          1           0       -2.761658   -2.594803   -1.247112
 ---------------------------------------------------------------------
                    Distance matrix (angstroms):
[...]
                 (A) (A) (A) (A) (A) (A) (A) (A) (A) (A) (A) (A)
                 (A) (A) (A) (A) (A) (A) (A) (A) (A) (A) (A) (A)
                 (A) (A) (A) (A) (A) (A) (A) (A) (A) (A) (A) (A)
                 (A) (A) (A) (A) (A) (A) (A) (A) (A) (A) (A) (A)
                 (A) (A) (A) (A) (A) (A) (A) (A) (A) (A) (A) (A)
                 (A) (A) (A) (A) (A) (A) (A) (A) (A) (A) (A) (A)
                 (A) (A) (A) (A) (A) (A) (A) (A) (A) (A) (A) (A)
                 (A) (A) (A) (A) (A) (A) (A) (A) (A) (A) (A) (A)
                 (A) (A) (A) (A) (A) (A) (A) (A) (A) (A) (A) (A)
                 (A) (A) (A) (A) (A) (A) (A) (A) (A) (A) (A) (A)
                 (A) (A) (A) (A) (A) (A) (A) (A) (A) (A) (A) (A)
                 (A) (A) (A) (A) (A) (A) (A) (A) (A) (A) (A) (A)
                 (A) (A) (A) (A) (A) (A) (A) (A) (A) (A) (A) (A)
                 (A) (A) (A) (A) (A) (A) (A) (A) (A) (A) (A) (A)
                 (A) (A) (A) (A) (A) (A) (A) (A) (A) (A) (A) (A)
                 (A) (A) (A) (A) (A) (A) (A) (A) (A) (A) (A) (A)
                 (A) (A) (A) (A) (A) (A) (A) (A) (A) (A) (A) (A)
                 (A) (A) (A) (A) (A) (A) (A) (A) (A) (A) (A) (A)
                 (A) (A) (A) (A) (A) (A) (A) (A) (A) (A) (A) (A)
                 (A) (A) (A) (A) (A) (A) (A) (A) (A) (A) (A) (A)
                 (A) (A) (A) (A) (A)
 The electronic state is 1-A.
 Alpha  occ. eigenvalues --  -15.88435 -15.76901 -15.66755 -11.46483 -11.42939
 Alpha  occ. eigenvalues --  -11.40995 -11.39857 -11.39711 -11.38876 -11.36707
 Alpha  occ. eigenvalues --  -11.35622 -11.35606  -1.49357  -1.47887  -1.33074
 Alpha  occ. eigenvalues --   -1.23349  -1.21675  -1.13727  -1.12062  -1.05038
 Alpha  occ. eigenvalues --   -0.97681  -0.95467  -0.95106  -0.94208  -0.91053
 Alpha  occ. eigenvalues --   -0.83892  -0.82617  -0.80583  -0.77649  -0.75874
 Alpha  occ. eigenvalues --   -0.75054  -0.73702  -0.72513  -0.70952  -0.68671
 Alpha  occ. eigenvalues --   -0.66840  -0.64742  -0.63307  -0.58161  -0.55589
 Alpha  occ. eigenvalues --   -0.54831  -0.44324  -0.40465
 Alpha virt. eigenvalues --   -0.10367  -0.07029  -0.06865  -0.05230  -0.03996
 Alpha virt. eigenvalues --   -0.03484  -0.03177  -0.03054  -0.02479  -0.02031
 Alpha virt. eigenvalues --   -0.01512  -0.01111  -0.00501   0.00460   0.00722
 Alpha virt. eigenvalues --    0.01307   0.02124   0.02442   0.02819   0.03451
 Alpha virt. eigenvalues --    0.03598   0.04185   0.04537   0.04614   0.04724
 Alpha virt. eigenvalues --    0.05548   0.06302   0.06366   0.06714   0.06886
 Alpha virt. eigenvalues --    0.06935   0.07639   0.08081   0.08188   0.08510
 Alpha virt. eigenvalues --    0.09156   0.09496   0.09860   0.10613   0.10902
 Alpha virt. eigenvalues --    0.11131   0.11621   0.12015   0.12508   0.13426
 Alpha virt. eigenvalues --    0.13636   0.14504   0.15199   0.15641   0.16375
 Alpha virt. eigenvalues --    0.17539   0.18402   0.19015   0.19355   0.19914
 Alpha virt. eigenvalues --    0.20335   0.20810   0.21015   0.21366   0.22237
 Alpha virt. eigenvalues --    0.22666   0.23038   0.23383   0.23872   0.23909
 Alpha virt. eigenvalues --    0.24607   0.25192   0.26011   0.26760   0.27281
 Alpha virt. eigenvalues --    0.27798   0.28915   0.29034   0.29225   0.29703
 Alpha virt. eigenvalues --    0.29843   0.31145   0.31440   0.31945   0.32789
 Alpha virt. eigenvalues --    0.32872   0.33522   0.33921   0.34503   0.34812
 Alpha virt. eigenvalues --    0.35334   0.35936   0.36945   0.36992   0.37192
 Alpha virt. eigenvalues --    0.37974   0.38619   0.39260   0.39723   0.40419
 Alpha virt. eigenvalues --    0.41215   0.41880   0.42115   0.43909   0.44214
 Alpha virt. eigenvalues --    0.44439   0.44786   0.45445   0.46390   0.46478
 Alpha virt. eigenvalues --    0.46861   0.47351   0.48741   0.49822   0.50146
 Alpha virt. eigenvalues --    0.50503   0.51564   0.51729   0.52640   0.53070
 Alpha virt. eigenvalues --    0.54638   0.54768   0.55422   0.56044   0.56237
 Alpha virt. eigenvalues --    0.57356   0.57679   0.58007   0.58117   0.58342
 Alpha virt. eigenvalues --    0.59061   0.60808   0.61000   0.61977   0.62199
 Alpha virt. eigenvalues --    0.62568   0.63210   0.64373   0.65082   0.65251
 Alpha virt. eigenvalues --    0.65743   0.66345   0.66655   0.66780   0.67666
 Alpha virt. eigenvalues --    0.68116   0.69023   0.69889   0.70790   0.72558
 Alpha virt. eigenvalues --    0.72962   0.73579   0.74384   0.75349   0.76010
 Alpha virt. eigenvalues --    0.76235   0.76373   0.77522   0.79503   0.79633
 Alpha virt. eigenvalues --    0.80000   0.80644   0.81483   0.82300   0.82441
 Alpha virt. eigenvalues --    0.83221   0.83659   0.84355   0.84629   0.85397
 Alpha virt. eigenvalues --    0.86861   0.87641   0.88243   0.89769   0.90116
 Alpha virt. eigenvalues --    0.90564   0.91930   0.93110   0.93806   0.94857
 Alpha virt. eigenvalues --    0.95986   0.96133   0.97745   0.98344   0.99914
 Alpha virt. eigenvalues --    1.02470   1.02704   1.03988   1.04918   1.06450
 Alpha virt. eigenvalues --    1.07153   1.08955   1.09631   1.10291   1.11763
 Alpha virt. eigenvalues --    1.12970   1.15309   1.15865   1.17610   1.19336
 Alpha virt. eigenvalues --    1.22539   1.24788   1.26185   1.26487   1.30030
 Alpha virt. eigenvalues --    1.31259   1.31797   1.33172   1.35745   1.36276
 Alpha virt. eigenvalues --    1.37437   1.41201   1.43159   1.44940   1.46538
 Alpha virt. eigenvalues --    1.47307   1.48482   1.49216   1.50224   1.50992
 Alpha virt. eigenvalues --    1.51244   1.52926   1.53450   1.55371   1.56512
 Alpha virt. eigenvalues --    1.56957   1.57701   1.57783   1.60897   1.61621
 Alpha virt. eigenvalues --    1.63449   1.64542   1.64919   1.67771   1.68094
 Alpha virt. eigenvalues --    1.68489   1.69145   1.70052   1.72250   1.72986
 Alpha virt. eigenvalues --    1.74340   1.75864   1.77491   1.78421   1.80489
 Alpha virt. eigenvalues --    1.81164   1.82537   1.83033   1.83519   1.84535
 Alpha virt. eigenvalues --    1.85680   1.86920   1.88875   1.89642   1.91185
 Alpha virt. eigenvalues --    1.92417   1.92954   1.94307   1.94835   1.97150
 Alpha virt. eigenvalues --    1.99759   2.00211   2.01008   2.02071   2.03685
 Alpha virt. eigenvalues --    2.05277   2.05631   2.07276   2.07899   2.09998
 Alpha virt. eigenvalues --    2.10624   2.12394   2.13418   2.15406   2.15755
 Alpha virt. eigenvalues --    2.17084   2.17838   2.18178   2.19601   2.21238
 Alpha virt. eigenvalues --    2.22287   2.23452   2.24617   2.25644   2.27712
 Alpha virt. eigenvalues --    2.28728   2.30377   2.31247   2.32865   2.34577
 Alpha virt. eigenvalues --    2.35366   2.36167   2.36765   2.40336   2.42873
 Alpha virt. eigenvalues --    2.44964   2.45701   2.47470   2.48414   2.50447
 Alpha virt. eigenvalues --    2.54682   2.55051   2.56555   2.56667   2.61890
 Alpha virt. eigenvalues --    2.63003   2.65472   2.67833   2.68884   2.69165
 Alpha virt. eigenvalues --    2.71442   2.72539   2.75648   2.76464   2.78614
 Alpha virt. eigenvalues --    2.79244   2.80826   2.82681   2.83677   2.85709
 Alpha virt. eigenvalues --    2.86616   2.88983   2.91861   2.94848   2.96255
 Alpha virt. eigenvalues --    2.98411   3.02506   3.04092   3.05529   3.09687
 Alpha virt. eigenvalues --    3.12161   3.15114   3.22173   3.23484   3.35486
 Alpha virt. eigenvalues --    3.37594   3.37724   3.41242   3.44837   3.48205
 Alpha virt. eigenvalues --    3.51780   3.59480   3.64150   3.81178   4.20681
 Alpha virt. eigenvalues --    4.44356
          Condensed to atoms (all electrons):
               1          2          3          4          5          6
     1  N    6.485043   0.371939   0.407290  -0.065005  -0.102260  -0.087410
     2  H    0.371939   0.548047  -0.042678  -0.000571  -0.040564   0.026258
     3  H    0.407290  -0.042678   0.490554  -0.053356   0.021929  -0.021299
     4  C   -0.065005  -0.000571  -0.053356   4.642817   0.262771   0.238571
     5  H   -0.102260  -0.040564   0.021929   0.262771   1.222762  -0.189831
     6  H   -0.087410   0.026258  -0.021299   0.238571  -0.189831   1.165095
     7  C   -0.074208  -0.024865  -0.040068   0.597663  -0.054913  -0.043032
     8  H    0.027018   0.003369  -0.001449  -0.242484  -0.020920   0.060207
     9  H    0.026785   0.003693  -0.000322   0.007063  -0.061851  -0.029966
    10  C    0.025171  -0.041786   0.045949  -0.191969   0.113301  -0.023282
    11  C    0.053737   0.035130  -0.030226   0.052676  -0.023151  -0.027314
    12  H   -0.004112   0.001670  -0.002525   0.021072  -0.000215  -0.001148
    13  N    0.007726  -0.000666   0.005635  -0.013932  -0.002043   0.006356
    14  C    0.004373   0.002008   0.001838   0.007059  -0.002719   0.003955
    15  H    0.000633   0.000134  -0.000764  -0.001704  -0.000012   0.000380
    16  C    0.000538   0.000873  -0.004445   0.003200  -0.000211   0.000039
    17  H    0.000017  -0.000006   0.000022  -0.000087  -0.000008   0.000013
    18  C   -0.000837  -0.000602   0.002955  -0.000384   0.000760  -0.000240
    19  H   -0.000034   0.000009  -0.000094   0.000237  -0.000000   0.000063
    20  C    0.002760  -0.000241  -0.000215  -0.048120   0.003148  -0.004810
    21  H    0.000135   0.000007   0.000296  -0.000138   0.000230   0.000075
    22  C   -0.040580  -0.004451   0.012894  -0.090727   0.019100   0.047078
    23  N   -0.001028   0.002045  -0.003000   0.022476  -0.001074   0.008393
    24  H    0.430626  -0.069560  -0.063329  -0.038860  -0.012988  -0.030738
               7          8          9         10         11         12
     1  N   -0.074208   0.027018   0.026785   0.025171   0.053737  -0.004112
     2  H   -0.024865   0.003369   0.003693  -0.041786   0.035130   0.001670
     3  H   -0.040068  -0.001449  -0.000322   0.045949  -0.030226  -0.002525
     4  C    0.597663  -0.242484   0.007063  -0.191969   0.052676   0.021072
     5  H   -0.054913  -0.020920  -0.061851   0.113301  -0.023151  -0.000215
     6  H   -0.043032   0.060207  -0.029966  -0.023282  -0.027314  -0.001148
     7  C    5.221045   0.125404   0.259874  -0.063450   0.001050  -0.022278
     8  H    0.125404   1.278821  -0.161640   0.187311  -0.178611  -0.006802
     9  H    0.259874  -0.161640   0.940363  -0.226844   0.161681   0.011103
    10  C   -0.063450   0.187311  -0.226844   7.815037  -1.748381  -0.043332
    11  C    0.001050  -0.178611   0.161681  -1.748381   9.112371  -0.333687
    12  H   -0.022278  -0.006802   0.011103  -0.043332  -0.333687   1.611687
    13  N    0.006212   0.052698  -0.014087   0.465125  -0.267125  -0.012199
    14  C   -0.041056   0.004945  -0.001596  -0.182029  -0.798136   0.155625
    15  H    0.018479   0.002978  -0.000566   0.022321  -0.030668  -0.054003
    16  C    0.051732  -0.003693   0.002564   0.010371   0.300378  -0.023437
    17  H    0.000036   0.000090   0.000071  -0.001178   0.024050  -0.001601
    18  C   -0.030842   0.000841  -0.003425  -0.325834  -0.059839   0.035428
    19  H    0.000323  -0.000028   0.000084   0.020564  -0.006834   0.001573
    20  C   -0.057833   0.012852  -0.006389   0.675400  -0.686178  -0.045683
    21  H    0.002245   0.000167   0.000548  -0.049873   0.072566   0.002080
    22  C   -0.240010   0.027448  -0.028935  -0.613351  -0.978645   0.151991
    23  N   -0.074903  -0.035586   0.035936   0.012287   0.281791   0.023614
    24  H    0.038972  -0.003823   0.002131  -0.009186  -0.000854  -0.000022
              13         14         15         16         17         18
     1  N    0.007726   0.004373   0.000633   0.000538   0.000017  -0.000837
     2  H   -0.000666   0.002008   0.000134   0.000873  -0.000006  -0.000602
     3  H    0.005635   0.001838  -0.000764  -0.004445   0.000022   0.002955
     4  C   -0.013932   0.007059  -0.001704   0.003200  -0.000087  -0.000384
     5  H   -0.002043  -0.002719  -0.000012  -0.000211  -0.000008   0.000760
     6  H    0.006356   0.003955   0.000380   0.000039   0.000013  -0.000240
     7  C    0.006212  -0.041056   0.018479   0.051732   0.000036  -0.030842
     8  H    0.052698   0.004945   0.002978  -0.003693   0.000090   0.000841
     9  H   -0.014087  -0.001596  -0.000566   0.002564   0.000071  -0.003425
    10  C    0.465125  -0.182029   0.022321   0.010371  -0.001178  -0.325834
    11  C   -0.267125  -0.798136  -0.030668   0.300378   0.024050  -0.059839
    12  H   -0.012199   0.155625  -0.054003  -0.023437  -0.001601   0.035428
    13  N    8.039348  -0.077141  -0.039395  -0.145703   0.026469  -0.380888
    14  C   -0.077141   7.490509  -0.376109  -1.469996   0.274996   0.862883
    15  H   -0.039395  -0.376109   1.717675   0.364071  -0.066536   0.011206
    16  C   -0.145703  -1.469996   0.364071   7.510229  -0.561033  -1.174692
    17  H    0.026469   0.274996  -0.066536  -0.561033   1.606583   0.266286
    18  C   -0.380888   0.862883   0.011206  -1.174692   0.266286   7.548198
    19  H    0.007391  -0.123832  -0.009689   0.254099  -0.061281  -0.405464
    20  C    0.082644  -0.753742   0.038034   1.294122  -0.089768  -1.528741
    21  H    0.036916   0.020608  -0.001670  -0.139800  -0.008937   0.270597
    22  C    0.159302   0.420383  -0.109113  -1.175660   0.020583   1.048865
    23  N   -0.202279  -0.087902   0.004416   0.111328  -0.001437  -0.080768
    24  H   -0.002250  -0.000794  -0.000075   0.000380   0.000009  -0.000404
              19         20         21         22         23         24
     1  N   -0.000034   0.002760   0.000135  -0.040580  -0.001028   0.430626
     2  H    0.000009  -0.000241   0.000007  -0.004451   0.002045  -0.069560
     3  H   -0.000094  -0.000215   0.000296   0.012894  -0.003000  -0.063329
     4  C    0.000237  -0.048120  -0.000138  -0.090727   0.022476  -0.038860
     5  H   -0.000000   0.003148   0.000230   0.019100  -0.001074  -0.012988
     6  H    0.000063  -0.004810   0.000075   0.047078   0.008393  -0.030738
     7  C    0.000323  -0.057833   0.002245  -0.240010  -0.074903   0.038972
     8  H   -0.000028   0.012852   0.000167   0.027448  -0.035586  -0.003823
     9  H    0.000084  -0.006389   0.000548  -0.028935   0.035936   0.002131
    10  C    0.020564   0.675400  -0.049873  -0.613351   0.012287  -0.009186
    11  C   -0.006834  -0.686178   0.072566  -0.978645   0.281791  -0.000854
    12  H    0.001573  -0.045683   0.002080   0.151991   0.023614  -0.000022
    13  N    0.007391   0.082644   0.036916   0.159302  -0.202279  -0.002250
    14  C   -0.123832  -0.753742   0.020608   0.420383  -0.087902  -0.000794
    15  H   -0.009689   0.038034  -0.001670  -0.109113   0.004416  -0.000075
    16  C    0.254099   1.294122  -0.139800  -1.175660   0.111328   0.000380
    17  H   -0.061281  -0.089768  -0.008937   0.020583  -0.001437   0.000009
    18  C   -0.405464  -1.528741   0.270597   1.048865  -0.080768  -0.000404
    19  H    1.506672   0.312787  -0.059506  -0.033901   0.004098   0.000001
    20  C    0.312787   9.820913  -1.016121  -3.688894   0.210218  -0.000299
    21  H   -0.059506  -1.016121   1.645999   0.787110  -0.082978  -0.000010
    22  C   -0.033901  -3.688894   0.787110  10.689714  -0.068355  -0.006599
    23  N    0.004098   0.210218  -0.082978  -0.068355   7.965027  -0.001741
    24  H    0.000001  -0.000299  -0.000010  -0.006599  -0.001741   0.596116
 Mulliken charges:
               1
     1  N   -0.468319
     2  H    0.230807
     3  H    0.274406
     4  C    0.891731
     5  H   -0.131243
     6  H   -0.097412
     7  C    0.444424
     8  H   -0.129112
     9  H    0.083728
    10  C    0.127659
    11  C    1.074217
    12  H   -0.464798
    13  N   -0.738114
    14  C    0.665868
    15  H   -0.490023
    16  C    0.794745
    17  H   -0.427353
    18  C   -0.055060
    19  H   -0.407238
    20  C    1.474156
    21  H   -0.480546
    22  C   -0.305244
    23  N   -1.040579
    24  H    0.173298
 Sum of Mulliken charges =   1.00000
 Mulliken charges with hydrogens summed into heavy atoms:
               1
     1  N    0.210193
     4  C    0.663076
     7  C    0.399040
    10  C    0.127659
    11  C    0.609420
    13  N   -0.738114
    14  C    0.175844
    16  C    0.367392
    18  C   -0.462298
    20  C    0.993611
    22  C   -0.305244
    23  N   -1.040579
 Electronic spatial extent (au):  <R**2>=           2351.8751
 Charge=              1.0000 electrons
 Dipole moment (field-independent basis, Debye):
    X=            -10.1189    Y=              3.2374    Z=              5.0898  Tot=             11.7804
 Quadrupole moment (field-independent basis, Debye-Ang):
   XX=             -2.1006   YY=            -60.8336   ZZ=            -62.6643
   XY=             -3.5796   XZ=            -13.2512   YZ=             -0.0854
 Traceless Quadrupole moment (field-independent basis, Debye-Ang):
   XX=             39.7656   YY=            -18.9674   ZZ=            -20.7982
   XY=             -3.5796   XZ=            -13.2512   YZ=             -0.0854
 Octapole moment (field-independent basis, Debye-Ang**2):
  XXX=           -153.8952  YYY=             16.5087  ZZZ=             23.6565  XYY=             -0.9112
  XXY=              6.9676  XXZ=             70.5143  XZZ=            -52.9425  YZZ=              1.6730
  YYZ=              6.2071  XYZ=             -5.4298
 Hexadecapole moment (field-independent basis, Debye-Ang**3):
 XXXX=          -1443.1925 YYYY=           -395.2973 ZZZZ=           -214.6832 XXXY=            -38.9073
 XXXZ=           -180.6896 YYYX=            -15.3044 YYYZ=             -5.1333 ZZZX=            -90.1321
 ZZZY=              5.7223 XXYY=           -389.1154 XXZZ=           -332.6296 YYZZ=           -122.6811
 XXYZ=             15.8281 YYXZ=            -11.8699 ZZXY=             -1.9255
 N-N= 6.778081299596D+02 E-N=-2.534318004350D+03  KE= 5.102768894687D+02
 Leave Link  601 at Sun Jul 11 16:49:40 2021, MaxMem=   262144000 cpu:               0.5 elap:               0.2
 (Enter /prod/apps/gaussian/g16b1/l9999.exe)
 1\1\GINC-PIRINEUS38\SP\RMP2-FC\Aug-CC-pVDZ\C9H12N3(1+)\UBATOR02\11-Jul
 -2021\0\\#p mp2/aug-cc-pVDZ scf=tight maxdisk=180GB geom=allcheck\\SET
 _328_BBB315_conf1.geo_060_075 geometry\\1,1\N,0,-2.0282815855,-2.19531
 88844,-1.5939249079\H,0,-2.2216981052,-1.8626991252,-2.5513436253\H,0,
 -2.1645770438,-1.398734058,-0.9559396093\C,0,-0.6414231896,-2.76121472
 09,-1.4744126809\H,0,-0.5782328276,-3.5854356989,-2.182292375\H,0,-0.5
 482826597,-3.1458763535,-0.4593439665\C,0,0.4123885113,-1.6940534263,-
 1.7612523529\H,0,0.2666377151,-1.2862436656,-2.7652240467\H,0,1.380896
 5438,-2.2044397645,-1.763462352\C,0,0.4264434564,-0.5871147062,-0.7497
 435205\C,0,0.1563052675,0.7481730089,-0.9660758387\H,0,-0.0990379134,1
 .3016097302,-1.8547399824\N,0,0.2902960661,1.360630017,0.2639906935\C,
 0,0.1448552329,2.6741332913,0.6410180755\H,0,-0.1191408344,3.374197997
 4,-0.1403032481\C,0,0.3369704695,3.0149268893,1.9498221206\H,0,0.22173
 18331,4.0509175414,2.2450984818\C,0,0.6835102065,2.0225550764,2.909032
 1932\H,0,0.8321337494,2.3102701729,3.9432451401\C,0,0.8297962703,0.709
 6611673,2.5316105137\H,0,1.0931330501,-0.0676969573,3.238382129\C,0,0.
 6324175514,0.3502162364,1.178374906\N,0,0.7156159131,-0.833727614,0.56
 8208992\H,0,-2.7444576773,-2.9037361539,-1.3617247392\\Version=ES64L-G
 16RevB.01\State=1-A\HF=-510.9957947\MP2=-512.7482179\RMSD=3.819e-09\PG
 =C01 [X(C9H12N3)]\\@


 IT WAS A GAME, A VERY INTERESTING GAME ONE COULD
 PLAY.  WHENEVER ONE SOLVED ONE OF THE LITTLE PROBLEMS,
 ONE COULD WRITE A PAPER ABOUT IT.  IT WAS VERY EASY IN
 THOSE DAYS FOR ANY SECOND-RATE PHYSICIST TO DO
 FIRST-RATE WORK.  THERE HAS NOT BEEN SUCH A GLORIOUS
 TIME SINCE.  IT IS VERY DIFFICULT NOW FOR A FIRST-RATE
 PHYSICIST TO DO SECOND-RATE WORK.
     P.A.M. DIRAC, ON THE EARLY DAYS OF QUANTUM MECHANICS
                   DIRECTIONS IN PHYSICS, 1978, P. 7
 Job cpu time:       0 days  0 hours 31 minutes 49.3 seconds.
 Elapsed time:       0 days  0 hours  8 minutes  8.3 seconds.
 File lengths (MBytes):  RWF=  16280 Int=      0 D2E=      0 Chk=     13 Scr=      1
 Normal termination of Gaussian 16 at Sun Jul 11 16:49:41 2021.
