 Entering Gaussian System, Link 0=g16
 Initial command:
 /prod/apps/gaussian/g16b1/l1.exe "/tmp/ubator02/1834528/Gau-210802.inp" -scrdir="/tmp/ubator02/1834528/"
 Entering Link 1 = /prod/apps/gaussian/g16b1/l1.exe PID=    210803.
  
 Copyright (c) 1988-2017, Gaussian, Inc.  All Rights Reserved.
  
 This is part of the Gaussian(R) 16 program.  It is based on
 the Gaussian(R) 09 system (copyright 2009, Gaussian, Inc.),
 the Gaussian(R) 03 system (copyright 2003, Gaussian, Inc.),
 the Gaussian(R) 98 system (copyright 1998, Gaussian, Inc.),
 the Gaussian(R) 94 system (copyright 1995, Gaussian, Inc.),
 the Gaussian 92(TM) system (copyright 1992, Gaussian, Inc.),
 the Gaussian 90(TM) system (copyright 1990, Gaussian, Inc.),
 the Gaussian 88(TM) system (copyright 1988, Gaussian, Inc.),
 the Gaussian 86(TM) system (copyright 1986, Carnegie Mellon
 University), and the Gaussian 82(TM) system (copyright 1983,
 Carnegie Mellon University). Gaussian is a federally registered
 trademark of Gaussian, Inc.
  
 This software contains proprietary and confidential information,
 including trade secrets, belonging to Gaussian, Inc.
  
 This software is provided under written license and may be
 used, copied, transmitted, or stored only in accord with that
 written license.
  
 The following legend is applicable only to US Government
 contracts under FAR:
  
                    RESTRICTED RIGHTS LEGEND
  
 Use, reproduction and disclosure by the US Government is
 subject to restrictions as set forth in subparagraphs (a)
 and (c) of the Commercial Computer Software - Restricted
 Rights clause in FAR 52.227-19.
  
 Gaussian, Inc.
 340 Quinnipiac St., Bldg. 40, Wallingford CT 06492
  
  
 ---------------------------------------------------------------
 Warning -- This program may not be used in any manner that
 competes with the business of Gaussian, Inc. or will provide
 assistance to any competitor of Gaussian, Inc.  The licensee
 of this program is prohibited from giving any competitor of
 Gaussian, Inc. access to this program.  By using this program,
 the user acknowledges that Gaussian, Inc. is engaged in the
 business of creating and licensing software in the field of
 computational chemistry and represents and warrants to the
 licensee that it is not a competitor of Gaussian, Inc. and that
 it will not use this program in any manner prohibited above.
 ---------------------------------------------------------------
  

 Cite this work as:
 Gaussian 16, Revision B.01,
 M. J. Frisch, G. W. Trucks, H. B. Schlegel, G. E. Scuseria, 
 M. A. Robb, J. R. Cheeseman, G. Scalmani, V. Barone, 
 G. A. Petersson, H. Nakatsuji, X. Li, M. Caricato, A. V. Marenich, 
 J. Bloino, B. G. Janesko, R. Gomperts, B. Mennucci, H. P. Hratchian, 
 J. V. Ortiz, A. F. Izmaylov, J. L. Sonnenberg, D. Williams-Young, 
 F. Ding, F. Lipparini, F. Egidi, J. Goings, B. Peng, A. Petrone, 
 T. Henderson, D. Ranasinghe, V. G. Zakrzewski, J. Gao, N. Rega, 
 G. Zheng, W. Liang, M. Hada, M. Ehara, K. Toyota, R. Fukuda, 
 J. Hasegawa, M. Ishida, T. Nakajima, Y. Honda, O. Kitao, H. Nakai, 
 T. Vreven, K. Throssell, J. A. Montgomery, Jr., J. E. Peralta, 
 F. Ogliaro, M. J. Bearpark, J. J. Heyd, E. N. Brothers, K. N. Kudin, 
 V. N. Staroverov, T. A. Keith, R. Kobayashi, J. Normand, 
 K. Raghavachari, A. P. Rendell, J. C. Burant, S. S. Iyengar, 
 J. Tomasi, M. Cossi, J. M. Millam, M. Klene, C. Adamo, R. Cammi, 
 J. W. Ochterski, R. L. Martin, K. Morokuma, O. Farkas, 
 J. B. Foresman, and D. J. Fox, Gaussian, Inc., Wallingford CT, 2016.
 
 ******************************************
 Gaussian 16:  ES64L-G16RevB.01 20-Dec-2017
                11-Jul-2021 
 ******************************************
 %mem=800MB
 %nproc=4
 Will use up to    4 processors via shared memory.
 %chk=SET_328_BBB212_conf1.geo_225_060.chk
 -----------------------------------------------------------
 #p b3lyp/6-31G(d) opt freq scrf=(iefpcm,read,solvent=water)
 -----------------------------------------------------------
 1/18=20,19=15,26=3,38=1,40=2/1,3;
 2/9=110,12=2,17=6,18=5,40=1/2;
 3/5=1,6=6,7=1,11=2,25=1,30=1,70=2203,71=1,72=1,74=-5/1,2,3;
 4//1;
 5/5=2,38=5,53=1/2;
 6/7=2,8=2,9=2,10=2,28=1/1;
 7//1,2,3,16;
 1/18=20,19=15,26=3/3(2);
 2/9=110/2;
 99//99;
 2/9=110/2;
 3/5=1,6=6,7=1,11=2,25=1,30=1,70=2205,71=1,72=1,74=-5/1,2,3;
 4/5=5,16=3,69=1/1;
 5/5=2,38=5,53=1/2;
 7//1,2,3,16;
 1/18=20,19=15,26=3/3(-5);
 2/9=110/2;
 6/7=2,8=2,9=2,10=2,19=2,28=1/1;
 99/9=1/99;
 Leave Link    1 at Sun Jul 11 15:57:28 2021, MaxMem=   104857600 cpu:               0.1 elap:               0.0
 (Enter /prod/apps/gaussian/g16b1/l101.exe)
 -----------------------------------------
 SET_328_BBB212_conf1.geo_225_060 geometry
 -----------------------------------------
 Symbolic Z-matrix:
 Charge = -1 Multiplicity = 1
 C                     0.868    -0.979    -2.152 
 H                     1.444    -0.241    -2.715 
 H                     0.36     -1.63     -2.867 
 H                     1.524    -1.595    -1.533 
 C                    -0.148    -0.122    -1.276 
 C                    -1.193     0.534    -2.271 
 H                    -0.895     0.798    -3.287 
 H                    -1.584     1.446    -1.815 
 H                    -2.05     -0.099    -2.509 
 C                     0.751     0.815    -0.545 
 C                     0.837     2.141    -0.841 
 C                     1.665     3.003    -0.06 
 C                     2.424     2.426     0.989 
 O                     3.307     3.243     1.554 
 H                     4.033     2.68      1.876 
 C                     2.34      1.079     1.309 
 C                     1.488     0.24      0.523 
 H                     1.461    -0.825     0.741 
 H                     3.006     0.644     2.049 
 H                     1.694     4.069    -0.27 
 H                     0.293     2.596    -1.665 
 C                    -0.892    -1.01     -0.265 
 C                    -1.662    -0.208     0.589 
 H                    -1.736     0.869     0.456 
 C                    -2.419    -0.734     1.629 
 H                    -3.003    -0.097     2.289 
 C                    -2.291    -2.091     1.924 
 O                    -2.859    -2.654     2.959 
 C                    -1.546    -2.898     1.008 
 H                    -1.598    -3.972     1.169 
 C                    -0.804    -2.367    -0.025 
 H                    -0.189    -2.965    -0.693 
 
 ITRead=  0  0  0  0  0  0  0  0  0  0  0  0  0  0  0  0  0  0  0  0
 ITRead=  0  0  0  0  0  0  0  0  0  0  0  0
 MicOpt= -1 -1 -1 -1 -1 -1 -1 -1 -1 -1 -1 -1 -1 -1 -1 -1 -1 -1 -1 -1
 MicOpt= -1 -1 -1 -1 -1 -1 -1 -1 -1 -1 -1 -1
 NAtoms=     32 NQM=       32 NQMF=       0 NMMI=      0 NMMIF=      0
                NMic=       0 NMicF=      0.
                    Isotopes and Nuclear Properties:
 (Nuclear quadrupole moments (NQMom) in fm**2, nuclear magnetic moments (NMagM)
  in nuclear magnetons)

  Atom         1           2           3           4           5           6           7           8           9          10
 IAtWgt=          12           1           1           1          12          12           1           1           1          12
 AtmWgt=  12.0000000   1.0078250   1.0078250   1.0078250  12.0000000  12.0000000   1.0078250   1.0078250   1.0078250  12.0000000
 NucSpn=           0           1           1           1           0           0           1           1           1           0
 AtZEff=  -0.0000000  -0.0000000  -0.0000000  -0.0000000  -0.0000000  -0.0000000  -0.0000000  -0.0000000  -0.0000000  -0.0000000
 NQMom=    0.0000000   0.0000000   0.0000000   0.0000000   0.0000000   0.0000000   0.0000000   0.0000000   0.0000000   0.0000000
 NMagM=    0.0000000   2.7928460   2.7928460   2.7928460   0.0000000   0.0000000   2.7928460   2.7928460   2.7928460   0.0000000
 AtZNuc=   6.0000000   1.0000000   1.0000000   1.0000000   6.0000000   6.0000000   1.0000000   1.0000000   1.0000000   6.0000000

  Atom        11          12          13          14          15          16          17          18          19          20
 IAtWgt=          12          12          12          16           1          12          12           1           1           1
 AtmWgt=  12.0000000  12.0000000  12.0000000  15.9949146   1.0078250  12.0000000  12.0000000   1.0078250   1.0078250   1.0078250
 NucSpn=           0           0           0           0           1           0           0           1           1           1
 AtZEff=  -0.0000000  -0.0000000  -0.0000000  -0.0000000  -0.0000000  -0.0000000  -0.0000000  -0.0000000  -0.0000000  -0.0000000
 NQMom=    0.0000000   0.0000000   0.0000000   0.0000000   0.0000000   0.0000000   0.0000000   0.0000000   0.0000000   0.0000000
 NMagM=    0.0000000   0.0000000   0.0000000   0.0000000   2.7928460   0.0000000   0.0000000   2.7928460   2.7928460   2.7928460
 AtZNuc=   6.0000000   6.0000000   6.0000000   8.0000000   1.0000000   6.0000000   6.0000000   1.0000000   1.0000000   1.0000000

  Atom        21          22          23          24          25          26          27          28          29          30
 IAtWgt=           1          12          12           1          12           1          12          16          12           1
 AtmWgt=   1.0078250  12.0000000  12.0000000   1.0078250  12.0000000   1.0078250  12.0000000  15.9949146  12.0000000   1.0078250
 NucSpn=           1           0           0           1           0           1           0           0           0           1
 AtZEff=  -0.0000000  -0.0000000  -0.0000000  -0.0000000  -0.0000000  -0.0000000  -0.0000000  -0.0000000  -0.0000000  -0.0000000
 NQMom=    0.0000000   0.0000000   0.0000000   0.0000000   0.0000000   0.0000000   0.0000000   0.0000000   0.0000000   0.0000000
 NMagM=    2.7928460   0.0000000   0.0000000   2.7928460   0.0000000   2.7928460   0.0000000   0.0000000   0.0000000   2.7928460
 AtZNuc=   1.0000000   6.0000000   6.0000000   1.0000000   6.0000000   1.0000000   6.0000000   8.0000000   6.0000000   1.0000000

  Atom        31          32
 IAtWgt=          12           1
 AtmWgt=  12.0000000   1.0078250
 NucSpn=           0           1
 AtZEff=  -0.0000000  -0.0000000
 NQMom=    0.0000000   0.0000000
 NMagM=    0.0000000   2.7928460
 AtZNuc=   6.0000000   1.0000000
 Leave Link  101 at Sun Jul 11 15:57:28 2021, MaxMem=   104857600 cpu:               0.5 elap:               0.1
 (Enter /prod/apps/gaussian/g16b1/l103.exe)

 GradGradGradGradGradGradGradGradGradGradGradGradGradGradGradGradGradGrad
 Berny optimization.
 Initialization pass.
                           ----------------------------
                           !    Initial Parameters    !
                           ! (Angstroms and Degrees)  !
 --------------------------                            --------------------------
 ! Name  Definition              Value          Derivative Info.                !
 --------------------------------------------------------------------------------
 ! R1    R(1,2)                  1.0924         estimate D2E/DX2                !
 ! R2    R(1,3)                  1.0923         estimate D2E/DX2                !
 ! R3    R(1,4)                  1.0922         estimate D2E/DX2                !
 ! R4    R(1,5)                  1.5919         estimate D2E/DX2                !
 ! R5    R(5,6)                  1.5851         estimate D2E/DX2                !
 ! R6    R(5,10)                 1.4901         estimate D2E/DX2                !
 ! R7    R(5,22)                 1.5376         estimate D2E/DX2                !
 ! R8    R(6,7)                  1.0912         estimate D2E/DX2                !
 ! R9    R(6,8)                  1.092          estimate D2E/DX2                !
 ! R10   R(6,9)                  1.0917         estimate D2E/DX2                !
 ! R11   R(10,11)                1.3614         estimate D2E/DX2                !
 ! R12   R(10,17)                1.4193         estimate D2E/DX2                !
 ! R13   R(11,12)                1.4278         estimate D2E/DX2                !
 ! R14   R(11,21)                1.0872         estimate D2E/DX2                !
 ! R15   R(12,13)                1.4175         estimate D2E/DX2                !
 ! R16   R(12,20)                1.0869         estimate D2E/DX2                !
 ! R17   R(13,14)                1.3291         estimate D2E/DX2                !
 ! R18   R(13,16)                1.387          estimate D2E/DX2                !
 ! R19   R(14,15)                0.9735         estimate D2E/DX2                !
 ! R20   R(16,17)                1.431          estimate D2E/DX2                !
 ! R21   R(16,19)                1.0865         estimate D2E/DX2                !
 ! R22   R(17,18)                1.0874         estimate D2E/DX2                !
 ! R23   R(22,23)                1.4019         estimate D2E/DX2                !
 ! R24   R(22,31)                1.3809         estimate D2E/DX2                !
 ! R25   R(23,24)                1.0877         estimate D2E/DX2                !
 ! R26   R(23,25)                1.3897         estimate D2E/DX2                !
 ! R27   R(25,26)                1.0874         estimate D2E/DX2                !
 ! R28   R(25,27)                1.3946         estimate D2E/DX2                !
 ! R29   R(27,28)                1.308          estimate D2E/DX2                !
 ! R30   R(27,29)                1.4302         estimate D2E/DX2                !
 ! R31   R(29,30)                1.0872         estimate D2E/DX2                !
 ! R32   R(29,31)                1.3783         estimate D2E/DX2                !
 ! R33   R(31,32)                1.0872         estimate D2E/DX2                !
 ! A1    A(2,1,3)              108.0894         estimate D2E/DX2                !
 ! A2    A(2,1,4)              110.8794         estimate D2E/DX2                !
 ! A3    A(2,1,5)              104.8585         estimate D2E/DX2                !
 ! A4    A(3,1,4)              108.311          estimate D2E/DX2                !
 ! A5    A(3,1,5)              112.5968         estimate D2E/DX2                !
 ! A6    A(4,1,5)              112.0298         estimate D2E/DX2                !
 ! A7    A(1,5,6)              107.3464         estimate D2E/DX2                !
 ! A8    A(1,5,10)             102.91           estimate D2E/DX2                !
 ! A9    A(1,5,22)             111.0842         estimate D2E/DX2                !
 ! A10   A(6,5,10)             116.452          estimate D2E/DX2                !
 ! A11   A(6,5,22)             109.4364         estimate D2E/DX2                !
 ! A12   A(10,5,22)            109.4215         estimate D2E/DX2                !
 ! A13   A(5,6,7)              120.3017         estimate D2E/DX2                !
 ! A14   A(5,6,8)              108.6365         estimate D2E/DX2                !
 ! A15   A(5,6,9)              114.4836         estimate D2E/DX2                !
 ! A16   A(7,6,8)              106.5299         estimate D2E/DX2                !
 ! A17   A(7,6,9)               98.7242         estimate D2E/DX2                !
 ! A18   A(8,6,9)              107.1096         estimate D2E/DX2                !
 ! A19   A(5,10,11)            122.9507         estimate D2E/DX2                !
 ! A20   A(5,10,17)            115.3194         estimate D2E/DX2                !
 ! A21   A(11,10,17)           121.6963         estimate D2E/DX2                !
 ! A22   A(10,11,12)           120.3812         estimate D2E/DX2                !
 ! A23   A(10,11,21)           122.7406         estimate D2E/DX2                !
 ! A24   A(12,11,21)           116.8782         estimate D2E/DX2                !
 ! A25   A(11,12,13)           118.0052         estimate D2E/DX2                !
 ! A26   A(11,12,20)           120.1271         estimate D2E/DX2                !
 ! A27   A(13,12,20)           121.8651         estimate D2E/DX2                !
 ! A28   A(12,13,14)           114.8412         estimate D2E/DX2                !
 ! A29   A(12,13,16)           122.2488         estimate D2E/DX2                !
 ! A30   A(14,13,16)           122.6248         estimate D2E/DX2                !
 ! A31   A(13,14,15)           106.2942         estimate D2E/DX2                !
 ! A32   A(13,16,17)           118.6027         estimate D2E/DX2                !
 ! A33   A(13,16,19)           120.5868         estimate D2E/DX2                !
 ! A34   A(17,16,19)           120.2888         estimate D2E/DX2                !
 ! A35   A(10,17,16)           119.0104         estimate D2E/DX2                !
 ! A36   A(10,17,18)           122.3261         estimate D2E/DX2                !
 ! A37   A(16,17,18)           118.6137         estimate D2E/DX2                !
 ! A38   A(5,22,23)            109.6281         estimate D2E/DX2                !
 ! A39   A(5,22,31)            130.616          estimate D2E/DX2                !
 ! A40   A(23,22,31)           119.4265         estimate D2E/DX2                !
 ! A41   A(22,23,24)           121.9595         estimate D2E/DX2                !
 ! A42   A(22,23,25)           122.583          estimate D2E/DX2                !
 ! A43   A(24,23,25)           115.4178         estimate D2E/DX2                !
 ! A44   A(23,25,26)           121.6709         estimate D2E/DX2                !
 ! A45   A(23,25,27)           118.4635         estimate D2E/DX2                !
 ! A46   A(26,25,27)           119.4011         estimate D2E/DX2                !
 ! A47   A(25,27,28)           123.1178         estimate D2E/DX2                !
 ! A48   A(25,27,29)           117.4773         estimate D2E/DX2                !
 ! A49   A(28,27,29)           119.3504         estimate D2E/DX2                !
 ! A50   A(27,29,30)           115.9536         estimate D2E/DX2                !
 ! A51   A(27,29,31)           122.8943         estimate D2E/DX2                !
 ! A52   A(30,29,31)           121.1518         estimate D2E/DX2                !
 ! A53   A(22,31,29)           118.331          estimate D2E/DX2                !
 ! A54   A(22,31,32)           118.0201         estimate D2E/DX2                !
 ! A55   A(29,31,32)           123.5812         estimate D2E/DX2                !
 ! D1    D(2,1,5,6)             68.9126         estimate D2E/DX2                !
 ! D2    D(2,1,5,10)           -54.4799         estimate D2E/DX2                !
 ! D3    D(2,1,5,22)          -171.4798         estimate D2E/DX2                !
 ! D4    D(3,1,5,6)            -48.3695         estimate D2E/DX2                !
 ! D5    D(3,1,5,10)          -171.762          estimate D2E/DX2                !
 ! D6    D(3,1,5,22)            71.2382         estimate D2E/DX2                !
 ! D7    D(4,1,5,6)           -170.7478         estimate D2E/DX2                !
 ! D8    D(4,1,5,10)            65.8597         estimate D2E/DX2                !
 ! D9    D(4,1,5,22)           -51.1402         estimate D2E/DX2                !
 ! D10   D(1,5,6,7)            -30.9404         estimate D2E/DX2                !
 ! D11   D(1,5,6,8)           -153.9554         estimate D2E/DX2                !
 ! D12   D(1,5,6,9)             86.3925         estimate D2E/DX2                !
 ! D13   D(10,5,6,7)            83.695          estimate D2E/DX2                !
 ! D14   D(10,5,6,8)           -39.3199         estimate D2E/DX2                !
 ! D15   D(10,5,6,9)          -158.9721         estimate D2E/DX2                !
 ! D16   D(22,5,6,7)          -151.5961         estimate D2E/DX2                !
 ! D17   D(22,5,6,8)            85.389          estimate D2E/DX2                !
 ! D18   D(22,5,6,9)           -34.2632         estimate D2E/DX2                !
 ! D19   D(1,5,10,11)          107.2746         estimate D2E/DX2                !
 ! D20   D(1,5,10,17)          -74.8018         estimate D2E/DX2                !
 ! D21   D(6,5,10,11)           -9.8348         estimate D2E/DX2                !
 ! D22   D(6,5,10,17)          168.0888         estimate D2E/DX2                !
 ! D23   D(22,5,10,11)        -134.5513         estimate D2E/DX2                !
 ! D24   D(22,5,10,17)          43.3723         estimate D2E/DX2                !
 ! D25   D(1,5,22,23)          173.3357         estimate D2E/DX2                !
 ! D26   D(1,5,22,31)            0.1147         estimate D2E/DX2                !
 ! D27   D(6,5,22,23)          -68.3113         estimate D2E/DX2                !
 ! D28   D(6,5,22,31)          118.4677         estimate D2E/DX2                !
 ! D29   D(10,5,22,23)          60.3915         estimate D2E/DX2                !
 ! D30   D(10,5,22,31)        -112.8294         estimate D2E/DX2                !
 ! D31   D(5,10,11,12)         176.7351         estimate D2E/DX2                !
 ! D32   D(5,10,11,21)          -3.241          estimate D2E/DX2                !
 ! D33   D(17,10,11,12)         -1.0589         estimate D2E/DX2                !
 ! D34   D(17,10,11,21)        178.965          estimate D2E/DX2                !
 ! D35   D(5,10,17,16)        -177.7985         estimate D2E/DX2                !
 ! D36   D(5,10,17,18)           4.8057         estimate D2E/DX2                !
 ! D37   D(11,10,17,16)          0.1538         estimate D2E/DX2                !
 ! D38   D(11,10,17,18)       -177.2421         estimate D2E/DX2                !
 ! D39   D(10,11,12,13)          2.3457         estimate D2E/DX2                !
 ! D40   D(10,11,12,20)       -177.0751         estimate D2E/DX2                !
 ! D41   D(21,11,12,13)       -177.6769         estimate D2E/DX2                !
 ! D42   D(21,11,12,20)          2.9023         estimate D2E/DX2                !
 ! D43   D(11,12,13,14)        171.1536         estimate D2E/DX2                !
 ! D44   D(11,12,13,16)         -2.8591         estimate D2E/DX2                !
 ! D45   D(20,12,13,14)         -9.4362         estimate D2E/DX2                !
 ! D46   D(20,12,13,16)        176.551          estimate D2E/DX2                !
 ! D47   D(12,13,14,15)       -150.971          estimate D2E/DX2                !
 ! D48   D(16,13,14,15)         23.0166         estimate D2E/DX2                !
 ! D49   D(12,13,16,17)          1.9976         estimate D2E/DX2                !
 ! D50   D(12,13,16,19)        173.7376         estimate D2E/DX2                !
 ! D51   D(14,13,16,17)       -171.5493         estimate D2E/DX2                !
 ! D52   D(14,13,16,19)          0.1906         estimate D2E/DX2                !
 ! D53   D(13,16,17,10)         -0.5955         estimate D2E/DX2                !
 ! D54   D(13,16,17,18)        176.8979         estimate D2E/DX2                !
 ! D55   D(19,16,17,10)       -172.3608         estimate D2E/DX2                !
 ! D56   D(19,16,17,18)          5.1325         estimate D2E/DX2                !
 ! D57   D(5,22,23,24)           4.0492         estimate D2E/DX2                !
 ! D58   D(5,22,23,25)        -178.3482         estimate D2E/DX2                !
 ! D59   D(31,22,23,24)        178.1444         estimate D2E/DX2                !
 ! D60   D(31,22,23,25)         -4.253          estimate D2E/DX2                !
 ! D61   D(5,22,31,29)         176.4299         estimate D2E/DX2                !
 ! D62   D(5,22,31,32)          -6.456          estimate D2E/DX2                !
 ! D63   D(23,22,31,29)          3.7637         estimate D2E/DX2                !
 ! D64   D(23,22,31,32)       -179.1222         estimate D2E/DX2                !
 ! D65   D(22,23,25,26)        179.3636         estimate D2E/DX2                !
 ! D66   D(22,23,25,27)          7.2335         estimate D2E/DX2                !
 ! D67   D(24,23,25,26)         -2.8883         estimate D2E/DX2                !
 ! D68   D(24,23,25,27)       -175.0184         estimate D2E/DX2                !
 ! D69   D(23,25,27,28)        173.2698         estimate D2E/DX2                !
 ! D70   D(23,25,27,29)         -9.4374         estimate D2E/DX2                !
 ! D71   D(26,25,27,28)          0.9568         estimate D2E/DX2                !
 ! D72   D(26,25,27,29)        178.2496         estimate D2E/DX2                !
 ! D73   D(25,27,29,30)       -170.2534         estimate D2E/DX2                !
 ! D74   D(25,27,29,31)          9.5656         estimate D2E/DX2                !
 ! D75   D(28,27,29,30)          7.1453         estimate D2E/DX2                !
 ! D76   D(28,27,29,31)       -173.0357         estimate D2E/DX2                !
 ! D77   D(27,29,31,22)         -6.6454         estimate D2E/DX2                !
 ! D78   D(27,29,31,32)        176.4128         estimate D2E/DX2                !
 ! D79   D(30,29,31,22)        173.1645         estimate D2E/DX2                !
 ! D80   D(30,29,31,32)         -3.7773         estimate D2E/DX2                !
 --------------------------------------------------------------------------------
 Trust Radius=3.00D-01 FncErr=1.00D-07 GrdErr=1.00D-06 EigMax=2.50D+02 EigMin=1.00D-04
 Number of steps in this run=    178 maximum allowed number of steps=    192.
 GradGradGradGradGradGradGradGradGradGradGradGradGradGradGradGradGradGrad

 Leave Link  103 at Sun Jul 11 15:57:28 2021, MaxMem=   104857600 cpu:               0.1 elap:               0.0
 (Enter /prod/apps/gaussian/g16b1/l202.exe)
                          Input orientation:                          
 ---------------------------------------------------------------------
 Center     Atomic      Atomic             Coordinates (Angstroms)
 Number     Number       Type             X           Y           Z
 ---------------------------------------------------------------------
      1          6           0        0.868000   -0.979000   -2.152000
      2          1           0        1.444000   -0.241000   -2.715000
      3          1           0        0.360000   -1.630000   -2.867000
      4          1           0        1.524000   -1.595000   -1.533000
      5          6           0       -0.148000   -0.122000   -1.276000
      6          6           0       -1.193000    0.534000   -2.271000
      7          1           0       -0.895000    0.798000   -3.287000
      8          1           0       -1.584000    1.446000   -1.815000
      9          1           0       -2.050000   -0.099000   -2.509000
     10          6           0        0.751000    0.815000   -0.545000
     11          6           0        0.837000    2.141000   -0.841000
     12          6           0        1.665000    3.003000   -0.060000
     13          6           0        2.424000    2.426000    0.989000
     14          8           0        3.307000    3.243000    1.554000
     15          1           0        4.033000    2.680000    1.876000
     16          6           0        2.340000    1.079000    1.309000
     17          6           0        1.488000    0.240000    0.523000
     18          1           0        1.461000   -0.825000    0.741000
     19          1           0        3.006000    0.644000    2.049000
     20          1           0        1.694000    4.069000   -0.270000
     21          1           0        0.293000    2.596000   -1.665000
     22          6           0       -0.892000   -1.010000   -0.265000
     23          6           0       -1.662000   -0.208000    0.589000
     24          1           0       -1.736000    0.869000    0.456000
     25          6           0       -2.419000   -0.734000    1.629000
     26          1           0       -3.003000   -0.097000    2.289000
     27          6           0       -2.291000   -2.091000    1.924000
     28          8           0       -2.859000   -2.654000    2.959000
     29          6           0       -1.546000   -2.898000    1.008000
     30          1           0       -1.598000   -3.972000    1.169000
     31          6           0       -0.804000   -2.367000   -0.025000
     32          1           0       -0.189000   -2.965000   -0.693000
 ---------------------------------------------------------------------
                    Distance matrix (angstroms):
                    1          2          3          4          5
     1  C    0.000000
     2  H    1.092423   0.000000
     3  H    1.092287   1.768469   0.000000
     4  H    1.092224   1.799122   1.770784   0.000000
     5  C    1.591880   2.149266   2.250202   2.243070   0.000000
     6  C    2.559502   2.784157   2.729454   3.529784   1.585051
     7  H    2.748476   2.622523   2.765250   3.828123   2.334209
     8  H    3.465039   3.581166   3.787825   4.357392   2.193454
     9  H    3.068644   3.502947   2.877538   3.995506   2.266809
    10  C    2.411343   2.510834   3.394494   2.716942   1.490145
    11  C    3.384388   3.090995   4.307278   3.861156   2.506116
    12  C    4.568150   4.197785   5.571980   4.830240   3.811988
    13  C    4.886823   4.668287   5.964895   4.831038   4.270564
    14  O    6.124414   5.816647   7.209451   6.009568   5.591883
    15  H    6.295259   6.025981   7.386682   6.015978   5.938608
    16  C    4.287268   4.328717   5.357057   3.986615   3.783486
    17  C    3.004328   3.273827   4.032541   2.756022   2.458443
    18  H    2.957163   3.505037   3.857187   2.401655   2.674206
    19  H    4.985336   5.091048   6.028221   4.476625   4.646515
    20  H    5.450367   4.961514   6.403325   5.805598   4.687161
    21  H    3.653549   3.236645   4.394129   4.370042   2.780886
    22  C    2.580568   3.471420   2.953355   2.790538   1.537596
    23  C    3.808992   4.534836   4.249059   4.071517   2.403709
    24  H    4.122813   4.625985   4.656237   4.544779   2.550225
    25  C    5.016010   5.834051   5.360940   5.127067   3.737781
    26  H    5.956933   6.696011   6.343831   6.111090   4.567371
    27  C    5.275377   6.236429   5.494907   5.172146   4.325438
    28  O    6.543583   7.518820   6.734450   6.364765   5.629900
    29  C    4.415377   5.464474   4.500698   4.192778   3.857102
    30  H    5.105707   6.185433   5.060437   4.764223   4.785711
    31  C    3.040766   4.099937   3.158327   2.879172   2.652426
    32  H    2.681441   3.765016   2.609579   2.348802   2.902451
                    6          7          8          9         10
     6  C    0.000000
     7  H    1.091218   0.000000
     8  H    1.092044   1.749688   0.000000
     9  H    1.091688   1.656478   1.756649   0.000000
    10  C    2.614799   3.198151   2.731902   3.540945   0.000000
    11  C    2.957744   3.284264   2.700545   4.016789   1.361355
    12  C    4.376374   4.672168   4.007527   5.424134   2.420323
    13  C    5.223979   5.652461   4.988675   6.215167   2.783416
    14  O    6.497638   6.860766   6.204938   7.508288   4.102941
    15  H    7.008138   7.381306   6.833515   7.997122   4.484528
    16  C    5.059201   5.627380   5.029099   5.936068   2.455999
    17  C    3.883379   4.528372   4.044486   4.671765   1.419302
    18  H    4.238247   4.940612   4.578493   4.839080   2.201703
    19  H    6.025454   6.611688   6.053247   6.847667   3.441381
    20  H    4.983472   5.148267   4.473526   6.033480   3.399028
    21  H    2.612906   2.697227   2.206384   3.669470   2.153166
    22  C    2.549230   3.521556   2.985515   2.684478   2.471533
    23  C    2.991676   4.077217   2.919078   3.124105   2.855706
    24  H    2.800643   3.836974   2.348079   3.134780   2.681434
    25  C    4.280292   5.369977   4.160620   4.202669   4.144222
    26  H    4.946500   6.027974   4.608386   4.891729   4.791223
    27  C    5.068950   6.119613   5.195223   4.865967   4.877967
    28  O    6.347582   7.401764   6.420802   6.089461   6.110980
    29  C    4.759735   5.703617   5.180841   4.523020   4.634047
    30  H    5.683455   6.565291   6.185400   5.360235   5.600979
    31  C    3.689395   4.546004   4.283861   3.587004   3.579602
    32  H    3.967506   4.624656   4.760444   3.869772   3.897936
                   11         12         13         14         15
    11  C    0.000000
    12  C    1.427792   0.000000
    13  C    2.438994   1.417537   0.000000
    14  O    3.612662   2.314900   1.329061   0.000000
    15  H    4.229306   3.075687   1.854768   0.973514   0.000000
    16  C    2.830080   2.455924   1.387035   2.382858   2.398112
    17  C    2.428600   2.829379   2.423190   3.659198   3.776405
    18  H    3.418955   3.916223   3.399687   4.540629   4.493154
    19  H    3.911224   3.436720   2.153566   2.662786   2.286909
    20  H    2.185789   1.086875   2.194864   2.571191   3.464904
    21  H    1.087169   2.150362   3.407899   4.456991   5.151052
    22  C    3.640057   4.762819   4.937051   6.247269   6.515797
    23  C    3.715872   4.669117   4.877843   6.126303   6.513827
    24  H    3.149686   4.048088   4.473694   5.680962   6.211077
    25  C    4.996805   5.787655   5.818062   6.972032   7.303746
    26  H    5.436096   6.076020   6.124366   7.177181   7.575460
    27  C    5.944698   6.747965   6.596115   7.741192   7.921977
    28  O    7.147898   7.847457   7.589294   8.646860   8.782033
    29  C    5.872735   6.802422   6.641253   7.846120   7.936797
    30  H    6.880268   7.797964   7.559318   8.732896   8.743976
    31  C    4.866292   5.910506   5.866944   7.132017   7.244486
    32  H    5.210165   6.281324   6.222522   7.470628   7.502738
                   16         17         18         19         20
    16  C    0.000000
    17  C    1.430951   0.000000
    18  H    2.172667   1.087418   0.000000
    19  H    1.086453   2.190026   2.501170   0.000000
    20  H    3.442478   3.915677   5.002764   4.339324   0.000000
    21  H    3.916143   3.430176   4.342384   4.996446   2.465473
    22  C    4.157790   2.801400   2.565710   4.825424   5.699444
    23  C    4.265064   3.182383   3.186993   4.964648   5.503939
    24  H    4.169591   3.285469   3.629280   5.007478   4.746786
    25  C    5.102690   4.175711   3.981360   5.613012   6.602407
    26  H    5.557970   4.837500   4.780542   6.059271   6.779812
    27  C    5.645643   4.655878   4.132765   5.962722   7.657641
    28  O    6.609644   5.762442   5.189139   6.789928   8.738134
    29  C    5.568494   4.391745   3.662058   5.860900   7.789093
    30  H    6.406250   5.261336   4.409566   6.578653   8.807137
    31  C    4.851722   3.514259   2.845127   5.280502   6.908120
    32  H    5.172792   3.816151   3.059159   5.545401   7.293955
                   21         22         23         24         25
    21  H    0.000000
    22  C    4.045672   0.000000
    23  C    4.094503   1.401934   0.000000
    24  H    3.405585   2.182388   1.087701   0.000000
    25  C    5.412419   2.448498   1.389721   2.100483   0.000000
    26  H    5.809473   3.436976   2.168087   2.428649   1.087394
    27  C    6.444063   2.813802   2.392395   3.350321   1.394582
    28  O    7.673264   4.118981   3.610073   4.465161   2.376741
    29  C    6.380508   2.369133   2.724907   3.811967   2.414677
    30  H    7.399058   3.365744   3.808962   4.895170   3.371985
    31  C    5.340822   1.380867   2.403007   3.401717   2.830306
    32  H    5.665848   2.121183   3.378506   4.291033   3.916879
                   26         27         28         29         30
    26  H    0.000000
    27  C    2.148536   0.000000
    28  O    2.647241   1.307982   0.000000
    29  C    3.407259   1.430150   2.364298   0.000000
    30  H    4.271305   2.142063   2.555650   1.087245   0.000000
    31  C    3.917027   2.466971   3.634508   1.378265   2.152231
    32  H    5.003633   3.468569   4.534614   2.177002   2.542907
                   31         32
    31  C    0.000000
    32  H    1.087223   0.000000
 Stoichiometry    C15H15O2(1-)
 Framework group  C1[X(C15H15O2)]
 Deg. of freedom    90
 Full point group                 C1      NOp   1
 Largest Abelian subgroup         C1      NOp   1
 Largest concise Abelian subgroup C1      NOp   1
                         Standard orientation:                         
 ---------------------------------------------------------------------
 Center     Atomic      Atomic             Coordinates (Angstroms)
 Number     Number       Type             X           Y           Z
 ---------------------------------------------------------------------
      1          6           0       -0.179861    2.361239    1.390622
      2          1           0       -1.179841    2.793206    1.307955
      3          1           0        0.535134    3.179685    1.500249
      4          1           0       -0.104594    1.719564    2.271271
      5          6           0        0.025819    1.546313    0.038707
      6          6           0        0.137040    2.602791   -1.137673
      7          1           0       -0.396065    3.552962   -1.076598
      8          1           0       -0.183286    2.125940   -2.066417
      9          1           0        1.144388    2.988601   -1.305552
     10          6           0       -1.159534    0.643723    0.010422
     11          6           0       -2.206531    0.822923   -0.841031
     12          6           0       -3.282703   -0.114959   -0.869646
     13          6           0       -3.246684   -1.197480    0.044828
     14          8           0       -4.358225   -1.924465    0.093526
     15          1           0       -4.409788   -2.284481    0.996554
     16          6           0       -2.182750   -1.399032    0.911595
     17          6           0       -1.107230   -0.455180    0.907135
     18          1           0       -0.297903   -0.584510    1.621797
     19          1           0       -2.226954   -2.175830    1.669891
     20          1           0       -4.093014    0.006138   -1.583809
     21          1           0       -2.271898    1.666984   -1.523106
     22          6           0        1.309973    0.702300    0.091528
     23          6           0        1.383125   -0.115441   -1.044856
     24          1           0        0.646241   -0.059333   -1.842947
     25          6           0        2.421614   -1.014956   -1.253994
     26          1           0        2.458267   -1.649580   -2.136226
     27          6           0        3.343790   -1.215880   -0.227310
     28          8           0        4.278344   -2.129753   -0.274872
     29          6           0        3.282815   -0.333432    0.896477
     30          1           0        4.107865   -0.402693    1.601173
     31          6           0        2.252011    0.560524    1.091156
     32          1           0        2.165127    1.196375    1.968765
 ---------------------------------------------------------------------
 Rotational constants (GHZ):           0.7812061           0.2986403           0.2543996
 Leave Link  202 at Sun Jul 11 15:57:28 2021, MaxMem=   104857600 cpu:               0.0 elap:               0.0
 (Enter /prod/apps/gaussian/g16b1/l301.exe)
 Standard basis: 6-31G(d) (6D, 7F)
 Ernie: Thresh=  0.10000D-02 Tol=  0.10000D-05 Strict=F.
 There are   285 symmetry adapted cartesian basis functions of A   symmetry.
 There are   285 symmetry adapted basis functions of A   symmetry.
   285 basis functions,   536 primitive gaussians,   285 cartesian basis functions
    61 alpha electrons       61 beta electrons
       nuclear repulsion energy      1146.2509077420 Hartrees.
 IExCor=  402 DFT=T Ex+Corr=B3LYP ExCW=0 ScaHFX=  0.200000
 ScaDFX=  0.800000  0.720000  1.000000  0.810000 ScalE2=  1.000000  1.000000
 IRadAn=      5 IRanWt=     -1 IRanGd=            0 ICorTp=0 IEmpDi=  4
 NAtoms=   32 NActive=   32 NUniq=   32 SFac= 1.00D+00 NAtFMM=   60 NAOKFM=F Big=F
 Integral buffers will be    131072 words long.
 Raffenetti 2 integral format.
 Two-electron integral symmetry is turned on.
 Using the following non-standard input for PCM:
 MSTModel=DFT cav MSTCharged
 --- end of non-standard input.
 MST model for solvation energy: B3LYP parametrization.
 MST cavity parameters:
 ISph   IAn     Re0     Alpha   Atom Type   QCorr
 ------------------------------------------------
   1      6     1.50     1.25      CH3        F
   2      1     1.20     1.25      CH3        F
   3      1     1.20     1.25      CH3        F
   4      1     1.20     1.25      CH3        F
   5      6     1.50     1.25      C          F
   6      6     1.50     1.25      CH3        F
   7      1     1.20     1.25      CH3        F
   8      1     1.20     1.25      CH3        F
   9      1     1.20     1.25      CH3        F
  10      6     1.50     1.25      C          F
  11      6     1.50     1.25      CH         F
  12      6     1.50     1.25      CH         F
  13      6     1.50     1.25      C          F
  14      8     1.45     1.25      OH         F
  15      1     0.90     1.25      OH         F
  16      6     1.50     1.25      CH         F
  17      6     1.50     1.25      CH         F
  18      1     1.20     1.25      CH         F
  19      1     1.20     1.25      CH         F
  20      1     1.20     1.25      CH         F
  21      1     1.20     1.25      CH         F
  22      6     1.50     1.25      C          F
  23      6     1.50     1.25      CH         F
  24      1     1.20     1.25      CH         F
  25      6     1.50     1.25      CH         F
  26      1     1.20     1.25      CH         F
  27      6     1.50     1.25      C          F
  28      8     1.40     1.15      O          T
  29      6     1.50     1.25      CH         F
  30      1     1.20     1.25      CH         F
  31      6     1.50     1.25      CH         F
  32      1     1.20     1.25      CH         F
 ------------------------------------------------------------------------------
 Polarizable Continuum Model (PCM)
 =================================
 Model                : PCM.
 Atomic radii         : MST.
 Polarization charges : Total charges.
 Charge compensation  : None.
 Solution method      : On-the-fly selection.
 Cavity type          : Scaled VdW (van der Waals Surface) (Alpha=1.250).
 Cavity algorithm     : GePol (No added spheres)
                        Default sphere list used, NSphG=   32.
                        Lebedev-Laikov grids with approx.  5.0 points / Ang**2.
                        Smoothing algorithm: York/Karplus (Gamma=1.0000).
                        Polarization charges: spherical gaussians, with
                                              point-specific exponents (IZeta= 3).
                        Self-potential: point-specific (ISelfS= 7).
                        Self-field    : sphere-specific E.n sum rule (ISelfD= 2).
 1st derivatives      : Analytical E(r).r(x)/FMM algorithm (CHGder, D1EAlg=3).
                        Cavity 1st derivative terms included.
 Solvent              : Water, Eps=  78.355300 Eps(inf)=   1.777849
 ------------------------------------------------------------------------------
 GePol: Number of generator spheres                  =      32
 GePol: Total number of spheres                      =      32
 GePol: Number of exposed spheres                    =      32 (100.00%)
 GePol: Number of points                             =    2309
 GePol: Average weight of points                     =       0.13
 GePol: Minimum weight of points                     =   0.17D-10
 GePol: Maximum weight of points                     =    0.21416
 GePol: Number of points with low weight             =     196
 GePol: Fraction of low-weight points (<1% of avg)   =       8.49%
 GePol: Cavity surface area                          =    290.188 Ang**2
 GePol: Cavity volume                                =    282.903 Ang**3
 PCM non-electrostatic energy =         0.0019735034 Hartrees.
 Nuclear repulsion after PCM non-electrostatic terms =     1146.2528812453 Hartrees.
 Leave Link  301 at Sun Jul 11 15:57:28 2021, MaxMem=   104857600 cpu:               0.3 elap:               0.1
 (Enter /prod/apps/gaussian/g16b1/l302.exe)
 NPDir=0 NMtPBC=     1 NCelOv=     1 NCel=       1 NClECP=     1 NCelD=      1
         NCelK=      1 NCelE2=     1 NClLst=     1 CellRange=     0.0.
 One-electron integrals computed using PRISM.
 One-electron integral symmetry used in STVInt
 NBasis=   285 RedAO= T EigKep=  4.78D-04  NBF=   285
 NBsUse=   285 1.00D-06 EigRej= -1.00D+00 NBFU=   285
 Precomputing XC quadrature grid using
 IXCGrd= 4 IRadAn=           5 IRanWt=          -1 IRanGd=           0 AccXCQ= 0.00D+00.
 Generated NRdTot=       0 NPtTot=           0 NUsed=           0 NTot=          32
 NSgBfM=   284   284   284   284   284 MxSgAt=    32 MxSgA2=    32.
 Leave Link  302 at Sun Jul 11 15:57:29 2021, MaxMem=   104857600 cpu:               1.5 elap:               0.4
 (Enter /prod/apps/gaussian/g16b1/l303.exe)
 DipDrv:  MaxL=1.
 Leave Link  303 at Sun Jul 11 15:57:29 2021, MaxMem=   104857600 cpu:               0.1 elap:               0.1
 (Enter /prod/apps/gaussian/g16b1/l401.exe)
 ExpMin= 1.61D-01 ExpMax= 5.48D+03 ExpMxC= 8.25D+02 IAcc=3 IRadAn=         5 AccDes= 0.00D+00
 Harris functional with IExCor=  402 and IRadAn=       5 diagonalized for initial guess.
 HarFok:  IExCor=  402 AccDes= 0.00D+00 IRadAn=         5 IDoV= 1 UseB2=F ITyADJ=14
 ICtDFT=  3500011 ScaDFX=  1.000000  1.000000  1.000000  1.000000
 FoFCou: FMM=F IPFlag=           0 FMFlag=      100000 FMFlg1=           0
         NFxFlg=           0 DoJE=T BraDBF=F KetDBF=T FulRan=T
         wScrn=  0.000000 ICntrl=       500 IOpCl=  0 I1Cent=   200000004 NGrid=           0
         NMat0=    1 NMatS0=      1 NMatT0=    0 NMatD0=    1 NMtDS0=    0 NMtDT0=    0
 Petite list used in FoFCou.
 Harris En= -731.310600491157    
 JPrj=0 DoOrth=F DoCkMO=F.
 Leave Link  401 at Sun Jul 11 15:57:31 2021, MaxMem=   104857600 cpu:               8.0 elap:               2.0
 (Enter /prod/apps/gaussian/g16b1/l502.exe)
 Integral symmetry usage will be decided dynamically.
 Closed shell SCF:
 Using DIIS extrapolation, IDIIS=  1040.
 NGot=   104857600 LenX=   104690189 LenY=   104608523
 Requested convergence on RMS density matrix=1.00D-08 within 128 cycles.
 Requested convergence on MAX density matrix=1.00D-06.
 Requested convergence on             energy=1.00D-06.
 No special actions if energy rises.
 Fock matrices will be formed incrementally for  20 cycles.

 Cycle   1  Pass 1  IDiag  1:
 FoFJK:  IHMeth= 1 ICntrl=       0 DoSepK=F KAlg= 0 I1Cent=           0 FoldK=F
 IRaf= 850000000 NMat=       1 IRICut=       1 DoRegI=T DoRafI=F ISym2E= 0 IDoP0=0 IntGTp=1.
 FoFCou: FMM=F IPFlag=           0 FMFlag=      100000 FMFlg1=           0
         NFxFlg=           0 DoJE=F BraDBF=F KetDBF=F FulRan=T
         wScrn=  0.000000 ICntrl=         0 IOpCl=  0 I1Cent=           0 NGrid=           0
         NMat0=    1 NMatS0=      1 NMatT0=    0 NMatD0=    1 NMtDS0=    0 NMtDT0=    0
 Symmetry not used in FoFCou.
 Inv3:  Mode=1 IEnd=    15994443.
 Iteration    1 A*A^-1 deviation from unit magnitude is 4.00D-15 for   1275.
 Iteration    1 A*A^-1 deviation from orthogonality  is 2.64D-15 for   1645    633.
 Iteration    1 A^-1*A deviation from unit magnitude is 3.55D-15 for   1275.
 Iteration    1 A^-1*A deviation from orthogonality  is 1.18D-11 for   1235   1132.
 E= -730.666615828975    
 DIIS: error= 2.52D-02 at cycle   1 NSaved=   1.
 NSaved= 1 IEnMin= 1 EnMin= -730.666615828975     IErMin= 1 ErrMin= 2.52D-02
 ErrMax= 2.52D-02  0.00D+00 EMaxC= 1.00D-01 BMatC= 4.87D-01 BMatP= 4.87D-01
 IDIUse=3 WtCom= 7.48D-01 WtEn= 2.52D-01
 Coeff-Com:  0.100D+01
 Coeff-En:   0.100D+01
 Coeff:      0.100D+01
 Gap=     0.119 Goal=   None    Shift=    0.000
 GapD=    0.119 DampG=1.000 DampE=0.500 DampFc=0.5000 IDamp=-1.
 Damping current iteration by 5.00D-01
 RMSDP=5.93D-03 MaxDP=1.82D-01              OVMax= 1.98D-01

 Cycle   2  Pass 1  IDiag  1:
 RMSU=  2.94D-03    CP:  9.79D-01
 E= -730.898925347152     Delta-E=       -0.232309518177 Rises=F Damp=T
 DIIS: error= 1.10D-02 at cycle   2 NSaved=   2.
 NSaved= 2 IEnMin= 2 EnMin= -730.898925347152     IErMin= 2 ErrMin= 1.10D-02
 ErrMax= 1.10D-02  0.00D+00 EMaxC= 1.00D-01 BMatC= 2.43D-02 BMatP= 4.87D-01
 IDIUse=3 WtCom= 8.90D-01 WtEn= 1.10D-01
 Coeff-Com:  0.342D-01 0.966D+00
 Coeff-En:   0.188D-01 0.981D+00
 Coeff:      0.325D-01 0.967D+00
 Gap=     0.158 Goal=   None    Shift=    0.000
 RMSDP=1.43D-03 MaxDP=5.44D-02 DE=-2.32D-01 OVMax= 1.18D-01

 Cycle   3  Pass 1  IDiag  1:
 RMSU=  1.35D-03    CP:  9.68D-01  8.52D-01
 E= -731.138652382933     Delta-E=       -0.239727035781 Rises=F Damp=F
 DIIS: error= 1.01D-02 at cycle   3 NSaved=   3.
 NSaved= 3 IEnMin= 3 EnMin= -731.138652382933     IErMin= 3 ErrMin= 1.01D-02
 ErrMax= 1.01D-02  0.00D+00 EMaxC= 1.00D-01 BMatC= 2.19D-02 BMatP= 2.43D-02
 IDIUse=3 WtCom= 8.99D-01 WtEn= 1.01D-01
 Coeff-Com: -0.235D-01 0.491D+00 0.533D+00
 Coeff-En:   0.000D+00 0.000D+00 0.100D+01
 Coeff:     -0.211D-01 0.441D+00 0.580D+00
 Gap=     0.142 Goal=   None    Shift=    0.000
 RMSDP=8.41D-04 MaxDP=3.71D-02 DE=-2.40D-01 OVMax= 5.72D-02

 Cycle   4  Pass 1  IDiag  1:
 RMSU=  6.07D-04    CP:  9.71D-01  9.33D-01  6.09D-01
 E= -731.151570746415     Delta-E=       -0.012918363482 Rises=F Damp=F
 DIIS: error= 5.43D-03 at cycle   4 NSaved=   4.
 NSaved= 4 IEnMin= 4 EnMin= -731.151570746415     IErMin= 4 ErrMin= 5.43D-03
 ErrMax= 5.43D-03  0.00D+00 EMaxC= 1.00D-01 BMatC= 6.39D-03 BMatP= 2.19D-02
 IDIUse=3 WtCom= 9.46D-01 WtEn= 5.43D-02
 Coeff-Com: -0.113D-01 0.761D-01 0.361D+00 0.575D+00
 Coeff-En:   0.000D+00 0.000D+00 0.259D+00 0.741D+00
 Coeff:     -0.107D-01 0.720D-01 0.355D+00 0.584D+00
 Gap=     0.143 Goal=   None    Shift=    0.000
 RMSDP=3.40D-04 MaxDP=1.53D-02 DE=-1.29D-02 OVMax= 2.24D-02

 Cycle   5  Pass 1  IDiag  1:
 RMSU=  1.08D-04    CP:  9.70D-01  9.02D-01  7.45D-01  5.92D-01
 E= -731.156756225127     Delta-E=       -0.005185478712 Rises=F Damp=F
 DIIS: error= 5.26D-04 at cycle   5 NSaved=   5.
 NSaved= 5 IEnMin= 5 EnMin= -731.156756225127     IErMin= 5 ErrMin= 5.26D-04
 ErrMax= 5.26D-04  0.00D+00 EMaxC= 1.00D-01 BMatC= 1.66D-04 BMatP= 6.39D-03
 IDIUse=3 WtCom= 9.95D-01 WtEn= 5.26D-03
 Coeff-Com: -0.393D-02 0.137D-01 0.144D+00 0.282D+00 0.563D+00
 Coeff-En:   0.000D+00 0.000D+00 0.000D+00 0.000D+00 0.100D+01
 Coeff:     -0.391D-02 0.137D-01 0.144D+00 0.281D+00 0.566D+00
 Gap=     0.143 Goal=   None    Shift=    0.000
 RMSDP=5.36D-05 MaxDP=1.88D-03 DE=-5.19D-03 OVMax= 3.19D-03

 Cycle   6  Pass 1  IDiag  1:
 RMSU=  3.57D-05    CP:  9.70D-01  9.08D-01  7.39D-01  6.16D-01  7.03D-01
 E= -731.156893294576     Delta-E=       -0.000137069449 Rises=F Damp=F
 DIIS: error= 1.48D-04 at cycle   6 NSaved=   6.
 NSaved= 6 IEnMin= 6 EnMin= -731.156893294576     IErMin= 6 ErrMin= 1.48D-04
 ErrMax= 1.48D-04  0.00D+00 EMaxC= 1.00D-01 BMatC= 1.20D-05 BMatP= 1.66D-04
 IDIUse=3 WtCom= 9.99D-01 WtEn= 1.48D-03
 Coeff-Com: -0.105D-02 0.104D-02 0.385D-01 0.855D-01 0.275D+00 0.601D+00
 Coeff-En:   0.000D+00 0.000D+00 0.000D+00 0.000D+00 0.000D+00 0.100D+01
 Coeff:     -0.105D-02 0.104D-02 0.385D-01 0.854D-01 0.275D+00 0.601D+00
 Gap=     0.143 Goal=   None    Shift=    0.000
 RMSDP=1.44D-05 MaxDP=5.07D-04 DE=-1.37D-04 OVMax= 7.00D-04

 Cycle   7  Pass 1  IDiag  1:
 RMSU=  6.69D-06    CP:  9.70D-01  9.07D-01  7.41D-01  6.22D-01  7.21D-01
                    CP:  6.87D-01
 E= -731.156903333304     Delta-E=       -0.000010038728 Rises=F Damp=F
 DIIS: error= 2.74D-05 at cycle   7 NSaved=   7.
 NSaved= 7 IEnMin= 7 EnMin= -731.156903333304     IErMin= 7 ErrMin= 2.74D-05
 ErrMax= 2.74D-05  0.00D+00 EMaxC= 1.00D-01 BMatC= 6.99D-07 BMatP= 1.20D-05
 IDIUse=1 WtCom= 1.00D+00 WtEn= 0.00D+00
 Coeff-Com: -0.382D-03-0.207D-05 0.136D-01 0.319D-01 0.118D+00 0.303D+00
 Coeff-Com:  0.534D+00
 Coeff:     -0.382D-03-0.207D-05 0.136D-01 0.319D-01 0.118D+00 0.303D+00
 Coeff:      0.534D+00
 Gap=     0.143 Goal=   None    Shift=    0.000
 RMSDP=3.57D-06 MaxDP=1.18D-04 DE=-1.00D-05 OVMax= 2.47D-04

 Cycle   8  Pass 1  IDiag  1:
 RMSU=  2.37D-06    CP:  9.70D-01  9.07D-01  7.41D-01  6.23D-01  7.24D-01
                    CP:  7.00D-01  6.15D-01
 E= -731.156903929319     Delta-E=       -0.000000596014 Rises=F Damp=F
 DIIS: error= 7.11D-06 at cycle   8 NSaved=   8.
 NSaved= 8 IEnMin= 8 EnMin= -731.156903929319     IErMin= 8 ErrMin= 7.11D-06
 ErrMax= 7.11D-06  0.00D+00 EMaxC= 1.00D-01 BMatC= 5.99D-08 BMatP= 6.99D-07
 IDIUse=1 WtCom= 1.00D+00 WtEn= 0.00D+00
 Coeff-Com: -0.314D-04-0.168D-03 0.631D-03 0.224D-02 0.150D-01 0.520D-01
 Coeff-Com:  0.250D+00 0.681D+00
 Coeff:     -0.314D-04-0.168D-03 0.631D-03 0.224D-02 0.150D-01 0.520D-01
 Coeff:      0.250D+00 0.681D+00
 Gap=     0.143 Goal=   None    Shift=    0.000
 RMSDP=1.11D-06 MaxDP=3.23D-05 DE=-5.96D-07 OVMax= 8.43D-05

 Cycle   9  Pass 1  IDiag  1:
 RMSU=  6.88D-07    CP:  9.70D-01  9.07D-01  7.41D-01  6.23D-01  7.26D-01
                    CP:  7.00D-01  6.91D-01  7.18D-01
 E= -731.156903986644     Delta-E=       -0.000000057325 Rises=F Damp=F
 DIIS: error= 2.09D-06 at cycle   9 NSaved=   9.
 NSaved= 9 IEnMin= 9 EnMin= -731.156903986644     IErMin= 9 ErrMin= 2.09D-06
 ErrMax= 2.09D-06  0.00D+00 EMaxC= 1.00D-01 BMatC= 4.07D-09 BMatP= 5.99D-08
 IDIUse=1 WtCom= 1.00D+00 WtEn= 0.00D+00
 Coeff-Com:  0.899D-06-0.734D-04-0.348D-03-0.478D-03 0.141D-02 0.918D-02
 Coeff-Com:  0.889D-01 0.318D+00 0.583D+00
 Coeff:      0.899D-06-0.734D-04-0.348D-03-0.478D-03 0.141D-02 0.918D-02
 Coeff:      0.889D-01 0.318D+00 0.583D+00
 Gap=     0.143 Goal=   None    Shift=    0.000
 RMSDP=3.45D-07 MaxDP=9.30D-06 DE=-5.73D-08 OVMax= 2.36D-05

 Cycle  10  Pass 1  IDiag  1:
 RMSU=  2.04D-07    CP:  9.70D-01  9.07D-01  7.41D-01  6.23D-01  7.26D-01
                    CP:  7.02D-01  6.90D-01  7.76D-01  6.85D-01
 E= -731.156903990041     Delta-E=       -0.000000003397 Rises=F Damp=F
 DIIS: error= 8.09D-07 at cycle  10 NSaved=  10.
 NSaved=10 IEnMin=10 EnMin= -731.156903990041     IErMin=10 ErrMin= 8.09D-07
 ErrMax= 8.09D-07  0.00D+00 EMaxC= 1.00D-01 BMatC= 7.61D-10 BMatP= 4.07D-09
 IDIUse=1 WtCom= 1.00D+00 WtEn= 0.00D+00
 Coeff-Com:  0.382D-05-0.143D-04-0.294D-03-0.604D-03-0.118D-02-0.177D-02
 Coeff-Com:  0.178D-01 0.922D-01 0.332D+00 0.562D+00
 Coeff:      0.382D-05-0.143D-04-0.294D-03-0.604D-03-0.118D-02-0.177D-02
 Coeff:      0.178D-01 0.922D-01 0.332D+00 0.562D+00
 Gap=     0.143 Goal=   None    Shift=    0.000
 RMSDP=1.18D-07 MaxDP=3.69D-06 DE=-3.40D-09 OVMax= 1.11D-05

 Cycle  11  Pass 1  IDiag  1:
 RMSU=  5.83D-08    CP:  9.70D-01  9.07D-01  7.41D-01  6.23D-01  7.26D-01
                    CP:  7.02D-01  6.93D-01  7.76D-01  7.68D-01  6.37D-01
 E= -731.156903990726     Delta-E=       -0.000000000685 Rises=F Damp=F
 DIIS: error= 2.86D-07 at cycle  11 NSaved=  11.
 NSaved=11 IEnMin=11 EnMin= -731.156903990726     IErMin=11 ErrMin= 2.86D-07
 ErrMax= 2.86D-07  0.00D+00 EMaxC= 1.00D-01 BMatC= 5.56D-11 BMatP= 7.61D-10
 IDIUse=1 WtCom= 1.00D+00 WtEn= 0.00D+00
 Coeff-Com:  0.185D-05-0.330D-05-0.136D-03-0.296D-03-0.714D-03-0.161D-02
 Coeff-Com:  0.406D-02 0.301D-01 0.144D+00 0.310D+00 0.515D+00
 Coeff:      0.185D-05-0.330D-05-0.136D-03-0.296D-03-0.714D-03-0.161D-02
 Coeff:      0.406D-02 0.301D-01 0.144D+00 0.310D+00 0.515D+00
 Gap=     0.143 Goal=   None    Shift=    0.000
 RMSDP=3.88D-08 MaxDP=1.13D-06 DE=-6.85D-10 OVMax= 3.07D-06

 Cycle  12  Pass 1  IDiag  1:
 RMSU=  2.50D-08    CP:  9.70D-01  9.07D-01  7.41D-01  6.23D-01  7.26D-01
                    CP:  7.02D-01  6.93D-01  7.76D-01  7.53D-01  6.98D-01
                    CP:  6.54D-01
 E= -731.156903990779     Delta-E=       -0.000000000053 Rises=F Damp=F
 DIIS: error= 1.07D-07 at cycle  12 NSaved=  12.
 NSaved=12 IEnMin=12 EnMin= -731.156903990779     IErMin=12 ErrMin= 1.07D-07
 ErrMax= 1.07D-07  0.00D+00 EMaxC= 1.00D-01 BMatC= 5.08D-12 BMatP= 5.56D-11
 IDIUse=1 WtCom= 1.00D+00 WtEn= 0.00D+00
 Coeff-Com:  0.116D-06 0.110D-05-0.168D-04-0.426D-04-0.140D-03-0.477D-03
 Coeff-Com: -0.104D-02-0.133D-02 0.108D-01 0.513D-01 0.254D+00 0.687D+00
 Coeff:      0.116D-06 0.110D-05-0.168D-04-0.426D-04-0.140D-03-0.477D-03
 Coeff:     -0.104D-02-0.133D-02 0.108D-01 0.513D-01 0.254D+00 0.687D+00
 Gap=     0.143 Goal=   None    Shift=    0.000
 RMSDP=1.29D-08 MaxDP=3.41D-07 DE=-5.30D-11 OVMax= 1.05D-06

 Cycle  13  Pass 1  IDiag  1:
 RMSU=  7.54D-09    CP:  9.70D-01  9.07D-01  7.41D-01  6.23D-01  7.26D-01
                    CP:  7.02D-01  6.93D-01  7.77D-01  7.62D-01  7.01D-01
                    CP:  7.33D-01  7.67D-01
 E= -731.156903990786     Delta-E=       -0.000000000007 Rises=F Damp=F
 DIIS: error= 2.88D-08 at cycle  13 NSaved=  13.
 NSaved=13 IEnMin=13 EnMin= -731.156903990786     IErMin=13 ErrMin= 2.88D-08
 ErrMax= 2.88D-08  0.00D+00 EMaxC= 1.00D-01 BMatC= 7.09D-13 BMatP= 5.08D-12
 IDIUse=1 WtCom= 1.00D+00 WtEn= 0.00D+00
 Coeff-Com: -0.867D-07 0.846D-06 0.208D-05 0.114D-05-0.166D-04-0.132D-03
 Coeff-Com: -0.879D-03-0.304D-02-0.519D-02 0.315D-02 0.945D-01 0.371D+00
 Coeff-Com:  0.540D+00
 Coeff:     -0.867D-07 0.846D-06 0.208D-05 0.114D-05-0.166D-04-0.132D-03
 Coeff:     -0.879D-03-0.304D-02-0.519D-02 0.315D-02 0.945D-01 0.371D+00
 Coeff:      0.540D+00
 Gap=     0.143 Goal=   None    Shift=    0.000
 RMSDP=4.09D-09 MaxDP=1.14D-07 DE=-6.82D-12 OVMax= 4.39D-07

 Error on total polarization charges =  0.02197
 SCF Done:  E(RB3LYP) =  -731.156903991     A.U. after   13 cycles
            NFock= 13  Conv=0.41D-08     -V/T= 2.0090
 KE= 7.246257415944D+02 PE=-4.010147442558D+03 EE= 1.408111915728D+03
 Leave Link  502 at Sun Jul 11 15:58:32 2021, MaxMem=   104857600 cpu:             244.4 elap:              61.1
 (Enter /prod/apps/gaussian/g16b1/l601.exe)
 Copying SCF densities to generalized density rwf, IOpCl= 0 IROHF=0.

 **********************************************************************

            Population analysis using the SCF Density.

 **********************************************************************

 Orbital symmetries:
       Occupied  (A) (A) (A) (A) (A) (A) (A) (A) (A) (A) (A) (A)
                 (A) (A) (A) (A) (A) (A) (A) (A) (A) (A) (A) (A)
                 (A) (A) (A) (A) (A) (A) (A) (A) (A) (A) (A) (A)
                 (A) (A) (A) (A) (A) (A) (A) (A) (A) (A) (A) (A)
                 (A) (A) (A) (A) (A) (A) (A) (A) (A) (A) (A) (A)
                 (A)
       Virtual   (A) (A) (A) (A) (A) (A) (A) (A) (A) (A) (A) (A)
                 (A) (A) (A) (A) (A) (A) (A) (A) (A) (A) (A) (A)
                 (A) (A) (A) (A) (A) (A) (A) (A) (A) (A) (A) (A)
                 (A) (A) (A) (A) (A) (A) (A) (A) (A) (A) (A) (A)
                 (A) (A) (A) (A) (A) (A) (A) (A) (A) (A) (A) (A)
                 (A) (A) (A) (A) (A) (A) (A) (A) (A) (A) (A) (A)
                 (A) (A) (A) (A) (A) (A) (A) (A) (A) (A) (A) (A)
                 (A) (A) (A) (A) (A) (A) (A) (A) (A) (A) (A) (A)
                 (A) (A) (A) (A) (A) (A) (A) (A) (A) (A) (A) (A)
                 (A) (A) (A) (A) (A) (A) (A) (A) (A) (A) (A) (A)
                 (A) (A) (A) (A) (A) (A) (A) (A) (A) (A) (A) (A)
                 (A) (A) (A) (A) (A) (A) (A) (A) (A) (A) (A) (A)
                 (A) (A) (A) (A) (A) (A) (A) (A) (A) (A) (A) (A)
                 (A) (A) (A) (A) (A) (A) (A) (A) (A) (A) (A) (A)
                 (A) (A) (A) (A) (A) (A) (A) (A) (A) (A) (A) (A)
                 (A) (A) (A) (A) (A) (A) (A) (A) (A) (A) (A) (A)
                 (A) (A) (A) (A) (A) (A) (A) (A) (A) (A) (A) (A)
                 (A) (A) (A) (A) (A) (A) (A) (A) (A) (A) (A) (A)
                 (A) (A) (A) (A) (A) (A) (A) (A)
 The electronic state is 1-A.
 Alpha  occ. eigenvalues --  -19.16626 -19.03657 -10.23972 -10.19437 -10.19308
 Alpha  occ. eigenvalues --  -10.18713 -10.18328 -10.18144 -10.18100 -10.17774
 Alpha  occ. eigenvalues --  -10.16682 -10.16558 -10.16329 -10.15794 -10.15218
 Alpha  occ. eigenvalues --  -10.14343 -10.14267  -1.06301  -0.92051  -0.85315
 Alpha  occ. eigenvalues --   -0.81841  -0.77891  -0.73751  -0.71918  -0.71199
 Alpha  occ. eigenvalues --   -0.67976  -0.67570  -0.61974  -0.60503  -0.57707
 Alpha  occ. eigenvalues --   -0.56714  -0.53403  -0.53280  -0.47892  -0.47217
 Alpha  occ. eigenvalues --   -0.44539  -0.43876  -0.43326  -0.42243  -0.41766
 Alpha  occ. eigenvalues --   -0.41039  -0.39956  -0.39868  -0.39313  -0.38337
 Alpha  occ. eigenvalues --   -0.37366  -0.36459  -0.35356  -0.34506  -0.33516
 Alpha  occ. eigenvalues --   -0.33202  -0.32469  -0.31882  -0.30199  -0.29269
 Alpha  occ. eigenvalues --   -0.27329  -0.24417  -0.22818  -0.20606  -0.18824
 Alpha  occ. eigenvalues --   -0.15175
 Alpha virt. eigenvalues --   -0.00894   0.01935   0.02716   0.05691   0.10025
 Alpha virt. eigenvalues --    0.10396   0.11771   0.13500   0.13768   0.14870
 Alpha virt. eigenvalues --    0.15673   0.16558   0.16738   0.17138   0.18337
 Alpha virt. eigenvalues --    0.18562   0.19465   0.20012   0.20715   0.21030
 Alpha virt. eigenvalues --    0.23160   0.23894   0.24868   0.26963   0.27760
 Alpha virt. eigenvalues --    0.28579   0.30004   0.31569   0.34208   0.35338
 Alpha virt. eigenvalues --    0.35891   0.36271   0.38076   0.40185   0.41231
 Alpha virt. eigenvalues --    0.50487   0.50732   0.50965   0.51263   0.52481
 Alpha virt. eigenvalues --    0.52680   0.53260   0.54826   0.55686   0.56938
 Alpha virt. eigenvalues --    0.57664   0.58449   0.59044   0.59628   0.60531
 Alpha virt. eigenvalues --    0.61293   0.62087   0.62583   0.63389   0.63582
 Alpha virt. eigenvalues --    0.64647   0.65109   0.67000   0.67417   0.68668
 Alpha virt. eigenvalues --    0.68900   0.70005   0.71345   0.72542   0.74432
 Alpha virt. eigenvalues --    0.76757   0.77547   0.78764   0.80013   0.80346
 Alpha virt. eigenvalues --    0.81957   0.82751   0.82999   0.84205   0.86040
 Alpha virt. eigenvalues --    0.86490   0.87338   0.87609   0.88892   0.89145
 Alpha virt. eigenvalues --    0.89565   0.90508   0.91450   0.92627   0.93073
 Alpha virt. eigenvalues --    0.93869   0.95412   0.96804   0.97735   0.98685
 Alpha virt. eigenvalues --    0.99032   1.00708   1.01054   1.02897   1.03401
 Alpha virt. eigenvalues --    1.04245   1.04779   1.05451   1.07329   1.09709
 Alpha virt. eigenvalues --    1.12365   1.15262   1.16926   1.17446   1.18423
 Alpha virt. eigenvalues --    1.20094   1.22087   1.23214   1.24969   1.26190
 Alpha virt. eigenvalues --    1.32073   1.32122   1.33614   1.36519   1.38276
 Alpha virt. eigenvalues --    1.39982   1.40741   1.42390   1.43687   1.44618
 Alpha virt. eigenvalues --    1.47652   1.47962   1.50198   1.51913   1.52857
 Alpha virt. eigenvalues --    1.53263   1.55674   1.58760   1.61892   1.66120
 Alpha virt. eigenvalues --    1.68117   1.72519   1.76459   1.77848   1.78855
 Alpha virt. eigenvalues --    1.80764   1.81646   1.82575   1.85083   1.85446
 Alpha virt. eigenvalues --    1.87774   1.88112   1.89577   1.90580   1.92918
 Alpha virt. eigenvalues --    1.93289   1.94537   1.96521   1.97157   1.99114
 Alpha virt. eigenvalues --    1.99614   2.00717   2.02268   2.04784   2.05365
 Alpha virt. eigenvalues --    2.07378   2.07720   2.09812   2.10718   2.11980
 Alpha virt. eigenvalues --    2.14419   2.16191   2.18560   2.19494   2.19747
 Alpha virt. eigenvalues --    2.21965   2.23577   2.27268   2.28844   2.30480
 Alpha virt. eigenvalues --    2.30998   2.32801   2.33059   2.34650   2.35388
 Alpha virt. eigenvalues --    2.36398   2.38773   2.40501   2.44112   2.45850
 Alpha virt. eigenvalues --    2.51278   2.51884   2.58235   2.59231   2.60597
 Alpha virt. eigenvalues --    2.62370   2.62666   2.65004   2.66952   2.67487
 Alpha virt. eigenvalues --    2.71160   2.71565   2.75419   2.75859   2.79740
 Alpha virt. eigenvalues --    2.81614   2.85725   2.89077   2.91627   2.94286
 Alpha virt. eigenvalues --    2.99192   3.00700   3.05349   3.17544   3.22189
 Alpha virt. eigenvalues --    3.40217   3.44193   3.92181   3.99319   4.11171
 Alpha virt. eigenvalues --    4.11943   4.16437   4.17706   4.23301   4.27590
 Alpha virt. eigenvalues --    4.31843   4.33400   4.34149   4.42348   4.47901
 Alpha virt. eigenvalues --    4.52941   4.68289   4.76773   4.83432
          Condensed to atoms (all electrons):
               1          2          3          4          5          6
     1  C    5.222946   0.358999   0.353671   0.364788   0.327793  -0.051050
     2  H    0.358999   0.584901  -0.029647  -0.026653  -0.032762  -0.003440
     3  H    0.353671  -0.029647   0.591196  -0.032710  -0.023868  -0.005357
     4  H    0.364788  -0.026653  -0.032710   0.569407  -0.022358   0.005386
     5  C    0.327793  -0.032762  -0.023868  -0.022358   5.042487   0.338048
     6  C   -0.051050  -0.003440  -0.005357   0.005386   0.338048   5.231534
     7  H   -0.007361   0.003363   0.000708   0.000109  -0.016843   0.354840
     8  H    0.005456  -0.000215  -0.000007  -0.000178  -0.027608   0.358544
     9  H   -0.000510  -0.000133   0.001651  -0.000161  -0.023227   0.362862
    10  C   -0.061161  -0.002124   0.006296  -0.009057   0.363105  -0.041938
    11  C   -0.001281   0.003248   0.000004  -0.000271  -0.056081  -0.014882
    12  C   -0.000261  -0.000136   0.000002   0.000012   0.006920   0.000167
    13  C    0.000032  -0.000012  -0.000001  -0.000015   0.000299  -0.000003
    14  O   -0.000000   0.000000   0.000000   0.000000  -0.000000   0.000000
    15  H   -0.000000   0.000000   0.000000   0.000000  -0.000001   0.000000
    16  C    0.000130  -0.000128   0.000002   0.000051   0.006634  -0.000172
    17  C   -0.010863  -0.000174   0.000320   0.006177  -0.063108   0.007111
    18  H   -0.000058   0.000103  -0.000129   0.002187  -0.010004   0.000204
    19  H    0.000005   0.000000  -0.000000   0.000005  -0.000157   0.000001
    20  H    0.000003   0.000003  -0.000000   0.000000  -0.000149   0.000000
    21  H    0.000547   0.000313  -0.000037  -0.000011  -0.015554   0.006316
    22  C   -0.037051   0.004385  -0.002617  -0.007591   0.362137  -0.052646
    23  C    0.007094  -0.000162  -0.000136  -0.000005  -0.072653  -0.011278
    24  H    0.000572  -0.000021  -0.000012  -0.000005  -0.012098  -0.000211
    25  C   -0.000227   0.000004  -0.000000   0.000001   0.006348   0.000158
    26  H    0.000002  -0.000000   0.000000   0.000000  -0.000218  -0.000005
    27  C    0.000002   0.000000   0.000000  -0.000005   0.000445   0.000021
    28  O   -0.000000  -0.000000  -0.000000   0.000000   0.000000  -0.000000
    29  C   -0.000028   0.000001  -0.000003   0.000013   0.006505  -0.000170
    30  H    0.000002  -0.000000   0.000000   0.000001  -0.000158   0.000003
    31  C   -0.011007   0.000285   0.001079   0.002371  -0.043488   0.002656
    32  H    0.006330  -0.000175   0.000895   0.001612  -0.012747   0.000102
               7          8          9         10         11         12
     1  C   -0.007361   0.005456  -0.000510  -0.061161  -0.001281  -0.000261
     2  H    0.003363  -0.000215  -0.000133  -0.002124   0.003248  -0.000136
     3  H    0.000708  -0.000007   0.001651   0.006296   0.000004   0.000002
     4  H    0.000109  -0.000178  -0.000161  -0.009057  -0.000271   0.000012
     5  C   -0.016843  -0.027608  -0.023227   0.363105  -0.056081   0.006920
     6  C    0.354840   0.358544   0.362862  -0.041938  -0.014882   0.000167
     7  H    0.592218  -0.033632  -0.043369  -0.000964   0.000713   0.000032
     8  H   -0.033632   0.576177  -0.026368  -0.007745   0.004133  -0.000070
     9  H   -0.043369  -0.026368   0.575347   0.003070   0.000277  -0.000003
    10  C   -0.000964  -0.007745   0.003070   4.737711   0.538165  -0.023025
    11  C    0.000713   0.004133   0.000277   0.538165   5.061291   0.475570
    12  C    0.000032  -0.000070  -0.000003  -0.023025   0.475570   5.061257
    13  C    0.000001  -0.000009   0.000000  -0.031955  -0.023190   0.540397
    14  O    0.000000  -0.000000  -0.000000   0.000259   0.003511  -0.063450
    15  H   -0.000000  -0.000000  -0.000000  -0.000019  -0.000224   0.005427
    16  C   -0.000000  -0.000003   0.000002  -0.026245  -0.036344  -0.063423
    17  C   -0.000150  -0.000050  -0.000079   0.518061  -0.062978  -0.037200
    18  H   -0.000003   0.000003  -0.000007  -0.037913   0.005444   0.000325
    19  H   -0.000000   0.000000  -0.000000   0.002962   0.000450   0.004869
    20  H   -0.000001   0.000009  -0.000000   0.003651  -0.035072   0.349287
    21  H    0.000898   0.002997  -0.000134  -0.037810   0.358151  -0.045461
    22  C    0.004104  -0.004381   0.000133  -0.058128   0.000957  -0.000136
    23  C    0.000345   0.002779   0.000832  -0.008057   0.001164  -0.000071
    24  H   -0.000061   0.003186   0.000414   0.003862   0.001159   0.000161
    25  C    0.000004  -0.000022  -0.000193   0.000634   0.000034   0.000001
    26  H   -0.000000  -0.000001   0.000002   0.000014   0.000001  -0.000000
    27  C   -0.000000  -0.000003  -0.000008  -0.000003   0.000001  -0.000000
    28  O    0.000000  -0.000000   0.000000  -0.000000  -0.000000   0.000000
    29  C    0.000000   0.000005  -0.000079   0.000101   0.000005  -0.000000
    30  H   -0.000000   0.000000   0.000001  -0.000000  -0.000000   0.000000
    31  C   -0.000017  -0.000208   0.000984  -0.003679  -0.000456   0.000004
    32  H   -0.000018  -0.000004   0.000058   0.000562   0.000005  -0.000000
              13         14         15         16         17         18
     1  C    0.000032  -0.000000  -0.000000   0.000130  -0.010863  -0.000058
     2  H   -0.000012   0.000000   0.000000  -0.000128  -0.000174   0.000103
     3  H   -0.000001   0.000000   0.000000   0.000002   0.000320  -0.000129
     4  H   -0.000015   0.000000   0.000000   0.000051   0.006177   0.002187
     5  C    0.000299  -0.000000  -0.000001   0.006634  -0.063108  -0.010004
     6  C   -0.000003   0.000000   0.000000  -0.000172   0.007111   0.000204
     7  H    0.000001   0.000000  -0.000000  -0.000000  -0.000150  -0.000003
     8  H   -0.000009  -0.000000  -0.000000  -0.000003  -0.000050   0.000003
     9  H    0.000000  -0.000000  -0.000000   0.000002  -0.000079  -0.000007
    10  C   -0.031955   0.000259  -0.000019  -0.026245   0.518061  -0.037913
    11  C   -0.023190   0.003511  -0.000224  -0.036344  -0.062978   0.005444
    12  C    0.540397  -0.063450   0.005427  -0.063423  -0.037200   0.000325
    13  C    4.497528   0.284508  -0.031297   0.510896  -0.015282   0.002894
    14  O    0.284508   8.248647   0.251508  -0.058474   0.004517  -0.000059
    15  H   -0.031297   0.251508   0.317492  -0.004484   0.000455  -0.000010
    16  C    0.510896  -0.058474  -0.004484   5.135427   0.446913  -0.037044
    17  C   -0.015282   0.004517   0.000455   0.446913   5.094936   0.352455
    18  H    0.002894  -0.000059  -0.000010  -0.037044   0.352455   0.562530
    19  H   -0.040223  -0.004586   0.005558   0.350595  -0.032467  -0.003905
    20  H   -0.037760  -0.000771  -0.000273   0.005880   0.000250   0.000012
    21  H    0.004047  -0.000075   0.000008   0.000157   0.005865  -0.000132
    22  C   -0.000008   0.000000   0.000000   0.000867  -0.009965   0.005668
    23  C   -0.000032  -0.000000   0.000000  -0.000139  -0.004064  -0.000469
    24  H   -0.000046   0.000000  -0.000000  -0.000052   0.000083   0.000056
    25  C    0.000002   0.000000  -0.000000  -0.000073  -0.000004  -0.000367
    26  H   -0.000000   0.000000  -0.000000  -0.000001   0.000014  -0.000003
    27  C    0.000000  -0.000000  -0.000000  -0.000000  -0.000077   0.000060
    28  O   -0.000000  -0.000000   0.000000   0.000000   0.000000  -0.000001
    29  C    0.000000   0.000000  -0.000000  -0.000006  -0.000328   0.000691
    30  H    0.000000   0.000000  -0.000000   0.000000   0.000000   0.000002
    31  C    0.000001   0.000000   0.000000   0.000171   0.000069   0.004174
    32  H    0.000000   0.000000  -0.000000  -0.000006  -0.000325   0.000014
              19         20         21         22         23         24
     1  C    0.000005   0.000003   0.000547  -0.037051   0.007094   0.000572
     2  H    0.000000   0.000003   0.000313   0.004385  -0.000162  -0.000021
     3  H   -0.000000  -0.000000  -0.000037  -0.002617  -0.000136  -0.000012
     4  H    0.000005   0.000000  -0.000011  -0.007591  -0.000005  -0.000005
     5  C   -0.000157  -0.000149  -0.015554   0.362137  -0.072653  -0.012098
     6  C    0.000001   0.000000   0.006316  -0.052646  -0.011278  -0.000211
     7  H   -0.000000  -0.000001   0.000898   0.004104   0.000345  -0.000061
     8  H    0.000000   0.000009   0.002997  -0.004381   0.002779   0.003186
     9  H   -0.000000  -0.000000  -0.000134   0.000133   0.000832   0.000414
    10  C    0.002962   0.003651  -0.037810  -0.058128  -0.008057   0.003862
    11  C    0.000450  -0.035072   0.358151   0.000957   0.001164   0.001159
    12  C    0.004869   0.349287  -0.045461  -0.000136  -0.000071   0.000161
    13  C   -0.040223  -0.037760   0.004047  -0.000008  -0.000032  -0.000046
    14  O   -0.004586  -0.000771  -0.000075   0.000000  -0.000000   0.000000
    15  H    0.005558  -0.000273   0.000008   0.000000   0.000000  -0.000000
    16  C    0.350595   0.005880   0.000157   0.000867  -0.000139  -0.000052
    17  C   -0.032467   0.000250   0.005865  -0.009965  -0.004064   0.000083
    18  H   -0.003905   0.000012  -0.000132   0.005668  -0.000469   0.000056
    19  H    0.566698  -0.000130   0.000014   0.000003   0.000004   0.000000
    20  H   -0.000130   0.578051  -0.004666   0.000001   0.000000   0.000001
    21  H    0.000014  -0.004666   0.579737   0.000311  -0.000054  -0.000193
    22  C    0.000003   0.000001   0.000311   4.821292   0.512264  -0.052039
    23  C    0.000004   0.000000  -0.000054   0.512264   5.149107   0.349422
    24  H    0.000000   0.000001  -0.000193  -0.052039   0.349422   0.626523
    25  C   -0.000001  -0.000000  -0.000001  -0.028956   0.398359  -0.037432
    26  H    0.000000  -0.000000   0.000000   0.005030  -0.043311  -0.006815
    27  C   -0.000000   0.000000   0.000000  -0.039153   0.007078   0.003305
    28  O    0.000000   0.000000   0.000000   0.000113   0.007034  -0.000109
    29  C   -0.000000  -0.000000   0.000000  -0.018155  -0.051650   0.000235
    30  H   -0.000000  -0.000000  -0.000000   0.004789   0.000021   0.000024
    31  C   -0.000002  -0.000000  -0.000002   0.530514  -0.054112   0.005881
    32  H   -0.000000  -0.000000   0.000000  -0.044608   0.007014  -0.000203
              25         26         27         28         29         30
     1  C   -0.000227   0.000002   0.000002  -0.000000  -0.000028   0.000002
     2  H    0.000004  -0.000000   0.000000  -0.000000   0.000001  -0.000000
     3  H   -0.000000   0.000000   0.000000  -0.000000  -0.000003   0.000000
     4  H    0.000001   0.000000  -0.000005   0.000000   0.000013   0.000001
     5  C    0.006348  -0.000218   0.000445   0.000000   0.006505  -0.000158
     6  C    0.000158  -0.000005   0.000021  -0.000000  -0.000170   0.000003
     7  H    0.000004  -0.000000  -0.000000   0.000000   0.000000  -0.000000
     8  H   -0.000022  -0.000001  -0.000003  -0.000000   0.000005   0.000000
     9  H   -0.000193   0.000002  -0.000008   0.000000  -0.000079   0.000001
    10  C    0.000634   0.000014  -0.000003  -0.000000   0.000101  -0.000000
    11  C    0.000034   0.000001   0.000001  -0.000000   0.000005  -0.000000
    12  C    0.000001  -0.000000  -0.000000   0.000000  -0.000000   0.000000
    13  C    0.000002  -0.000000   0.000000  -0.000000   0.000000   0.000000
    14  O    0.000000   0.000000  -0.000000  -0.000000   0.000000   0.000000
    15  H   -0.000000  -0.000000  -0.000000   0.000000  -0.000000  -0.000000
    16  C   -0.000073  -0.000001  -0.000000   0.000000  -0.000006   0.000000
    17  C   -0.000004   0.000014  -0.000077   0.000000  -0.000328   0.000000
    18  H   -0.000367  -0.000003   0.000060  -0.000001   0.000691   0.000002
    19  H   -0.000001   0.000000  -0.000000   0.000000  -0.000000  -0.000000
    20  H   -0.000000  -0.000000   0.000000   0.000000  -0.000000  -0.000000
    21  H   -0.000001   0.000000   0.000000   0.000000   0.000000  -0.000000
    22  C   -0.028956   0.005030  -0.039153   0.000113  -0.018155   0.004789
    23  C    0.398359  -0.043311   0.007078   0.007034  -0.051650   0.000021
    24  H   -0.037432  -0.006815   0.003305  -0.000109   0.000235   0.000024
    25  C    5.340132   0.330227   0.437205  -0.082347  -0.064033   0.010329
    26  H    0.330227   0.660245  -0.044856   0.001545   0.009556  -0.000210
    27  C    0.437205  -0.044856   4.390553   0.445932   0.437847  -0.041701
    28  O   -0.082347   0.001545   0.445932   8.553630  -0.083902   0.002200
    29  C   -0.064033   0.009556   0.437847  -0.083902   5.386375   0.329427
    30  H    0.010329  -0.000210  -0.041701   0.002200   0.329427   0.666266
    31  C   -0.041503  -0.000191   0.007249   0.007949   0.368460  -0.047395
    32  H   -0.000034   0.000024   0.002848  -0.000066  -0.041129  -0.006214
              31         32
     1  C   -0.011007   0.006330
     2  H    0.000285  -0.000175
     3  H    0.001079   0.000895
     4  H    0.002371   0.001612
     5  C   -0.043488  -0.012747
     6  C    0.002656   0.000102
     7  H   -0.000017  -0.000018
     8  H   -0.000208  -0.000004
     9  H    0.000984   0.000058
    10  C   -0.003679   0.000562
    11  C   -0.000456   0.000005
    12  C    0.000004  -0.000000
    13  C    0.000001   0.000000
    14  O    0.000000   0.000000
    15  H    0.000000  -0.000000
    16  C    0.000171  -0.000006
    17  C    0.000069  -0.000325
    18  H    0.004174   0.000014
    19  H   -0.000002  -0.000000
    20  H   -0.000000  -0.000000
    21  H   -0.000002   0.000000
    22  C    0.530514  -0.044608
    23  C   -0.054112   0.007014
    24  H    0.005881  -0.000203
    25  C   -0.041503  -0.000034
    26  H   -0.000191   0.000024
    27  C    0.007249   0.002848
    28  O    0.007949  -0.000066
    29  C    0.368460  -0.041129
    30  H   -0.047395  -0.006214
    31  C    5.137825   0.346465
    32  H    0.346465   0.621121
 Mulliken charges:
               1
     1  C   -0.467512
     2  H    0.140177
     3  H    0.138700
     4  H    0.146900
     5  C   -0.027638
     6  C   -0.486800
     7  H    0.145084
     8  H    0.147214
     9  H    0.148639
    10  C    0.171370
    11  C   -0.223502
    12  C   -0.211197
    13  C    0.339228
    14  O   -0.665536
    15  H    0.455860
    16  C   -0.231131
    17  C   -0.200113
    18  H    0.153284
    19  H    0.150307
    20  H    0.141674
    21  H    0.144767
    22  C    0.102866
    23  C   -0.196324
    24  H    0.114413
    25  C   -0.268245
    26  H    0.088953
    27  C    0.393262
    28  O   -0.851978
    29  C   -0.279735
    30  H    0.082613
    31  C   -0.214076
    32  H    0.118477
 Sum of Mulliken charges =  -1.00000
 Mulliken charges with hydrogens summed into heavy atoms:
               1
     1  C   -0.041736
     5  C   -0.027638
     6  C   -0.045863
    10  C    0.171370
    11  C   -0.078735
    12  C   -0.069523
    13  C    0.339228
    14  O   -0.209676
    16  C   -0.080825
    17  C   -0.046829
    22  C    0.102866
    23  C   -0.081911
    25  C   -0.179292
    27  C    0.393262
    28  O   -0.851978
    29  C   -0.197122
    31  C   -0.095598
 Electronic spatial extent (au):  <R**2>=           4476.5375
 Charge=             -1.0000 electrons
 Dipole moment (field-independent basis, Debye):
    X=            -16.8538    Y=              6.9303    Z=              2.8197  Tot=             18.4399
 Quadrupole moment (field-independent basis, Debye-Ang):
   XX=           -173.6982   YY=           -114.7983   ZZ=            -97.8958
   XY=             33.8374   XZ=             -1.1777   YZ=             -8.5928
 Traceless Quadrupole moment (field-independent basis, Debye-Ang):
   XX=            -44.9007   YY=             13.9991   ZZ=             30.9016
   XY=             33.8374   XZ=             -1.1777   YZ=             -8.5928
 Octapole moment (field-independent basis, Debye-Ang**2):
  XXX=           -305.6628  YYY=             21.3020  ZZZ=              4.0315  XYY=            -90.1363
  XXY=            123.0470  XXZ=             47.9406  XZZ=            -22.4633  YZZ=             -9.8079
  YYZ=             15.0211  XYZ=             19.6802
 Hexadecapole moment (field-independent basis, Debye-Ang**3):
 XXXX=          -5241.9512 YYYY=          -1431.5246 ZZZZ=           -632.8107 XXXY=            654.0334
 XXXZ=            -42.6516 YYYX=            224.4456 YYYZ=            -58.2675 ZZZX=             -5.7025
 ZZZY=            -13.1453 XXYY=          -1155.2548 XXZZ=           -712.0317 YYZZ=           -322.4011
[...]
     32          1           0        2.259391    1.359928    1.756140
 ---------------------------------------------------------------------
 Rotational constants (GHZ):           0.8590836           0.2618761           0.2325827
 Leave Link  202 at Sun Jul 11 16:25:56 2021, MaxMem=   262144000 cpu:               0.1 elap:               0.0
 (Enter /prod/apps/gaussian/g16b1/l301.exe)
 Standard basis: Aug-CC-pVDZ (5D, 7F)
 Ernie: Thresh=  0.10000D-02 Tol=  0.10000D-05 Strict=F.
 Ernie:  34 primitive shells out of 530 were deleted.
 There are   560 symmetry adapted cartesian basis functions of A   symmetry.
 There are   526 symmetry adapted basis functions of A   symmetry.
   526 basis functions,   896 primitive gaussians,   560 cartesian basis functions
    61 alpha electrons       61 beta electrons
       nuclear repulsion energy      1129.2816788779 Hartrees.
 IExCor=    0 DFT=F Ex=HF Corr=None ExCW=0 ScaHFX=  1.000000
 ScaDFX=  1.000000  1.000000  1.000000  1.000000 ScalE2=  1.000000  1.000000
 IRadAn=      5 IRanWt=     -1 IRanGd=            0 ICorTp=0 IEmpDi=  4
 NAtoms=   32 NActive=   32 NUniq=   32 SFac= 1.00D+00 NAtFMM=   60 NAOKFM=F Big=F
 Integral buffers will be    131072 words long.
 Raffenetti 1 integral format.
 Two-electron integral symmetry is turned on.
 Leave Link  301 at Sun Jul 11 16:25:56 2021, MaxMem=   262144000 cpu:               0.2 elap:               0.1
 (Enter /prod/apps/gaussian/g16b1/l302.exe)
 NPDir=0 NMtPBC=     1 NCelOv=     1 NCel=       1 NClECP=     1 NCelD=      1
         NCelK=      1 NCelE2=     1 NClLst=     1 CellRange=     0.0.
 One-electron integrals computed using PRISM.
 One-electron integral symmetry used in STVInt
 NBasis=   526 RedAO= T EigKep=  1.35D-06  NBF=   526
 NBsUse=   526 1.00D-06 EigRej= -1.00D+00 NBFU=   526
 Leave Link  302 at Sun Jul 11 16:25:56 2021, MaxMem=   262144000 cpu:               1.4 elap:               0.4
 (Enter /prod/apps/gaussian/g16b1/l303.exe)
 DipDrv:  MaxL=1.
 Leave Link  303 at Sun Jul 11 16:25:56 2021, MaxMem=   262144000 cpu:               0.3 elap:               0.1
 (Enter /prod/apps/gaussian/g16b1/l401.exe)
 ExpMin= 2.97D-02 ExpMax= 1.17D+04 ExpMxC= 4.01D+02 IAcc=3 IRadAn=         5 AccDes= 0.00D+00
 Harris functional with IExCor=  205 and IRadAn=       5 diagonalized for initial guess.
 HarFok:  IExCor=  205 AccDes= 0.00D+00 IRadAn=         5 IDoV= 1 UseB2=F ITyADJ=14
 ICtDFT=  3500011 ScaDFX=  1.000000  1.000000  1.000000  1.000000
 FoFCou: FMM=F IPFlag=           0 FMFlag=      100000 FMFlg1=           0
         NFxFlg=           0 DoJE=T BraDBF=F KetDBF=T FulRan=T
         wScrn=  0.000000 ICntrl=       500 IOpCl=  0 I1Cent=   200000004 NGrid=           0
         NMat0=    1 NMatS0=      1 NMatT0=    0 NMatD0=    1 NMtDS0=    0 NMtDT0=    0
 Petite list used in FoFCou.
 Harris En= -727.770663799478    
 JPrj=0 DoOrth=F DoCkMO=F.
 Leave Link  401 at Sun Jul 11 16:25:59 2021, MaxMem=   262144000 cpu:              12.0 elap:               3.0
 (Enter /prod/apps/gaussian/g16b1/l502.exe)
 Integral symmetry usage will be decided dynamically.
 Closed shell SCF:
 Using DIIS extrapolation, IDIIS=  1040.
 NGot=   262144000 LenX=   261508168 LenY=   261194008
 Requested convergence on RMS density matrix=1.00D-08 within 128 cycles.
 Requested convergence on MAX density matrix=1.00D-06.
 Requested convergence on             energy=1.00D-06.
 No special actions if energy rises.
 Fock matrices will be formed incrementally for  20 cycles.

 Cycle   1  Pass 1  IDiag  1:
 FoFJK:  IHMeth= 1 ICntrl=       0 DoSepK=F KAlg= 0 I1Cent=           0 FoldK=F
 IRaf= 950000000 NMat=       1 IRICut=       1 DoRegI=T DoRafI=F ISym2E= 0 IDoP0=0 IntGTp=1.
 FoFCou: FMM=F IPFlag=           0 FMFlag=      100000 FMFlg1=           0
         NFxFlg=           0 DoJE=F BraDBF=F KetDBF=F FulRan=T
         wScrn=  0.000000 ICntrl=         0 IOpCl=  0 I1Cent=           0 NGrid=           0
         NMat0=    1 NMatS0=      1 NMatT0=    0 NMatD0=    1 NMtDS0=    0 NMtDT0=    0
 Symmetry not used in FoFCou.
 E= -725.790401213829    
 DIIS: error= 1.97D-02 at cycle   1 NSaved=   1.
 NSaved= 1 IEnMin= 1 EnMin= -725.790401213829     IErMin= 1 ErrMin= 1.97D-02
 ErrMax= 1.97D-02  0.00D+00 EMaxC= 1.00D-01 BMatC= 9.01D-01 BMatP= 9.01D-01
 IDIUse=3 WtCom= 8.03D-01 WtEn= 1.97D-01
 Coeff-Com:  0.100D+01
 Coeff-En:   0.100D+01
 Coeff:      0.100D+01
 Gap=     0.284 Goal=   None    Shift=    0.000
 GapD=    0.284 DampG=1.000 DampE=0.500 DampFc=0.5000 IDamp=-1.
 Damping current iteration by 5.00D-01
 RMSDP=8.47D-02 MaxDP=6.27D+00              OVMax= 2.00D-01

 Cycle   2  Pass 1  IDiag  1:
 RMSU=  1.88D-02    CP:  7.66D-01
 E= -726.198953629724     Delta-E=       -0.408552415895 Rises=F Damp=T
 DIIS: error= 1.02D-02 at cycle   2 NSaved=   2.
 NSaved= 2 IEnMin= 2 EnMin= -726.198953629724     IErMin= 2 ErrMin= 1.02D-02
 ErrMax= 1.02D-02  0.00D+00 EMaxC= 1.00D-01 BMatC= 1.59D-01 BMatP= 9.01D-01
 IDIUse=3 WtCom= 8.98D-01 WtEn= 1.02D-01
 Coeff-Com: -0.532D+00 0.153D+01
 Coeff-En:   0.000D+00 0.100D+01
 Coeff:     -0.478D+00 0.148D+01
 Gap=     0.200 Goal=   None    Shift=    0.000
 RMSDP=4.45D-02 MaxDP=3.88D+00 DE=-4.09D-01 OVMax= 9.03D-02

 Cycle   3  Pass 1  IDiag  1:
 RMSU=  1.25D-02    CP:  5.12D-01  1.62D+00
 E= -726.563875604788     Delta-E=       -0.364921975064 Rises=F Damp=F
 DIIS: error= 1.81D-03 at cycle   3 NSaved=   3.
 NSaved= 3 IEnMin= 3 EnMin= -726.563875604788     IErMin= 3 ErrMin= 1.81D-03
 ErrMax= 1.81D-03  0.00D+00 EMaxC= 1.00D-01 BMatC= 5.52D-03 BMatP= 1.59D-01
 IDIUse=3 WtCom= 9.82D-01 WtEn= 1.81D-02
 Coeff-Com: -0.119D+00 0.209D+00 0.910D+00
 Coeff-En:   0.000D+00 0.000D+00 0.100D+01
 Coeff:     -0.117D+00 0.205D+00 0.912D+00
 Gap=     0.183 Goal=   None    Shift=    0.000
 RMSDP=2.38D-03 MaxDP=1.24D-01 DE=-3.65D-01 OVMax= 2.27D-02

 Cycle   4  Pass 1  IDiag  1:
 RMSU=  1.96D-03    CP:  5.04D-01  1.63D+00  9.86D-01
 E= -726.569022566570     Delta-E=       -0.005146961782 Rises=F Damp=F
 DIIS: error= 8.23D-04 at cycle   4 NSaved=   4.
 NSaved= 4 IEnMin= 4 EnMin= -726.569022566570     IErMin= 4 ErrMin= 8.23D-04
 ErrMax= 8.23D-04  0.00D+00 EMaxC= 1.00D-01 BMatC= 9.23D-04 BMatP= 5.52D-03
 IDIUse=3 WtCom= 9.92D-01 WtEn= 8.23D-03
 Coeff-Com: -0.197D-01 0.111D-01 0.307D+00 0.702D+00
 Coeff-En:   0.000D+00 0.000D+00 0.000D+00 0.100D+01
 Coeff:     -0.196D-01 0.110D-01 0.305D+00 0.704D+00
 Gap=     0.186 Goal=   None    Shift=    0.000
 RMSDP=7.34D-04 MaxDP=5.53D-02 DE=-5.15D-03 OVMax= 8.83D-03

 Cycle   5  Pass 1  IDiag  1:
 RMSU=  5.99D-04    CP:  5.02D-01  1.62D+00  9.89D-01  1.12D+00
 E= -726.570040338728     Delta-E=       -0.001017772159 Rises=F Damp=F
 DIIS: error= 2.71D-04 at cycle   5 NSaved=   5.
 NSaved= 5 IEnMin= 5 EnMin= -726.570040338728     IErMin= 5 ErrMin= 2.71D-04
 ErrMax= 2.71D-04  0.00D+00 EMaxC= 1.00D-01 BMatC= 7.35D-05 BMatP= 9.23D-04
 IDIUse=3 WtCom= 9.97D-01 WtEn= 2.71D-03
 Coeff-Com:  0.998D-02-0.194D-01-0.750D-01 0.793D-01 0.101D+01
 Coeff-En:   0.000D+00 0.000D+00 0.000D+00 0.000D+00 0.100D+01
 Coeff:      0.996D-02-0.193D-01-0.748D-01 0.791D-01 0.101D+01
 Gap=     0.188 Goal=   None    Shift=    0.000
 RMSDP=3.73D-04 MaxDP=3.41D-02 DE=-1.02D-03 OVMax= 5.11D-03

 Cycle   6  Pass 1  IDiag  1:
 RMSU=  2.42D-04    CP:  5.02D-01  1.62D+00  9.99D-01  1.24D+00  1.17D+00
 E= -726.570201128094     Delta-E=       -0.000160789365 Rises=F Damp=F
 DIIS: error= 9.03D-05 at cycle   6 NSaved=   6.
 NSaved= 6 IEnMin= 6 EnMin= -726.570201128094     IErMin= 6 ErrMin= 9.03D-05
 ErrMax= 9.03D-05  0.00D+00 EMaxC= 1.00D-01 BMatC= 9.74D-06 BMatP= 7.35D-05
 IDIUse=1 WtCom= 1.00D+00 WtEn= 0.00D+00
 Coeff-Com:  0.365D-02-0.411D-02-0.437D-01-0.688D-01 0.124D+00 0.989D+00
 Coeff:      0.365D-02-0.411D-02-0.437D-01-0.688D-01 0.124D+00 0.989D+00
 Gap=     0.188 Goal=   None    Shift=    0.000
 RMSDP=1.55D-04 MaxDP=9.71D-03 DE=-1.61D-04 OVMax= 4.16D-03

 Cycle   7  Pass 1  IDiag  1:
 RMSU=  7.18D-05    CP:  5.02D-01  1.62D+00  1.00D+00  1.28D+00  1.30D+00
                    CP:  1.26D+00
 E= -726.570235713413     Delta-E=       -0.000034585319 Rises=F Damp=F
 DIIS: error= 5.04D-05 at cycle   7 NSaved=   7.
 NSaved= 7 IEnMin= 7 EnMin= -726.570235713413     IErMin= 7 ErrMin= 5.04D-05
 ErrMax= 5.04D-05  0.00D+00 EMaxC= 1.00D-01 BMatC= 2.86D-06 BMatP= 9.74D-06
 IDIUse=1 WtCom= 1.00D+00 WtEn= 0.00D+00
 Coeff-Com: -0.100D-02 0.226D-02 0.717D-02-0.239D-01-0.151D+00 0.184D+00
 Coeff-Com:  0.983D+00
 Coeff:     -0.100D-02 0.226D-02 0.717D-02-0.239D-01-0.151D+00 0.184D+00
 Coeff:      0.983D+00
 Gap=     0.188 Goal=   None    Shift=    0.000
 RMSDP=6.18D-05 MaxDP=4.40D-03 DE=-3.46D-05 OVMax= 1.66D-03

 Cycle   8  Pass 1  IDiag  1:
 RMSU=  3.78D-05    CP:  5.02D-01  1.62D+00  9.99D-01  1.29D+00  1.31D+00
                    CP:  1.40D+00  1.41D+00
 E= -726.570246379483     Delta-E=       -0.000010666070 Rises=F Damp=F
 DIIS: error= 2.39D-05 at cycle   8 NSaved=   8.
 NSaved= 8 IEnMin= 8 EnMin= -726.570246379483     IErMin= 8 ErrMin= 2.39D-05
 ErrMax= 2.39D-05  0.00D+00 EMaxC= 1.00D-01 BMatC= 6.39D-07 BMatP= 2.86D-06
 IDIUse=1 WtCom= 1.00D+00 WtEn= 0.00D+00
 Coeff-Com: -0.135D-02 0.180D-02 0.148D-01 0.159D-01-0.526D-01-0.260D+00
 Coeff-Com:  0.219D-01 0.126D+01
 Coeff:     -0.135D-02 0.180D-02 0.148D-01 0.159D-01-0.526D-01-0.260D+00
 Coeff:      0.219D-01 0.126D+01
 Gap=     0.188 Goal=   None    Shift=    0.000
 RMSDP=4.93D-05 MaxDP=2.11D-03 DE=-1.07D-05 OVMax= 1.82D-03

 Cycle   9  Pass 1  IDiag  1:
 RMSU=  1.87D-05    CP:  5.02D-01  1.62D+00  9.99D-01  1.28D+00  1.32D+00
                    CP:  1.49D+00  1.81D+00  1.68D+00
 E= -726.570250334695     Delta-E=       -0.000003955212 Rises=F Damp=F
 DIIS: error= 1.01D-05 at cycle   9 NSaved=   9.
 NSaved= 9 IEnMin= 9 EnMin= -726.570250334695     IErMin= 9 ErrMin= 1.01D-05
 ErrMax= 1.01D-05  0.00D+00 EMaxC= 1.00D-01 BMatC= 1.40D-07 BMatP= 6.39D-07
 IDIUse=1 WtCom= 1.00D+00 WtEn= 0.00D+00
 Coeff-Com: -0.957D-04-0.746D-04 0.220D-02 0.752D-02 0.190D-01-0.954D-01
 Coeff-Com: -0.212D+00 0.327D+00 0.952D+00
 Coeff:     -0.957D-04-0.746D-04 0.220D-02 0.752D-02 0.190D-01-0.954D-01
 Coeff:     -0.212D+00 0.327D+00 0.952D+00
 Gap=     0.188 Goal=   None    Shift=    0.000
 RMSDP=1.74D-05 MaxDP=1.13D-03 DE=-3.96D-06 OVMax= 5.77D-04

 Cycle  10  Pass 1  IDiag  1:
 RMSU=  7.28D-06    CP:  5.02D-01  1.62D+00  9.99D-01  1.28D+00  1.31D+00
                    CP:  1.50D+00  1.93D+00  1.96D+00  1.28D+00
 E= -726.570250877053     Delta-E=       -0.000000542358 Rises=F Damp=F
 DIIS: error= 3.27D-06 at cycle  10 NSaved=  10.
 NSaved=10 IEnMin=10 EnMin= -726.570250877053     IErMin=10 ErrMin= 3.27D-06
 ErrMax= 3.27D-06  0.00D+00 EMaxC= 1.00D-01 BMatC= 1.32D-08 BMatP= 1.40D-07
 IDIUse=1 WtCom= 1.00D+00 WtEn= 0.00D+00
 Coeff-Com:  0.227D-03-0.293D-03-0.250D-02-0.375D-02 0.712D-02 0.515D-01
 Coeff-Com:  0.585D-02-0.214D+00-0.911D-01 0.125D+01
 Coeff:      0.227D-03-0.293D-03-0.250D-02-0.375D-02 0.712D-02 0.515D-01
 Coeff:      0.585D-02-0.214D+00-0.911D-01 0.125D+01
 Gap=     0.188 Goal=   None    Shift=    0.000
 RMSDP=6.16D-06 MaxDP=3.92D-04 DE=-5.42D-07 OVMax= 2.05D-04

 Cycle  11  Pass 1  IDiag  1:
 RMSU=  2.83D-06    CP:  5.02D-01  1.62D+00  9.99D-01  1.28D+00  1.31D+00
                    CP:  1.50D+00  1.94D+00  2.04D+00  1.42D+00  1.42D+00
 E= -726.570250941361     Delta-E=       -0.000000064309 Rises=F Damp=F
 DIIS: error= 1.54D-06 at cycle  11 NSaved=  11.
 NSaved=11 IEnMin=11 EnMin= -726.570250941361     IErMin=11 ErrMin= 1.54D-06
 ErrMax= 1.54D-06  0.00D+00 EMaxC= 1.00D-01 BMatC= 2.03D-09 BMatP= 1.32D-08
 IDIUse=1 WtCom= 1.00D+00 WtEn= 0.00D+00
 Coeff-Com:  0.514D-04-0.472D-04-0.605D-03-0.150D-02-0.113D-02 0.202D-01
 Coeff-Com:  0.256D-01-0.664D-01-0.150D+00 0.170D+00 0.100D+01
 Coeff:      0.514D-04-0.472D-04-0.605D-03-0.150D-02-0.113D-02 0.202D-01
 Coeff:      0.256D-01-0.664D-01-0.150D+00 0.170D+00 0.100D+01
 Gap=     0.188 Goal=   None    Shift=    0.000
 RMSDP=1.64D-06 MaxDP=1.15D-04 DE=-6.43D-08 OVMax= 4.71D-05

 Cycle  12  Pass 1  IDiag  1:
 RMSU=  9.44D-07    CP:  5.02D-01  1.62D+00  9.99D-01  1.28D+00  1.31D+00
                    CP:  1.51D+00  1.94D+00  2.05D+00  1.44D+00  1.53D+00
                    CP:  1.26D+00
 E= -726.570250946523     Delta-E=       -0.000000005162 Rises=F Damp=F
 DIIS: error= 4.93D-07 at cycle  12 NSaved=  12.
 NSaved=12 IEnMin=12 EnMin= -726.570250946523     IErMin=12 ErrMin= 4.93D-07
 ErrMax= 4.93D-07  0.00D+00 EMaxC= 1.00D-01 BMatC= 2.09D-10 BMatP= 2.03D-09
 IDIUse=1 WtCom= 1.00D+00 WtEn= 0.00D+00
 Coeff-Com: -0.150D-04 0.234D-04 0.173D-03 0.883D-04-0.115D-02-0.207D-02
 Coeff-Com:  0.408D-02 0.139D-01-0.254D-01-0.997D-01 0.213D+00 0.897D+00
 Coeff:     -0.150D-04 0.234D-04 0.173D-03 0.883D-04-0.115D-02-0.207D-02
 Coeff:      0.408D-02 0.139D-01-0.254D-01-0.997D-01 0.213D+00 0.897D+00
 Gap=     0.188 Goal=   None    Shift=    0.000
 RMSDP=5.76D-07 MaxDP=4.12D-05 DE=-5.16D-09 OVMax= 9.04D-06

 Cycle  13  Pass 1  IDiag  1:
 RMSU=  3.55D-07    CP:  5.02D-01  1.62D+00  9.99D-01  1.28D+00  1.31D+00
                    CP:  1.51D+00  1.94D+00  2.05D+00  1.43D+00  1.54D+00
                    CP:  1.29D+00  1.17D+00
 E= -726.570250946957     Delta-E=       -0.000000000433 Rises=F Damp=F
 DIIS: error= 1.32D-07 at cycle  13 NSaved=  13.
 NSaved=13 IEnMin=13 EnMin= -726.570250946957     IErMin=13 ErrMin= 1.32D-07
 ErrMax= 1.32D-07  0.00D+00 EMaxC= 1.00D-01 BMatC= 2.64D-11 BMatP= 2.09D-10
 IDIUse=1 WtCom= 1.00D+00 WtEn= 0.00D+00
 Coeff-Com: -0.778D-05 0.849D-05 0.912D-04 0.181D-03 0.556D-04-0.262D-02
 Coeff-Com: -0.249D-02 0.101D-01 0.136D-01-0.284D-01-0.112D+00 0.701D-01
 Coeff-Com:  0.105D+01
 Coeff:     -0.778D-05 0.849D-05 0.912D-04 0.181D-03 0.556D-04-0.262D-02
 Coeff:     -0.249D-02 0.101D-01 0.136D-01-0.284D-01-0.112D+00 0.701D-01
 Coeff:      0.105D+01
 Gap=     0.188 Goal=   None    Shift=    0.000
 RMSDP=2.86D-07 MaxDP=2.04D-05 DE=-4.33D-10 OVMax= 2.79D-06

 Cycle  14  Pass 1  IDiag  1:
 RMSU=  1.19D-07    CP:  5.02D-01  1.62D+00  9.99D-01  1.28D+00  1.31D+00
                    CP:  1.51D+00  1.94D+00  2.05D+00  1.43D+00  1.53D+00
                    CP:  1.31D+00  1.28D+00  1.28D+00
 E= -726.570250947066     Delta-E=       -0.000000000109 Rises=F Damp=F
 DIIS: error= 5.62D-08 at cycle  14 NSaved=  14.
 NSaved=14 IEnMin=14 EnMin= -726.570250947066     IErMin=14 ErrMin= 5.62D-08
 ErrMax= 5.62D-08  0.00D+00 EMaxC= 1.00D-01 BMatC= 3.02D-12 BMatP= 2.64D-11
 IDIUse=1 WtCom= 1.00D+00 WtEn= 0.00D+00
 Coeff-Com:  0.537D-06-0.118D-05-0.699D-05 0.247D-05 0.112D-03-0.468D-04
 Coeff-Com: -0.699D-03-0.345D-03 0.316D-02 0.868D-02-0.294D-01-0.913D-01
 Coeff-Com:  0.972D-01 0.101D+01
 Coeff:      0.537D-06-0.118D-05-0.699D-05 0.247D-05 0.112D-03-0.468D-04
 Coeff:     -0.699D-03-0.345D-03 0.316D-02 0.868D-02-0.294D-01-0.913D-01
 Coeff:      0.972D-01 0.101D+01
 Gap=     0.188 Goal=   None    Shift=    0.000
 RMSDP=9.54D-08 MaxDP=7.68D-06 DE=-1.09D-10 OVMax= 1.15D-06

 Cycle  15  Pass 1  IDiag  1:
 RMSU=  4.87D-08    CP:  5.02D-01  1.62D+00  9.99D-01  1.28D+00  1.31D+00
                    CP:  1.51D+00  1.94D+00  2.05D+00  1.42D+00  1.52D+00
                    CP:  1.30D+00  1.29D+00  1.36D+00  1.19D+00
 E= -726.570250947070     Delta-E=       -0.000000000004 Rises=F Damp=F
 DIIS: error= 1.95D-08 at cycle  15 NSaved=  15.
 NSaved=15 IEnMin=15 EnMin= -726.570250947070     IErMin=15 ErrMin= 1.95D-08
 ErrMax= 1.95D-08  0.00D+00 EMaxC= 1.00D-01 BMatC= 5.46D-13 BMatP= 3.02D-12
 IDIUse=1 WtCom= 1.00D+00 WtEn= 0.00D+00
 Coeff-Com:  0.114D-05-0.130D-05-0.118D-04-0.281D-04-0.147D-04 0.409D-03
 Coeff-Com:  0.376D-03-0.129D-02-0.264D-02 0.346D-02 0.214D-01-0.831D-02
 Coeff-Com: -0.172D+00-0.836D-01 0.124D+01
 Coeff:      0.114D-05-0.130D-05-0.118D-04-0.281D-04-0.147D-04 0.409D-03
 Coeff:      0.376D-03-0.129D-02-0.264D-02 0.346D-02 0.214D-01-0.831D-02
 Coeff:     -0.172D+00-0.836D-01 0.124D+01
 Gap=     0.188 Goal=   None    Shift=    0.000
 RMSDP=4.10D-08 MaxDP=3.16D-06 DE=-4.09D-12 OVMax= 8.32D-07

 Cycle  16  Pass 1  IDiag  1:
 RMSU=  2.04D-08    CP:  5.02D-01  1.62D+00  9.99D-01  1.28D+00  1.31D+00
                    CP:  1.51D+00  1.94D+00  2.05D+00  1.42D+00  1.52D+00
                    CP:  1.30D+00  1.29D+00  1.38D+00  1.33D+00  1.39D+00
 E= -726.570250947030     Delta-E=        0.000000000040 Rises=F Damp=F
 DIIS: error= 7.17D-09 at cycle  16 NSaved=  16.
 NSaved=16 IEnMin=15 EnMin= -726.570250947070     IErMin=16 ErrMin= 7.17D-09
 ErrMax= 7.17D-09  0.00D+00 EMaxC= 1.00D-01 BMatC= 9.24D-14 BMatP= 5.46D-13
 IDIUse=1 WtCom= 1.00D+00 WtEn= 0.00D+00
 Coeff-Com:  0.366D-07 0.104D-07 0.307D-06-0.269D-05-0.157D-04 0.322D-04
 Coeff-Com:  0.114D-03-0.247D-05-0.693D-03-0.104D-02 0.627D-02 0.989D-02
 Coeff-Com: -0.218D-01-0.143D+00 0.734D-01 0.108D+01
 Coeff:      0.366D-07 0.104D-07 0.307D-06-0.269D-05-0.157D-04 0.322D-04
 Coeff:      0.114D-03-0.247D-05-0.693D-03-0.104D-02 0.627D-02 0.989D-02
 Coeff:     -0.218D-01-0.143D+00 0.734D-01 0.108D+01
 Gap=     0.188 Goal=   None    Shift=    0.000
 RMSDP=1.42D-08 MaxDP=1.08D-06 DE= 4.00D-11 OVMax= 3.46D-07

 Cycle  17  Pass 1  IDiag  1:
 RMSU=  9.13D-09    CP:  5.02D-01  1.62D+00  9.99D-01  1.28D+00  1.31D+00
                    CP:  1.51D+00  1.94D+00  2.05D+00  1.42D+00  1.52D+00
                    CP:  1.30D+00  1.29D+00  1.38D+00  1.36D+00  1.48D+00
                    CP:  1.36D+00
 E= -726.570250947068     Delta-E=       -0.000000000039 Rises=F Damp=F
 DIIS: error= 4.02D-09 at cycle  17 NSaved=  17.
 NSaved=17 IEnMin=15 EnMin= -726.570250947070     IErMin=17 ErrMin= 4.02D-09
 ErrMax= 4.02D-09  0.00D+00 EMaxC= 1.00D-01 BMatC= 1.83D-14 BMatP= 9.24D-14
 IDIUse=1 WtCom= 1.00D+00 WtEn= 0.00D+00
 Coeff-Com: -0.236D-06 0.259D-06 0.272D-05 0.629D-05 0.345D-05-0.939D-04
 Coeff-Com: -0.725D-04 0.286D-03 0.534D-03-0.855D-03-0.411D-02 0.935D-03
 Coeff-Com:  0.387D-01 0.142D-01-0.267D+00 0.262D-01 0.119D+01
 Coeff:     -0.236D-06 0.259D-06 0.272D-05 0.629D-05 0.345D-05-0.939D-04
 Coeff:     -0.725D-04 0.286D-03 0.534D-03-0.855D-03-0.411D-02 0.935D-03
 Coeff:      0.387D-01 0.142D-01-0.267D+00 0.262D-01 0.119D+01
 Gap=     0.188 Goal=   None    Shift=    0.000
 RMSDP=8.43D-09 MaxDP=5.79D-07 DE=-3.87D-11 OVMax= 2.28D-07

 SCF Done:  E(RHF) =  -726.570250947     A.U. after   17 cycles
            NFock= 17  Conv=0.84D-08     -V/T= 2.0011
 KE= 7.257965385548D+02 PE=-3.972591526227D+03 EE= 1.390943057847D+03
 Leave Link  502 at Sun Jul 11 16:37:22 2021, MaxMem=   262144000 cpu:            2731.2 elap:             682.9
 (Enter /prod/apps/gaussian/g16b1/l801.exe)
 ExpMin= 2.97D-02 ExpMax= 1.17D+04 ExpMxC= 4.01D+02 IAcc=3 IRadAn=         5 AccDes= 0.00D+00
 HarFok:  IExCor=  205 AccDes= 0.00D+00 IRadAn=         5 IDoV=-2 UseB2=F ITyADJ=14
 ICtDFT= 12500011 ScaDFX=  1.000000  1.000000  1.000000  1.000000
 Largest valence mixing into a core orbital is  1.14D-04
 Largest core mixing into a valence orbital is  4.34D-05
 Range of M.O.s used for correlation:    18   526
 NBasis=   526 NAE=    61 NBE=    61 NFC=    17 NFV=     0
 NROrb=    509 NOA=    44 NOB=    44 NVA=   465 NVB=   465

 **** Warning!!: The largest alpha MO coefficient is  0.12007824D+03

 Leave Link  801 at Sun Jul 11 16:37:22 2021, MaxMem=   262144000 cpu:               0.9 elap:               0.2
 (Enter /prod/apps/gaussian/g16b1/l906.exe)
 FulOut=F Deriv=F AODrv=F NAtomX=    32
   MMem=           5  MDisk=          44 MDiskD=          44
  W3Min=    11457600 MinDsk=    12229780 NBas6D=         560
 NBas2D=      157833    NTT=      157080    LW2=     2000000
    MDV=   260167969 MDiskM=        6402 NBas2p=      146950
 Disk-based method using OVN memory for 44 occupieds at a time.
 Estimated scratch disk usage=  9279428488 words.
 IMap=   1   2   3   4   5   6   7   8   9  10  11  12  13  14  15  16  17  18  19  20
 IMap=  21  22  23  24  25  26  27  28  29  30  31  32  33  34  35  36  37  38  39  40
 IMap=  41  42  43  44
 Actual    scratch disk usage=  9043378056 words.
 JobTyp=1 Pass  1:  I=   1 to  44 NPSUse=  4 ParTrn=T ParDer=T DoDerP=F.
Erroneous write. Write -1 instead of 7218376.
fd = 4
orig len = 8384512 left = 7218376
g_write
