 Entering Gaussian System, Link 0=g16
 Initial command:
 /prod/apps/gaussian/g16b1/l1.exe "/tmp/ubator02/1834574/Gau-199257.inp" -scrdir="/tmp/ubator02/1834574/"
 Entering Link 1 = /prod/apps/gaussian/g16b1/l1.exe PID=    199258.
  
 Copyright (c) 1988-2017, Gaussian, Inc.  All Rights Reserved.
  
 This is part of the Gaussian(R) 16 program.  It is based on
 the Gaussian(R) 09 system (copyright 2009, Gaussian, Inc.),
 the Gaussian(R) 03 system (copyright 2003, Gaussian, Inc.),
 the Gaussian(R) 98 system (copyright 1998, Gaussian, Inc.),
 the Gaussian(R) 94 system (copyright 1995, Gaussian, Inc.),
 the Gaussian 92(TM) system (copyright 1992, Gaussian, Inc.),
 the Gaussian 90(TM) system (copyright 1990, Gaussian, Inc.),
 the Gaussian 88(TM) system (copyright 1988, Gaussian, Inc.),
 the Gaussian 86(TM) system (copyright 1986, Carnegie Mellon
 University), and the Gaussian 82(TM) system (copyright 1983,
 Carnegie Mellon University). Gaussian is a federally registered
 trademark of Gaussian, Inc.
  
 This software contains proprietary and confidential information,
 including trade secrets, belonging to Gaussian, Inc.
  
 This software is provided under written license and may be
 used, copied, transmitted, or stored only in accord with that
 written license.
  
 The following legend is applicable only to US Government
 contracts under FAR:
  
                    RESTRICTED RIGHTS LEGEND
  
 Use, reproduction and disclosure by the US Government is
 subject to restrictions as set forth in subparagraphs (a)
 and (c) of the Commercial Computer Software - Restricted
 Rights clause in FAR 52.227-19.
  
 Gaussian, Inc.
 340 Quinnipiac St., Bldg. 40, Wallingford CT 06492
  
  
 ---------------------------------------------------------------
 Warning -- This program may not be used in any manner that
 competes with the business of Gaussian, Inc. or will provide
 assistance to any competitor of Gaussian, Inc.  The licensee
 of this program is prohibited from giving any competitor of
 Gaussian, Inc. access to this program.  By using this program,
 the user acknowledges that Gaussian, Inc. is engaged in the
 business of creating and licensing software in the field of
 computational chemistry and represents and warrants to the
 licensee that it is not a competitor of Gaussian, Inc. and that
 it will not use this program in any manner prohibited above.
 ---------------------------------------------------------------
  

 Cite this work as:
 Gaussian 16, Revision B.01,
 M. J. Frisch, G. W. Trucks, H. B. Schlegel, G. E. Scuseria, 
 M. A. Robb, J. R. Cheeseman, G. Scalmani, V. Barone, 
 G. A. Petersson, H. Nakatsuji, X. Li, M. Caricato, A. V. Marenich, 
 J. Bloino, B. G. Janesko, R. Gomperts, B. Mennucci, H. P. Hratchian, 
 J. V. Ortiz, A. F. Izmaylov, J. L. Sonnenberg, D. Williams-Young, 
 F. Ding, F. Lipparini, F. Egidi, J. Goings, B. Peng, A. Petrone, 
 T. Henderson, D. Ranasinghe, V. G. Zakrzewski, J. Gao, N. Rega, 
 G. Zheng, W. Liang, M. Hada, M. Ehara, K. Toyota, R. Fukuda, 
 J. Hasegawa, M. Ishida, T. Nakajima, Y. Honda, O. Kitao, H. Nakai, 
 T. Vreven, K. Throssell, J. A. Montgomery, Jr., J. E. Peralta, 
 F. Ogliaro, M. J. Bearpark, J. J. Heyd, E. N. Brothers, K. N. Kudin, 
 V. N. Staroverov, T. A. Keith, R. Kobayashi, J. Normand, 
 K. Raghavachari, A. P. Rendell, J. C. Burant, S. S. Iyengar, 
 J. Tomasi, M. Cossi, J. M. Millam, M. Klene, C. Adamo, R. Cammi, 
 J. W. Ochterski, R. L. Martin, K. Morokuma, O. Farkas, 
 J. B. Foresman, and D. J. Fox, Gaussian, Inc., Wallingford CT, 2016.
 
 ******************************************
 Gaussian 16:  ES64L-G16RevB.01 20-Dec-2017
                11-Jul-2021 
 ******************************************
 %mem=800MB
 %nproc=4
 Will use up to    4 processors via shared memory.
 %chk=SET_328_BBB299_conf1.geo_195_180.chk
 -----------------------------------------------------------
 #p b3lyp/6-31G(d) opt freq scrf=(iefpcm,read,solvent=water)
 -----------------------------------------------------------
 1/18=20,19=15,26=3,38=1,40=2/1,3;
 2/9=110,12=2,17=6,18=5,40=1/2;
 3/5=1,6=6,7=1,11=2,25=1,30=1,70=2203,71=1,72=1,74=-5/1,2,3;
 4//1;
 5/5=2,38=5,53=1/2;
 6/7=2,8=2,9=2,10=2,28=1/1;
 7//1,2,3,16;
 1/18=20,19=15,26=3/3(2);
 2/9=110/2;
 99//99;
 2/9=110/2;
 3/5=1,6=6,7=1,11=2,25=1,30=1,70=2205,71=1,72=1,74=-5/1,2,3;
 4/5=5,16=3,69=1/1;
 5/5=2,38=5,53=1/2;
 7//1,2,3,16;
 1/18=20,19=15,26=3/3(-5);
 2/9=110/2;
 6/7=2,8=2,9=2,10=2,19=2,28=1/1;
 99/9=1/99;
 Leave Link    1 at Sun Jul 11 16:10:17 2021, MaxMem=   104857600 cpu:               0.1 elap:               0.0
 (Enter /prod/apps/gaussian/g16b1/l101.exe)
 -----------------------------------------
 SET_328_BBB299_conf1.geo_195_180 geometry
 -----------------------------------------
 Symbolic Z-matrix:
 Charge = -1 Multiplicity = 1
 O                    -0.003    -1.919     2.169 
 C                    -0.678    -0.878     1.76 
 O                    -1.799    -0.815     2.116 
 C                    -0.208    -0.34      0.489 
 C                    -0.605     0.906     0.086 
 O                    -1.544     1.691     0.711 
 H                    -1.697     2.548     0.275 
 C                    -0.079     1.442    -1.059 
 H                    -0.46      2.395    -1.416 
 C                     0.907     0.747    -1.799 
 H                     1.35      1.09     -2.73 
 C                     1.334    -0.484    -1.344 
 H                     2.079    -1.012    -1.934 
 C                     0.82     -1.002    -0.174 
 H                     1.241    -1.945     0.166 
 
 ITRead=  0  0  0  0  0  0  0  0  0  0  0  0  0  0  0
 MicOpt= -1 -1 -1 -1 -1 -1 -1 -1 -1 -1 -1 -1 -1 -1 -1
 NAtoms=     15 NQM=       15 NQMF=       0 NMMI=      0 NMMIF=      0
                NMic=       0 NMicF=      0.
                    Isotopes and Nuclear Properties:
 (Nuclear quadrupole moments (NQMom) in fm**2, nuclear magnetic moments (NMagM)
  in nuclear magnetons)

  Atom         1           2           3           4           5           6           7           8           9          10
 IAtWgt=          16          12          16          12          12          16           1          12           1          12
 AtmWgt=  15.9949146  12.0000000  15.9949146  12.0000000  12.0000000  15.9949146   1.0078250  12.0000000   1.0078250  12.0000000
 NucSpn=           0           0           0           0           0           0           1           0           1           0
 AtZEff=  -0.0000000  -0.0000000  -0.0000000  -0.0000000  -0.0000000  -0.0000000  -0.0000000  -0.0000000  -0.0000000  -0.0000000
 NQMom=    0.0000000   0.0000000   0.0000000   0.0000000   0.0000000   0.0000000   0.0000000   0.0000000   0.0000000   0.0000000
 NMagM=    0.0000000   0.0000000   0.0000000   0.0000000   0.0000000   0.0000000   2.7928460   0.0000000   2.7928460   0.0000000
 AtZNuc=   8.0000000   6.0000000   8.0000000   6.0000000   6.0000000   8.0000000   1.0000000   6.0000000   1.0000000   6.0000000

  Atom        11          12          13          14          15
 IAtWgt=           1          12           1          12           1
 AtmWgt=   1.0078250  12.0000000   1.0078250  12.0000000   1.0078250
 NucSpn=           1           0           1           0           1
 AtZEff=  -0.0000000  -0.0000000  -0.0000000  -0.0000000  -0.0000000
 NQMom=    0.0000000   0.0000000   0.0000000   0.0000000   0.0000000
 NMagM=    2.7928460   0.0000000   2.7928460   0.0000000   2.7928460
 AtZNuc=   1.0000000   6.0000000   1.0000000   6.0000000   1.0000000
 Leave Link  101 at Sun Jul 11 16:10:17 2021, MaxMem=   104857600 cpu:               0.5 elap:               0.1
 (Enter /prod/apps/gaussian/g16b1/l103.exe)

 GradGradGradGradGradGradGradGradGradGradGradGradGradGradGradGradGradGrad
 Berny optimization.
 Initialization pass.
                           ----------------------------
                           !    Initial Parameters    !
                           ! (Angstroms and Degrees)  !
 --------------------------                            --------------------------
 ! Name  Definition              Value          Derivative Info.                !
 --------------------------------------------------------------------------------
 ! R1    R(1,2)                  1.3064         estimate D2E/DX2                !
 ! R2    R(2,3)                  1.1779         estimate D2E/DX2                !
 ! R3    R(2,4)                  1.458          estimate D2E/DX2                !
 ! R4    R(4,5)                  1.3684         estimate D2E/DX2                !
 ! R5    R(4,14)                 1.3909         estimate D2E/DX2                !
 ! R6    R(5,6)                  1.3743         estimate D2E/DX2                !
 ! R7    R(5,8)                  1.3693         estimate D2E/DX2                !
 ! R8    R(6,7)                  0.9736         estimate D2E/DX2                !
 ! R9    R(8,9)                  1.0867         estimate D2E/DX2                !
 ! R10   R(8,10)                 1.4152         estimate D2E/DX2                !
 ! R11   R(10,11)                1.0866         estimate D2E/DX2                !
 ! R12   R(10,12)                1.3801         estimate D2E/DX2                !
 ! R13   R(12,13)                1.0872         estimate D2E/DX2                !
 ! R14   R(12,14)                1.3789         estimate D2E/DX2                !
 ! R15   R(14,15)                1.0872         estimate D2E/DX2                !
 ! A1    A(1,2,3)              116.0882         estimate D2E/DX2                !
 ! A2    A(1,2,4)              113.6035         estimate D2E/DX2                !
 ! A3    A(3,2,4)              123.4039         estimate D2E/DX2                !
 ! A4    A(2,4,5)              119.9469         estimate D2E/DX2                !
 ! A5    A(2,4,14)             118.5652         estimate D2E/DX2                !
 ! A6    A(5,4,14)             120.4921         estimate D2E/DX2                !
 ! A7    A(4,5,6)              125.7619         estimate D2E/DX2                !
 ! A8    A(4,5,8)              119.4221         estimate D2E/DX2                !
 ! A9    A(6,5,8)              114.7821         estimate D2E/DX2                !
 ! A10   A(5,6,7)              113.9856         estimate D2E/DX2                !
 ! A11   A(5,8,9)              118.9027         estimate D2E/DX2                !
 ! A12   A(5,8,10)             120.8396         estimate D2E/DX2                !
 ! A13   A(9,8,10)             120.2109         estimate D2E/DX2                !
 ! A14   A(8,10,11)            125.2433         estimate D2E/DX2                !
 ! A15   A(8,10,12)            118.7641         estimate D2E/DX2                !
 ! A16   A(11,10,12)           115.9699         estimate D2E/DX2                !
 ! A17   A(10,12,13)           117.7942         estimate D2E/DX2                !
 ! A18   A(10,12,14)           119.9651         estimate D2E/DX2                !
 ! A19   A(13,12,14)           122.2402         estimate D2E/DX2                !
 ! A20   A(4,14,12)            120.0765         estimate D2E/DX2                !
 ! A21   A(4,14,15)            123.3626         estimate D2E/DX2                !
 ! A22   A(12,14,15)           116.5398         estimate D2E/DX2                !
 ! D1    D(1,2,4,5)           -165.2454         estimate D2E/DX2                !
 ! D2    D(1,2,4,14)             3.3988         estimate D2E/DX2                !
 ! D3    D(3,2,4,5)             45.0958         estimate D2E/DX2                !
 ! D4    D(3,2,4,14)          -146.26           estimate D2E/DX2                !
 ! D5    D(2,4,5,6)             -7.127          estimate D2E/DX2                !
 ! D6    D(2,4,5,8)            175.1074         estimate D2E/DX2                !
 ! D7    D(14,4,5,6)          -175.5498         estimate D2E/DX2                !
 ! D8    D(14,4,5,8)             6.6846         estimate D2E/DX2                !
 ! D9    D(2,4,14,12)         -176.7605         estimate D2E/DX2                !
 ! D10   D(2,4,14,15)            4.9671         estimate D2E/DX2                !
 ! D11   D(5,4,14,12)           -8.1802         estimate D2E/DX2                !
 ! D12   D(5,4,14,15)          173.5474         estimate D2E/DX2                !
 ! D13   D(4,5,6,7)           -179.7955         estimate D2E/DX2                !
 ! D14   D(8,5,6,7)             -1.9391         estimate D2E/DX2                !
 ! D15   D(4,5,8,9)            174.9752         estimate D2E/DX2                !
 ! D16   D(4,5,8,10)            -2.5434         estimate D2E/DX2                !
 ! D17   D(6,5,8,9)             -3.0279         estimate D2E/DX2                !
 ! D18   D(6,5,8,10)           179.4535         estimate D2E/DX2                !
 ! D19   D(5,8,10,11)          178.0436         estimate D2E/DX2                !
 ! D20   D(5,8,10,12)           -0.1524         estimate D2E/DX2                !
 ! D21   D(9,8,10,11)            0.5573         estimate D2E/DX2                !
 ! D22   D(9,8,10,12)         -177.6386         estimate D2E/DX2                !
 ! D23   D(8,10,12,13)         178.9384         estimate D2E/DX2                !
 ! D24   D(8,10,12,14)          -1.2904         estimate D2E/DX2                !
 ! D25   D(11,10,12,13)          0.5772         estimate D2E/DX2                !
 ! D26   D(11,10,12,14)       -179.6516         estimate D2E/DX2                !
 ! D27   D(10,12,14,4)           5.396          estimate D2E/DX2                !
 ! D28   D(10,12,14,15)       -176.2168         estimate D2E/DX2                !
 ! D29   D(13,12,14,4)        -174.8434         estimate D2E/DX2                !
 ! D30   D(13,12,14,15)          3.5438         estimate D2E/DX2                !
 --------------------------------------------------------------------------------
 Trust Radius=3.00D-01 FncErr=1.00D-07 GrdErr=1.00D-06 EigMax=2.50D+02 EigMin=1.00D-04
 Number of steps in this run=     77 maximum allowed number of steps=    100.
 GradGradGradGradGradGradGradGradGradGradGradGradGradGradGradGradGradGrad

 Leave Link  103 at Sun Jul 11 16:10:17 2021, MaxMem=   104857600 cpu:               0.1 elap:               0.0
 (Enter /prod/apps/gaussian/g16b1/l202.exe)
                          Input orientation:                          
 ---------------------------------------------------------------------
 Center     Atomic      Atomic             Coordinates (Angstroms)
 Number     Number       Type             X           Y           Z
 ---------------------------------------------------------------------
      1          8           0       -0.003000   -1.919000    2.169000
      2          6           0       -0.678000   -0.878000    1.760000
      3          8           0       -1.799000   -0.815000    2.116000
      4          6           0       -0.208000   -0.340000    0.489000
      5          6           0       -0.605000    0.906000    0.086000
      6          8           0       -1.544000    1.691000    0.711000
      7          1           0       -1.697000    2.548000    0.275000
      8          6           0       -0.079000    1.442000   -1.059000
      9          1           0       -0.460000    2.395000   -1.416000
     10          6           0        0.907000    0.747000   -1.799000
     11          1           0        1.350000    1.090000   -2.730000
     12          6           0        1.334000   -0.484000   -1.344000
     13          1           0        2.079000   -1.012000   -1.934000
     14          6           0        0.820000   -1.002000   -0.174000
     15          1           0        1.241000   -1.945000    0.166000
 ---------------------------------------------------------------------
                    Distance matrix (angstroms):
                    1          2          3          4          5
     1  O    0.000000
     2  C    1.306364   0.000000
     3  O    2.108848   1.177857   0.000000
     4  C    2.314663   1.458007   2.324658   0.000000
     5  C    3.561168   2.447501   2.916912   1.368406   0.000000
     6  O    4.187188   2.906909   2.884283   2.441135   1.374253
     7  H    5.139160   3.870538   3.835291   3.256296   1.980997
     8  C    4.660695   3.699725   4.258295   2.363994   1.369305
     9  H    5.627759   4.565855   4.957020   3.342567   2.119941
    10  C    4.866280   4.221295   5.008943   2.767623   2.421704
    11  H    5.906343   5.305272   6.085141   3.851522   3.433036
    12  C    4.023427   3.719973   4.679407   2.399664   2.781496
    13  H    4.689561   4.611360   5.610721   3.398953   3.868201
    14  C    2.647238   2.449436   3.483996   1.390898   2.395556
    15  H    2.358012   2.713280   3.784310   2.186311   3.397399
                    6          7          8          9         10
     6  O    0.000000
     7  H    0.973629   0.000000
     8  C    2.311088   2.370805   0.000000
     9  H    2.488936   2.100728   1.086655   0.000000
    10  C    3.632993   3.784956   1.415211   2.175151   0.000000
    11  H    4.536179   4.521062   2.226698   2.589541   1.086581
    12  C    4.151690   4.582701   2.405675   3.392972   1.380114
    13  H    5.237209   5.640165   3.383002   4.280478   2.117992
    14  C    3.691066   4.374859   2.750375   3.836740   2.388974
    15  H    4.612347   5.369430   3.835987   4.922573   3.349574
                   11         12         13         14         15
    11  H    0.000000
    12  C    2.097314   0.000000
    13  H    2.362935   1.087156   0.000000
    14  C    3.345220   1.378920   2.163973   0.000000
    15  H    4.196418   2.103157   2.445963   1.087240   0.000000
 Stoichiometry    C7H5O3(1-)
 Framework group  C1[X(C7H5O3)]
 Deg. of freedom    39
 Full point group                 C1      NOp   1
 Largest Abelian subgroup         C1      NOp   1
 Largest concise Abelian subgroup C1      NOp   1
                         Standard orientation:                         
 ---------------------------------------------------------------------
 Center     Atomic      Atomic             Coordinates (Angstroms)
 Number     Number       Type             X           Y           Z
 ---------------------------------------------------------------------
      1          8           0        2.266848   -1.341068   -0.294115
      2          6           0        1.724803   -0.168074   -0.102130
      3          8           0        2.403512    0.635719    0.427603
      4          6           0        0.274088   -0.211059    0.037020
      5          6           0       -0.455945    0.942259   -0.060164
      6          8           0        0.058640    2.213506   -0.147941
      7          1           0       -0.617934    2.911155   -0.206989
      8          6           0       -1.823355    0.877464   -0.028719
      9          1           0       -2.393011    1.802818   -0.023271
     10          6           0       -2.488999   -0.369012    0.048973
     11          1           0       -3.565754   -0.502195    0.108295
     12          6           0       -1.734084   -1.523644    0.089516
     13          1           0       -2.261043   -2.471396    0.166911
     14          6           0       -0.358551   -1.449716    0.027353
     15          1           0        0.177992   -2.394936   -0.000408
 ---------------------------------------------------------------------
 Rotational constants (GHZ):           2.3166785           1.2817299           0.8390617
 Leave Link  202 at Sun Jul 11 16:10:17 2021, MaxMem=   104857600 cpu:               0.0 elap:               0.0
 (Enter /prod/apps/gaussian/g16b1/l301.exe)
 Standard basis: 6-31G(d) (6D, 7F)
 Ernie: Thresh=  0.10000D-02 Tol=  0.10000D-05 Strict=F.
 There are   160 symmetry adapted cartesian basis functions of A   symmetry.
 There are   160 symmetry adapted basis functions of A   symmetry.
   160 basis functions,   300 primitive gaussians,   160 cartesian basis functions
    36 alpha electrons       36 beta electrons
       nuclear repulsion energy       492.2316233371 Hartrees.
 IExCor=  402 DFT=T Ex+Corr=B3LYP ExCW=0 ScaHFX=  0.200000
 ScaDFX=  0.800000  0.720000  1.000000  0.810000 ScalE2=  1.000000  1.000000
 IRadAn=      5 IRanWt=     -1 IRanGd=            0 ICorTp=0 IEmpDi=  4
 NAtoms=   15 NActive=   15 NUniq=   15 SFac= 1.00D+00 NAtFMM=   60 NAOKFM=F Big=F
 Integral buffers will be    131072 words long.
 Raffenetti 2 integral format.
 Two-electron integral symmetry is turned on.
 Using the following non-standard input for PCM:
 MSTModel=DFT cav MSTCharged
 --- end of non-standard input.
 MST model for solvation energy: B3LYP parametrization.
 MST cavity parameters:
 ISph   IAn     Re0     Alpha   Atom Type   QCorr
 ------------------------------------------------
   1      8     1.40     1.15      O          T
   2      6     1.50     1.15      C          T
   3      8     1.40     1.15      O          T
   4      6     1.50     1.25      C          F
   5      6     1.50     1.25      C          F
   6      8     1.45     1.25      OH         F
   7      1     0.90     1.25      OH         F
   8      6     1.50     1.25      CH         F
   9      1     1.20     1.25      CH         F
  10      6     1.50     1.25      CH         F
  11      1     1.20     1.25      CH         F
  12      6     1.50     1.25      CH         F
  13      1     1.20     1.25      CH         F
  14      6     1.50     1.25      CH         F
  15      1     1.20     1.25      CH         F
 ------------------------------------------------------------------------------
 Polarizable Continuum Model (PCM)
 =================================
 Model                : PCM.
 Atomic radii         : MST.
 Polarization charges : Total charges.
 Charge compensation  : None.
 Solution method      : On-the-fly selection.
 Cavity type          : Scaled VdW (van der Waals Surface) (Alpha=1.250).
 Cavity algorithm     : GePol (No added spheres)
                        Default sphere list used, NSphG=   15.
                        Lebedev-Laikov grids with approx.  5.0 points / Ang**2.
                        Smoothing algorithm: York/Karplus (Gamma=1.0000).
                        Polarization charges: spherical gaussians, with
                                              point-specific exponents (IZeta= 3).
                        Self-potential: point-specific (ISelfS= 7).
                        Self-field    : sphere-specific E.n sum rule (ISelfD= 2).
 1st derivatives      : Analytical E(r).r(x)/FMM algorithm (CHGder, D1EAlg=3).
                        Cavity 1st derivative terms included.
 Solvent              : Water, Eps=  78.355300 Eps(inf)=   1.777849
 ------------------------------------------------------------------------------
 Spheres list:
 ISph  on   Nord     Re0    Alpha      Xe            Ye            Ze
    1   O      1    1.4000  1.150      2.266848     -1.341068     -0.294115
    2   C      2    1.5000  1.150      1.724803     -0.168074     -0.102130
    3   O      3    1.4000  1.150      2.403512      0.635719      0.427603
    4   C      4    1.5000  1.250      0.274088     -0.211059      0.037020
    5   C      5    1.5000  1.250     -0.455945      0.942259     -0.060164
    6   O      6    1.4500  1.250      0.058640      2.213506     -0.147941
    7   H      7    0.9000  1.250     -0.617934      2.911155     -0.206989
    8   C      8    1.5000  1.250     -1.823355      0.877464     -0.028719
    9   H      9    1.2000  1.250     -2.393011      1.802818     -0.023271
   10   C     10    1.5000  1.250     -2.488999     -0.369012      0.048973
   11   H     11    1.2000  1.250     -3.565754     -0.502195      0.108295
   12   C     12    1.5000  1.250     -1.734084     -1.523644      0.089516
   13   H     13    1.2000  1.250     -2.261043     -2.471396      0.166911
   14   C     14    1.5000  1.250     -0.358551     -1.449716      0.027353
   15   H     15    1.2000  1.250      0.177992     -2.394936     -0.000408
 ------------------------------------------------------------------------------
 GePol: Number of generator spheres                  =      15
 GePol: Total number of spheres                      =      15
 GePol: Number of exposed spheres                    =      15 (100.00%)
 GePol: Number of points                             =    1279
 GePol: Average weight of points                     =       0.13
 GePol: Minimum weight of points                     =   0.84D-08
 GePol: Maximum weight of points                     =    0.21416
 GePol: Number of points with low weight             =      70
 GePol: Fraction of low-weight points (<1% of avg)   =       5.47%
 GePol: Cavity surface area                          =    164.012 Ang**2
 GePol: Cavity volume                                =    143.617 Ang**3
 PCM non-electrostatic energy =         0.0015368960 Hartrees.
 Nuclear repulsion after PCM non-electrostatic terms =      492.2331602331 Hartrees.
 Leave Link  301 at Sun Jul 11 16:10:17 2021, MaxMem=   104857600 cpu:               0.4 elap:               0.1
 (Enter /prod/apps/gaussian/g16b1/l302.exe)
 NPDir=0 NMtPBC=     1 NCelOv=     1 NCel=       1 NClECP=     1 NCelD=      1
         NCelK=      1 NCelE2=     1 NClLst=     1 CellRange=     0.0.
 One-electron integrals computed using PRISM.
 One-electron integral symmetry used in STVInt
 NBasis=   160 RedAO= T EigKep=  4.16D-04  NBF=   160
 NBsUse=   160 1.00D-06 EigRej= -1.00D+00 NBFU=   160
 Precomputing XC quadrature grid using
 IXCGrd= 4 IRadAn=           5 IRanWt=          -1 IRanGd=           0 AccXCQ= 0.00D+00.
 Generated NRdTot=       0 NPtTot=           0 NUsed=           0 NTot=          32
 NSgBfM=   160   160   160   160   160 MxSgAt=    15 MxSgA2=    15.
 Leave Link  302 at Sun Jul 11 16:10:17 2021, MaxMem=   104857600 cpu:               0.8 elap:               0.2
 (Enter /prod/apps/gaussian/g16b1/l303.exe)
 DipDrv:  MaxL=1.
 Leave Link  303 at Sun Jul 11 16:10:17 2021, MaxMem=   104857600 cpu:               0.1 elap:               0.0
 (Enter /prod/apps/gaussian/g16b1/l401.exe)
 ExpMin= 1.61D-01 ExpMax= 5.48D+03 ExpMxC= 8.25D+02 IAcc=3 IRadAn=         5 AccDes= 0.00D+00
 Harris functional with IExCor=  402 and IRadAn=       5 diagonalized for initial guess.
 HarFok:  IExCor=  402 AccDes= 0.00D+00 IRadAn=         5 IDoV= 1 UseB2=F ITyADJ=14
 ICtDFT=  3500011 ScaDFX=  1.000000  1.000000  1.000000  1.000000
 FoFCou: FMM=F IPFlag=           0 FMFlag=      100000 FMFlg1=           0
         NFxFlg=           0 DoJE=T BraDBF=F KetDBF=T FulRan=T
         wScrn=  0.000000 ICntrl=       500 IOpCl=  0 I1Cent=   200000004 NGrid=           0
         NMat0=    1 NMatS0=      1 NMatT0=    0 NMatD0=    1 NMtDS0=    0 NMtDT0=    0
 Petite list used in FoFCou.
 Harris En= -495.655575946644    
 JPrj=0 DoOrth=F DoCkMO=F.
 Leave Link  401 at Sun Jul 11 16:10:18 2021, MaxMem=   104857600 cpu:               2.7 elap:               0.7
 (Enter /prod/apps/gaussian/g16b1/l502.exe)
 Keep R1 ints in memory in canonical form, NReq=86910067.
 FoFCou: FMM=F IPFlag=           0 FMFlag=           0 FMFlg1=           0
         NFxFlg=           0 DoJE=F BraDBF=F KetDBF=F FulRan=T
         wScrn=  0.000000 ICntrl=       600 IOpCl=  0 I1Cent=           0 NGrid=           0
         NMat0=    1 NMatS0=  12880 NMatT0=    0 NMatD0=    1 NMtDS0=    0 NMtDT0=    0
 Symmetry not used in FoFCou.
 Two-electron integral symmetry not used.
 Closed shell SCF:
 Using DIIS extrapolation, IDIIS=  1040.
 NGot=   104857600 LenX=    21850029 LenY=    21823988
 Requested convergence on RMS density matrix=1.00D-08 within 128 cycles.
 Requested convergence on MAX density matrix=1.00D-06.
 Requested convergence on             energy=1.00D-06.
 No special actions if energy rises.

 Cycle   1  Pass 1  IDiag  1:
 Inv3:  Mode=1 IEnd=     4907523.
 Iteration    1 A*A^-1 deviation from unit magnitude is 2.78D-15 for    210.
 Iteration    1 A*A^-1 deviation from orthogonality  is 1.56D-15 for    826    220.
 Iteration    1 A^-1*A deviation from unit magnitude is 2.55D-15 for    753.
 Iteration    1 A^-1*A deviation from orthogonality  is 8.30D-15 for    984    960.
 E= -495.223716267829    
 DIIS: error= 3.22D-02 at cycle   1 NSaved=   1.
 NSaved= 1 IEnMin= 1 EnMin= -495.223716267829     IErMin= 1 ErrMin= 3.22D-02
 ErrMax= 3.22D-02  0.00D+00 EMaxC= 1.00D-01 BMatC= 3.63D-01 BMatP= 3.63D-01
 IDIUse=3 WtCom= 6.78D-01 WtEn= 3.22D-01
 Coeff-Com:  0.100D+01
 Coeff-En:   0.100D+01
 Coeff:      0.100D+01
 Gap=     0.208 Goal=   None    Shift=    0.000
 GapD=    0.208 DampG=1.000 DampE=0.500 DampFc=0.5000 IDamp=-1.
 Damping current iteration by 5.00D-01
 RMSDP=9.84D-03 MaxDP=2.31D-01              OVMax= 1.86D-01

 Cycle   2  Pass 1  IDiag  1:
 E= -495.353308443697     Delta-E=       -0.129592175869 Rises=F Damp=T
 DIIS: error= 8.26D-03 at cycle   2 NSaved=   2.
 NSaved= 2 IEnMin= 2 EnMin= -495.353308443697     IErMin= 2 ErrMin= 8.26D-03
 ErrMax= 8.26D-03  0.00D+00 EMaxC= 1.00D-01 BMatC= 2.42D-02 BMatP= 3.63D-01
 IDIUse=3 WtCom= 9.17D-01 WtEn= 8.26D-02
 Coeff-Com:  0.111D+00 0.889D+00
 Coeff-En:   0.155D+00 0.845D+00
 Coeff:      0.115D+00 0.885D+00
 Gap=     0.186 Goal=   None    Shift=    0.000
 RMSDP=2.30D-03 MaxDP=7.22D-02 DE=-1.30D-01 OVMax= 1.44D-01

 Cycle   3  Pass 1  IDiag  1:
 E= -495.515091535122     Delta-E=       -0.161783091425 Rises=F Damp=F
 DIIS: error= 7.56D-03 at cycle   3 NSaved=   3.
 NSaved= 3 IEnMin= 3 EnMin= -495.515091535122     IErMin= 3 ErrMin= 7.56D-03
 ErrMax= 7.56D-03  0.00D+00 EMaxC= 1.00D-01 BMatC= 1.78D-02 BMatP= 2.42D-02
 IDIUse=3 WtCom= 9.24D-01 WtEn= 7.56D-02
 Coeff-Com:  0.145D-01 0.458D+00 0.528D+00
 Coeff-En:   0.000D+00 0.000D+00 0.100D+01
 Coeff:      0.134D-01 0.423D+00 0.564D+00
 Gap=     0.170 Goal=   None    Shift=    0.000
 RMSDP=1.22D-03 MaxDP=3.17D-02 DE=-1.62D-01 OVMax= 5.08D-02

 Cycle   4  Pass 1  IDiag  1:
 E= -495.528159251677     Delta-E=       -0.013067716554 Rises=F Damp=F
 DIIS: error= 3.38D-03 at cycle   4 NSaved=   4.
 NSaved= 4 IEnMin= 4 EnMin= -495.528159251677     IErMin= 4 ErrMin= 3.38D-03
 ErrMax= 3.38D-03  0.00D+00 EMaxC= 1.00D-01 BMatC= 3.25D-03 BMatP= 1.78D-02
 IDIUse=3 WtCom= 9.66D-01 WtEn= 3.38D-02
 Coeff-Com:  0.255D-03 0.106D+00 0.317D+00 0.577D+00
 Coeff-En:   0.000D+00 0.000D+00 0.141D+00 0.859D+00
 Coeff:      0.247D-03 0.102D+00 0.311D+00 0.586D+00
 Gap=     0.171 Goal=   None    Shift=    0.000
 RMSDP=4.66D-04 MaxDP=1.38D-02 DE=-1.31D-02 OVMax= 2.62D-02

 Cycle   5  Pass 1  IDiag  1:
 E= -495.530386929742     Delta-E=       -0.002227678066 Rises=F Damp=F
 DIIS: error= 2.09D-03 at cycle   5 NSaved=   5.
 NSaved= 5 IEnMin= 5 EnMin= -495.530386929742     IErMin= 5 ErrMin= 2.09D-03
 ErrMax= 2.09D-03  0.00D+00 EMaxC= 1.00D-01 BMatC= 5.79D-04 BMatP= 3.25D-03
 IDIUse=3 WtCom= 9.79D-01 WtEn= 2.09D-02
 Coeff-Com: -0.276D-03 0.130D-01 0.141D+00 0.386D+00 0.461D+00
 Coeff-En:   0.000D+00 0.000D+00 0.000D+00 0.109D+00 0.891D+00
 Coeff:     -0.270D-03 0.127D-01 0.138D+00 0.380D+00 0.470D+00
 Gap=     0.171 Goal=   None    Shift=    0.000
 RMSDP=1.52D-04 MaxDP=5.15D-03 DE=-2.23D-03 OVMax= 8.40D-03

 Cycle   6  Pass 1  IDiag  1:
 E= -495.530810531241     Delta-E=       -0.000423601499 Rises=F Damp=F
 DIIS: error= 2.42D-04 at cycle   6 NSaved=   6.
 NSaved= 6 IEnMin= 6 EnMin= -495.530810531241     IErMin= 6 ErrMin= 2.42D-04
 ErrMax= 2.42D-04  0.00D+00 EMaxC= 1.00D-01 BMatC= 1.71D-05 BMatP= 5.79D-04
 IDIUse=3 WtCom= 9.98D-01 WtEn= 2.42D-03
 Coeff-Com: -0.154D-03 0.246D-03 0.470D-01 0.146D+00 0.231D+00 0.575D+00
 Coeff-En:   0.000D+00 0.000D+00 0.000D+00 0.000D+00 0.000D+00 0.100D+01
 Coeff:     -0.154D-03 0.246D-03 0.469D-01 0.146D+00 0.231D+00 0.576D+00
 Gap=     0.170 Goal=   None    Shift=    0.000
 RMSDP=3.10D-05 MaxDP=9.42D-04 DE=-4.24D-04 OVMax= 1.33D-03

 Cycle   7  Pass 1  IDiag  1:
 E= -495.530823503947     Delta-E=       -0.000012972706 Rises=F Damp=F
 DIIS: error= 6.09D-05 at cycle   7 NSaved=   7.
 NSaved= 7 IEnMin= 7 EnMin= -495.530823503947     IErMin= 7 ErrMin= 6.09D-05
 ErrMax= 6.09D-05  0.00D+00 EMaxC= 1.00D-01 BMatC= 1.64D-06 BMatP= 1.71D-05
 IDIUse=1 WtCom= 1.00D+00 WtEn= 0.00D+00
 Coeff-Com: -0.307D-04-0.920D-03 0.148D-01 0.501D-01 0.893D-01 0.311D+00
 Coeff-Com:  0.536D+00
 Coeff:     -0.307D-04-0.920D-03 0.148D-01 0.501D-01 0.893D-01 0.311D+00
 Coeff:      0.536D+00
 Gap=     0.170 Goal=   None    Shift=    0.000
 RMSDP=8.75D-06 MaxDP=3.33D-04 DE=-1.30D-05 OVMax= 5.41D-04

 Cycle   8  Pass 1  IDiag  1:
 E= -495.530825042468     Delta-E=       -0.000001538522 Rises=F Damp=F
 DIIS: error= 1.44D-05 at cycle   8 NSaved=   8.
 NSaved= 8 IEnMin= 8 EnMin= -495.530825042468     IErMin= 8 ErrMin= 1.44D-05
 ErrMax= 1.44D-05  0.00D+00 EMaxC= 1.00D-01 BMatC= 6.65D-08 BMatP= 1.64D-06
 IDIUse=1 WtCom= 1.00D+00 WtEn= 0.00D+00
 Coeff-Com:  0.339D-05-0.440D-03 0.324D-02 0.119D-01 0.231D-01 0.953D-01
 Coeff-Com:  0.237D+00 0.630D+00
 Coeff:      0.339D-05-0.440D-03 0.324D-02 0.119D-01 0.231D-01 0.953D-01
 Coeff:      0.237D+00 0.630D+00
 Gap=     0.170 Goal=   None    Shift=    0.000
 RMSDP=2.43D-06 MaxDP=6.33D-05 DE=-1.54D-06 OVMax= 1.06D-04

 Cycle   9  Pass 1  IDiag  1:
 E= -495.530825104737     Delta-E=       -0.000000062268 Rises=F Damp=F
 DIIS: error= 4.41D-06 at cycle   9 NSaved=   9.
 NSaved= 9 IEnMin= 9 EnMin= -495.530825104737     IErMin= 9 ErrMin= 4.41D-06
 ErrMax= 4.41D-06  0.00D+00 EMaxC= 1.00D-01 BMatC= 8.15D-09 BMatP= 6.65D-08
 IDIUse=1 WtCom= 1.00D+00 WtEn= 0.00D+00
 Coeff-Com:  0.797D-05-0.941D-04-0.378D-03-0.879D-03-0.893D-03 0.367D-02
 Coeff-Com:  0.419D-01 0.297D+00 0.659D+00
 Coeff:      0.797D-05-0.941D-04-0.378D-03-0.879D-03-0.893D-03 0.367D-02
 Coeff:      0.419D-01 0.297D+00 0.659D+00
 Gap=     0.170 Goal=   None    Shift=    0.000
 RMSDP=6.75D-07 MaxDP=1.56D-05 DE=-6.23D-08 OVMax= 3.44D-05

 Cycle  10  Pass 1  IDiag  1:
 E= -495.530825112830     Delta-E=       -0.000000008094 Rises=F Damp=F
 DIIS: error= 1.14D-06 at cycle  10 NSaved=  10.
 NSaved=10 IEnMin=10 EnMin= -495.530825112830     IErMin=10 ErrMin= 1.14D-06
 ErrMax= 1.14D-06  0.00D+00 EMaxC= 1.00D-01 BMatC= 4.45D-10 BMatP= 8.15D-09
 IDIUse=1 WtCom= 1.00D+00 WtEn= 0.00D+00
 Coeff-Com:  0.299D-05-0.193D-04-0.291D-03-0.854D-03-0.141D-02-0.246D-02
 Coeff-Com:  0.821D-02 0.984D-01 0.286D+00 0.613D+00
 Coeff:      0.299D-05-0.193D-04-0.291D-03-0.854D-03-0.141D-02-0.246D-02
 Coeff:      0.821D-02 0.984D-01 0.286D+00 0.613D+00
 Gap=     0.170 Goal=   None    Shift=    0.000
 RMSDP=1.84D-07 MaxDP=4.76D-06 DE=-8.09D-09 OVMax= 8.60D-06

 Cycle  11  Pass 1  IDiag  1:
 E= -495.530825113256     Delta-E=       -0.000000000425 Rises=F Damp=F
 DIIS: error= 4.29D-07 at cycle  11 NSaved=  11.
 NSaved=11 IEnMin=11 EnMin= -495.530825113256     IErMin=11 ErrMin= 4.29D-07
 ErrMax= 4.29D-07  0.00D+00 EMaxC= 1.00D-01 BMatC= 5.56D-11 BMatP= 4.45D-10
 IDIUse=1 WtCom= 1.00D+00 WtEn= 0.00D+00
 Coeff-Com:  0.101D-06 0.407D-05-0.942D-04-0.299D-03-0.610D-03-0.167D-02
 Coeff-Com: -0.141D-02 0.726D-02 0.473D-01 0.286D+00 0.664D+00
 Coeff:      0.101D-06 0.407D-05-0.942D-04-0.299D-03-0.610D-03-0.167D-02
 Coeff:     -0.141D-02 0.726D-02 0.473D-01 0.286D+00 0.664D+00
 Gap=     0.170 Goal=   None    Shift=    0.000
 RMSDP=6.60D-08 MaxDP=1.25D-06 DE=-4.25D-10 OVMax= 4.01D-06

 Cycle  12  Pass 1  IDiag  1:
 E= -495.530825113315     Delta-E=       -0.000000000059 Rises=F Damp=F
 DIIS: error= 1.23D-07 at cycle  12 NSaved=  12.
 NSaved=12 IEnMin=12 EnMin= -495.530825113315     IErMin=12 ErrMin= 1.23D-07
 ErrMax= 1.23D-07  0.00D+00 EMaxC= 1.00D-01 BMatC= 2.82D-12 BMatP= 5.56D-11
 IDIUse=1 WtCom= 1.00D+00 WtEn= 0.00D+00
 Coeff-Com: -0.186D-06 0.237D-05-0.134D-04-0.422D-04-0.125D-03-0.393D-03
 Coeff-Com: -0.912D-03-0.369D-02-0.255D-02 0.648D-01 0.236D+00 0.707D+00
 Coeff:     -0.186D-06 0.237D-05-0.134D-04-0.422D-04-0.125D-03-0.393D-03
 Coeff:     -0.912D-03-0.369D-02-0.255D-02 0.648D-01 0.236D+00 0.707D+00
 Gap=     0.170 Goal=   None    Shift=    0.000
 RMSDP=1.91D-08 MaxDP=3.89D-07 DE=-5.90D-11 OVMax= 1.24D-06

 Cycle  13  Pass 1  IDiag  1:
 E= -495.530825113319     Delta-E=       -0.000000000004 Rises=F Damp=F
 DIIS: error= 6.96D-08 at cycle  13 NSaved=  13.
 NSaved=13 IEnMin=13 EnMin= -495.530825113319     IErMin=13 ErrMin= 6.96D-08
 ErrMax= 6.96D-08  0.00D+00 EMaxC= 1.00D-01 BMatC= 1.09D-12 BMatP= 2.82D-12
 IDIUse=1 WtCom= 1.00D+00 WtEn= 0.00D+00
 Coeff-Com: -0.152D-06 0.887D-06 0.718D-05 0.231D-04 0.203D-04 0.202D-04
 Coeff-Com: -0.379D-03-0.376D-02-0.102D-01-0.963D-02 0.293D-01 0.427D+00
 Coeff-Com:  0.568D+00
 Coeff:     -0.152D-06 0.887D-06 0.718D-05 0.231D-04 0.203D-04 0.202D-04
 Coeff:     -0.379D-03-0.376D-02-0.102D-01-0.963D-02 0.293D-01 0.427D+00
 Coeff:      0.568D+00
 Gap=     0.170 Goal=   None    Shift=    0.000
 RMSDP=8.67D-09 MaxDP=1.59D-07 DE=-3.87D-12 OVMax= 5.45D-07

 Error on total polarization charges =  0.01891
 SCF Done:  E(RB3LYP) =  -495.530825113     A.U. after   13 cycles
            NFock= 13  Conv=0.87D-08     -V/T= 2.0076
 KE= 4.918071698929D+02 PE=-2.157580713440D+03 EE= 6.780095582003D+02
 Leave Link  502 at Sun Jul 11 16:10:34 2021, MaxMem=   104857600 cpu:              59.2 elap:              15.8
 (Enter /prod/apps/gaussian/g16b1/l601.exe)
 Copying SCF densities to generalized density rwf, IOpCl= 0 IROHF=0.

 **********************************************************************

            Population analysis using the SCF Density.

 **********************************************************************

 Orbital symmetries:
       Occupied  (A) (A) (A) (A) (A) (A) (A) (A) (A) (A) (A) (A)
                 (A) (A) (A) (A) (A) (A) (A) (A) (A) (A) (A) (A)
                 (A) (A) (A) (A) (A) (A) (A) (A) (A) (A) (A) (A)
       Virtual   (A) (A) (A) (A) (A) (A) (A) (A) (A) (A) (A) (A)
                 (A) (A) (A) (A) (A) (A) (A) (A) (A) (A) (A) (A)
                 (A) (A) (A) (A) (A) (A) (A) (A) (A) (A) (A) (A)
                 (A) (A) (A) (A) (A) (A) (A) (A) (A) (A) (A) (A)
                 (A) (A) (A) (A) (A) (A) (A) (A) (A) (A) (A) (A)
                 (A) (A) (A) (A) (A) (A) (A) (A) (A) (A) (A) (A)
                 (A) (A) (A) (A) (A) (A) (A) (A) (A) (A) (A) (A)
                 (A) (A) (A) (A) (A) (A) (A) (A) (A) (A) (A) (A)
                 (A) (A) (A) (A) (A) (A) (A) (A) (A) (A) (A) (A)
                 (A) (A) (A) (A) (A) (A) (A) (A) (A) (A) (A) (A)
                 (A) (A) (A) (A)
 The electronic state is 1-A.
 Alpha  occ. eigenvalues --  -19.16271 -19.06581 -19.03592 -10.23904 -10.23887
 Alpha  occ. eigenvalues --  -10.18608 -10.17917 -10.17885 -10.17377 -10.17218
 Alpha  occ. eigenvalues --   -1.04358  -1.02713  -0.88838  -0.84862  -0.74874
 Alpha  occ. eigenvalues --   -0.73524  -0.62385  -0.60519  -0.54230  -0.51535
 Alpha  occ. eigenvalues --   -0.46677  -0.45685  -0.42527  -0.41772  -0.41402
 Alpha  occ. eigenvalues --   -0.38495  -0.37531  -0.36884  -0.34248  -0.33665
 Alpha  occ. eigenvalues --   -0.32751  -0.24446  -0.22701  -0.22066  -0.21381
 Alpha  occ. eigenvalues --   -0.18398
 Alpha virt. eigenvalues --   -0.01366   0.02132   0.08746   0.09792   0.11120
 Alpha virt. eigenvalues --    0.16290   0.17449   0.19283   0.20974   0.25603
 Alpha virt. eigenvalues --    0.30212   0.32695   0.34439   0.35475   0.37809
 Alpha virt. eigenvalues --    0.42099   0.43684   0.50372   0.51517   0.54382
 Alpha virt. eigenvalues --    0.56442   0.56998   0.58661   0.59675   0.61173
 Alpha virt. eigenvalues --    0.62327   0.62735   0.63577   0.64689   0.66068
 Alpha virt. eigenvalues --    0.67133   0.70900   0.74303   0.74873   0.78586
 Alpha virt. eigenvalues --    0.79659   0.83344   0.84411   0.85409   0.88038
 Alpha virt. eigenvalues --    0.89639   0.91012   0.92679   0.95465   0.96595
 Alpha virt. eigenvalues --    0.97673   0.99436   1.03008   1.05145   1.08785
 Alpha virt. eigenvalues --    1.09312   1.10972   1.12837   1.16734   1.17817
 Alpha virt. eigenvalues --    1.20465   1.26320   1.30579   1.34979   1.37023
 Alpha virt. eigenvalues --    1.40186   1.42680   1.45537   1.47543   1.48995
 Alpha virt. eigenvalues --    1.51009   1.53580   1.61542   1.69618   1.71478
 Alpha virt. eigenvalues --    1.74951   1.77853   1.79046   1.80832   1.83652
 Alpha virt. eigenvalues --    1.86100   1.89589   1.90584   1.93482   1.94373
 Alpha virt. eigenvalues --    1.97302   1.99104   1.99676   2.04311   2.09352
 Alpha virt. eigenvalues --    2.10695   2.13155   2.16479   2.18148   2.23235
 Alpha virt. eigenvalues --    2.26301   2.28816   2.32146   2.34063   2.36537
 Alpha virt. eigenvalues --    2.44467   2.48819   2.51499   2.59821   2.61371
 Alpha virt. eigenvalues --    2.65394   2.66274   2.71893   2.73493   2.77524
 Alpha virt. eigenvalues --    2.79114   2.86706   2.89640   2.97438   2.98103
 Alpha virt. eigenvalues --    3.05464   3.15104   3.31619   3.48728   3.94761
 Alpha virt. eigenvalues --    3.99873   4.09668   4.10573   4.16253   4.21938
 Alpha virt. eigenvalues --    4.31123   4.44087   4.45961   4.80823
          Condensed to atoms (all electrons):
               1          2          3          4          5          6
     1  O    8.533142   0.502588  -0.160600  -0.155660   0.004868   0.000032
     2  C    0.502588   4.428513   0.513534   0.202513  -0.014149   0.000686
     3  O   -0.160600   0.513534   8.334904  -0.106227  -0.000994  -0.001494
     4  C   -0.155660   0.202513  -0.106227   5.353164   0.423107  -0.056175
     5  C    0.004868  -0.014149  -0.000994   0.423107   4.654628   0.292054
     6  O    0.000032   0.000686  -0.001494  -0.056175   0.292054   8.284330
     7  H    0.000003  -0.000067   0.000236   0.004172  -0.027608   0.248801
     8  C   -0.000201   0.006850   0.000057  -0.040177   0.464970  -0.073859
     9  H    0.000001  -0.000099   0.000010   0.005555  -0.040561  -0.008217
    10  C   -0.000020  -0.000361   0.000005  -0.045280  -0.010896   0.006472
    11  H    0.000000   0.000010   0.000000   0.000638   0.003210  -0.000051
    12  C    0.002379   0.008709  -0.000144  -0.020457  -0.040777  -0.000192
    13  H   -0.000003  -0.000137   0.000000   0.004581   0.000798   0.000002
    14  C    0.003422  -0.051784   0.006461   0.471490  -0.046213   0.004116
    15  H    0.024233  -0.007250   0.000657  -0.050166   0.005993  -0.000028
               7          8          9         10         11         12
     1  O    0.000003  -0.000201   0.000001  -0.000020   0.000000   0.002379
     2  C   -0.000067   0.006850  -0.000099  -0.000361   0.000010   0.008709
     3  O    0.000236   0.000057   0.000010   0.000005   0.000000  -0.000144
     4  C    0.004172  -0.040177   0.005555  -0.045280   0.000638  -0.020457
     5  C   -0.027608   0.464970  -0.040561  -0.010896   0.003210  -0.040777
     6  O    0.248801  -0.073859  -0.008217   0.006472  -0.000051  -0.000192
     7  H    0.308760  -0.001359   0.007889   0.000590  -0.000015  -0.000024
     8  C   -0.001359   5.185979   0.349292   0.472459  -0.035548  -0.026645
     9  H    0.007889   0.349292   0.580922  -0.038563  -0.004448   0.004636
    10  C    0.000590   0.472459  -0.038563   4.937500   0.358362   0.526347
    11  H   -0.000015  -0.035548  -0.004448   0.358362   0.577152  -0.042992
    12  C   -0.000024  -0.026645   0.004636   0.526347  -0.042992   5.006999
    13  H   -0.000001   0.005520  -0.000172  -0.046271  -0.006569   0.359708
    14  C   -0.000066  -0.064382   0.000738  -0.017516   0.005087   0.429565
    15  H    0.000003  -0.000098   0.000013   0.006275  -0.000234  -0.047998
              13         14         15
     1  O   -0.000003   0.003422   0.024233
     2  C   -0.000137  -0.051784  -0.007250
     3  O    0.000000   0.006461   0.000657
     4  C    0.004581   0.471490  -0.050166
     5  C    0.000798  -0.046213   0.005993
     6  O    0.000002   0.004116  -0.000028
     7  H   -0.000001  -0.000066   0.000003
     8  C    0.005520  -0.064382  -0.000098
     9  H   -0.000172   0.000738   0.000013
    10  C   -0.046271  -0.017516   0.006275
    11  H   -0.006569   0.005087  -0.000234
    12  C    0.359708   0.429565  -0.047998
    13  H    0.593149  -0.039446  -0.006249
    14  C   -0.039446   5.127166   0.355194
    15  H   -0.006249   0.355194   0.580791
 Mulliken charges:
               1
     1  O   -0.754183
     2  C    0.410446
     3  O   -0.586405
     4  C    0.008921
     5  C    0.331570
     6  O   -0.696476
     7  H    0.458684
     8  C   -0.242860
     9  H    0.143004
    10  C   -0.149103
    11  H    0.145396
    12  C   -0.159113
    13  H    0.135088
    14  C   -0.183831
    15  H    0.138864
 Sum of Mulliken charges =  -1.00000
 Mulliken charges with hydrogens summed into heavy atoms:
               1
     1  O   -0.754183
     2  C    0.410446
     3  O   -0.586405
     4  C    0.008921
     5  C    0.331570
     6  O   -0.237793
     8  C   -0.099856
    10  C   -0.003707
    12  C   -0.024026
    14  C   -0.044968
 Electronic spatial extent (au):  <R**2>=           1319.4887
 Charge=             -1.0000 electrons
 Dipole moment (field-independent basis, Debye):
    X=            -13.8897    Y=              3.4183    Z=             -0.3666  Tot=             14.3089
 Quadrupole moment (field-independent basis, Debye-Ang):
   XX=            -84.2447   YY=            -56.3114   ZZ=            -59.9356
   XY=              1.0458   XZ=             -0.8317   YZ=             -3.4301
 Traceless Quadrupole moment (field-independent basis, Debye-Ang):
   XX=            -17.4142   YY=             10.5192   ZZ=              6.8949
   XY=              1.0458   XZ=             -0.8317   YZ=             -3.4301
 Octapole moment (field-independent basis, Debye-Ang**2):
  XXX=            -81.9161  YYY=             37.3142  ZZZ=             -0.2317  XYY=            -33.7344
  XXY=             16.9587  XXZ=             -1.3294  XZZ=              6.0284  YZZ=              4.8886
  YYZ=              0.2253  XYZ=             -4.9518
 Hexadecapole moment (field-independent basis, Debye-Ang**3):
 XXXX=          -1173.4471 YYYY=           -473.0389 ZZZZ=            -66.8574 XXXY=             33.4266
 XXXZ=             -8.0835 YYYX=            -21.5018 YYYZ=            -12.7966 ZZZX=              2.2660
 ZZZY=             -0.8270 XXYY=           -292.2814 XXZZ=           -195.9782 YYZZ=           -112.7333
 XXYZ=            -16.7444 YYXZ=              5.9688 ZZXY=             -2.3117
 N-N= 4.922331602331D+02 E-N=-2.157580714165D+03  KE= 4.918071698929D+02
 No NMR shielding tensors so no spin-rotation constants.
 Leave Link  601 at Sun Jul 11 16:10:34 2021, MaxMem=   104857600 cpu:               0.4 elap:               0.1
 (Enter /prod/apps/gaussian/g16b1/l701.exe)
 ... and contract with generalized density number  0.
 Compute integral first derivatives.
 D1PCM: PCM CHGder 1st derivatives, ID1Alg=3 FixD1E=F DoIter=F DoCFld=F I1PDM=0.
 GePol: Maximum number of non-zero 1st derivatives   =     234
 Leave Link  701 at Sun Jul 11 16:10:35 2021, MaxMem=   104857600 cpu:               3.3 elap:               0.8
 (Enter /prod/apps/gaussian/g16b1/l702.exe)
 L702 exits ... SP integral derivatives will be done elsewhere.
 Leave Link  702 at Sun Jul 11 16:10:35 2021, MaxMem=   104857600 cpu:               0.1 elap:               0.0
 (Enter /prod/apps/gaussian/g16b1/l703.exe)
 Integral derivatives from FoFJK, PRISM(SPDF).
 Compute integral first derivatives, UseDBF=F ICtDFT=           0.
 Calling FoFJK, ICntrl=      2127 FMM=F ISym2X=0 I1Cent= 0 IOpClX= 0 NMat=1 NMatS=1 NMatT=0.
 FoFJK:  IHMeth= 1 ICntrl=    2127 DoSepK=F KAlg= 0 I1Cent=           0 FoldK=F
 IRaf=         0 NMat=       1 IRICut=       1 DoRegI=T DoRafI=F ISym2E= 0 IDoP0=0 IntGTp=1.
 FoFCou: FMM=F IPFlag=           0 FMFlag=      100000 FMFlg1=         800
         NFxFlg=           0 DoJE=F BraDBF=F KetDBF=F FulRan=T
         wScrn=  0.000000 ICntrl=      2127 IOpCl=  0 I1Cent=           0 NGrid=           0
         NMat0=    1 NMatS0=      1 NMatT0=    0 NMatD0=    1 NMtDS0=    0 NMtDT0=    0
 Symmetry not used in FoFCou.
 Leave Link  703 at Sun Jul 11 16:10:38 2021, MaxMem=   104857600 cpu:              11.5 elap:               2.9
 (Enter /prod/apps/gaussian/g16b1/l716.exe)
 Dipole        =-5.46464700D+00 1.34485330D+00-1.44240152D-01
 ***** Axes restored to original set *****
 -------------------------------------------------------------------
 Center     Atomic                   Forces (Hartrees/Bohr)
 Number     Number              X              Y              Z
 -------------------------------------------------------------------
      1        8           0.030426784    0.020784477    0.008734601
      2        6           0.087451910   -0.125857652   -0.023049935
      3        8          -0.139165308    0.059145885    0.043310958
      4        6           0.020482181    0.010342612    0.028074659
      5        6          -0.021033786    0.043828565   -0.022399506
      6        8          -0.006740487   -0.017659317    0.023827296
      7        1           0.008399571   -0.006410387   -0.005547151
      8        6           0.028679963    0.004280658   -0.046008953
      9        1           0.003042825    0.000830226   -0.000017267
     10        6          -0.014412632    0.012283744    0.002814316
     11        1          -0.006080489    0.009546342    0.001614685
     12        6           0.010243002   -0.003715104   -0.009485684
     13        1           0.000687230   -0.002507715    0.004375464
     14        6           0.008173188   -0.008944195   -0.013826663
     15        1          -0.010153951    0.004051860    0.007583181
 -------------------------------------------------------------------
 Cartesian Forces:  Max     0.139165308 RMS     0.036410050
 Leave Link  716 at Sun Jul 11 16:10:38 2021, MaxMem=   104857600 cpu:               0.1 elap:               0.0
 (Enter /prod/apps/gaussian/g16b1/l103.exe)

 GradGradGradGradGradGradGradGradGradGradGradGradGradGradGradGradGradGrad
 Berny optimization.
 FormGI is forming the generalized inverse of G from B-inverse, IUseBI=4.
 Internal  Forces:  Max     0.148696008 RMS     0.023947612
 Search for a local minimum.
 Step number   1 out of a maximum of   77
 All quantities printed in internal units (Hartrees-Bohrs-Radians)
 RMS Force = .23948D-01 SwitMx=.10000D-02 MixMth= 1
 Mixed Optimization -- RFO/linear search
 Second derivative matrix not updated -- first step.
 ITU=  0
     Eigenvalues ---    0.01321   0.02032   0.02054   0.02101   0.02189
     Eigenvalues ---    0.02218   0.02278   0.02333   0.02360   0.02398
     Eigenvalues ---    0.02481   0.02946   0.15985   0.15993   0.15994
     Eigenvalues ---    0.16000   0.16000   0.21980   0.22421   0.24314
     Eigenvalues ---    0.24531   0.24984   0.25000   0.25000   0.35134
     Eigenvalues ---    0.35143   0.35202   0.35211   0.37215   0.41000
     Eigenvalues ---    0.45233   0.45777   0.48732   0.50168   0.50355
     Eigenvalues ---    0.50773   0.52642   0.65456   1.16786
 RFO step:  Lambda=-8.62850907D-02 EMin= 1.32143174D-02
 Linear search not attempted -- first point.
 Maximum step size (   0.300) exceeded in Quadratic search.
    -- Step size scaled by   0.876
 Iteration  1 RMS(Cart)=  0.07511869 RMS(Int)=  0.01585557
 Iteration  2 RMS(Cart)=  0.01439473 RMS(Int)=  0.00691865
 Iteration  3 RMS(Cart)=  0.00063893 RMS(Int)=  0.00689459
 Iteration  4 RMS(Cart)=  0.00001354 RMS(Int)=  0.00689458
 Iteration  5 RMS(Cart)=  0.00000041 RMS(Int)=  0.00689458
 ITry= 1 IFail=0 DXMaxC= 3.13D-01 DCOld= 1.00D+10 DXMaxT= 3.00D-01 DXLimC= 3.00D+00 Rises=F
 Variable       Old X    -DE/DX   Delta X   Delta X   Delta X     New X
                                 (Linear)    (Quad)   (Total)
    R1        2.46867   0.00190   0.00000   0.00225   0.00225   2.47092
    R2        2.22583   0.14870   0.00000   0.10380   0.10380   2.32963
    R3        2.75523   0.04908   0.00000   0.09374   0.09374   2.84897
    R4        2.58591   0.03805   0.00000   0.05730   0.05740   2.64331
    R5        2.62842   0.00924   0.00000   0.01540   0.01553   2.64395
    R6        2.59696  -0.00656   0.00000  -0.00977  -0.00977   2.58719
    R7        2.58761   0.03714   0.00000   0.05526   0.05521   2.64283
    R8        1.83989  -0.00449   0.00000  -0.00641  -0.00641   1.83348
    R9        2.05348  -0.00033   0.00000  -0.00066  -0.00066   2.05282
   R10        2.67436  -0.01968   0.00000  -0.03422  -0.03436   2.64000
   R11        2.05334  -0.00085   0.00000  -0.00170  -0.00170   2.05165
   R12        2.60804   0.02044   0.00000   0.02926   0.02917   2.63721
   R13        2.05443  -0.00069   0.00000  -0.00137  -0.00137   2.05305
   R14        2.60578   0.01849   0.00000   0.02711   0.02717   2.63295
   R15        2.05459  -0.00508   0.00000  -0.01016  -0.01016   2.04443
    A1        2.02612   0.04030   0.00000   0.15998   0.12740   2.15352
    A2        1.98276   0.00695   0.00000   0.06669   0.03414   2.01690
    A3        2.15381  -0.02164   0.00000  -0.00916  -0.04171   2.11210
    A4        2.09347   0.01000   0.00000   0.02567   0.02535   2.11881
    A5        2.06935   0.00872   0.00000   0.02241   0.02211   2.09147
    A6        2.10298  -0.01786   0.00000  -0.04116  -0.04123   2.06176
    A7        2.19496  -0.03125   0.00000  -0.08345  -0.08352   2.11144
    A8        2.08431   0.00624   0.00000   0.02059   0.02065   2.10496
    A9        2.00333   0.02505   0.00000   0.06318   0.06314   2.06646
   A10        1.98942  -0.02033   0.00000  -0.07228  -0.07228   1.91715
   A11        2.07524   0.00267   0.00000   0.00920   0.00927   2.08451
   A12        2.10905  -0.00146   0.00000  -0.00443  -0.00461   2.10444
   A13        2.09808  -0.00116   0.00000  -0.00443  -0.00435   2.09373
   A14        2.18591  -0.01331   0.00000  -0.04350  -0.04340   2.14251
   A15        2.07283   0.00329   0.00000   0.00407   0.00385   2.07668
   A16        2.02406   0.01005   0.00000   0.03960   0.03971   2.06377
   A17        2.05590   0.00332   0.00000   0.01550   0.01551   2.07141
   A18        2.09379   0.00313   0.00000   0.00373   0.00372   2.09750
   A19        2.13349  -0.00645   0.00000  -0.01924  -0.01923   2.11427
   A20        2.09573   0.00697   0.00000   0.01967   0.01988   2.11562
   A21        2.15308  -0.01606   0.00000  -0.05447  -0.05458   2.09850
   A22        2.03400   0.00911   0.00000   0.03493   0.03482   2.06882
    D1       -2.88408   0.03065   0.00000   0.22487   0.22490  -2.65918
    D2        0.05932   0.03345   0.00000   0.25912   0.26023   0.31955
    D3        0.78707  -0.03419   0.00000  -0.26557  -0.26669   0.52038
    D4       -2.55272  -0.03138   0.00000  -0.23132  -0.23135  -2.78407
    D5       -0.12439   0.00468   0.00000   0.03304   0.03250  -0.09189
    D6        3.05620   0.00288   0.00000   0.02119   0.02105   3.07725
    D7       -3.06392  -0.00130   0.00000  -0.00936  -0.00938  -3.07330
    D8        0.11667  -0.00310   0.00000  -0.02121  -0.02083   0.09584
    D9       -3.08505  -0.00236   0.00000  -0.01771  -0.01758  -3.10263
   D10        0.08669  -0.00312   0.00000  -0.02359  -0.02333   0.06336
   D11       -0.14277   0.00375   0.00000   0.02462   0.02414  -0.11863
   D12        3.02897   0.00298   0.00000   0.01874   0.01839   3.04736
   D13       -3.13802  -0.00094   0.00000  -0.00724  -0.00711   3.13805
   D14       -0.03384   0.00048   0.00000   0.00347   0.00335  -0.03049
   D15        3.05389   0.00182   0.00000   0.01634   0.01653   3.07043
   D16       -0.04439   0.00063   0.00000   0.00724   0.00742  -0.03697
   D17       -0.05285   0.00140   0.00000   0.00886   0.00852  -0.04432
   D18        3.13205   0.00020   0.00000  -0.00024  -0.00059   3.13147
   D19        3.10745   0.00131   0.00000   0.00811   0.00788   3.11532
   D20       -0.00266   0.00003   0.00000   0.00017   0.00014  -0.00252
   D21        0.00973   0.00000   0.00000  -0.00145  -0.00162   0.00811
   D22       -3.10038  -0.00127   0.00000  -0.00939  -0.00936  -3.10974
   D23        3.12306   0.00081   0.00000   0.00372   0.00366   3.12673
   D24       -0.02252   0.00065   0.00000   0.00324   0.00318  -0.01934
   D25        0.01007   0.00006   0.00000  -0.00206  -0.00227   0.00780
   D26       -3.13551  -0.00010   0.00000  -0.00254  -0.00275  -3.13826
   D27        0.09418  -0.00103   0.00000  -0.01225  -0.01247   0.08170
   D28       -3.07556  -0.00074   0.00000  -0.00827  -0.00832  -3.08388
   D29       -3.05159  -0.00117   0.00000  -0.01267  -0.01288  -3.06447
   D30        0.06185  -0.00088   0.00000  -0.00868  -0.00873   0.05312
         Item               Value     Threshold  Converged?
 Maximum Force            0.148696     0.000450     NO 
 RMS     Force            0.023948     0.000300     NO 
 Maximum Displacement     0.312524     0.001800     NO 
 RMS     Displacement     0.080687     0.001200     NO 
 Predicted change in Energy=-5.749740D-02
 Lowest energy point so far.  Saving SCF results.
 GradGradGradGradGradGradGradGradGradGradGradGradGradGradGradGradGradGrad

 Leave Link  103 at Sun Jul 11 16:10:38 2021, MaxMem=   104857600 cpu:               0.1 elap:               0.0
 (Enter /prod/apps/gaussian/g16b1/l202.exe)
                          Input orientation:                          
 ---------------------------------------------------------------------
 Center     Atomic      Atomic             Coordinates (Angstroms)
 Number     Number       Type             X           Y           Z
 ---------------------------------------------------------------------
      1          8           0        0.042135   -1.852392    2.334380
      2          6           0       -0.742920   -0.981330    1.755904
      3          8           0       -1.858523   -0.682219    2.186866
      4          6           0       -0.219890   -0.384958    0.473847
      5          6           0       -0.606099    0.891980    0.053309
      6          8           0       -1.555679    1.602074    0.737741
      7          1           0       -1.695722    2.461773    0.310347
      8          6           0       -0.052415    1.460086   -1.098453
      9          1           0       -0.414021    2.424032   -1.445020
     10          6           0        0.928519    0.780611   -1.824926
     11          1           0        1.365010    1.177449   -2.736357
     12          6           0        1.350624   -0.473741   -1.382222
     13          1           0        2.103569   -1.003953   -1.958658
     14          6           0        0.814162   -1.023188   -0.219643
     15          1           0        1.199249   -1.972224    0.128884
 ---------------------------------------------------------------------
                    Distance matrix (angstroms):
                    1          2          3          4          5
     1  O    0.000000
     2  C    1.307553   0.000000
     3  O    2.236865   1.232788   0.000000
     4  C    2.384031   1.507611   2.389124   0.000000
     5  C    3.626992   2.535121   2.932360   1.398778   0.000000
     6  O    4.127421   2.893304   2.722071   2.408790   1.369081
     7  H    5.072364   3.853885   3.665039   3.210715   1.928107
     8  C    4.771352   3.818988   4.317965   2.429890   1.398523
     9  H    5.725360   4.685145   4.992592   3.407369   2.151527
    10  C    5.001821   4.326718   5.099211   2.821658   2.428008
    11  H    6.053289   5.411479   6.171519   3.906204   3.427681
    12  C    4.174441   3.806364   4.804214   2.432980   2.784728
    13  H    4.837307   4.679848   5.743435   3.420336   3.871030
    14  C    2.794037   2.515759   3.612587   1.399117   2.399898
    15  H    2.493489   2.720493   3.905044   2.156934   3.386540
                    6          7          8          9         10
     6  O    0.000000
     7  H    0.970237   0.000000
     8  C    2.377303   2.385069   0.000000
     9  H    2.596814   2.173820   1.086305   0.000000
    10  C    3.662417   3.777875   1.397026   2.155823   0.000000
    11  H    4.558517   4.505549   2.184423   2.527146   1.085684
    12  C    4.153293   4.556562   2.405978   3.393377   1.395550
    13  H    5.239469   5.620877   3.385219   4.284059   2.140863
    14  C    3.663977   4.327281   2.773069   3.859184   2.417375
    15  H    4.553673   5.298501   3.854059   4.940332   3.386557
                   11         12         13         14         15
    11  H    0.000000
    12  C    2.135490   0.000000
    13  H    2.430803   1.086429   0.000000
    14  C    3.388227   1.393296   2.164974   0.000000
    15  H    4.261164   2.133496   2.472483   1.081865   0.000000
 Stoichiometry    C7H5O3(1-)
 Framework group  C1[X(C7H5O3)]
 Deg. of freedom    39
 Full point group                 C1      NOp   1
 RotChk:  IX=2 Diff= 6.28D-02
 Largest Abelian subgroup         C1      NOp   1
 Largest concise Abelian subgroup C1      NOp   1
                         Standard orientation:                         
 ---------------------------------------------------------------------
 Center     Atomic      Atomic             Coordinates (Angstroms)
 Number     Number       Type             X           Y           Z
 ---------------------------------------------------------------------
      1          8           0        2.299580   -1.401572   -0.389264
      2          6           0        1.771076   -0.280411    0.027121
      3          8           0        2.438368    0.689978    0.391583
      4          6           0        0.264917   -0.254389    0.087938
      5          6           0       -0.449533    0.940069   -0.051383
      6          8           0        0.198792    2.142553   -0.141334
      7          1           0       -0.448229    2.859296   -0.236218
      8          6           0       -1.847936    0.935386   -0.069062
      9          1           0       -2.384439    1.879027   -0.111088
     10          6           0       -2.555577   -0.266698    0.007872
     11          1           0       -3.640318   -0.309986    0.021044
     12          6           0       -1.845646   -1.464666    0.099682
     13          1           0       -2.400949   -2.395546    0.173385
     14          6           0       -0.452410   -1.455623    0.090600
     15          1           0        0.070671   -2.402462    0.108396
 ---------------------------------------------------------------------
 Rotational constants (GHZ):           2.3341754           1.2202409           0.8160914
 Leave Link  202 at Sun Jul 11 16:10:38 2021, MaxMem=   104857600 cpu:               0.1 elap:               0.0
 (Enter /prod/apps/gaussian/g16b1/l301.exe)
 Standard basis: 6-31G(d) (6D, 7F)
 Ernie: Thresh=  0.10000D-02 Tol=  0.10000D-05 Strict=F.
 There are   160 symmetry adapted cartesian basis functions of A   symmetry.
 There are   160 symmetry adapted basis functions of A   symmetry.
   160 basis functions,   300 primitive gaussians,   160 cartesian basis functions
    36 alpha electrons       36 beta electrons
       nuclear repulsion energy       485.7194667605 Hartrees.
 IExCor=  402 DFT=T Ex+Corr=B3LYP ExCW=0 ScaHFX=  0.200000
 ScaDFX=  0.800000  0.720000  1.000000  0.810000 ScalE2=  1.000000  1.000000
 IRadAn=      5 IRanWt=     -1 IRanGd=            0 ICorTp=0 IEmpDi=  4
 NAtoms=   15 NActive=   15 NUniq=   15 SFac= 1.00D+00 NAtFMM=   60 NAOKFM=F Big=F
 Integral buffers will be    131072 words long.
 Raffenetti 2 integral format.
 Two-electron integral symmetry is turned on.
 ------------------------------------------------------------------------------
 Polarizable Continuum Model (PCM)
 =================================
 Model                : PCM.
 Atomic radii         : MST.
 Polarization charges : Total charges.
 Charge compensation  : None.
 Solution method      : On-the-fly selection.
 Cavity type          : Scaled VdW (van der Waals Surface) (Alpha=1.250).
 Cavity algorithm     : GePol (No added spheres)
                        Default sphere list used, NSphG=   15.
                        Lebedev-Laikov grids with approx.  5.0 points / Ang**2.
                        Smoothing algorithm: York/Karplus (Gamma=1.0000).
                        Polarization charges: spherical gaussians, with
                                              point-specific exponents (IZeta= 3).
                        Self-potential: point-specific (ISelfS= 7).
                        Self-field    : sphere-specific E.n sum rule (ISelfD= 2).
 1st derivatives      : Analytical E(r).r(x)/FMM algorithm (CHGder, D1EAlg=3).
                        Cavity 1st derivative terms included.
 Solvent              : Water, Eps=  78.355300 Eps(inf)=   1.777849
 ------------------------------------------------------------------------------
 Spheres list:
 ISph  on   Nord     Re0    Alpha      Xe            Ye            Ze
    1   O      1    1.4000  1.150      2.299580     -1.401572     -0.389264
    2   C      2    1.5000  1.150      1.771076     -0.280411      0.027121
    3   O      3    1.4000  1.150      2.438368      0.689978      0.391583
    4   C      4    1.5000  1.250      0.264917     -0.254389      0.087938
    5   C      5    1.5000  1.250     -0.449533      0.940069     -0.051383
    6   O      6    1.4500  1.250      0.198792      2.142553     -0.141334
    7   H      7    0.9000  1.250     -0.448229      2.859296     -0.236218
    8   C      8    1.5000  1.250     -1.847936      0.935386     -0.069062
    9   H      9    1.2000  1.250     -2.384439      1.879027     -0.111088
   10   C     10    1.5000  1.250     -2.555577     -0.266698      0.007872
   11   H     11    1.2000  1.250     -3.640318     -0.309986      0.021044
   12   C     12    1.5000  1.250     -1.845646     -1.464666      0.099682
   13   H     13    1.2000  1.250     -2.400949     -2.395546      0.173385
   14   C     14    1.5000  1.250     -0.452410     -1.455623      0.090600
   15   H     15    1.2000  1.250      0.070671     -2.402462      0.108396
 ------------------------------------------------------------------------------
 GePol: Number of generator spheres                  =      15
 GePol: Total number of spheres                      =      15
 GePol: Number of exposed spheres                    =      15 (100.00%)
 GePol: Number of points                             =    1299
 GePol: Average weight of points                     =       0.13
 GePol: Minimum weight of points                     =   0.21D-09
 GePol: Maximum weight of points                     =    0.21416
 GePol: Number of points with low weight             =      71
 GePol: Fraction of low-weight points (<1% of avg)   =       5.47%
 GePol: Cavity surface area                          =    165.853 Ang**2
 GePol: Cavity volume                                =    144.942 Ang**3
 PCM non-electrostatic energy =         0.0016041072 Hartrees.
 Nuclear repulsion after PCM non-electrostatic terms =      485.7210708677 Hartrees.
 Leave Link  301 at Sun Jul 11 16:10:38 2021, MaxMem=   104857600 cpu:               0.4 elap:               0.1
 (Enter /prod/apps/gaussian/g16b1/l302.exe)
 NPDir=0 NMtPBC=     1 NCelOv=     1 NCel=       1 NClECP=     1 NCelD=      1
         NCelK=      1 NCelE2=     1 NClLst=     1 CellRange=     0.0.
 One-electron integrals computed using PRISM.
 One-electron integral symmetry used in STVInt
 NBasis=   160 RedAO= T EigKep=  4.47D-04  NBF=   160
 NBsUse=   160 1.00D-06 EigRej= -1.00D+00 NBFU=   160
 Precomputing XC quadrature grid using
 IXCGrd= 4 IRadAn=           5 IRanWt=          -1 IRanGd=           0 AccXCQ= 0.00D+00.
 Generated NRdTot=       0 NPtTot=           0 NUsed=           0 NTot=          32
 NSgBfM=   160   160   160   160   160 MxSgAt=    15 MxSgA2=    15.
 Leave Link  302 at Sun Jul 11 16:10:38 2021, MaxMem=   104857600 cpu:               0.8 elap:               0.2
 (Enter /prod/apps/gaussian/g16b1/l303.exe)
 DipDrv:  MaxL=1.
 Leave Link  303 at Sun Jul 11 16:10:38 2021, MaxMem=   104857600 cpu:               0.1 elap:               0.0
 (Enter /prod/apps/gaussian/g16b1/l401.exe)
 Initial guess from the checkpoint file:  "SET_328_BBB299_conf1.geo_195_180.chk"
 B after Tr=    -0.000000    0.000000    0.000000
         Rot=    0.999866    0.004147    0.001531    0.015791 Ang=   1.88 deg.
 Guess basis will be translated and rotated to current coordinates.
 JPrj=2 DoOrth=T DoCkMO=T.
 Generating alternative initial guess.
 ExpMin= 1.61D-01 ExpMax= 5.48D+03 ExpMxC= 8.25D+02 IAcc=3 IRadAn=         5 AccDes= 0.00D+00
 Harris functional with IExCor=  402 and IRadAn=       5 diagonalized for initial guess.
 HarFok:  IExCor=  402 AccDes= 0.00D+00 IRadAn=         5 IDoV= 1 UseB2=F ITyADJ=14
 ICtDFT=  3500011 ScaDFX=  1.000000  1.000000  1.000000  1.000000
 FoFCou: FMM=F IPFlag=           0 FMFlag=      100000 FMFlg1=           0
         NFxFlg=           0 DoJE=T BraDBF=F KetDBF=T FulRan=T
         wScrn=  0.000000 ICntrl=       500 IOpCl=  0 I1Cent=   200000004 NGrid=           0
         NMat0=    1 NMatS0=      1 NMatT0=    0 NMatD0=    1 NMtDS0=    0 NMtDT0=    0
 Petite list used in FoFCou.
 Harris En= -495.679568720623    
 Leave Link  401 at Sun Jul 11 16:10:39 2021, MaxMem=   104857600 cpu:               2.9 elap:               0.7
 (Enter /prod/apps/gaussian/g16b1/l502.exe)
 Keep R1 ints in memory in canonical form, NReq=86910067.
 FoFCou: FMM=F IPFlag=           0 FMFlag=           0 FMFlg1=           0
         NFxFlg=           0 DoJE=F BraDBF=F KetDBF=F FulRan=T
         wScrn=  0.000000 ICntrl=       600 IOpCl=  0 I1Cent=           0 NGrid=           0
         NMat0=    1 NMatS0=  12880 NMatT0=    0 NMatD0=    1 NMtDS0=    0 NMtDT0=    0
 Symmetry not used in FoFCou.
 Two-electron integral symmetry not used.
 Closed shell SCF:
 Using DIIS extrapolation, IDIIS=  1040.
 NGot=   104857600 LenX=    21850029 LenY=    21823988
 Requested convergence on RMS density matrix=1.00D-08 within 128 cycles.
 Requested convergence on MAX density matrix=1.00D-06.
 Requested convergence on             energy=1.00D-06.
 No special actions if energy rises.

 Cycle   1  Pass 1  IDiag  1:
 Inv3:  Mode=1 IEnd=     5062203.
 Iteration    1 A*A^-1 deviation from unit magnitude is 2.89D-15 for     73.
 Iteration    1 A*A^-1 deviation from orthogonality  is 3.22D-15 for   1018     80.
 Iteration    1 A^-1*A deviation from unit magnitude is 2.89D-15 for    210.
 Iteration    1 A^-1*A deviation from orthogonality  is 2.05D-15 for   1050   1022.
 E= -495.521823247273    
 DIIS: error= 1.16D-02 at cycle   1 NSaved=   1.
 NSaved= 1 IEnMin= 1 EnMin= -495.521823247273     IErMin= 1 ErrMin= 1.16D-02
 ErrMax= 1.16D-02  0.00D+00 EMaxC= 1.00D-01 BMatC= 2.87D-02 BMatP= 2.87D-02
 IDIUse=3 WtCom= 8.84D-01 WtEn= 1.16D-01
 Coeff-Com:  0.100D+01
 Coeff-En:   0.100D+01
 Coeff:      0.100D+01
 Recover alternate guess density for next cycle.
 RMSDP=5.16D-03 MaxDP=7.66D-02              OVMax= 0.00D+00

 Cycle   2  Pass 1  IDiag  1:
 E= -495.282747819668     Delta-E=        0.239075427606 Rises=F Damp=F
 Switch densities from cycles 1 and 2 for lowest energy.
 DIIS: error= 3.73D-02 at cycle   2 NSaved=   2.
 NSaved= 2 IEnMin= 1 EnMin= -495.521823247273     IErMin= 1 ErrMin= 1.16D-02
 ErrMax= 3.73D-02  0.00D+00 EMaxC= 1.00D+00 BMatC= 3.45D-01 BMatP= 2.87D-02
 IDIUse=1 WtCom= 1.00D+00 WtEn= 0.00D+00
 Coeff-Com:  0.949D+00 0.513D-01
 Coeff:      0.949D+00 0.513D-01
 Gap=     0.204 Goal=   None    Shift=    0.000
 RMSDP=3.37D-03 MaxDP=6.48D-02 DE= 2.39D-01 OVMax= 8.25D-02

 Cycle   3  Pass 1  IDiag  1:
 E= -495.569778091325     Delta-E=       -0.287030271657 Rises=F Damp=F
 DIIS: error= 4.39D-03 at cycle   3 NSaved=   3.
 NSaved= 3 IEnMin= 3 EnMin= -495.569778091325     IErMin= 3 ErrMin= 4.39D-03
 ErrMax= 4.39D-03  0.00D+00 EMaxC= 1.00D+00 BMatC= 3.87D-03 BMatP= 2.87D-02
 IDIUse=1 WtCom= 1.00D+00 WtEn= 0.00D+00
 Coeff-Com:  0.357D-02 0.790D-01 0.917D+00
 Coeff:      0.357D-02 0.790D-01 0.917D+00
 Gap=     0.196 Goal=   None    Shift=    0.000
 RMSDP=5.94D-04 MaxDP=2.32D-02 DE=-2.87D-01 OVMax= 2.16D-02

 Cycle   4  Pass 1  IDiag  1:
 E= -495.570847925401     Delta-E=       -0.001069834076 Rises=F Damp=F
 DIIS: error= 2.75D-03 at cycle   4 NSaved=   4.
 NSaved= 4 IEnMin= 4 EnMin= -495.570847925401     IErMin= 4 ErrMin= 2.75D-03
 ErrMax= 2.75D-03  0.00D+00 EMaxC= 1.00D+00 BMatC= 2.66D-03 BMatP= 3.87D-03
 IDIUse=1 WtCom= 1.00D+00 WtEn= 0.00D+00
 Coeff-Com: -0.381D-01 0.460D-01 0.573D+00 0.419D+00
 Coeff:     -0.381D-01 0.460D-01 0.573D+00 0.419D+00
 Gap=     0.194 Goal=   None    Shift=    0.000
 RMSDP=3.38D-04 MaxDP=1.22D-02 DE=-1.07D-03 OVMax= 2.04D-02

 Cycle   5  Pass 1  IDiag  1:
 E= -495.572833360632     Delta-E=       -0.001985435231 Rises=F Damp=F
 DIIS: error= 9.06D-04 at cycle   5 NSaved=   5.
 NSaved= 5 IEnMin= 5 EnMin= -495.572833360632     IErMin= 5 ErrMin= 9.06D-04
 ErrMax= 9.06D-04  0.00D+00 EMaxC= 1.00D+00 BMatC= 1.34D-04 BMatP= 2.66D-03
 IDIUse=1 WtCom= 1.00D+00 WtEn= 0.00D+00
 Coeff-Com: -0.147D-01 0.121D-01 0.183D+00 0.219D+00 0.600D+00
 Coeff:     -0.147D-01 0.121D-01 0.183D+00 0.219D+00 0.600D+00
 Gap=     0.190 Goal=   None    Shift=    0.000
 RMSDP=9.16D-05 MaxDP=3.21D-03 DE=-1.99D-03 OVMax= 4.47D-03

 Cycle   6  Pass 1  IDiag  1:
 E= -495.572918185783     Delta-E=       -0.000084825151 Rises=F Damp=F
 DIIS: error= 2.44D-04 at cycle   6 NSaved=   6.
 NSaved= 6 IEnMin= 6 EnMin= -495.572918185783     IErMin= 6 ErrMin= 2.44D-04
 ErrMax= 2.44D-04  0.00D+00 EMaxC= 1.00D+00 BMatC= 2.28D-05 BMatP= 1.34D-04
 IDIUse=1 WtCom= 1.00D+00 WtEn= 0.00D+00
 Coeff-Com: -0.397D-02 0.191D-02 0.371D-01 0.792D-01 0.357D+00 0.528D+00
 Coeff:     -0.397D-02 0.191D-02 0.371D-01 0.792D-01 0.357D+00 0.528D+00
 Gap=     0.191 Goal=   None    Shift=    0.000
 RMSDP=3.14D-05 MaxDP=9.01D-04 DE=-8.48D-05 OVMax= 1.40D-03

 Cycle   7  Pass 1  IDiag  1:
 E= -495.572937538034     Delta-E=       -0.000019352251 Rises=F Damp=F
 DIIS: error= 3.51D-05 at cycle   7 NSaved=   7.
 NSaved= 7 IEnMin= 7 EnMin= -495.572937538034     IErMin= 7 ErrMin= 3.51D-05
 ErrMax= 3.51D-05  0.00D+00 EMaxC= 1.00D+00 BMatC= 4.32D-07 BMatP= 2.28D-05
 IDIUse=1 WtCom= 1.00D+00 WtEn= 0.00D+00
 Coeff-Com: -0.449D-03-0.209D-03 0.215D-03 0.139D-01 0.904D-01 0.185D+00
 Coeff-Com:  0.711D+00
 Coeff:     -0.449D-03-0.209D-03 0.215D-03 0.139D-01 0.904D-01 0.185D+00
 Coeff:      0.711D+00
 Gap=     0.191 Goal=   None    Shift=    0.000
 RMSDP=6.37D-06 MaxDP=2.11D-04 DE=-1.94D-05 OVMax= 3.76D-04

 Cycle   8  Pass 1  IDiag  1:
 E= -495.572937905246     Delta-E=       -0.000000367212 Rises=F Damp=F
 DIIS: error= 1.93D-05 at cycle   8 NSaved=   8.
 NSaved= 8 IEnMin= 8 EnMin= -495.572937905246     IErMin= 8 ErrMin= 1.93D-05
 ErrMax= 1.93D-05  0.00D+00 EMaxC= 1.00D+00 BMatC= 1.18D-07 BMatP= 4.32D-07
 IDIUse=1 WtCom= 1.00D+00 WtEn= 0.00D+00
 Coeff-Com:  0.101D-03-0.304D-03-0.324D-02 0.488D-03 0.180D-01 0.544D-01
 Coeff-Com:  0.390D+00 0.540D+00
 Coeff:      0.101D-03-0.304D-03-0.324D-02 0.488D-03 0.180D-01 0.544D-01
 Coeff:      0.390D+00 0.540D+00
 Gap=     0.191 Goal=   None    Shift=    0.000
 RMSDP=2.82D-06 MaxDP=8.85D-05 DE=-3.67D-07 OVMax= 1.68D-04

 Cycle   9  Pass 1  IDiag  1:
 E= -495.572938034047     Delta-E=       -0.000000128802 Rises=F Damp=F
 DIIS: error= 4.20D-06 at cycle   9 NSaved=   9.
 NSaved= 9 IEnMin= 9 EnMin= -495.572938034047     IErMin= 9 ErrMin= 4.20D-06
 ErrMax= 4.20D-06  0.00D+00 EMaxC= 1.00D+00 BMatC= 5.54D-09 BMatP= 1.18D-07
 IDIUse=1 WtCom= 1.00D+00 WtEn= 0.00D+00
 Coeff-Com:  0.823D-04-0.508D-04-0.108D-02-0.186D-02-0.665D-02-0.841D-02
 Coeff-Com:  0.258D-01 0.180D+00 0.812D+00
 Coeff:      0.823D-04-0.508D-04-0.108D-02-0.186D-02-0.665D-02-0.841D-02
 Coeff:      0.258D-01 0.180D+00 0.812D+00
 Gap=     0.191 Goal=   None    Shift=    0.000
 RMSDP=8.68D-07 MaxDP=1.98D-05 DE=-1.29D-07 OVMax= 6.40D-05

 Cycle  10  Pass 1  IDiag  1:
 E= -495.572938041004     Delta-E=       -0.000000006956 Rises=F Damp=F
 DIIS: error= 2.04D-06 at cycle  10 NSaved=  10.
 NSaved=10 IEnMin=10 EnMin= -495.572938041004     IErMin=10 ErrMin= 2.04D-06
 ErrMax= 2.04D-06  0.00D+00 EMaxC= 1.00D+00 BMatC= 1.34D-09 BMatP= 5.54D-09
 IDIUse=1 WtCom= 1.00D+00 WtEn= 0.00D+00
 Coeff-Com:  0.378D-04-0.466D-05-0.327D-03-0.109D-02-0.523D-02-0.915D-02
 Coeff-Com: -0.181D-01 0.524D-01 0.437D+00 0.544D+00
 Coeff:      0.378D-04-0.466D-05-0.327D-03-0.109D-02-0.523D-02-0.915D-02
 Coeff:     -0.181D-01 0.524D-01 0.437D+00 0.544D+00
 Gap=     0.191 Goal=   None    Shift=    0.000
 RMSDP=2.73D-07 MaxDP=7.18D-06 DE=-6.96D-09 OVMax= 1.31D-05

 Cycle  11  Pass 1  IDiag  1:
 E= -495.572938042394     Delta-E=       -0.000000001390 Rises=F Damp=F
 DIIS: error= 2.88D-07 at cycle  11 NSaved=  11.
 NSaved=11 IEnMin=11 EnMin= -495.572938042394     IErMin=11 ErrMin= 2.88D-07
 ErrMax= 2.88D-07  0.00D+00 EMaxC= 1.00D+00 BMatC= 3.38D-11 BMatP= 1.34D-09
 IDIUse=1 WtCom= 1.00D+00 WtEn= 0.00D+00
 Coeff-Com:  0.707D-05 0.215D-05-0.254D-04-0.236D-03-0.133D-02-0.255D-02
 Coeff-Com: -0.769D-02 0.589D-02 0.914D-01 0.186D+00 0.728D+00
 Coeff:      0.707D-05 0.215D-05-0.254D-04-0.236D-03-0.133D-02-0.255D-02
 Coeff:     -0.769D-02 0.589D-02 0.914D-01 0.186D+00 0.728D+00
 Gap=     0.191 Goal=   None    Shift=    0.000
 RMSDP=4.99D-08 MaxDP=1.18D-06 DE=-1.39D-09 OVMax= 2.73D-06

 Cycle  12  Pass 1  IDiag  1:
 E= -495.572938042426     Delta-E=       -0.000000000032 Rises=F Damp=F
 DIIS: error= 8.86D-08 at cycle  12 NSaved=  12.
 NSaved=12 IEnMin=12 EnMin= -495.572938042426     IErMin=12 ErrMin= 8.86D-08
 ErrMax= 8.86D-08  0.00D+00 EMaxC= 1.00D+00 BMatC= 4.41D-12 BMatP= 3.38D-11
 IDIUse=1 WtCom= 1.00D+00 WtEn= 0.00D+00
 Coeff-Com:  0.127D-06 0.163D-05 0.150D-04-0.212D-04-0.199D-03-0.439D-03
 Coeff-Com: -0.191D-02-0.116D-02 0.677D-02 0.391D-01 0.317D+00 0.641D+00
 Coeff:      0.127D-06 0.163D-05 0.150D-04-0.212D-04-0.199D-03-0.439D-03
 Coeff:     -0.191D-02-0.116D-02 0.677D-02 0.391D-01 0.317D+00 0.641D+00
 Gap=     0.191 Goal=   None    Shift=    0.000
 RMSDP=1.42D-08 MaxDP=4.24D-07 DE=-3.19D-11 OVMax= 5.64D-07

 Cycle  13  Pass 1  IDiag  1:
 E= -495.572938042434     Delta-E=       -0.000000000008 Rises=F Damp=F
 DIIS: error= 2.31D-08 at cycle  13 NSaved=  13.
 NSaved=13 IEnMin=13 EnMin= -495.572938042434     IErMin=13 ErrMin= 2.31D-08
 ErrMax= 2.31D-08  0.00D+00 EMaxC= 1.00D+00 BMatC= 2.56D-13 BMatP= 4.41D-12
 IDIUse=1 WtCom= 1.00D+00 WtEn= 0.00D+00
 Coeff-Com: -0.465D-06 0.270D-06 0.669D-05 0.122D-04 0.400D-04 0.603D-04
 Coeff-Com:  0.106D-04-0.923D-03-0.590D-02-0.269D-02 0.520D-01 0.240D+00
 Coeff-Com:  0.717D+00
 Coeff:     -0.465D-06 0.270D-06 0.669D-05 0.122D-04 0.400D-04 0.603D-04
 Coeff:      0.106D-04-0.923D-03-0.590D-02-0.269D-02 0.520D-01 0.240D+00
 Coeff:      0.717D+00
 Gap=     0.191 Goal=   None    Shift=    0.000
 RMSDP=3.99D-09 MaxDP=1.08D-07 DE=-7.62D-12 OVMax= 1.58D-07

 Error on total polarization charges =  0.01917
 SCF Done:  E(RB3LYP) =  -495.572938042     A.U. after   13 cycles
            NFock= 13  Conv=0.40D-08     -V/T= 2.0088
 KE= 4.912283876999D+02 PE=-2.143956526666D+03 EE= 6.714341300562D+02
 Leave Link  502 at Sun Jul 11 16:10:55 2021, MaxMem=   104857600 cpu:              60.7 elap:              16.2
 (Enter /prod/apps/gaussian/g16b1/l701.exe)
 ... and contract with generalized density number  0.
 Compute integral first derivatives.
 D1PCM: PCM CHGder 1st derivatives, ID1Alg=3 FixD1E=F DoIter=F DoCFld=F I1PDM=0.
 GePol: Maximum number of non-zero 1st derivatives   =     231
 Leave Link  701 at Sun Jul 11 16:10:56 2021, MaxMem=   104857600 cpu:               4.3 elap:               1.1
 (Enter /prod/apps/gaussian/g16b1/l702.exe)
 L702 exits ... SP integral derivatives will be done elsewhere.
 Leave Link  702 at Sun Jul 11 16:10:56 2021, MaxMem=   104857600 cpu:               0.1 elap:               0.0
 (Enter /prod/apps/gaussian/g16b1/l703.exe)
 Integral derivatives from FoFJK, PRISM(SPDF).
 Compute integral first derivatives, UseDBF=F ICtDFT=           0.
 Calling FoFJK, ICntrl=      2127 FMM=F ISym2X=0 I1Cent= 0 IOpClX= 0 NMat=1 NMatS=1 NMatT=0.
 FoFJK:  IHMeth= 1 ICntrl=    2127 DoSepK=F KAlg= 0 I1Cent=           0 FoldK=F
 IRaf=         0 NMat=       1 IRICut=       1 DoRegI=T DoRafI=F ISym2E= 0 IDoP0=0 IntGTp=1.
 FoFCou: FMM=F IPFlag=           0 FMFlag=      100000 FMFlg1=         800
         NFxFlg=           0 DoJE=F BraDBF=F KetDBF=F FulRan=T
         wScrn=  0.000000 ICntrl=      2127 IOpCl=  0 I1Cent=           0 NGrid=           0
         NMat0=    1 NMatS0=      1 NMatT0=    0 NMatD0=    1 NMtDS0=    0 NMtDT0=    0
 Symmetry not used in FoFCou.
[...]
 Coeff-Com:  0.174D-02 0.398D-01-0.175D-01-0.269D+00 0.466D-01 0.120D+01
 Coeff:     -0.437D-05 0.219D-04 0.167D-03 0.177D-03-0.950D-03-0.337D-02
 Coeff:      0.174D-02 0.398D-01-0.175D-01-0.269D+00 0.466D-01 0.120D+01
 Gap=     0.291 Goal=   None    Shift=    0.000
 RMSDP=5.22D-07 MaxDP=1.35D-05 DE=-1.91D-09 OVMax= 1.58D-05

 Cycle  13  Pass 1  IDiag  1:
 RMSU=  1.54D-07    CP:  5.57D-01  8.90D-01  9.80D-01  1.05D+00  1.06D+00
                    CP:  1.22D+00  1.28D+00  1.47D+00  1.69D+00  2.04D+00
                    CP:  2.20D+00  1.58D+00
 E= -492.673944116449     Delta-E=       -0.000000000387 Rises=F Damp=F
 DIIS: error= 1.54D-07 at cycle  13 NSaved=  13.
 NSaved=13 IEnMin=13 EnMin= -492.673944116449     IErMin=13 ErrMin= 1.54D-07
 ErrMax= 1.54D-07  0.00D+00 EMaxC= 1.00D-01 BMatC= 6.44D-12 BMatP= 6.67D-11
 IDIUse=1 WtCom= 1.00D+00 WtEn= 0.00D+00
 Coeff-Com: -0.239D-05 0.748D-05 0.596D-04 0.116D-03-0.635D-04-0.200D-02
 Coeff-Com: -0.259D-02 0.148D-01 0.250D-01-0.611D-01-0.110D+00 0.981D-01
 Coeff-Com:  0.104D+01
 Coeff:     -0.239D-05 0.748D-05 0.596D-04 0.116D-03-0.635D-04-0.200D-02
 Coeff:     -0.259D-02 0.148D-01 0.250D-01-0.611D-01-0.110D+00 0.981D-01
 Coeff:      0.104D+01
 Gap=     0.291 Goal=   None    Shift=    0.000
 RMSDP=1.39D-07 MaxDP=3.76D-06 DE=-3.87D-10 OVMax= 4.16D-06

 Cycle  14  Pass 1  IDiag  1:
 RMSU=  4.07D-08    CP:  5.57D-01  8.90D-01  9.80D-01  1.05D+00  1.06D+00
                    CP:  1.22D+00  1.28D+00  1.47D+00  1.70D+00  2.07D+00
                    CP:  2.31D+00  1.76D+00  1.32D+00
 E= -492.673944116475     Delta-E=       -0.000000000026 Rises=F Damp=F
 DIIS: error= 4.57D-08 at cycle  14 NSaved=  14.
 NSaved=14 IEnMin=14 EnMin= -492.673944116475     IErMin=14 ErrMin= 4.57D-08
 ErrMax= 4.57D-08  0.00D+00 EMaxC= 1.00D-01 BMatC= 1.20D-12 BMatP= 6.44D-12
 IDIUse=1 WtCom= 1.00D+00 WtEn= 0.00D+00
 Coeff-Com:  0.212D-06-0.166D-05-0.130D-04-0.248D-05 0.114D-03 0.128D-03
 Coeff-Com: -0.622D-03-0.320D-02 0.634D-02 0.265D-01-0.159D-01-0.164D+00
 Coeff-Com:  0.199D+00 0.951D+00
 Coeff:      0.212D-06-0.166D-05-0.130D-04-0.248D-05 0.114D-03 0.128D-03
 Coeff:     -0.622D-03-0.320D-02 0.634D-02 0.265D-01-0.159D-01-0.164D+00
 Coeff:      0.199D+00 0.951D+00
 Gap=     0.291 Goal=   None    Shift=    0.000
 RMSDP=3.85D-08 MaxDP=1.11D-06 DE=-2.57D-11 OVMax= 9.09D-07

 Cycle  15  Pass 1  IDiag  1:
 RMSU=  2.07D-08    CP:  5.57D-01  8.90D-01  9.80D-01  1.05D+00  1.06D+00
                    CP:  1.22D+00  1.28D+00  1.48D+00  1.70D+00  2.07D+00
                    CP:  2.32D+00  1.78D+00  1.45D+00  1.28D+00
 E= -492.673944116474     Delta-E=        0.000000000000 Rises=F Damp=F
 DIIS: error= 1.55D-08 at cycle  15 NSaved=  15.
 NSaved=15 IEnMin=14 EnMin= -492.673944116475     IErMin=15 ErrMin= 1.55D-08
 ErrMax= 1.55D-08  0.00D+00 EMaxC= 1.00D-01 BMatC= 1.87D-13 BMatP= 1.20D-12
 IDIUse=1 WtCom= 1.00D+00 WtEn= 0.00D+00
 Coeff-Com:  0.352D-06-0.110D-05-0.877D-05-0.166D-04-0.309D-05 0.321D-03
 Coeff-Com:  0.519D-03-0.214D-02-0.477D-02 0.622D-02 0.268D-01-0.176D-01
 Coeff-Com: -0.185D+00-0.654D-01 0.124D+01
 Coeff:      0.352D-06-0.110D-05-0.877D-05-0.166D-04-0.309D-05 0.321D-03
 Coeff:      0.519D-03-0.214D-02-0.477D-02 0.622D-02 0.268D-01-0.176D-01
 Coeff:     -0.185D+00-0.654D-01 0.124D+01
 Gap=     0.291 Goal=   None    Shift=    0.000
 RMSDP=2.01D-08 MaxDP=6.67D-07 DE= 3.41D-13 OVMax= 4.24D-07

 Cycle  16  Pass 1  IDiag  1:
 RMSU=  7.39D-09    CP:  5.57D-01  8.90D-01  9.80D-01  1.05D+00  1.06D+00
                    CP:  1.22D+00  1.28D+00  1.48D+00  1.70D+00  2.08D+00
                    CP:  2.33D+00  1.77D+00  1.49D+00  1.53D+00  1.44D+00
 E= -492.673944116481     Delta-E=       -0.000000000007 Rises=F Damp=F
 DIIS: error= 7.61D-09 at cycle  16 NSaved=  16.
 NSaved=16 IEnMin=16 EnMin= -492.673944116481     IErMin=16 ErrMin= 7.61D-09
 ErrMax= 7.61D-09  0.00D+00 EMaxC= 1.00D-01 BMatC= 2.57D-14 BMatP= 1.87D-13
 IDIUse=1 WtCom= 1.00D+00 WtEn= 0.00D+00
 Coeff-Com: -0.509D-07 0.271D-06 0.228D-05 0.188D-05-0.154D-04-0.441D-04
 Coeff-Com:  0.590D-04 0.498D-03-0.429D-03-0.440D-02 0.286D-02 0.182D-01
 Coeff-Com: -0.153D-02-0.113D+00-0.109D+00 0.121D+01
 Coeff:     -0.509D-07 0.271D-06 0.228D-05 0.188D-05-0.154D-04-0.441D-04
 Coeff:      0.590D-04 0.498D-03-0.429D-03-0.440D-02 0.286D-02 0.182D-01
 Coeff:     -0.153D-02-0.113D+00-0.109D+00 0.121D+01
 Gap=     0.291 Goal=   None    Shift=    0.000
 RMSDP=6.91D-09 MaxDP=2.54D-07 DE=-6.82D-12 OVMax= 1.68D-07

 SCF Done:  E(RHF) =  -492.673944116     A.U. after   16 cycles
            NFock= 16  Conv=0.69D-08     -V/T= 2.0013
 KE= 4.920400621927D+02 PE=-2.138556894759D+03 EE= 6.695183666328D+02
 Leave Link  502 at Sun Jul 11 16:16:01 2021, MaxMem=   262144000 cpu:             228.9 elap:              57.3
 (Enter /prod/apps/gaussian/g16b1/l801.exe)
 ExpMin= 2.97D-02 ExpMax= 1.17D+04 ExpMxC= 4.01D+02 IAcc=3 IRadAn=         5 AccDes= 0.00D+00
 HarFok:  IExCor=  205 AccDes= 0.00D+00 IRadAn=         5 IDoV=-2 UseB2=F ITyADJ=14
 ICtDFT= 12500011 ScaDFX=  1.000000  1.000000  1.000000  1.000000
 Largest valence mixing into a core orbital is  1.18D-04
 Largest core mixing into a valence orbital is  4.25D-05
 Range of M.O.s used for correlation:    11   275
 NBasis=   275 NAE=    36 NBE=    36 NFC=    10 NFV=     0
 NROrb=    265 NOA=    26 NOB=    26 NVA=   239 NVB=   239

 **** Warning!!: The largest alpha MO coefficient is  0.10901071D+03

 Leave Link  801 at Sun Jul 11 16:16:01 2021, MaxMem=   262144000 cpu:               0.8 elap:               0.3
 (Enter /prod/apps/gaussian/g16b1/l906.exe)
 FulOut=F Deriv=F AODrv=F NAtomX=    15
   MMem=          33  MDisk=          26 MDiskD=          26
  W3Min=     1833130 MinDsk=     2275006 NBas6D=         295
 NBas2D=       44080    NTT=       43660    LW2=     2000000
    MDV=   261550039 MDiskM=       12219 NBas2p=       43182
 Fully direct method using O(OVN) memory.
 IMap=   1   2   3   4   5   6   7   8   9  10  11  12  13  14  15  16  17  18  19  20
 IMap=  21  22  23  24  25  26
 JobTyp=1 Pass  1:  I=   1 to  26 NPSUse=  4 ParTrn=T ParDer=T DoDerP=F.
 Spin components of T(2) and E(2):
     alpha-alpha T2 =       0.7620902209D-01 E2=     -0.2131786540D+00
     alpha-beta  T2 =       0.3766268525D+00 E2=     -0.1115853330D+01
     beta-beta   T2 =       0.7620902209D-01 E2=     -0.2131786540D+00
 The integrals were generated   1 times.
 ANorm=    0.1236545550D+01
 E2 =    -0.1542210639D+01 EUMP2 =    -0.49421615475506D+03
 Leave Link  906 at Sun Jul 11 16:16:22 2021, MaxMem=   262144000 cpu:              83.6 elap:              21.0
 (Enter /prod/apps/gaussian/g16b1/l601.exe)
 Copying SCF densities to generalized density rwf, IOpCl= 0 IROHF=0.

 **********************************************************************

            Population analysis using the SCF Density.

 **********************************************************************

 Orbital symmetries:
       Occupied  (A) (A) (A) (A) (A) (A) (A) (A) (A) (A) (A) (A)
                 (A) (A) (A) (A) (A) (A) (A) (A) (A) (A) (A) (A)
                 (A) (A) (A) (A) (A) (A) (A) (A) (A) (A) (A) (A)
       Virtual   (A) (A) (A) (A) (A) (A) (A) (A) (A) (A) (A) (A)
                 (A) (A) (A) (A) (A) (A) (A) (A) (A) (A) (A) (A)
                 (A) (A) (A) (A) (A) (A) (A) (A) (A) (A) (A) (A)
                 (A) (A) (A) (A) (A) (A) (A) (A) (A) (A) (A) (A)
                 (A) (A) (A) (A) (A) (A) (A) (A) (A) (A) (A) (A)
                 (A) (A) (A) (A) (A) (A) (A) (A) (A) (A) (A) (A)
                 (A) (A) (A) (A) (A) (A) (A) (A) (A) (A) (A) (A)
                 (A) (A) (A) (A) (A) (A) (A) (A) (A) (A) (A) (A)
                 (A) (A) (A) (A) (A) (A) (A) (A) (A) (A) (A) (A)
                 (A) (A) (A) (A) (A) (A) (A) (A) (A) (A) (A) (A)
                 (A) (A) (A) (A) (A) (A) (A) (A) (A) (A) (A) (A)
                 (A) (A) (A) (A) (A) (A) (A) (A) (A) (A) (A) (A)
                 (A) (A) (A) (A) (A) (A) (A) (A) (A) (A) (A) (A)
                 (A) (A) (A) (A) (A) (A) (A) (A) (A) (A) (A) (A)
                 (A) (A) (A) (A) (A) (A) (A) (A) (A) (A) (A) (A)
                 (A) (A) (A) (A) (A) (A) (A) (A) (A) (A) (A) (A)
                 (A) (A) (A) (A) (A) (A) (A) (A) (A) (A) (A) (A)
                 (A) (A) (A) (A) (A) (A) (A) (A) (A) (A) (A) (A)
                 (A) (A) (A) (A) (A) (A) (A) (A) (A) (A) (A) (A)
                 (A) (A) (A) (A) (A) (A) (A) (A) (A) (A) (A)
 The electronic state is 1-A.
 Alpha  occ. eigenvalues --  -20.47123 -20.30863 -20.30651 -11.18549 -11.15946
 Alpha  occ. eigenvalues --  -11.13215 -11.12104 -11.11341 -11.11136 -11.09918
 Alpha  occ. eigenvalues --   -1.27880  -1.17680  -1.07169  -1.02174  -0.89578
 Alpha  occ. eigenvalues --   -0.88057  -0.72131  -0.70742  -0.60691  -0.59134
 Alpha  occ. eigenvalues --   -0.53438  -0.51345  -0.47314  -0.46292  -0.45804
 Alpha  occ. eigenvalues --   -0.43324  -0.40415  -0.39333  -0.37343  -0.36625
 Alpha  occ. eigenvalues --   -0.34568  -0.22509  -0.21587  -0.20281  -0.19387
 Alpha  occ. eigenvalues --   -0.18360
 Alpha virt. eigenvalues --    0.10780   0.11521   0.12612   0.14744   0.15929
 Alpha virt. eigenvalues --    0.20683   0.21358   0.21564   0.22000   0.22482
 Alpha virt. eigenvalues --    0.22511   0.22833   0.23294   0.24161   0.24770
 Alpha virt. eigenvalues --    0.25248   0.25526   0.26080   0.27211   0.28371
 Alpha virt. eigenvalues --    0.28529   0.29238   0.29288   0.29831   0.30949
 Alpha virt. eigenvalues --    0.32401   0.33331   0.34113   0.35407   0.36463
 Alpha virt. eigenvalues --    0.38782   0.39837   0.40578   0.41583   0.41714
 Alpha virt. eigenvalues --    0.42099   0.43591   0.44143   0.44468   0.44996
 Alpha virt. eigenvalues --    0.46601   0.46911   0.47096   0.48236   0.48543
 Alpha virt. eigenvalues --    0.49124   0.49622   0.50868   0.51088   0.51833
 Alpha virt. eigenvalues --    0.52530   0.53388   0.54457   0.55334   0.55529
 Alpha virt. eigenvalues --    0.58225   0.59407   0.59693   0.60412   0.60835
 Alpha virt. eigenvalues --    0.61556   0.64468   0.65659   0.66925   0.68013
 Alpha virt. eigenvalues --    0.69268   0.69973   0.70857   0.71261   0.71960
 Alpha virt. eigenvalues --    0.72706   0.73727   0.75187   0.75488   0.77435
 Alpha virt. eigenvalues --    0.77913   0.79365   0.80133   0.81003   0.81628
 Alpha virt. eigenvalues --    0.82686   0.83395   0.85844   0.86522   0.86927
 Alpha virt. eigenvalues --    0.87011   0.88234   0.89801   0.92020   0.92484
 Alpha virt. eigenvalues --    0.93998   0.95948   0.96498   0.96904   0.97968
 Alpha virt. eigenvalues --    0.99083   0.99631   1.01465   1.01879   1.03175
 Alpha virt. eigenvalues --    1.04469   1.06030   1.07678   1.08042   1.08165
 Alpha virt. eigenvalues --    1.09822   1.10583   1.11311   1.12338   1.14116
 Alpha virt. eigenvalues --    1.14297   1.17112   1.18091   1.18945   1.22151
 Alpha virt. eigenvalues --    1.23102   1.23551   1.25338   1.28211   1.29520
 Alpha virt. eigenvalues --    1.31205   1.32124   1.35778   1.36199   1.39505
 Alpha virt. eigenvalues --    1.40954   1.41666   1.44877   1.50570   1.51227
 Alpha virt. eigenvalues --    1.53319   1.54489   1.56504   1.57158   1.58255
 Alpha virt. eigenvalues --    1.60506   1.62046   1.63094   1.63302   1.65010
 Alpha virt. eigenvalues --    1.66814   1.68070   1.70196   1.70899   1.71396
 Alpha virt. eigenvalues --    1.73557   1.74297   1.75940   1.79256   1.80118
 Alpha virt. eigenvalues --    1.81287   1.83210   1.84125   1.85076   1.86187
 Alpha virt. eigenvalues --    1.86882   1.89537   1.90836   1.91731   1.94312
 Alpha virt. eigenvalues --    1.95812   1.99139   2.00349   2.01905   2.02531
 Alpha virt. eigenvalues --    2.04820   2.06436   2.07162   2.09404   2.10896
 Alpha virt. eigenvalues --    2.11469   2.12344   2.13538   2.16002   2.17424
 Alpha virt. eigenvalues --    2.19750   2.22204   2.24093   2.27137   2.28406
 Alpha virt. eigenvalues --    2.30273   2.31842   2.33752   2.35374   2.35810
 Alpha virt. eigenvalues --    2.36925   2.38902   2.40137   2.43736   2.44549
 Alpha virt. eigenvalues --    2.47405   2.48933   2.49320   2.51086   2.52693
 Alpha virt. eigenvalues --    2.54975   2.56253   2.59695   2.62336   2.70679
 Alpha virt. eigenvalues --    2.71391   2.75149   2.77651   2.85127   2.89689
 Alpha virt. eigenvalues --    2.91627   2.93328   2.96754   3.05103   3.08812
 Alpha virt. eigenvalues --    3.12355   3.14323   3.21537   3.27040   3.32846
 Alpha virt. eigenvalues --    3.38116   3.41453   3.45088   3.47153   3.54624
 Alpha virt. eigenvalues --    3.73095   3.77915   3.89731   3.90478   3.91679
 Alpha virt. eigenvalues --    3.98170   3.99755   4.01841   4.02229   4.06796
 Alpha virt. eigenvalues --    4.09398   4.13818   4.14331   4.15604   4.20027
 Alpha virt. eigenvalues --    4.36058   4.43229   4.54209   4.83951
          Condensed to atoms (all electrons):
               1          2          3          4          5          6
     1  O    8.945124   0.126096  -0.096166   0.065389  -0.004280  -0.003276
     2  C    0.126096   6.628106   0.206117  -0.635550  -0.389458   0.006387
     3  O   -0.096166   0.206117   8.882038   0.112816   0.045845  -0.057577
     4  C    0.065389  -0.635550   0.112816  10.866917  -3.498023   0.291521
     5  C   -0.004280  -0.389458   0.045845  -3.498023  14.280653  -1.022137
     6  O   -0.003276   0.006387  -0.057577   0.291521  -1.022137   9.163780
     7  H    0.000466   0.007799   0.009123  -0.043126   0.063803   0.268238
     8  C   -0.013816  -0.184654  -0.058721   2.339819  -6.129530   0.560642
     9  H    0.000235   0.012292  -0.000738  -0.196820   0.913185  -0.132749
    10  C    0.001310   0.177111  -0.017258  -2.741754   2.565529  -0.167874
    11  H    0.000159  -0.007273  -0.000306   0.055154  -0.120281  -0.002473
    12  C   -0.093655  -0.306928  -0.001507   2.147793  -3.671907   0.161668
    13  H    0.000191   0.011127   0.000999  -0.124810   0.089800   0.002213
    14  C    0.063937  -0.550164  -0.069069  -3.606481   2.016733  -0.136609
    15  H   -0.019768   0.107166  -0.004475   0.385769  -0.138373  -0.000702
               7          8          9         10         11         12
     1  O    0.000466  -0.013816   0.000235   0.001310   0.000159  -0.093655
     2  C    0.007799  -0.184654   0.012292   0.177111  -0.007273  -0.306928
     3  O    0.009123  -0.058721  -0.000738  -0.017258  -0.000306  -0.001507
     4  C   -0.043126   2.339819  -0.196820  -2.741754   0.055154   2.147793
     5  C    0.063803  -6.129530   0.913185   2.565529  -0.120281  -3.671907
     6  O    0.268238   0.560642  -0.132749  -0.167874  -0.002473   0.161668
     7  H    0.633701  -0.174284   0.002282   0.060250  -0.001199  -0.029766
     8  C   -0.174284  13.590401  -1.123327  -3.030959   0.392619   3.647296
     9  H    0.002282  -1.123327   1.972354   0.385862  -0.066034  -0.264400
    10  C    0.060250  -3.030959   0.385862   9.267226  -0.627185  -3.034228
    11  H   -0.001199   0.392619  -0.066034  -0.627185   1.648189   0.377446
    12  C   -0.029766   3.647296  -0.264400  -3.034228   0.377446  10.800769
    13  H    0.000029  -0.171917  -0.019742   0.337641  -0.053161  -0.742477
    14  C    0.034118  -4.311158   0.168921   2.731196  -0.130164  -3.623363
    15  H   -0.000754   0.104682   0.010508  -0.124281  -0.011652   0.366823
              13         14         15
     1  O    0.000191   0.063937  -0.019768
     2  C    0.011127  -0.550164   0.107166
     3  O    0.000999  -0.069069  -0.004475
     4  C   -0.124810  -3.606481   0.385769
     5  C    0.089800   2.016733  -0.138373
     6  O    0.002213  -0.136609  -0.000702
     7  H    0.000029   0.034118  -0.000754
     8  C   -0.171917  -4.311158   0.104682
     9  H   -0.019742   0.168921   0.010508
    10  C    0.337641   2.731196  -0.124281
    11  H   -0.053161  -0.130164  -0.011652
    12  C   -0.742477  -3.623363   0.366823
    13  H    1.668705   0.539750  -0.084367
    14  C    0.539750  13.256604  -0.824198
    15  H   -0.084367  -0.824198   1.837533
 Mulliken charges:
               1
     1  O   -0.971946
     2  C    0.791825
     3  O   -0.951121
     4  C    0.581385
     5  C    0.998440
     6  O   -0.931051
     7  H    0.169320
     8  C    0.562907
     9  H   -0.661828
    10  C    0.217414
    11  H   -0.453838
    12  C    0.266437
    13  H   -0.453981
    14  C    0.439947
    15  H   -0.603911
 Sum of Mulliken charges =  -1.00000
 Mulliken charges with hydrogens summed into heavy atoms:
               1
     1  O   -0.971946
     2  C    0.791825
     3  O   -0.951121
     4  C    0.581385
     5  C    0.998440
     6  O   -0.761731
     8  C   -0.098921
    10  C   -0.236424
    12  C   -0.187544
    14  C   -0.163963
 Electronic spatial extent (au):  <R**2>=           1372.7467
 Charge=             -1.0000 electrons
 Dipole moment (field-independent basis, Debye):
    X=            -11.1959    Y=              1.9931    Z=             -0.2677  Tot=             11.3750
 Quadrupole moment (field-independent basis, Debye-Ang):
   XX=            -91.6671   YY=            -62.0409   ZZ=            -65.3002
   XY=             -0.5304   XZ=             -0.3674   YZ=             -4.5565
 Traceless Quadrupole moment (field-independent basis, Debye-Ang):
   XX=            -18.6644   YY=             10.9618   ZZ=              7.7025
   XY=             -0.5304   XZ=             -0.3674   YZ=             -4.5565
 Octapole moment (field-independent basis, Debye-Ang**2):
  XXX=            -70.4993  YYY=             30.3203  ZZZ=             -1.5435  XYY=            -25.8804
  XXY=             14.8947  XXZ=             -2.3625  XZZ=              6.8653  YZZ=              5.4281
  YYZ=              0.4940  XYZ=             -7.3814
 Hexadecapole moment (field-independent basis, Debye-Ang**3):
 XXXX=          -1355.6019 YYYY=           -530.1584 ZZZZ=            -96.8176 XXXY=             19.6380
 XXXZ=             -7.7959 YYYX=            -13.6045 YYYZ=            -15.8330 ZZZX=              0.9631
 ZZZY=             -1.7379 XXYY=           -333.1821 XXZZ=           -235.9513 YYZZ=           -125.9352
 XXYZ=            -22.4505 YYXZ=              7.8445 ZZXY=             -3.1356
 N-N= 4.843245218168D+02 E-N=-2.138556894962D+03  KE= 4.920400621927D+02
 Leave Link  601 at Sun Jul 11 16:16:22 2021, MaxMem=   262144000 cpu:               0.2 elap:               0.1
 (Enter /prod/apps/gaussian/g16b1/l9999.exe)
 1\1\GINC-PIRINEUS39\SP\RMP2-FC\Aug-CC-pVDZ\C7H5O3(1-)\UBATOR02\11-Jul-
 2021\0\\#p mp2/aug-cc-pVDZ scf=tight maxdisk=180GB geom=allcheck\\SET_
 328_BBB299_conf1.geo_195_180 geometry\\-1,1\O,0,0.0648727538,-1.822245
 8498,2.3576612008\C,0,-0.7255705048,-1.0295169429,1.7696207929\O,0,-1.
 9202597153,-0.7937451781,2.0971745476\C,0,-0.1718971006,-0.3365996521,
 0.5227053121\C,0,-0.6026556075,0.9221688045,0.0505872289\O,0,-1.530032
 344,1.6260575888,0.7630983031\H,0,-1.6661861453,2.4848740091,0.3294249
 707\C,0,-0.0569786034,1.4590273158,-1.1252998447\H,0,-0.396722094,2.43
 05610554,-1.4720529497\C,0,0.9095341204,0.7611627177,-1.8454839008\H,0
 ,1.3134492215,1.1940416278,-2.7554170062\C,0,1.3553392413,-0.481373804
 ,-1.3905269955\H,0,2.1114733859,-1.0321821782,-1.9403398629\C,0,0.8171
 553595,-1.0015969909,-0.2150785633\H,0,1.1564780324,-1.9566325231,0.16
 99267669\\Version=ES64L-G16RevB.01\State=1-A\HF=-492.6739441\MP2=-494.
 2161548\RMSD=6.910e-09\PG=C01 [X(C7H5O3)]\\@


 CHILDREN YOU ARE VERY LITTLE,
 AND YOUR BONES ARE VERY BRITTLE;
 IF YOU WOULD GROW GREAT AND STATELY
 YOU MUST TRY TO WALK SEDATELY.
 YOU MUST STILL BE BRIGHT AND QUIET,
 AND CONTENT WITH SIMPLE DIET;
 AND REMAIN, THROUGH ALL BEWILD'RING
 INNOCENT AND HONEST CHILDREN.
     -- A CHILD'S GARDEN OF VERSE,
        ROBERT LOUIS STEVENSON
 Job cpu time:       0 days  0 hours  5 minutes 18.7 seconds.
 Elapsed time:       0 days  0 hours  1 minutes 20.0 seconds.
 File lengths (MBytes):  RWF=     44 Int=      0 D2E=      0 Chk=      8 Scr=      1
 Normal termination of Gaussian 16 at Sun Jul 11 16:16:22 2021.
