 Entering Gaussian System, Link 0=g16
 Initial command:
 /prod/apps/gaussian/g16b1/l1.exe "/tmp/ubator02/1834611/Gau-90063.inp" -scrdir="/tmp/ubator02/1834611/"
 Entering Link 1 = /prod/apps/gaussian/g16b1/l1.exe PID=     90064.
  
 Copyright (c) 1988-2017, Gaussian, Inc.  All Rights Reserved.
  
 This is part of the Gaussian(R) 16 program.  It is based on
 the Gaussian(R) 09 system (copyright 2009, Gaussian, Inc.),
 the Gaussian(R) 03 system (copyright 2003, Gaussian, Inc.),
 the Gaussian(R) 98 system (copyright 1998, Gaussian, Inc.),
 the Gaussian(R) 94 system (copyright 1995, Gaussian, Inc.),
 the Gaussian 92(TM) system (copyright 1992, Gaussian, Inc.),
 the Gaussian 90(TM) system (copyright 1990, Gaussian, Inc.),
 the Gaussian 88(TM) system (copyright 1988, Gaussian, Inc.),
 the Gaussian 86(TM) system (copyright 1986, Carnegie Mellon
 University), and the Gaussian 82(TM) system (copyright 1983,
 Carnegie Mellon University). Gaussian is a federally registered
 trademark of Gaussian, Inc.
  
 This software contains proprietary and confidential information,
 including trade secrets, belonging to Gaussian, Inc.
  
 This software is provided under written license and may be
 used, copied, transmitted, or stored only in accord with that
 written license.
  
 The following legend is applicable only to US Government
 contracts under FAR:
  
                    RESTRICTED RIGHTS LEGEND
  
 Use, reproduction and disclosure by the US Government is
 subject to restrictions as set forth in subparagraphs (a)
 and (c) of the Commercial Computer Software - Restricted
 Rights clause in FAR 52.227-19.
  
 Gaussian, Inc.
 340 Quinnipiac St., Bldg. 40, Wallingford CT 06492
  
  
 ---------------------------------------------------------------
 Warning -- This program may not be used in any manner that
 competes with the business of Gaussian, Inc. or will provide
 assistance to any competitor of Gaussian, Inc.  The licensee
 of this program is prohibited from giving any competitor of
 Gaussian, Inc. access to this program.  By using this program,
 the user acknowledges that Gaussian, Inc. is engaged in the
 business of creating and licensing software in the field of
 computational chemistry and represents and warrants to the
 licensee that it is not a competitor of Gaussian, Inc. and that
 it will not use this program in any manner prohibited above.
 ---------------------------------------------------------------
  

 Cite this work as:
 Gaussian 16, Revision B.01,
 M. J. Frisch, G. W. Trucks, H. B. Schlegel, G. E. Scuseria, 
 M. A. Robb, J. R. Cheeseman, G. Scalmani, V. Barone, 
 G. A. Petersson, H. Nakatsuji, X. Li, M. Caricato, A. V. Marenich, 
 J. Bloino, B. G. Janesko, R. Gomperts, B. Mennucci, H. P. Hratchian, 
 J. V. Ortiz, A. F. Izmaylov, J. L. Sonnenberg, D. Williams-Young, 
 F. Ding, F. Lipparini, F. Egidi, J. Goings, B. Peng, A. Petrone, 
 T. Henderson, D. Ranasinghe, V. G. Zakrzewski, J. Gao, N. Rega, 
 G. Zheng, W. Liang, M. Hada, M. Ehara, K. Toyota, R. Fukuda, 
 J. Hasegawa, M. Ishida, T. Nakajima, Y. Honda, O. Kitao, H. Nakai, 
 T. Vreven, K. Throssell, J. A. Montgomery, Jr., J. E. Peralta, 
 F. Ogliaro, M. J. Bearpark, J. J. Heyd, E. N. Brothers, K. N. Kudin, 
 V. N. Staroverov, T. A. Keith, R. Kobayashi, J. Normand, 
 K. Raghavachari, A. P. Rendell, J. C. Burant, S. S. Iyengar, 
 J. Tomasi, M. Cossi, J. M. Millam, M. Klene, C. Adamo, R. Cammi, 
 J. W. Ochterski, R. L. Martin, K. Morokuma, O. Farkas, 
 J. B. Foresman, and D. J. Fox, Gaussian, Inc., Wallingford CT, 2016.
 
 ******************************************
 Gaussian 16:  ES64L-G16RevB.01 20-Dec-2017
                11-Jul-2021 
 ******************************************
 %mem=800MB
 %nproc=4
 Will use up to    4 processors via shared memory.
 %chk=SET_328_BBB87_conf1.geo_285_285.chk
 -----------------------------------------------------------
 #p b3lyp/6-31G(d) opt freq scrf=(iefpcm,read,solvent=water)
 -----------------------------------------------------------
 1/18=20,19=15,26=3,38=1,40=2/1,3;
 2/9=110,12=2,17=6,18=5,40=1/2;
 3/5=1,6=6,7=1,11=2,25=1,30=1,70=2203,71=1,72=1,74=-5/1,2,3;
 4//1;
 5/5=2,38=5,53=1/2;
 6/7=2,8=2,9=2,10=2,28=1/1;
 7//1,2,3,16;
 1/18=20,19=15,26=3/3(2);
 2/9=110/2;
 99//99;
 2/9=110/2;
 3/5=1,6=6,7=1,11=2,25=1,30=1,70=2205,71=1,72=1,74=-5/1,2,3;
 4/5=5,16=3,69=1/1;
 5/5=2,38=5,53=1/2;
 7//1,2,3,16;
 1/18=20,19=15,26=3/3(-5);
 2/9=110/2;
 6/7=2,8=2,9=2,10=2,19=2,28=1/1;
 99/9=1/99;
 Leave Link    1 at Sun Jul 11 16:21:10 2021, MaxMem=   104857600 cpu:               0.1 elap:               0.0
 (Enter /prod/apps/gaussian/g16b1/l101.exe)
 ----------------------------------------
 SET_328_BBB87_conf1.geo_285_285 geometry
 ----------------------------------------
 Symbolic Z-matrix:
 Charge =  1 Multiplicity = 1
 N                    -0.353     2.034     1.243 
 H                    -1.09      2.705     1.324 
 H                     0.054     2.093     0.331 
 C                    -0.892     0.693     1.449 
 H                    -1.703     0.464     0.752 
 H                    -1.298     0.643     2.463 
 C                     0.115    -0.417     1.329 
 H                    -0.352    -1.258     1.846 
 H                     1.01     -0.154     1.898 
 C                     0.435    -0.657    -0.091 
 N                    -0.422    -1.297    -0.88 
 C                     0.066    -1.349    -2.219 
 H                    -0.441    -1.913    -2.991 
 C                     1.289    -0.703    -2.346 
 H                     2.053    -0.747    -3.112 
 S                     1.716     0.147    -0.957 
 H                     0.346     2.222     1.933 
 
 ITRead=  0  0  0  0  0  0  0  0  0  0  0  0  0  0  0  0  0
 MicOpt= -1 -1 -1 -1 -1 -1 -1 -1 -1 -1 -1 -1 -1 -1 -1 -1 -1
 NAtoms=     17 NQM=       17 NQMF=       0 NMMI=      0 NMMIF=      0
                NMic=       0 NMicF=      0.
                    Isotopes and Nuclear Properties:
 (Nuclear quadrupole moments (NQMom) in fm**2, nuclear magnetic moments (NMagM)
  in nuclear magnetons)

  Atom         1           2           3           4           5           6           7           8           9          10
 IAtWgt=          14           1           1          12           1           1          12           1           1          12
 AtmWgt=  14.0030740   1.0078250   1.0078250  12.0000000   1.0078250   1.0078250  12.0000000   1.0078250   1.0078250  12.0000000
 NucSpn=           2           1           1           0           1           1           0           1           1           0
 AtZEff=  -0.0000000  -0.0000000  -0.0000000  -0.0000000  -0.0000000  -0.0000000  -0.0000000  -0.0000000  -0.0000000  -0.0000000
 NQMom=    2.0440000   0.0000000   0.0000000   0.0000000   0.0000000   0.0000000   0.0000000   0.0000000   0.0000000   0.0000000
 NMagM=    0.4037610   2.7928460   2.7928460   0.0000000   2.7928460   2.7928460   0.0000000   2.7928460   2.7928460   0.0000000
 AtZNuc=   7.0000000   1.0000000   1.0000000   6.0000000   1.0000000   1.0000000   6.0000000   1.0000000   1.0000000   6.0000000

  Atom        11          12          13          14          15          16          17
 IAtWgt=          14          12           1          12           1          32           1
 AtmWgt=  14.0030740  12.0000000   1.0078250  12.0000000   1.0078250  31.9720718   1.0078250
 NucSpn=           2           0           1           0           1           0           1
 AtZEff=  -0.0000000  -0.0000000  -0.0000000  -0.0000000  -0.0000000  -0.0000000  -0.0000000
 NQMom=    2.0440000   0.0000000   0.0000000   0.0000000   0.0000000   0.0000000   0.0000000
 NMagM=    0.4037610   0.0000000   2.7928460   0.0000000   2.7928460   0.0000000   2.7928460
 AtZNuc=   7.0000000   6.0000000   1.0000000   6.0000000   1.0000000  16.0000000   1.0000000
 Leave Link  101 at Sun Jul 11 16:21:11 2021, MaxMem=   104857600 cpu:               0.5 elap:               0.1
 (Enter /prod/apps/gaussian/g16b1/l103.exe)

 GradGradGradGradGradGradGradGradGradGradGradGradGradGradGradGradGradGrad
 Berny optimization.
 Initialization pass.
                           ----------------------------
                           !    Initial Parameters    !
                           ! (Angstroms and Degrees)  !
 --------------------------                            --------------------------
 ! Name  Definition              Value          Derivative Info.                !
 --------------------------------------------------------------------------------
 ! R1    R(1,2)                  1.0            estimate D2E/DX2                !
 ! R2    R(1,3)                  1.0004         estimate D2E/DX2                !
 ! R3    R(1,4)                  1.4599         estimate D2E/DX2                !
 ! R4    R(1,17)                 1.0            estimate D2E/DX2                !
 ! R5    R(4,5)                  1.0936         estimate D2E/DX2                !
 ! R6    R(4,6)                  1.0934         estimate D2E/DX2                !
 ! R7    R(4,7)                  1.5035         estimate D2E/DX2                !
 ! R8    R(7,8)                  1.0921         estimate D2E/DX2                !
 ! R9    R(7,9)                  1.0927         estimate D2E/DX2                !
 ! R10   R(7,10)                 1.4753         estimate D2E/DX2                !
 ! R11   R(10,11)                1.3291         estimate D2E/DX2                !
 ! R12   R(10,16)                1.7428         estimate D2E/DX2                !
 ! R13   R(11,12)                1.4261         estimate D2E/DX2                !
 ! R14   R(12,13)                1.0822         estimate D2E/DX2                !
 ! R15   R(12,14)                1.3889         estimate D2E/DX2                !
 ! R16   R(14,15)                1.0828         estimate D2E/DX2                !
 ! R17   R(14,16)                1.6835         estimate D2E/DX2                !
 ! A1    A(2,1,3)              109.5179         estimate D2E/DX2                !
 ! A2    A(2,1,4)              109.4406         estimate D2E/DX2                !
 ! A3    A(2,1,17)             109.4584         estimate D2E/DX2                !
 ! A4    A(3,1,4)              109.4515         estimate D2E/DX2                !
 ! A5    A(3,1,17)             109.4839         estimate D2E/DX2                !
 ! A6    A(4,1,17)             109.4751         estimate D2E/DX2                !
 ! A7    A(1,4,5)              112.0994         estimate D2E/DX2                !
 ! A8    A(1,4,6)              108.0568         estimate D2E/DX2                !
 ! A9    A(1,4,7)              114.8099         estimate D2E/DX2                !
 ! A10   A(5,4,6)              107.8255         estimate D2E/DX2                !
 ! A11   A(5,4,7)              106.9313         estimate D2E/DX2                !
 ! A12   A(6,4,7)              106.7952         estimate D2E/DX2                !
 ! A13   A(4,7,8)              104.1429         estimate D2E/DX2                !
 ! A14   A(4,7,9)              109.2285         estimate D2E/DX2                !
 ! A15   A(4,7,10)             110.0114         estimate D2E/DX2                !
 ! A16   A(8,7,9)              106.8036         estimate D2E/DX2                !
 ! A17   A(8,7,10)             115.0334         estimate D2E/DX2                !
 ! A18   A(9,7,10)             111.2672         estimate D2E/DX2                !
 ! A19   A(7,10,11)            120.6546         estimate D2E/DX2                !
 ! A20   A(7,10,16)            124.2409         estimate D2E/DX2                !
 ! A21   A(11,10,16)           113.6469         estimate D2E/DX2                !
 ! A22   A(10,11,12)           110.7496         estimate D2E/DX2                !
 ! A23   A(11,12,13)           121.9033         estimate D2E/DX2                !
 ! A24   A(11,12,14)           111.7279         estimate D2E/DX2                !
 ! A25   A(13,12,14)           126.1349         estimate D2E/DX2                !
 ! A26   A(12,14,15)           131.8422         estimate D2E/DX2                !
 ! A27   A(12,14,16)           112.5025         estimate D2E/DX2                !
 ! A28   A(15,14,16)           115.166          estimate D2E/DX2                !
 ! A29   A(10,16,14)            89.4627         estimate D2E/DX2                !
 ! D1    D(2,1,4,5)             56.7039         estimate D2E/DX2                !
 ! D2    D(2,1,4,6)            -61.9739         estimate D2E/DX2                !
 ! D3    D(2,1,4,7)            178.9788         estimate D2E/DX2                !
 ! D4    D(3,1,4,5)            -63.3224         estimate D2E/DX2                !
 ! D5    D(3,1,4,6)            177.9998         estimate D2E/DX2                !
 ! D6    D(3,1,4,7)             58.9525         estimate D2E/DX2                !
 ! D7    D(17,1,4,5)           176.6718         estimate D2E/DX2                !
 ! D8    D(17,1,4,6)            57.994          estimate D2E/DX2                !
 ! D9    D(17,1,4,7)           -61.0533         estimate D2E/DX2                !
 ! D10   D(1,4,7,8)            160.4661         estimate D2E/DX2                !
 ! D11   D(1,4,7,9)             46.6607         estimate D2E/DX2                !
 ! D12   D(1,4,7,10)           -75.7417         estimate D2E/DX2                !
 ! D13   D(5,4,7,8)            -74.5062         estimate D2E/DX2                !
 ! D14   D(5,4,7,9)            171.6884         estimate D2E/DX2                !
 ! D15   D(5,4,7,10)            49.286          estimate D2E/DX2                !
 ! D16   D(6,4,7,8)             40.716          estimate D2E/DX2                !
 ! D17   D(6,4,7,9)            -73.0894         estimate D2E/DX2                !
 ! D18   D(6,4,7,10)           164.5082         estimate D2E/DX2                !
 ! D19   D(4,7,10,11)          -75.4213         estimate D2E/DX2                !
 ! D20   D(4,7,10,16)           89.9128         estimate D2E/DX2                !
 ! D21   D(8,7,10,11)           41.778          estimate D2E/DX2                !
 ! D22   D(8,7,10,16)         -152.8878         estimate D2E/DX2                !
 ! D23   D(9,7,10,11)          163.3895         estimate D2E/DX2                !
 ! D24   D(9,7,10,16)          -31.2764         estimate D2E/DX2                !
 ! D25   D(7,10,11,12)         176.8876         estimate D2E/DX2                !
 ! D26   D(16,10,11,12)         10.0955         estimate D2E/DX2                !
 ! D27   D(7,10,16,14)        -179.1989         estimate D2E/DX2                !
 ! D28   D(11,10,16,14)        -12.9536         estimate D2E/DX2                !
 ! D29   D(10,11,12,13)        173.8248         estimate D2E/DX2                !
 ! D30   D(10,11,12,14)         -0.9388         estimate D2E/DX2                !
 ! D31   D(11,12,14,15)        162.5524         estimate D2E/DX2                !
 ! D32   D(11,12,14,16)         -8.8621         estimate D2E/DX2                !
 ! D33   D(13,12,14,15)        -11.9425         estimate D2E/DX2                !
 ! D34   D(13,12,14,16)        176.6429         estimate D2E/DX2                !
 ! D35   D(12,14,16,10)         12.005          estimate D2E/DX2                !
 ! D36   D(15,14,16,10)       -160.9368         estimate D2E/DX2                !
 --------------------------------------------------------------------------------
 Trust Radius=3.00D-01 FncErr=1.00D-07 GrdErr=1.00D-06 EigMax=2.50D+02 EigMin=1.00D-04
 Number of steps in this run=     92 maximum allowed number of steps=    102.
 GradGradGradGradGradGradGradGradGradGradGradGradGradGradGradGradGradGrad

 Leave Link  103 at Sun Jul 11 16:21:11 2021, MaxMem=   104857600 cpu:               0.1 elap:               0.0
 (Enter /prod/apps/gaussian/g16b1/l202.exe)
                          Input orientation:                          
 ---------------------------------------------------------------------
 Center     Atomic      Atomic             Coordinates (Angstroms)
 Number     Number       Type             X           Y           Z
 ---------------------------------------------------------------------
      1          7           0       -0.353000    2.034000    1.243000
      2          1           0       -1.090000    2.705000    1.324000
      3          1           0        0.054000    2.093000    0.331000
      4          6           0       -0.892000    0.693000    1.449000
      5          1           0       -1.703000    0.464000    0.752000
      6          1           0       -1.298000    0.643000    2.463000
      7          6           0        0.115000   -0.417000    1.329000
      8          1           0       -0.352000   -1.258000    1.846000
      9          1           0        1.010000   -0.154000    1.898000
     10          6           0        0.435000   -0.657000   -0.091000
     11          7           0       -0.422000   -1.297000   -0.880000
     12          6           0        0.066000   -1.349000   -2.219000
     13          1           0       -0.441000   -1.913000   -2.991000
     14          6           0        1.289000   -0.703000   -2.346000
     15          1           0        2.053000   -0.747000   -3.112000
     16         16           0        1.716000    0.147000   -0.957000
     17          1           0        0.346000    2.222000    1.933000
 ---------------------------------------------------------------------
                    Distance matrix (angstroms):
                    1          2          3          4          5
     1  N    0.000000
     2  H    0.999985   0.000000
     3  H    1.000437   1.633808   0.000000
     4  C    1.459876   2.025580   2.026040   0.000000
     5  H    2.128023   2.392704   2.432680   1.093605   0.000000
     6  H    2.077572   2.364832   2.911328   1.093404   1.767367
     7  C    2.496762   3.346481   2.701819   1.503512   2.101003
     8  H    3.346771   4.064787   3.699900   2.062913   2.446900
     9  H    2.659725   3.593516   2.901454   2.129933   3.009254
    10  C    3.105154   3.953593   2.808157   2.440293   2.557017
    11  N    3.950627   4.617342   3.631143   3.099232   2.721306
    12  C    4.858569   5.506732   4.283691   4.306013   3.904250
    13  H    5.789068   6.353452   5.227690   5.168001   4.610078
    14  C    4.802942   5.544637   4.063148   4.594301   4.462237
    15  H    5.699897   6.439942   4.890383   5.616880   5.523093
    16  S    3.561114   4.429443   2.864979   3.590072   3.835457
    17  H    1.000022   1.632870   1.633496   2.026016   2.946816
                    6          7          8          9         10
     6  H    0.000000
     7  C    2.099077   0.000000
     8  H    2.211200   1.092089   0.000000
     9  H    2.506252   1.092682   1.754014   0.000000
    10  C    3.349060   1.475263   2.175440   2.130670   0.000000
    11  N    3.963158   2.437714   2.727177   3.327816   1.329124
    12  C    5.267797   3.668696   4.087448   4.389630   2.267909
    13  H    6.083889   4.605383   4.881958   5.394609   3.279468
    14  C    5.624124   3.868552   4.535832   4.288447   2.411733
    15  H    6.651460   4.856668   5.534158   5.151660   3.428187
    16  S    4.585478   2.847296   3.755990   2.956360   1.742795
    17  H    2.340273   2.717075   3.550376   2.467285   3.520389
                   11         12         13         14         15
    11  N    0.000000
    12  C    1.426103   0.000000
    13  H    2.199122   1.082187   0.000000
    14  C    2.330132   1.388947   2.207493   0.000000
    15  H    3.377862   2.260093   2.755764   1.082769   0.000000
    16  S    2.581106   2.559914   3.610181   1.683493   2.357293
    17  H    4.570137   5.483570   6.477914   5.268274   6.097609
                   16         17
    16  S    0.000000
    17  H    3.812430   0.000000
 Stoichiometry    C5H9N2S(1+)
 Framework group  C1[X(C5H9N2S)]
 Deg. of freedom    45
 Full point group                 C1      NOp   1
 Largest Abelian subgroup         C1      NOp   1
 Largest concise Abelian subgroup C1      NOp   1
                         Standard orientation:                         
 ---------------------------------------------------------------------
 Center     Atomic      Atomic             Coordinates (Angstroms)
 Number     Number       Type             X           Y           Z
 ---------------------------------------------------------------------
      1          7           0        2.475554   -0.741738   -0.719903
      2          1           0        3.109812   -0.660312   -1.488706
      3          1           0        1.623741   -1.163119   -1.032517
      4          6           0        2.192361    0.585147   -0.181002
      5          1           0        1.794012    1.261910   -0.942107
      6          1           0        3.130971    1.009348    0.185874
      7          6           0        1.226804    0.605187    0.971320
      8          1           0        1.408257    1.567467    1.454797
      9          1           0        1.508607   -0.167748    1.690426
     10          6           0       -0.149557    0.402983    0.480256
     11          7           0       -0.801369    1.385484   -0.133262
     12          6           0       -2.080237    0.940878   -0.581136
     13          1           0       -2.801537    1.619938   -1.016721
     14          6           0       -2.294586   -0.397474   -0.277753
     15          1           0       -3.198108   -0.992605   -0.234683
     16         16           0       -0.909421   -1.155706    0.305817
     17          1           0        2.886983   -1.310135   -0.007375
 ---------------------------------------------------------------------
 Rotational constants (GHZ):           3.3067009           1.2375079           1.0512846
 Leave Link  202 at Sun Jul 11 16:21:11 2021, MaxMem=   104857600 cpu:               0.0 elap:               0.0
 (Enter /prod/apps/gaussian/g16b1/l301.exe)
 Standard basis: 6-31G(d) (6D, 7F)
 Ernie: Thresh=  0.10000D-02 Tol=  0.10000D-05 Strict=F.
 There are   142 symmetry adapted cartesian basis functions of A   symmetry.
 There are   142 symmetry adapted basis functions of A   symmetry.
   142 basis functions,   284 primitive gaussians,   142 cartesian basis functions
    34 alpha electrons       34 beta electrons
       nuclear repulsion energy       451.2497446138 Hartrees.
 IExCor=  402 DFT=T Ex+Corr=B3LYP ExCW=0 ScaHFX=  0.200000
 ScaDFX=  0.800000  0.720000  1.000000  0.810000 ScalE2=  1.000000  1.000000
 IRadAn=      5 IRanWt=     -1 IRanGd=            0 ICorTp=0 IEmpDi=  4
 NAtoms=   17 NActive=   17 NUniq=   17 SFac= 1.00D+00 NAtFMM=   60 NAOKFM=F Big=F
 Integral buffers will be    131072 words long.
 Raffenetti 2 integral format.
 Two-electron integral symmetry is turned on.
 Using the following non-standard input for PCM:
 MSTModel=DFT cav MSTCharged
 --- end of non-standard input.
 MST model for solvation energy: B3LYP parametrization.
 MST cavity parameters:
 ISph   IAn     Re0     Alpha   Atom Type   QCorr
 ------------------------------------------------
   1      7     1.70     1.15      NH         T
   2      1     0.90     1.15      NH         T
   3      1     0.90     1.15      NH         T
   4      6     1.50     1.25      CH2        F
   5      1     1.20     1.25      CH2        F
   6      1     1.20     1.25      CH2        F
   7      6     1.50     1.25      CH2        F
   8      1     1.20     1.25      CH2        F
   9      1     1.20     1.25      CH2        F
  10      6     1.50     1.25      C          F
  11      7     1.40     1.25      N          F
  12      6     1.50     1.25      CH         F
  13      1     1.20     1.25      CH         F
  14      6     1.50     1.25      CH         F
  15      1     1.20     1.25      CH         F
  16     16     1.75     1.25      S          F
  17      1     0.90     1.15      NH         T
 ------------------------------------------------------------------------------
 Polarizable Continuum Model (PCM)
 =================================
 Model                : PCM.
 Atomic radii         : MST.
 Polarization charges : Total charges.
 Charge compensation  : None.
 Solution method      : On-the-fly selection.
 Cavity type          : Scaled VdW (van der Waals Surface) (Alpha=1.250).
 Cavity algorithm     : GePol (No added spheres)
                        Default sphere list used, NSphG=   17.
                        Lebedev-Laikov grids with approx.  5.0 points / Ang**2.
                        Smoothing algorithm: York/Karplus (Gamma=1.0000).
                        Polarization charges: spherical gaussians, with
                                              point-specific exponents (IZeta= 3).
                        Self-potential: point-specific (ISelfS= 7).
                        Self-field    : sphere-specific E.n sum rule (ISelfD= 2).
 1st derivatives      : Analytical E(r).r(x)/FMM algorithm (CHGder, D1EAlg=3).
                        Cavity 1st derivative terms included.
 Solvent              : Water, Eps=  78.355300 Eps(inf)=   1.777849
 ------------------------------------------------------------------------------
 Spheres list:
 ISph  on   Nord     Re0    Alpha      Xe            Ye            Ze
    1   N      1    1.7000  1.150      2.475554     -0.741738     -0.719903
    2   H      2    0.9000  1.150      3.109812     -0.660312     -1.488706
    3   H      3    0.9000  1.150      1.623741     -1.163119     -1.032517
    4   C      4    1.5000  1.250      2.192361      0.585147     -0.181002
    5   H      5    1.2000  1.250      1.794012      1.261910     -0.942107
    6   H      6    1.2000  1.250      3.130971      1.009348      0.185874
    7   C      7    1.5000  1.250      1.226804      0.605187      0.971320
    8   H      8    1.2000  1.250      1.408257      1.567467      1.454797
    9   H      9    1.2000  1.250      1.508607     -0.167748      1.690426
   10   C     10    1.5000  1.250     -0.149557      0.402983      0.480256
   11   N     11    1.4000  1.250     -0.801369      1.385484     -0.133262
   12   C     12    1.5000  1.250     -2.080237      0.940878     -0.581136
   13   H     13    1.2000  1.250     -2.801537      1.619938     -1.016721
   14   C     14    1.5000  1.250     -2.294586     -0.397474     -0.277753
   15   H     15    1.2000  1.250     -3.198108     -0.992605     -0.234683
   16   S     16    1.7500  1.250     -0.909421     -1.155706      0.305817
   17   H     17    0.9000  1.150      2.886983     -1.310135     -0.007375
 ------------------------------------------------------------------------------
 GePol: Number of generator spheres                  =      17
 GePol: Total number of spheres                      =      17
 GePol: Number of exposed spheres                    =      17 (100.00%)
 GePol: Number of points                             =    1287
 GePol: Average weight of points                     =       0.14
 GePol: Minimum weight of points                     =   0.18D-08
 GePol: Maximum weight of points                     =    0.22001
 GePol: Number of points with low weight             =      80
 GePol: Fraction of low-weight points (<1% of avg)   =       6.22%
 GePol: Cavity surface area                          =    174.635 Ang**2
 GePol: Cavity volume                                =    157.850 Ang**3
 PCM non-electrostatic energy =         0.0002319549 Hartrees.
 Nuclear repulsion after PCM non-electrostatic terms =      451.2499765687 Hartrees.
 Leave Link  301 at Sun Jul 11 16:21:11 2021, MaxMem=   104857600 cpu:               0.3 elap:               0.1
 (Enter /prod/apps/gaussian/g16b1/l302.exe)
 NPDir=0 NMtPBC=     1 NCelOv=     1 NCel=       1 NClECP=     1 NCelD=      1
         NCelK=      1 NCelE2=     1 NClLst=     1 CellRange=     0.0.
 One-electron integrals computed using PRISM.
 One-electron integral symmetry used in STVInt
 NBasis=   142 RedAO= T EigKep=  2.45D-03  NBF=   142
 NBsUse=   142 1.00D-06 EigRej= -1.00D+00 NBFU=   142
 Precomputing XC quadrature grid using
 IXCGrd= 4 IRadAn=           5 IRanWt=          -1 IRanGd=           0 AccXCQ= 0.00D+00.
 Generated NRdTot=       0 NPtTot=           0 NUsed=           0 NTot=          32
 NSgBfM=   142   142   142   142   142 MxSgAt=    17 MxSgA2=    17.
 Leave Link  302 at Sun Jul 11 16:21:11 2021, MaxMem=   104857600 cpu:               0.7 elap:               0.2
 (Enter /prod/apps/gaussian/g16b1/l303.exe)
 DipDrv:  MaxL=1.
 Leave Link  303 at Sun Jul 11 16:21:11 2021, MaxMem=   104857600 cpu:               0.1 elap:               0.0
 (Enter /prod/apps/gaussian/g16b1/l401.exe)
 ExpMin= 1.17D-01 ExpMax= 2.19D+04 ExpMxC= 3.30D+03 IAcc=3 IRadAn=         5 AccDes= 0.00D+00
 Harris functional with IExCor=  402 and IRadAn=       5 diagonalized for initial guess.
 HarFok:  IExCor=  402 AccDes= 0.00D+00 IRadAn=         5 IDoV= 1 UseB2=F ITyADJ=14
 ICtDFT=  3500011 ScaDFX=  1.000000  1.000000  1.000000  1.000000
 FoFCou: FMM=F IPFlag=           0 FMFlag=      100000 FMFlg1=           0
         NFxFlg=           0 DoJE=T BraDBF=F KetDBF=T FulRan=T
         wScrn=  0.000000 ICntrl=       500 IOpCl=  0 I1Cent=   200000004 NGrid=           0
         NMat0=    1 NMatS0=      1 NMatT0=    0 NMatD0=    1 NMtDS0=    0 NMtDT0=    0
 Petite list used in FoFCou.
 Harris En= -703.361381322029    
 JPrj=0 DoOrth=F DoCkMO=F.
 Leave Link  401 at Sun Jul 11 16:21:12 2021, MaxMem=   104857600 cpu:               2.6 elap:               0.7
 (Enter /prod/apps/gaussian/g16b1/l502.exe)
 Keep R1 ints in memory in canonical form, NReq=55421297.
 FoFCou: FMM=F IPFlag=           0 FMFlag=           0 FMFlg1=           0
         NFxFlg=           0 DoJE=F BraDBF=F KetDBF=F FulRan=T
         wScrn=  0.000000 ICntrl=       600 IOpCl=  0 I1Cent=           0 NGrid=           0
         NMat0=    1 NMatS0=  10153 NMatT0=    0 NMatD0=    1 NMtDS0=    0 NMtDT0=    0
 Symmetry not used in FoFCou.
 Two-electron integral symmetry not used.
 Closed shell SCF:
 Using DIIS extrapolation, IDIIS=  1040.
 NGot=   104857600 LenX=    53267901 LenY=    53247296
 Requested convergence on RMS density matrix=1.00D-08 within 128 cycles.
 Requested convergence on MAX density matrix=1.00D-06.
 Requested convergence on             energy=1.00D-06.
 No special actions if energy rises.

 Cycle   1  Pass 1  IDiag  1:
 Inv3:  Mode=1 IEnd=     4969107.
 Iteration    1 A*A^-1 deviation from unit magnitude is 3.33D-15 for    729.
 Iteration    1 A*A^-1 deviation from orthogonality  is 2.04D-15 for    603    296.
 Iteration    1 A^-1*A deviation from unit magnitude is 3.33D-15 for    564.
 Iteration    1 A^-1*A deviation from orthogonality  is 2.09D-14 for    407    357.
 E= -703.293982014950    
 DIIS: error= 2.01D-02 at cycle   1 NSaved=   1.
 NSaved= 1 IEnMin= 1 EnMin= -703.293982014950     IErMin= 1 ErrMin= 2.01D-02
 ErrMax= 2.01D-02  0.00D+00 EMaxC= 1.00D-01 BMatC= 1.84D-01 BMatP= 1.84D-01
 IDIUse=3 WtCom= 7.99D-01 WtEn= 2.01D-01
 Coeff-Com:  0.100D+01
 Coeff-En:   0.100D+01
 Coeff:      0.100D+01
 Gap=     0.239 Goal=   None    Shift=    0.000
 GapD=    0.239 DampG=1.000 DampE=0.500 DampFc=0.5000 IDamp=-1.
 Damping current iteration by 5.00D-01
 RMSDP=7.50D-03 MaxDP=2.18D-01              OVMax= 2.48D-01

 Cycle   2  Pass 1  IDiag  1:
 E= -703.364516623756     Delta-E=       -0.070534608806 Rises=F Damp=T
 DIIS: error= 8.44D-03 at cycle   2 NSaved=   2.
 NSaved= 2 IEnMin= 2 EnMin= -703.364516623756     IErMin= 2 ErrMin= 8.44D-03
 ErrMax= 8.44D-03  0.00D+00 EMaxC= 1.00D-01 BMatC= 1.64D-02 BMatP= 1.84D-01
 IDIUse=3 WtCom= 9.16D-01 WtEn= 8.44D-02
 Coeff-Com:  0.129D+00 0.871D+00
 Coeff-En:   0.248D+00 0.752D+00
 Coeff:      0.139D+00 0.861D+00
 Gap=     0.255 Goal=   None    Shift=    0.000
 RMSDP=2.01D-03 MaxDP=7.32D-02 DE=-7.05D-02 OVMax= 2.07D-01

 Cycle   3  Pass 1  IDiag  1:
 E= -703.473072611921     Delta-E=       -0.108555988165 Rises=F Damp=F
 DIIS: error= 6.71D-03 at cycle   3 NSaved=   3.
 NSaved= 3 IEnMin= 3 EnMin= -703.473072611921     IErMin= 3 ErrMin= 6.71D-03
 ErrMax= 6.71D-03  0.00D+00 EMaxC= 1.00D-01 BMatC= 1.09D-02 BMatP= 1.64D-02
 IDIUse=3 WtCom= 9.33D-01 WtEn= 6.71D-02
 Coeff-Com:  0.208D-01 0.438D+00 0.541D+00
 Coeff-En:   0.000D+00 0.000D+00 0.100D+01
 Coeff:      0.194D-01 0.408D+00 0.572D+00
 Gap=     0.209 Goal=   None    Shift=    0.000
 RMSDP=9.90D-04 MaxDP=3.40D-02 DE=-1.09D-01 OVMax= 5.45D-02

 Cycle   4  Pass 1  IDiag  1:
 E= -703.480310357655     Delta-E=       -0.007237745734 Rises=F Damp=F
 DIIS: error= 3.29D-03 at cycle   4 NSaved=   4.
 NSaved= 4 IEnMin= 4 EnMin= -703.480310357655     IErMin= 4 ErrMin= 3.29D-03
 ErrMax= 3.29D-03  0.00D+00 EMaxC= 1.00D-01 BMatC= 3.61D-03 BMatP= 1.09D-02
 IDIUse=3 WtCom= 9.67D-01 WtEn= 3.29D-02
 Coeff-Com: -0.113D-01 0.791D-01 0.371D+00 0.561D+00
 Coeff-En:   0.000D+00 0.000D+00 0.270D+00 0.730D+00
 Coeff:     -0.109D-01 0.765D-01 0.368D+00 0.567D+00
 Gap=     0.208 Goal=   None    Shift=    0.000
 RMSDP=3.84D-04 MaxDP=1.22D-02 DE=-7.24D-03 OVMax= 1.66D-02

 Cycle   5  Pass 1  IDiag  1:
 E= -703.483507535894     Delta-E=       -0.003197178240 Rises=F Damp=F
 DIIS: error= 4.05D-04 at cycle   5 NSaved=   5.
 NSaved= 5 IEnMin= 5 EnMin= -703.483507535894     IErMin= 5 ErrMin= 4.05D-04
 ErrMax= 4.05D-04  0.00D+00 EMaxC= 1.00D-01 BMatC= 7.66D-05 BMatP= 3.61D-03
 IDIUse=3 WtCom= 9.96D-01 WtEn= 4.05D-03
 Coeff-Com: -0.393D-02 0.986D-02 0.128D+00 0.245D+00 0.621D+00
 Coeff-En:   0.000D+00 0.000D+00 0.000D+00 0.000D+00 0.100D+01
 Coeff:     -0.391D-02 0.982D-02 0.128D+00 0.244D+00 0.622D+00
 Gap=     0.209 Goal=   None    Shift=    0.000
 RMSDP=8.92D-05 MaxDP=4.20D-03 DE=-3.20D-03 OVMax= 2.39D-03

 Cycle   6  Pass 1  IDiag  1:
 E= -703.483577654041     Delta-E=       -0.000070118147 Rises=F Damp=F
 DIIS: error= 1.10D-04 at cycle   6 NSaved=   6.
 NSaved= 6 IEnMin= 6 EnMin= -703.483577654041     IErMin= 6 ErrMin= 1.10D-04
 ErrMax= 1.10D-04  0.00D+00 EMaxC= 1.00D-01 BMatC= 7.44D-06 BMatP= 7.66D-05
 IDIUse=3 WtCom= 9.99D-01 WtEn= 1.10D-03
 Coeff-Com: -0.109D-02-0.556D-03 0.396D-01 0.854D-01 0.302D+00 0.575D+00
 Coeff-En:   0.000D+00 0.000D+00 0.000D+00 0.000D+00 0.000D+00 0.100D+01
 Coeff:     -0.109D-02-0.556D-03 0.395D-01 0.853D-01 0.302D+00 0.575D+00
 Gap=     0.209 Goal=   None    Shift=    0.000
 RMSDP=2.17D-05 MaxDP=6.98D-04 DE=-7.01D-05 OVMax= 1.18D-03

 Cycle   7  Pass 1  IDiag  1:
 E= -703.483584563832     Delta-E=       -0.000006909791 Rises=F Damp=F
 DIIS: error= 4.81D-05 at cycle   7 NSaved=   7.
 NSaved= 7 IEnMin= 7 EnMin= -703.483584563832     IErMin= 7 ErrMin= 4.81D-05
 ErrMax= 4.81D-05  0.00D+00 EMaxC= 1.00D-01 BMatC= 5.42D-07 BMatP= 7.44D-06
 IDIUse=1 WtCom= 1.00D+00 WtEn= 0.00D+00
 Coeff-Com: -0.215D-03-0.103D-02 0.100D-01 0.234D-01 0.898D-01 0.270D+00
 Coeff-Com:  0.608D+00
 Coeff:     -0.215D-03-0.103D-02 0.100D-01 0.234D-01 0.898D-01 0.270D+00
 Coeff:      0.608D+00
 Gap=     0.209 Goal=   None    Shift=    0.000
 RMSDP=7.83D-06 MaxDP=1.76D-04 DE=-6.91D-06 OVMax= 3.84D-04

 Cycle   8  Pass 1  IDiag  1:
 E= -703.483585024533     Delta-E=       -0.000000460700 Rises=F Damp=F
 DIIS: error= 2.55D-05 at cycle   8 NSaved=   8.
 NSaved= 8 IEnMin= 8 EnMin= -703.483585024533     IErMin= 8 ErrMin= 2.55D-05
 ErrMax= 2.55D-05  0.00D+00 EMaxC= 1.00D-01 BMatC= 1.28D-07 BMatP= 5.42D-07
 IDIUse=1 WtCom= 1.00D+00 WtEn= 0.00D+00
 Coeff-Com:  0.790D-04-0.588D-03-0.663D-03-0.640D-03-0.112D-02 0.650D-01
 Coeff-Com:  0.365D+00 0.573D+00
 Coeff:      0.790D-04-0.588D-03-0.663D-03-0.640D-03-0.112D-02 0.650D-01
 Coeff:      0.365D+00 0.573D+00
 Gap=     0.209 Goal=   None    Shift=    0.000
 RMSDP=3.09D-06 MaxDP=9.47D-05 DE=-4.61D-07 OVMax= 2.22D-04

 Cycle   9  Pass 1  IDiag  1:
 E= -703.483585162374     Delta-E=       -0.000000137841 Rises=F Damp=F
 DIIS: error= 4.51D-06 at cycle   9 NSaved=   9.
 NSaved= 9 IEnMin= 9 EnMin= -703.483585162374     IErMin= 9 ErrMin= 4.51D-06
 ErrMax= 4.51D-06  0.00D+00 EMaxC= 1.00D-01 BMatC= 6.59D-09 BMatP= 1.28D-07
 IDIUse=1 WtCom= 1.00D+00 WtEn= 0.00D+00
 Coeff-Com:  0.642D-04-0.186D-03-0.114D-02-0.235D-02-0.882D-02 0.696D-02
 Coeff-Com:  0.111D+00 0.266D+00 0.628D+00
 Coeff:      0.642D-04-0.186D-03-0.114D-02-0.235D-02-0.882D-02 0.696D-02
 Coeff:      0.111D+00 0.266D+00 0.628D+00
 Gap=     0.209 Goal=   None    Shift=    0.000
 RMSDP=8.71D-07 MaxDP=3.60D-05 DE=-1.38D-07 OVMax= 3.77D-05

 Cycle  10  Pass 1  IDiag  1:
 E= -703.483585169594     Delta-E=       -0.000000007220 Rises=F Damp=F
 DIIS: error= 1.05D-06 at cycle  10 NSaved=  10.
 NSaved=10 IEnMin=10 EnMin= -703.483585169594     IErMin=10 ErrMin= 1.05D-06
 ErrMax= 1.05D-06  0.00D+00 EMaxC= 1.00D-01 BMatC= 5.30D-10 BMatP= 6.59D-09
 IDIUse=1 WtCom= 1.00D+00 WtEn= 0.00D+00
 Coeff-Com:  0.218D-04-0.340D-04-0.420D-03-0.937D-03-0.380D-02-0.202D-02
 Coeff-Com:  0.184D-01 0.731D-01 0.281D+00 0.634D+00
 Coeff:      0.218D-04-0.340D-04-0.420D-03-0.937D-03-0.380D-02-0.202D-02
 Coeff:      0.184D-01 0.731D-01 0.281D+00 0.634D+00
 Gap=     0.209 Goal=   None    Shift=    0.000
 RMSDP=2.20D-07 MaxDP=7.38D-06 DE=-7.22D-09 OVMax= 1.33D-05

 Cycle  11  Pass 1  IDiag  1:
 E= -703.483585170096     Delta-E=       -0.000000000502 Rises=F Damp=F
 DIIS: error= 5.26D-07 at cycle  11 NSaved=  11.
 NSaved=11 IEnMin=11 EnMin= -703.483585170096     IErMin=11 ErrMin= 5.26D-07
 ErrMax= 5.26D-07  0.00D+00 EMaxC= 1.00D-01 BMatC= 9.29D-11 BMatP= 5.30D-10
 IDIUse=1 WtCom= 1.00D+00 WtEn= 0.00D+00
 Coeff-Com:  0.372D-05 0.277D-05-0.883D-04-0.221D-03-0.991D-03-0.197D-02
 Coeff-Com: -0.423D-02 0.723D-02 0.732D-01 0.340D+00 0.587D+00
 Coeff:      0.372D-05 0.277D-05-0.883D-04-0.221D-03-0.991D-03-0.197D-02
 Coeff:     -0.423D-02 0.723D-02 0.732D-01 0.340D+00 0.587D+00
 Gap=     0.209 Goal=   None    Shift=    0.000
 RMSDP=7.59D-08 MaxDP=2.83D-06 DE=-5.02D-10 OVMax= 4.99D-06

 Cycle  12  Pass 1  IDiag  1:
 E= -703.483585170191     Delta-E=       -0.000000000095 Rises=F Damp=F
 DIIS: error= 9.34D-08 at cycle  12 NSaved=  12.
 NSaved=12 IEnMin=12 EnMin= -703.483585170191     IErMin=12 ErrMin= 9.34D-08
 ErrMax= 9.34D-08  0.00D+00 EMaxC= 1.00D-01 BMatC= 3.46D-12 BMatP= 9.29D-11
 IDIUse=1 WtCom= 1.00D+00 WtEn= 0.00D+00
 Coeff-Com: -0.802D-06 0.447D-05 0.134D-04 0.222D-04 0.426D-04-0.416D-03
 Coeff-Com: -0.341D-02-0.445D-02-0.386D-02 0.582D-01 0.210D+00 0.744D+00
 Coeff:     -0.802D-06 0.447D-05 0.134D-04 0.222D-04 0.426D-04-0.416D-03
 Coeff:     -0.341D-02-0.445D-02-0.386D-02 0.582D-01 0.210D+00 0.744D+00
 Gap=     0.209 Goal=   None    Shift=    0.000
 RMSDP=1.75D-08 MaxDP=3.63D-07 DE=-9.53D-11 OVMax= 6.32D-07

 Cycle  13  Pass 1  IDiag  1:
 E= -703.483585170193     Delta-E=       -0.000000000002 Rises=F Damp=F
 DIIS: error= 1.31D-08 at cycle  13 NSaved=  13.
 NSaved=13 IEnMin=13 EnMin= -703.483585170193     IErMin=13 ErrMin= 1.31D-08
 ErrMax= 1.31D-08  0.00D+00 EMaxC= 1.00D-01 BMatC= 1.30D-13 BMatP= 3.46D-12
 IDIUse=1 WtCom= 1.00D+00 WtEn= 0.00D+00
 Coeff-Com: -0.383D-06 0.115D-05 0.790D-05 0.173D-04 0.505D-04-0.324D-04
 Coeff-Com: -0.897D-03-0.158D-02-0.448D-02 0.491D-02 0.425D-01 0.223D+00
 Coeff-Com:  0.737D+00
 Coeff:     -0.383D-06 0.115D-05 0.790D-05 0.173D-04 0.505D-04-0.324D-04
 Coeff:     -0.897D-03-0.158D-02-0.448D-02 0.491D-02 0.425D-01 0.223D+00
 Coeff:      0.737D+00
 Gap=     0.209 Goal=   None    Shift=    0.000
 RMSDP=3.56D-09 MaxDP=8.52D-08 DE=-1.82D-12 OVMax= 1.45D-07

 Error on total polarization charges =  0.01358
 SCF Done:  E(RB3LYP) =  -703.483585170     A.U. after   13 cycles
            NFock= 13  Conv=0.36D-08     -V/T= 2.0059
 KE= 6.993363934606D+02 PE=-2.544382161724D+03 EE= 6.903122065240D+02
 Leave Link  502 at Sun Jul 11 16:21:24 2021, MaxMem=   104857600 cpu:              47.3 elap:              12.5
 (Enter /prod/apps/gaussian/g16b1/l601.exe)
 Copying SCF densities to generalized density rwf, IOpCl= 0 IROHF=0.

 **********************************************************************

            Population analysis using the SCF Density.

 **********************************************************************

 Orbital symmetries:
       Occupied  (A) (A) (A) (A) (A) (A) (A) (A) (A) (A) (A) (A)
                 (A) (A) (A) (A) (A) (A) (A) (A) (A) (A) (A) (A)
                 (A) (A) (A) (A) (A) (A) (A) (A) (A) (A)
       Virtual   (A) (A) (A) (A) (A) (A) (A) (A) (A) (A) (A) (A)
                 (A) (A) (A) (A) (A) (A) (A) (A) (A) (A) (A) (A)
                 (A) (A) (A) (A) (A) (A) (A) (A) (A) (A) (A) (A)
                 (A) (A) (A) (A) (A) (A) (A) (A) (A) (A) (A) (A)
                 (A) (A) (A) (A) (A) (A) (A) (A) (A) (A) (A) (A)
                 (A) (A) (A) (A) (A) (A) (A) (A) (A) (A) (A) (A)
                 (A) (A) (A) (A) (A) (A) (A) (A) (A) (A) (A) (A)
                 (A) (A) (A) (A) (A) (A) (A) (A) (A) (A) (A) (A)
                 (A) (A) (A) (A) (A) (A) (A) (A) (A) (A) (A) (A)
 The electronic state is 1-A.
 Alpha  occ. eigenvalues --  -88.92538 -14.45318 -14.35016 -10.26414 -10.25250
 Alpha  occ. eigenvalues --  -10.23321 -10.22522 -10.21612  -7.98802  -5.95169
 Alpha  occ. eigenvalues --   -5.94810  -5.94535  -1.02324  -0.96165  -0.82027
 Alpha  occ. eigenvalues --   -0.81008  -0.73548  -0.66601  -0.60367  -0.60031
 Alpha  occ. eigenvalues --   -0.58756  -0.55699  -0.51520  -0.50767  -0.45645
 Alpha  occ. eigenvalues --   -0.44342  -0.42632  -0.39185  -0.38619  -0.38319
 Alpha  occ. eigenvalues --   -0.37777  -0.29376  -0.28530  -0.24792
 Alpha virt. eigenvalues --   -0.03893   0.00073   0.03502   0.05876   0.09790
 Alpha virt. eigenvalues --    0.10956   0.11941   0.12586   0.12792   0.14000
 Alpha virt. eigenvalues --    0.15678   0.16293   0.17791   0.18528   0.21683
 Alpha virt. eigenvalues --    0.23410   0.24315   0.29335   0.31198   0.36606
 Alpha virt. eigenvalues --    0.38833   0.40314   0.42397   0.49075   0.49371
 Alpha virt. eigenvalues --    0.51966   0.53364   0.54268   0.55396   0.57991
 Alpha virt. eigenvalues --    0.58696   0.62196   0.63859   0.65352   0.67703
 Alpha virt. eigenvalues --    0.70035   0.71748   0.74142   0.75043   0.78711
 Alpha virt. eigenvalues --    0.80243   0.82474   0.83906   0.84273   0.84606
 Alpha virt. eigenvalues --    0.85500   0.87277   0.87965   0.88737   0.90690
 Alpha virt. eigenvalues --    0.93779   0.94789   0.95729   0.99152   1.00170
 Alpha virt. eigenvalues --    1.03292   1.03936   1.06164   1.12536   1.17160
 Alpha virt. eigenvalues --    1.27042   1.27380   1.32801   1.42117   1.43920
 Alpha virt. eigenvalues --    1.47045   1.50894   1.54246   1.61167   1.66848
 Alpha virt. eigenvalues --    1.67850   1.72268   1.81170   1.87451   1.88586
 Alpha virt. eigenvalues --    1.91371   1.93749   1.93986   1.99012   2.01266
 Alpha virt. eigenvalues --    2.08979   2.14213   2.15490   2.21376   2.25743
 Alpha virt. eigenvalues --    2.26816   2.27439   2.28152   2.32902   2.39648
 Alpha virt. eigenvalues --    2.42760   2.45021   2.49126   2.53085   2.60949
 Alpha virt. eigenvalues --    2.63063   2.67045   2.76791   2.92926   2.98164
 Alpha virt. eigenvalues --    3.78146   3.92505   3.95770   4.08742   4.19423
 Alpha virt. eigenvalues --    4.32774   4.38118   4.48160
          Condensed to atoms (all electrons):
               1          2          3          4          5          6
     1  N    6.682342   0.306011   0.291849   0.248413  -0.031144  -0.035744
     2  H    0.306011   0.260795  -0.009736  -0.017620  -0.002265  -0.002478
     3  H    0.291849  -0.009736   0.279395  -0.024473  -0.002630   0.004334
     4  C    0.248413  -0.017620  -0.024473   5.029279   0.379171   0.380005
     5  H   -0.031144  -0.002265  -0.002630   0.379171   0.490052  -0.024614
     6  H   -0.035744  -0.002478   0.004334   0.380005  -0.024614   0.499983
     7  C   -0.052138   0.003705  -0.004083   0.362201  -0.043618  -0.035372
     8  H    0.003981  -0.000105   0.000048  -0.033395   0.000011  -0.005571
     9  H   -0.004303   0.000002  -0.000242  -0.039670   0.005206  -0.001708
    10  C   -0.003007  -0.000100   0.008599  -0.057460  -0.009627   0.006124
    11  N    0.000005  -0.000016   0.000130  -0.009668   0.011227   0.000134
    12  C    0.000037  -0.000001  -0.000147   0.000259  -0.000272   0.000002
    13  H    0.000000  -0.000000  -0.000000   0.000003   0.000003  -0.000000
    14  C   -0.000011   0.000000  -0.000377  -0.000038   0.000026   0.000002
    15  H   -0.000000   0.000000   0.000003   0.000001  -0.000001  -0.000000
    16  S   -0.000209   0.000094   0.010687  -0.004958   0.001459  -0.000201
    17  H    0.302949  -0.009455  -0.010771  -0.019821   0.003329  -0.003314
               7          8          9         10         11         12
     1  N   -0.052138   0.003981  -0.004303  -0.003007   0.000005   0.000037
     2  H    0.003705  -0.000105   0.000002  -0.000100  -0.000016  -0.000001
     3  H   -0.004083   0.000048  -0.000242   0.008599   0.000130  -0.000147
     4  C    0.362201  -0.033395  -0.039670  -0.057460  -0.009668   0.000259
     5  H   -0.043618   0.000011   0.005206  -0.009627   0.011227  -0.000272
     6  H   -0.035372  -0.005571  -0.001708   0.006124   0.000134   0.000002
     7  C    5.123440   0.371250   0.370639   0.350210  -0.055185   0.006101
     8  H    0.371250   0.487013  -0.022451  -0.021835  -0.001240   0.000082
     9  H    0.370639  -0.022451   0.518982  -0.034488   0.003261  -0.000187
    10  C    0.350210  -0.021835  -0.034488   5.047615   0.458566  -0.084755
    11  N   -0.055185  -0.001240   0.003261   0.458566   6.846175   0.399373
    12  C    0.006101   0.000082  -0.000187  -0.084755   0.399373   4.797090
    13  H   -0.000196  -0.000002   0.000002   0.005749  -0.037326   0.374153
    14  C    0.003717  -0.000045   0.000081  -0.050766  -0.060752   0.575742
    15  H   -0.000088   0.000002  -0.000004   0.002916   0.004110  -0.013956
    16  S   -0.059439   0.003674   0.002050   0.294229  -0.094344  -0.083524
    17  H   -0.001342  -0.000022   0.004048  -0.000383   0.000008  -0.000001
              13         14         15         16         17
     1  N    0.000000  -0.000011  -0.000000  -0.000209   0.302949
     2  H   -0.000000   0.000000   0.000000   0.000094  -0.009455
     3  H   -0.000000  -0.000377   0.000003   0.010687  -0.010771
     4  C    0.000003  -0.000038   0.000001  -0.004958  -0.019821
     5  H    0.000003   0.000026  -0.000001   0.001459   0.003329
     6  H   -0.000000   0.000002  -0.000000  -0.000201  -0.003314
     7  C   -0.000196   0.003717  -0.000088  -0.059439  -0.001342
     8  H   -0.000002  -0.000045   0.000002   0.003674  -0.000022
     9  H    0.000002   0.000081  -0.000004   0.002050   0.004048
    10  C    0.005749  -0.050766   0.002916   0.294229  -0.000383
    11  N   -0.037326  -0.060752   0.004110  -0.094344   0.000008
    12  C    0.374153   0.575742  -0.013956  -0.083524  -0.000001
    13  H    0.512967  -0.046674  -0.000914   0.004633   0.000000
    14  C   -0.046674   5.256093   0.351327   0.324299  -0.000000
    15  H   -0.000914   0.351327   0.476993  -0.038264   0.000000
    16  S    0.004633   0.324299  -0.038264  15.358736   0.000267
    17  H    0.000000  -0.000000   0.000000   0.000267   0.269141
 Mulliken charges:
               1
     1  N   -0.709030
     2  H    0.471168
     3  H    0.457414
     4  C   -0.192228
     5  H    0.223689
     6  H    0.218418
     7  C   -0.339803
     8  H    0.218603
     9  H    0.198779
    10  C    0.088414
    11  N   -0.464458
    12  C    0.030002
    13  H    0.187601
    14  C   -0.352624
    15  H    0.217875
    16  S    0.280811
    17  H    0.465369
 Sum of Mulliken charges =   1.00000
 Mulliken charges with hydrogens summed into heavy atoms:
               1
     1  N    0.684921
     4  C    0.249878
     7  C    0.077580
    10  C    0.088414
    11  N   -0.464458
    12  C    0.217603
    14  C   -0.134749
    16  S    0.280811
 Electronic spatial extent (au):  <R**2>=           1152.9466
 Charge=              1.0000 electrons
 Dipole moment (field-independent basis, Debye):
    X=             10.8593    Y=             -4.7016    Z=             -2.5910  Tot=             12.1137
 Quadrupole moment (field-independent basis, Debye-Ang):
   XX=            -12.5924   YY=            -50.0311   ZZ=            -48.1969
   XY=             -5.8050   XZ=             -4.7536   YZ=              2.4932
 Traceless Quadrupole moment (field-independent basis, Debye-Ang):
   XX=             24.3478   YY=            -13.0910   ZZ=            -11.2568
   XY=             -5.8050   XZ=             -4.7536   YZ=              2.4932
 Octapole moment (field-independent basis, Debye-Ang**2):
  XXX=             84.2082  YYY=            -17.1711  ZZZ=             -8.5387  XYY=             16.3055
  XXY=            -23.7273  XXZ=            -27.1794  XZZ=             22.5155  YZZ=             -2.6211
  YYZ=             -3.7670  XYZ=              9.3209
 Hexadecapole moment (field-independent basis, Debye-Ang**3):
 XXXX=           -628.4054 YYYY=           -341.5619 ZZZZ=           -153.6081 XXXY=            -64.2370
 XXXZ=            -55.9048 YYYX=            -14.1412 YYYZ=              6.6766 ZZZX=            -27.8660
 ZZZY=              8.4646 XXYY=           -163.4137 XXZZ=           -152.4867 YYZZ=            -77.1617
 XXYZ=              8.7335 YYXZ=              1.7374 ZZXY=            -14.6204
 N-N= 4.512499765687D+02 E-N=-2.544382159737D+03  KE= 6.993363934606D+02
 No NMR shielding tensors so no spin-rotation constants.
 Leave Link  601 at Sun Jul 11 16:21:24 2021, MaxMem=   104857600 cpu:               0.3 elap:               0.1
 (Enter /prod/apps/gaussian/g16b1/l701.exe)
 ... and contract with generalized density number  0.
 Compute integral first derivatives.
 D1PCM: PCM CHGder 1st derivatives, ID1Alg=3 FixD1E=F DoIter=F DoCFld=F I1PDM=0.
 GePol: Maximum number of non-zero 1st derivatives   =     283
 Leave Link  701 at Sun Jul 11 16:21:25 2021, MaxMem=   104857600 cpu:               2.7 elap:               0.7
 (Enter /prod/apps/gaussian/g16b1/l702.exe)
 L702 exits ... SP integral derivatives will be done elsewhere.
 Leave Link  702 at Sun Jul 11 16:21:25 2021, MaxMem=   104857600 cpu:               0.1 elap:               0.0
 (Enter /prod/apps/gaussian/g16b1/l703.exe)
 Integral derivatives from FoFJK, PRISM(SPDF).
 Compute integral first derivatives, UseDBF=F ICtDFT=           0.
 Calling FoFJK, ICntrl=      2127 FMM=F ISym2X=0 I1Cent= 0 IOpClX= 0 NMat=1 NMatS=1 NMatT=0.
 FoFJK:  IHMeth= 1 ICntrl=    2127 DoSepK=F KAlg= 0 I1Cent=           0 FoldK=F
 IRaf=         0 NMat=       1 IRICut=       1 DoRegI=T DoRafI=F ISym2E= 0 IDoP0=0 IntGTp=1.
 FoFCou: FMM=F IPFlag=           0 FMFlag=      100000 FMFlg1=         800
         NFxFlg=           0 DoJE=F BraDBF=F KetDBF=F FulRan=T
         wScrn=  0.000000 ICntrl=      2127 IOpCl=  0 I1Cent=           0 NGrid=           0
         NMat0=    1 NMatS0=      1 NMatT0=    0 NMatD0=    1 NMtDS0=    0 NMtDT0=    0
 Symmetry not used in FoFCou.
 Leave Link  703 at Sun Jul 11 16:21:28 2021, MaxMem=   104857600 cpu:              11.1 elap:               2.8
 (Enter /prod/apps/gaussian/g16b1/l716.exe)
 Dipole        = 4.27236952D+00-1.84973712D+00-1.01936040D+00
 ***** Axes restored to original set *****
 -------------------------------------------------------------------
 Center     Atomic                   Forces (Hartrees/Bohr)
 Number     Number              X              Y              Z
 -------------------------------------------------------------------
      1        7          -0.008063227   -0.024372487    0.001572299
      2        1          -0.019876860    0.024943769    0.000984539
      3        1           0.012728348    0.010887483   -0.027042077
      4        6          -0.027970761   -0.022368319    0.020097785
      5        1           0.000442746    0.011076639    0.000281705
      6        1          -0.002071724    0.006944790   -0.001665653
      7        6           0.012910826    0.010399927    0.012943759
      8        1           0.003815060   -0.006969774   -0.008748112
      9        1           0.002389436   -0.002212127    0.001413226
     10        6          -0.029717947   -0.008838445   -0.024635255
     11        7           0.022782350   -0.002965485   -0.020529413
     12        6           0.022948145    0.012161478    0.036525652
     13        1          -0.000778207   -0.000977474    0.003345244
     14        6          -0.017366977   -0.011806707   -0.026602901
     15        1          -0.010055135    0.002894659   -0.009862560
     16       16           0.017853159   -0.008638626    0.024625499
     17        1           0.020030768    0.009840699    0.017296263
 -------------------------------------------------------------------
 Cartesian Forces:  Max     0.036525652 RMS     0.015868613
 Leave Link  716 at Sun Jul 11 16:21:28 2021, MaxMem=   104857600 cpu:               0.1 elap:               0.0
 (Enter /prod/apps/gaussian/g16b1/l103.exe)

 GradGradGradGradGradGradGradGradGradGradGradGradGradGradGradGradGradGrad
 Berny optimization.
 FormGI is forming the generalized inverse of G from B-inverse, IUseBI=4.
 GSVD:  received Info=                   1 from GESDD.
 Internal  Forces:  Max     0.031465736 RMS     0.011014414
 Search for a local minimum.
 Step number   1 out of a maximum of   92
 All quantities printed in internal units (Hartrees-Bohrs-Radians)
 RMS Force = .11014D-01 SwitMx=.10000D-02 MixMth= 1
 Mixed Optimization -- RFO/linear search
 Second derivative matrix not updated -- first step.
 ITU=  0
     Eigenvalues ---    0.00719   0.00900   0.01093   0.01496   0.01835
     Eigenvalues ---    0.01992   0.02110   0.02201   0.03736   0.04686
     Eigenvalues ---    0.05148   0.05882   0.06154   0.06156   0.08853
     Eigenvalues ---    0.08938   0.12524   0.12600   0.15858   0.15939
     Eigenvalues ---    0.16000   0.16000   0.16000   0.21868   0.22005
     Eigenvalues ---    0.22347   0.24492   0.24560   0.30398   0.32012
     Eigenvalues ---    0.34399   0.34422   0.34504   0.34572   0.35118
     Eigenvalues ---    0.35662   0.35731   0.36763   0.36980   0.40504
     Eigenvalues ---    0.45414   0.47612   0.47684   0.47691   0.57400
 RFO step:  Lambda=-4.04439627D-02 EMin= 7.19487570D-03
 Linear search not attempted -- first point.
 Iteration  1 RMS(Cart)=  0.11392019 RMS(Int)=  0.00533335
 Iteration  2 RMS(Cart)=  0.00675467 RMS(Int)=  0.00207099
 Iteration  3 RMS(Cart)=  0.00003341 RMS(Int)=  0.00207080
 Iteration  4 RMS(Cart)=  0.00000009 RMS(Int)=  0.00207080
 ITry= 1 IFail=0 DXMaxC= 3.73D-01 DCOld= 1.00D+10 DXMaxT= 3.00D-01 DXLimC= 3.00D+00 Rises=F
 Variable       Old X    -DE/DX   Delta X   Delta X   Delta X     New X
                                 (Linear)    (Quad)   (Total)
    R1        1.88970   0.03147   0.00000   0.06082   0.06082   1.95052
    R2        1.89055   0.03051   0.00000   0.05906   0.05906   1.94961
    R3        2.75877   0.02247   0.00000   0.05478   0.05478   2.81355
    R4        1.88977   0.02778   0.00000   0.05371   0.05371   1.94347
    R5        2.06661  -0.00283   0.00000  -0.00737  -0.00737   2.05924
    R6        2.06623  -0.00110   0.00000  -0.00287  -0.00287   2.06337
    R7        2.84123   0.03009   0.00000   0.08345   0.08345   2.92468
    R8        2.06375  -0.00041   0.00000  -0.00107  -0.00107   2.06268
    R9        2.06487   0.00217   0.00000   0.00562   0.00562   2.07049
   R10        2.78784   0.02059   0.00000   0.05258   0.05258   2.84043
   R11        2.51168  -0.01859   0.00000  -0.03131  -0.03056   2.48111
   R12        3.29340   0.00580   0.00000   0.01938   0.01877   3.31218
   R13        2.69494  -0.02708   0.00000  -0.06421  -0.06300   2.63195
   R14        2.04504  -0.00150   0.00000  -0.00378  -0.00378   2.04126
   R15        2.62473  -0.02320   0.00000  -0.04544  -0.04524   2.57949
   R16        2.04614  -0.00025   0.00000  -0.00063  -0.00063   2.04551
   R17        3.18134   0.02194   0.00000   0.05715   0.05606   3.23740
    A1        1.91145  -0.00744   0.00000  -0.03878  -0.03921   1.87223
    A2        1.91010   0.00395   0.00000   0.01764   0.01735   1.92745
    A3        1.91041  -0.00471   0.00000  -0.02598  -0.02607   1.88434
    A4        1.91029   0.01005   0.00000   0.05138   0.05071   1.96100
    A5        1.91085  -0.00604   0.00000  -0.02594  -0.02678   1.88408
    A6        1.91070   0.00419   0.00000   0.02173   0.02123   1.93193
    A7        1.95650  -0.00793   0.00000  -0.05933  -0.05957   1.89693
    A8        1.88595  -0.00328   0.00000  -0.02642  -0.02688   1.85907
    A9        2.00381   0.00037   0.00000   0.00292   0.00335   2.00716
   A10        1.88191   0.00046   0.00000   0.00170  -0.00105   1.88086
   A11        1.86630   0.00687   0.00000   0.04807   0.04782   1.91413
   A12        1.86393   0.00407   0.00000   0.03761   0.03735   1.90127
   A13        1.81764  -0.00112   0.00000   0.00963   0.01235   1.82998
   A14        1.90640  -0.00410   0.00000   0.01009   0.00899   1.91538
   A15        1.92006   0.02212   0.00000   0.09202   0.09180   2.01186
   A16        1.86407   0.00305   0.00000  -0.00210  -0.00408   1.85999
   A17        2.00771  -0.01490   0.00000  -0.09605  -0.09687   1.91085
   A18        1.94198  -0.00510   0.00000  -0.01108  -0.01441   1.92757
   A19        2.10582   0.00503   0.00000   0.02080   0.02102   2.12684
   A20        2.16841   0.00044   0.00000   0.00577   0.00598   2.17439
   A21        1.98351  -0.00404   0.00000  -0.00172  -0.00816   1.97535
   A22        1.93295   0.00611   0.00000   0.01434   0.01027   1.94322
   A23        2.12761  -0.01112   0.00000  -0.04309  -0.04287   2.08474
   A24        1.95002   0.01727   0.00000   0.06715   0.06230   2.01232
   A25        2.20147  -0.00565   0.00000  -0.01558  -0.01536   2.18611
   A26        2.30108  -0.00346   0.00000  -0.03379  -0.03106   2.27002
   A27        1.96354  -0.01323   0.00000  -0.03747  -0.04354   1.92000
   A28        2.01003   0.01614   0.00000   0.06376   0.06542   2.07544
   A29        1.56142  -0.00236   0.00000   0.02212   0.01201   1.57343
    D1        0.98967  -0.00279   0.00000  -0.01703  -0.01648   0.97319
    D2       -1.08165   0.00345   0.00000   0.03304   0.03261  -1.04903
    D3        3.12377   0.00037   0.00000   0.00224   0.00237   3.12614
    D4       -1.10518  -0.00226   0.00000  -0.01178  -0.01120  -1.11639
    D5        3.10668   0.00399   0.00000   0.03830   0.03789  -3.13862
    D6        1.02891   0.00091   0.00000   0.00750   0.00765   1.03656
    D7        3.08350  -0.00358   0.00000  -0.02476  -0.02449   3.05902
    D8        1.01219   0.00266   0.00000   0.02531   0.02460   1.03679
    D9       -1.06558  -0.00042   0.00000  -0.00549  -0.00564  -1.07122
   D10        2.80066   0.00391   0.00000   0.03605   0.03558   2.83625
   D11        0.81438   0.00274   0.00000   0.02937   0.03012   0.84450
   D12       -1.32194  -0.00249   0.00000  -0.02272  -0.02279  -1.34474
   D13       -1.30038  -0.00081   0.00000  -0.00184  -0.00279  -1.30317
   D14        2.99653  -0.00198   0.00000  -0.00852  -0.00826   2.98827
   D15        0.86020  -0.00722   0.00000  -0.06060  -0.06117   0.79903
   D16        0.71063   0.00494   0.00000   0.04105   0.04087   0.75150
   D17       -1.27565   0.00377   0.00000   0.03437   0.03540  -1.24025
   D18        2.87121  -0.00146   0.00000  -0.01771  -0.01751   2.85370
   D19       -1.31635  -0.00114   0.00000  -0.01399  -0.01341  -1.32976
   D20        1.56928   0.00540   0.00000   0.10885   0.11082   1.68010
   D21        0.72916   0.00351   0.00000   0.00151  -0.00150   0.72767
   D22       -2.66840   0.01005   0.00000   0.12434   0.12273  -2.54566
   D23        2.85168  -0.00754   0.00000  -0.08153  -0.08119   2.77050
   D24       -0.54588  -0.00101   0.00000   0.04131   0.04304  -0.50283
   D25        3.08727  -0.00164   0.00000  -0.03499  -0.03602   3.05126
   D26        0.17620  -0.00798   0.00000  -0.14625  -0.14862   0.02758
   D27       -3.12761   0.00556   0.00000   0.09225   0.09354  -3.03407
   D28       -0.22608   0.01283   0.00000   0.21035   0.21194  -0.01414
   D29        3.03382   0.00484   0.00000   0.08139   0.08007   3.11388
   D30       -0.01638  -0.00060   0.00000  -0.01298  -0.01515  -0.03154
   D31        2.83707   0.00663   0.00000   0.11443   0.11737   2.95444
   D32       -0.15467   0.01033   0.00000   0.17449   0.17511   0.02044
   D33       -0.20844   0.00119   0.00000   0.01667   0.01721  -0.19123
   D34        3.08300   0.00489   0.00000   0.07673   0.07495  -3.12523
   D35        0.20953  -0.01390   0.00000  -0.21645  -0.21334  -0.00381
   D36       -2.80888  -0.00955   0.00000  -0.15974  -0.15534  -2.96421
         Item               Value     Threshold  Converged?
 Maximum Force            0.031466     0.000450     NO 
 RMS     Force            0.011014     0.000300     NO 
 Maximum Displacement     0.373070     0.001800     NO 
 RMS     Displacement     0.112132     0.001200     NO 
 Predicted change in Energy=-2.703859D-02
 Lowest energy point so far.  Saving SCF results.
 GradGradGradGradGradGradGradGradGradGradGradGradGradGradGradGradGradGrad

 Leave Link  103 at Sun Jul 11 16:21:28 2021, MaxMem=   104857600 cpu:               0.1 elap:               0.0
 (Enter /prod/apps/gaussian/g16b1/l202.exe)
                          Input orientation:                          
 ---------------------------------------------------------------------
 Center     Atomic      Atomic             Coordinates (Angstroms)
 Number     Number       Type             X           Y           Z
 ---------------------------------------------------------------------
      1          7           0       -0.402824    2.106484    1.329401
      2          1           0       -1.155350    2.800629    1.460713
      3          1           0       -0.000429    2.264467    0.392652
      4          6           0       -0.935318    0.725578    1.491490
      5          1           0       -1.763601    0.587044    0.797075
      6          1           0       -1.336622    0.664613    2.505124
      7          6           0        0.104383   -0.403755    1.294206
      8          1           0       -0.350848   -1.285619    1.748630
      9          1           0        1.006002   -0.182577    1.876124
     10          6           0        0.462200   -0.704125   -0.134437
     11          7           0       -0.340702   -1.381215   -0.922304
     12          6           0        0.151497   -1.432706   -2.224181
     13          1           0       -0.395097   -1.981278   -2.977248
     14          6           0        1.318531   -0.756419   -2.433727
     15          1           0        1.983337   -0.762145   -3.287935
     16         16           0        1.857997   -0.050420   -0.968988
     17          1           0        0.329845    2.297445    2.025406
 ---------------------------------------------------------------------
                    Distance matrix (angstroms):
                    1          2          3          4          5
     1  N    0.000000
     2  H    1.032170   0.000000
     3  H    1.031688   1.661947   0.000000
     4  C    1.488867   2.086912   2.109418   0.000000
     5  H    2.108028   2.389633   2.466999   1.089705   0.000000
     6  H    2.081657   2.384580   2.967741   1.091886   1.762316
     7  C    2.561210   3.447134   2.818367   1.547673   2.172138
     8  H    3.418306   4.174631   3.816357   2.110127   2.531441
     9  H    2.742899   3.707226   3.033416   2.177478   3.070401
    10  C    3.284906   4.176634   3.050309   2.576964   2.736607
    11  N    4.151877   4.881623   3.890488   3.258611   2.975727
    12  C    5.045898   5.762588   4.532106   4.432332   4.107917
    13  H    5.937768   6.568114   5.434919   5.252478   4.765983
    14  C    5.031939   5.825748   4.342099   4.762717   4.662886
    15  H    5.936547   6.715234   5.161630   5.794373   5.705012
    16  S    3.878936   4.807514   3.265963   3.802464   4.079376
    17  H    1.028442   1.666696   1.666150   2.087216   2.969307
                    6          7          8          9         10
     6  H    0.000000
     7  C    2.164307   0.000000
     8  H    2.312452   1.091522   0.000000
     9  H    2.569292   1.095657   1.753282   0.000000
    10  C    3.475124   1.503089   2.131930   2.147112   0.000000
    11  N    4.113943   2.463016   2.672664   3.328895   1.312949
    12  C    5.383268   3.666062   4.007146   4.370984   2.234815
    13  H    6.159838   4.580762   4.777011   5.362241   3.232283
    14  C    5.784584   3.936497   4.534202   4.359103   2.454133
    15  H    6.827686   4.965373   5.575790   5.287587   3.501681
    16  S    4.773502   2.884798   3.713511   2.972881   1.752728
    17  H    2.381886   2.807485   3.657635   2.574875   3.700252
                   11         12         13         14         15
    11  N    0.000000
    12  C    1.392765   0.000000
    13  H    2.141455   1.080188   0.000000
    14  C    2.329769   1.365007   2.175366   0.000000
    15  H    3.373516   2.221905   2.690680   1.082437   0.000000
    16  S    2.570500   2.529499   3.582981   1.713160   2.428945
    17  H    4.761425   5.657281   6.622656   5.494311   6.350333
                   16         17
    16  S    0.000000
    17  H    4.100503   0.000000
 Stoichiometry    C5H9N2S(1+)
 Framework group  C1[X(C5H9N2S)]
 Deg. of freedom    45
 Full point group                 C1      NOp   1
 RotChk:  IX=0 Diff= 8.70D-02
 Largest Abelian subgroup         C1      NOp   1
 Largest concise Abelian subgroup C1      NOp   1
                         Standard orientation:                         
 ---------------------------------------------------------------------
 Center     Atomic      Atomic             Coordinates (Angstroms)
 Number     Number       Type             X           Y           Z
 ---------------------------------------------------------------------
      1          7           0        2.670556   -0.717795   -0.727813
      2          1           0        3.389551   -0.599648   -1.458883
      3          1           0        1.862068   -1.185412   -1.166062
      4          6           0        2.310093    0.599749   -0.135471
      5          1           0        1.992671    1.267370   -0.936084
      6          1           0        3.226860    1.007886    0.294852
      7          6           0        1.220134    0.547302    0.962040
      8          1           0        1.309127    1.498289    1.490361
      9          1           0        1.462826   -0.237080    1.687512
     10          6           0       -0.187361    0.381853    0.461178
     11          7           0       -0.853661    1.377933   -0.075203
     12          6           0       -2.086770    0.956416   -0.566693
     13          1           0       -2.754969    1.677825   -1.013779
     14          6           0       -2.341429   -0.378246   -0.436046
     15          1           0       -3.260498   -0.930076   -0.585933
     16         16           0       -1.030228   -1.150916    0.350497
     17          1           0        3.049744   -1.347907   -0.008877
 ---------------------------------------------------------------------
 Rotational constants (GHZ):           3.2999131           1.1303039           0.9801713
 Leave Link  202 at Sun Jul 11 16:21:28 2021, MaxMem=   104857600 cpu:               0.1 elap:               0.0
 (Enter /prod/apps/gaussian/g16b1/l301.exe)
 Standard basis: 6-31G(d) (6D, 7F)
 Ernie: Thresh=  0.10000D-02 Tol=  0.10000D-05 Strict=F.
 There are   142 symmetry adapted cartesian basis functions of A   symmetry.
 There are   142 symmetry adapted basis functions of A   symmetry.
   142 basis functions,   284 primitive gaussians,   142 cartesian basis functions
    34 alpha electrons       34 beta electrons
       nuclear repulsion energy       443.2137953363 Hartrees.
 IExCor=  402 DFT=T Ex+Corr=B3LYP ExCW=0 ScaHFX=  0.200000
 ScaDFX=  0.800000  0.720000  1.000000  0.810000 ScalE2=  1.000000  1.000000
 IRadAn=      5 IRanWt=     -1 IRanGd=            0 ICorTp=0 IEmpDi=  4
 NAtoms=   17 NActive=   17 NUniq=   17 SFac= 1.00D+00 NAtFMM=   60 NAOKFM=F Big=F
 Integral buffers will be    131072 words long.
 Raffenetti 2 integral format.
 Two-electron integral symmetry is turned on.
 ------------------------------------------------------------------------------
 Polarizable Continuum Model (PCM)
 =================================
 Model                : PCM.
 Atomic radii         : MST.
 Polarization charges : Total charges.
 Charge compensation  : None.
 Solution method      : On-the-fly selection.
 Cavity type          : Scaled VdW (van der Waals Surface) (Alpha=1.250).
 Cavity algorithm     : GePol (No added spheres)
                        Default sphere list used, NSphG=   17.
                        Lebedev-Laikov grids with approx.  5.0 points / Ang**2.
                        Smoothing algorithm: York/Karplus (Gamma=1.0000).
                        Polarization charges: spherical gaussians, with
                                              point-specific exponents (IZeta= 3).
                        Self-potential: point-specific (ISelfS= 7).
                        Self-field    : sphere-specific E.n sum rule (ISelfD= 2).
 1st derivatives      : Analytical E(r).r(x)/FMM algorithm (CHGder, D1EAlg=3).
                        Cavity 1st derivative terms included.
 Solvent              : Water, Eps=  78.355300 Eps(inf)=   1.777849
 ------------------------------------------------------------------------------
 Spheres list:
 ISph  on   Nord     Re0    Alpha      Xe            Ye            Ze
    1   N      1    1.7000  1.150      2.670556     -0.717795     -0.727813
    2   H      2    0.9000  1.150      3.389551     -0.599648     -1.458883
    3   H      3    0.9000  1.150      1.862068     -1.185412     -1.166062
    4   C      4    1.5000  1.250      2.310093      0.599749     -0.135471
    5   H      5    1.2000  1.250      1.992671      1.267370     -0.936084
    6   H      6    1.2000  1.250      3.226860      1.007886      0.294852
    7   C      7    1.5000  1.250      1.220134      0.547302      0.962040
    8   H      8    1.2000  1.250      1.309127      1.498289      1.490361
    9   H      9    1.2000  1.250      1.462826     -0.237080      1.687512
   10   C     10    1.5000  1.250     -0.187361      0.381853      0.461178
   11   N     11    1.4000  1.250     -0.853661      1.377933     -0.075203
   12   C     12    1.5000  1.250     -2.086770      0.956416     -0.566693
   13   H     13    1.2000  1.250     -2.754969      1.677825     -1.013779
   14   C     14    1.5000  1.250     -2.341429     -0.378246     -0.436046
   15   H     15    1.2000  1.250     -3.260498     -0.930076     -0.585933
   16   S     16    1.7500  1.250     -1.030228     -1.150916      0.350497
   17   H     17    0.9000  1.150      3.049744     -1.347907     -0.008877
 ------------------------------------------------------------------------------
 GePol: Number of generator spheres                  =      17
 GePol: Total number of spheres                      =      17
 GePol: Number of exposed spheres                    =      17 (100.00%)
 GePol: Number of points                             =    1319
 GePol: Average weight of points                     =       0.14
 GePol: Minimum weight of points                     =   0.18D-08
 GePol: Maximum weight of points                     =    0.22001
 GePol: Number of points with low weight             =      75
 GePol: Fraction of low-weight points (<1% of avg)   =       5.69%
 GePol: Cavity surface area                          =    179.793 Ang**2
 GePol: Cavity volume                                =    159.989 Ang**3
 PCM non-electrostatic energy =         0.0002716084 Hartrees.
 Nuclear repulsion after PCM non-electrostatic terms =      443.2140669448 Hartrees.
 Leave Link  301 at Sun Jul 11 16:21:28 2021, MaxMem=   104857600 cpu:               0.3 elap:               0.1
 (Enter /prod/apps/gaussian/g16b1/l302.exe)
 NPDir=0 NMtPBC=     1 NCelOv=     1 NCel=       1 NClECP=     1 NCelD=      1
         NCelK=      1 NCelE2=     1 NClLst=     1 CellRange=     0.0.
 One-electron integrals computed using PRISM.
 One-electron integral symmetry used in STVInt
 NBasis=   142 RedAO= T EigKep=  2.46D-03  NBF=   142
 NBsUse=   142 1.00D-06 EigRej= -1.00D+00 NBFU=   142
 Precomputing XC quadrature grid using
 IXCGrd= 4 IRadAn=           5 IRanWt=          -1 IRanGd=           0 AccXCQ= 0.00D+00.
 Generated NRdTot=       0 NPtTot=           0 NUsed=           0 NTot=          32
 NSgBfM=   142   142   142   142   142 MxSgAt=    17 MxSgA2=    17.
 Leave Link  302 at Sun Jul 11 16:21:28 2021, MaxMem=   104857600 cpu:               0.7 elap:               0.2
 (Enter /prod/apps/gaussian/g16b1/l303.exe)
 DipDrv:  MaxL=1.
 Leave Link  303 at Sun Jul 11 16:21:28 2021, MaxMem=   104857600 cpu:               0.1 elap:               0.0
 (Enter /prod/apps/gaussian/g16b1/l401.exe)
 Initial guess from the checkpoint file:  "SET_328_BBB87_conf1.geo_285_285.chk"
 B after Tr=    -0.000000   -0.000000    0.000000
         Rot=    0.999871   -0.011045    0.011306    0.002729 Ang=  -1.84 deg.
 Guess basis will be translated and rotated to current coordinates.
 JPrj=2 DoOrth=T DoCkMO=T.
 Generating alternative initial guess.
 ExpMin= 1.17D-01 ExpMax= 2.19D+04 ExpMxC= 3.30D+03 IAcc=3 IRadAn=         5 AccDes= 0.00D+00
 Harris functional with IExCor=  402 and IRadAn=       5 diagonalized for initial guess.
 HarFok:  IExCor=  402 AccDes= 0.00D+00 IRadAn=         5 IDoV= 1 UseB2=F ITyADJ=14
 ICtDFT=  3500011 ScaDFX=  1.000000  1.000000  1.000000  1.000000
 FoFCou: FMM=F IPFlag=           0 FMFlag=      100000 FMFlg1=           0
         NFxFlg=           0 DoJE=T BraDBF=F KetDBF=T FulRan=T
         wScrn=  0.000000 ICntrl=       500 IOpCl=  0 I1Cent=   200000004 NGrid=           0
         NMat0=    1 NMatS0=      1 NMatT0=    0 NMatD0=    1 NMtDS0=    0 NMtDT0=    0
 Petite list used in FoFCou.
 Harris En= -703.379675173501    
 Leave Link  401 at Sun Jul 11 16:21:29 2021, MaxMem=   104857600 cpu:               2.8 elap:               0.7
 (Enter /prod/apps/gaussian/g16b1/l502.exe)
 Keep R1 ints in memory in canonical form, NReq=55421297.
 FoFCou: FMM=F IPFlag=           0 FMFlag=           0 FMFlg1=           0
         NFxFlg=           0 DoJE=F BraDBF=F KetDBF=F FulRan=T
         wScrn=  0.000000 ICntrl=       600 IOpCl=  0 I1Cent=           0 NGrid=           0
         NMat0=    1 NMatS0=  10153 NMatT0=    0 NMatD0=    1 NMtDS0=    0 NMtDT0=    0
 Symmetry not used in FoFCou.
 Two-electron integral symmetry not used.
 Closed shell SCF:
 Using DIIS extrapolation, IDIIS=  1040.
 NGot=   104857600 LenX=    53267901 LenY=    53247296
 Requested convergence on RMS density matrix=1.00D-08 within 128 cycles.
 Requested convergence on MAX density matrix=1.00D-06.
 Requested convergence on             energy=1.00D-06.
 No special actions if energy rises.

 Cycle   1  Pass 1  IDiag  1:
 Inv3:  Mode=1 IEnd=     5219283.
 Iteration    1 A*A^-1 deviation from unit magnitude is 2.78D-15 for     35.
 Iteration    1 A*A^-1 deviation from orthogonality  is 1.78D-15 for   1179    196.
 Iteration    1 A^-1*A deviation from unit magnitude is 3.00D-15 for    564.
 Iteration    1 A^-1*A deviation from orthogonality  is 2.55D-15 for    634    619.
 E= -703.484518413642    
 DIIS: error= 5.84D-03 at cycle   1 NSaved=   1.
 NSaved= 1 IEnMin= 1 EnMin= -703.484518413642     IErMin= 1 ErrMin= 5.84D-03
 ErrMax= 5.84D-03  0.00D+00 EMaxC= 1.00D-01 BMatC= 1.10D-02 BMatP= 1.10D-02
 IDIUse=3 WtCom= 9.42D-01 WtEn= 5.84D-02
 Coeff-Com:  0.100D+01
 Coeff-En:   0.100D+01
 Coeff:      0.100D+01
 Gap=     1.602 Goal=   None    Shift=    0.000
 GapD=    1.602 DampG=2.000 DampE=1.000 DampFc=2.0000 IDamp=-1.
 RMSDP=1.52D-03 MaxDP=2.49D-02              OVMax= 4.57D-02

 Cycle   2  Pass 1  IDiag  1:
 E= -703.504230091698     Delta-E=       -0.019711678056 Rises=F Damp=F
 DIIS: error= 3.15D-03 at cycle   2 NSaved=   2.
 NSaved= 2 IEnMin= 2 EnMin= -703.504230091698     IErMin= 2 ErrMin= 3.15D-03
 ErrMax= 3.15D-03  0.00D+00 EMaxC= 1.00D-01 BMatC= 1.54D-03 BMatP= 1.10D-02
 IDIUse=3 WtCom= 9.69D-01 WtEn= 3.15D-02
 Coeff-Com:  0.143D+00 0.857D+00
 Coeff-En:   0.000D+00 0.100D+01
 Coeff:      0.138D+00 0.862D+00
 Gap=     0.217 Goal=   None    Shift=    0.000
 RMSDP=4.64D-04 MaxDP=1.36D-02 DE=-1.97D-02 OVMax= 1.72D-02

 Cycle   3  Pass 1  IDiag  1:
 E= -703.504060536963     Delta-E=        0.000169554736 Rises=F Damp=F
 DIIS: error= 3.29D-03 at cycle   3 NSaved=   3.
 NSaved= 3 IEnMin= 2 EnMin= -703.504230091698     IErMin= 2 ErrMin= 3.15D-03
 ErrMax= 3.29D-03  0.00D+00 EMaxC= 1.00D-01 BMatC= 1.86D-03 BMatP= 1.54D-03
 IDIUse=3 WtCom= 1.48D-01 WtEn= 8.52D-01
 Coeff-Com: -0.373D-01 0.534D+00 0.503D+00
 Coeff-En:   0.000D+00 0.525D+00 0.475D+00
 Coeff:     -0.554D-02 0.526D+00 0.479D+00
 Gap=     0.218 Goal=   None    Shift=    0.000
 RMSDP=2.75D-04 MaxDP=6.92D-03 DE= 1.70D-04 OVMax= 1.28D-02

 Cycle   4  Pass 1  IDiag  1:
 E= -703.505670891318     Delta-E=       -0.001610354356 Rises=F Damp=F
 DIIS: error= 4.68D-04 at cycle   4 NSaved=   4.
 NSaved= 4 IEnMin= 4 EnMin= -703.505670891318     IErMin= 4 ErrMin= 4.68D-04
 ErrMax= 4.68D-04  0.00D+00 EMaxC= 1.00D-01 BMatC= 6.58D-05 BMatP= 1.54D-03
 IDIUse=3 WtCom= 9.95D-01 WtEn= 4.68D-03
 Coeff-Com: -0.257D-01 0.271D+00 0.285D+00 0.469D+00
 Coeff-En:   0.000D+00 0.000D+00 0.000D+00 0.100D+01
 Coeff:     -0.256D-01 0.270D+00 0.284D+00 0.471D+00
 Gap=     0.218 Goal=   None    Shift=    0.000
 RMSDP=5.73D-05 MaxDP=1.93D-03 DE=-1.61D-03 OVMax= 3.00D-03

 Cycle   5  Pass 1  IDiag  1:
 E= -703.505728929470     Delta-E=       -0.000058038152 Rises=F Damp=F
 DIIS: error= 1.16D-04 at cycle   5 NSaved=   5.
 NSaved= 5 IEnMin= 5 EnMin= -703.505728929470     IErMin= 5 ErrMin= 1.16D-04
 ErrMax= 1.16D-04  0.00D+00 EMaxC= 1.00D-01 BMatC= 3.48D-06 BMatP= 6.58D-05
 IDIUse=3 WtCom= 9.99D-01 WtEn= 1.16D-03
 Coeff-Com: -0.698D-02 0.568D-01 0.679D-01 0.219D+00 0.663D+00
 Coeff-En:   0.000D+00 0.000D+00 0.000D+00 0.000D+00 0.100D+01
 Coeff:     -0.697D-02 0.567D-01 0.679D-01 0.219D+00 0.664D+00
 Gap=     0.218 Goal=   None    Shift=    0.000
 RMSDP=1.30D-05 MaxDP=3.18D-04 DE=-5.80D-05 OVMax= 5.00D-04

 Cycle   6  Pass 1  IDiag  1:
 E= -703.505731877871     Delta-E=       -0.000002948401 Rises=F Damp=F
 DIIS: error= 1.89D-05 at cycle   6 NSaved=   6.
 NSaved= 6 IEnMin= 6 EnMin= -703.505731877871     IErMin= 6 ErrMin= 1.89D-05
 ErrMax= 1.89D-05  0.00D+00 EMaxC= 1.00D-01 BMatC= 1.50D-07 BMatP= 3.48D-06
 IDIUse=1 WtCom= 1.00D+00 WtEn= 0.00D+00
 Coeff-Com: -0.759D-03 0.179D-02 0.470D-02 0.437D-01 0.233D+00 0.718D+00
 Coeff:     -0.759D-03 0.179D-02 0.470D-02 0.437D-01 0.233D+00 0.718D+00
 Gap=     0.218 Goal=   None    Shift=    0.000
 RMSDP=3.66D-06 MaxDP=7.73D-05 DE=-2.95D-06 OVMax= 1.45D-04

 Cycle   7  Pass 1  IDiag  1:
 E= -703.505732007675     Delta-E=       -0.000000129804 Rises=F Damp=F
 DIIS: error= 9.63D-06 at cycle   7 NSaved=   7.
 NSaved= 7 IEnMin= 7 EnMin= -703.505732007675     IErMin= 7 ErrMin= 9.63D-06
 ErrMax= 9.63D-06  0.00D+00 EMaxC= 1.00D-01 BMatC= 3.02D-08 BMatP= 1.50D-07
 IDIUse=1 WtCom= 1.00D+00 WtEn= 0.00D+00
 Coeff-Com:  0.299D-03-0.485D-02-0.449D-02 0.181D-03 0.505D-01 0.364D+00
 Coeff-Com:  0.594D+00
 Coeff:      0.299D-03-0.485D-02-0.449D-02 0.181D-03 0.505D-01 0.364D+00
 Coeff:      0.594D+00
 Gap=     0.218 Goal=   None    Shift=    0.000
 RMSDP=1.36D-06 MaxDP=2.88D-05 DE=-1.30D-07 OVMax= 7.52D-05

 Cycle   8  Pass 1  IDiag  1:
 E= -703.505732037361     Delta-E=       -0.000000029686 Rises=F Damp=F
 DIIS: error= 1.86D-06 at cycle   8 NSaved=   8.
 NSaved= 8 IEnMin= 8 EnMin= -703.505732037361     IErMin= 8 ErrMin= 1.86D-06
 ErrMax= 1.86D-06  0.00D+00 EMaxC= 1.00D-01 BMatC= 1.73D-09 BMatP= 3.02D-08
 IDIUse=1 WtCom= 1.00D+00 WtEn= 0.00D+00
 Coeff-Com:  0.167D-03-0.224D-02-0.223D-02-0.206D-02 0.103D-01 0.133D+00
 Coeff-Com:  0.282D+00 0.582D+00
 Coeff:      0.167D-03-0.224D-02-0.223D-02-0.206D-02 0.103D-01 0.133D+00
 Coeff:      0.282D+00 0.582D+00
 Gap=     0.218 Goal=   None    Shift=    0.000
 RMSDP=4.23D-07 MaxDP=1.38D-05 DE=-2.97D-08 OVMax= 3.06D-05

 Cycle   9  Pass 1  IDiag  1:
 E= -703.505732038931     Delta-E=       -0.000000001570 Rises=F Damp=F
[...]
                    CP:  1.95D+00  1.60D+00  1.47D+00  1.22D+00  1.30D+00
                    CP:  1.28D+00
 E= -700.831432862244     Delta-E=       -0.000000001259 Rises=F Damp=F
 DIIS: error= 3.10D-07 at cycle  12 NSaved=  12.
 NSaved=12 IEnMin=12 EnMin= -700.831432862244     IErMin=12 ErrMin= 3.10D-07
 ErrMax= 3.10D-07  0.00D+00 EMaxC= 1.00D-01 BMatC= 5.97D-11 BMatP= 3.69D-10
 IDIUse=1 WtCom= 1.00D+00 WtEn= 0.00D+00
 Coeff-Com: -0.646D-05 0.302D-04 0.150D-03 0.290D-03-0.453D-03-0.390D-02
 Coeff-Com:  0.368D-02 0.201D-01-0.572D-02-0.141D+00-0.102D+00 0.123D+01
 Coeff:     -0.646D-05 0.302D-04 0.150D-03 0.290D-03-0.453D-03-0.390D-02
 Coeff:      0.368D-02 0.201D-01-0.572D-02-0.141D+00-0.102D+00 0.123D+01
 Gap=     0.368 Goal=   None    Shift=    0.000
 RMSDP=1.40D-07 MaxDP=5.41D-06 DE=-1.26D-09 OVMax= 6.81D-06

 Cycle  13  Pass 1  IDiag  1:
 RMSU=  5.88D-08    CP:  7.01D-01  9.67D-01  9.11D-01  1.21D+00  1.58D+00
                    CP:  1.95D+00  1.60D+00  1.47D+00  1.22D+00  1.33D+00
                    CP:  1.44D+00  1.37D+00
 E= -700.831432862467     Delta-E=       -0.000000000223 Rises=F Damp=F
 DIIS: error= 1.48D-07 at cycle  13 NSaved=  13.
 NSaved=13 IEnMin=13 EnMin= -700.831432862467     IErMin=13 ErrMin= 1.48D-07
 ErrMax= 1.48D-07  0.00D+00 EMaxC= 1.00D-01 BMatC= 7.96D-12 BMatP= 5.97D-11
 IDIUse=1 WtCom= 1.00D+00 WtEn= 0.00D+00
 Coeff-Com:  0.120D-06-0.379D-05-0.162D-04 0.183D-04 0.221D-03 0.937D-04
 Coeff-Com: -0.163D-02-0.294D-03 0.175D-01 0.110D-01-0.114D+00-0.156D+00
 Coeff-Com:  0.124D+01
 Coeff:      0.120D-06-0.379D-05-0.162D-04 0.183D-04 0.221D-03 0.937D-04
 Coeff:     -0.163D-02-0.294D-03 0.175D-01 0.110D-01-0.114D+00-0.156D+00
 Coeff:      0.124D+01
 Gap=     0.368 Goal=   None    Shift=    0.000
 RMSDP=4.94D-08 MaxDP=1.53D-06 DE=-2.23D-10 OVMax= 3.36D-06

 Cycle  14  Pass 1  IDiag  1:
 RMSU=  2.25D-08    CP:  7.01D-01  9.67D-01  9.11D-01  1.21D+00  1.58D+00
                    CP:  1.95D+00  1.60D+00  1.47D+00  1.22D+00  1.33D+00
                    CP:  1.47D+00  1.56D+00  1.39D+00
 E= -700.831432862501     Delta-E=       -0.000000000034 Rises=F Damp=F
 DIIS: error= 7.28D-08 at cycle  14 NSaved=  14.
 NSaved=14 IEnMin=14 EnMin= -700.831432862501     IErMin=14 ErrMin= 7.28D-08
 ErrMax= 7.28D-08  0.00D+00 EMaxC= 1.00D-01 BMatC= 1.27D-12 BMatP= 7.96D-12
 IDIUse=1 WtCom= 1.00D+00 WtEn= 0.00D+00
 Coeff-Com:  0.987D-06-0.433D-05-0.237D-04-0.493D-04 0.340D-04 0.709D-03
 Coeff-Com: -0.417D-03-0.385D-02 0.913D-03 0.187D-01 0.334D-01-0.185D+00
 Coeff-Com: -0.175D+00 0.131D+01
 Coeff:      0.987D-06-0.433D-05-0.237D-04-0.493D-04 0.340D-04 0.709D-03
 Coeff:     -0.417D-03-0.385D-02 0.913D-03 0.187D-01 0.334D-01-0.185D+00
 Coeff:     -0.175D+00 0.131D+01
 Gap=     0.368 Goal=   None    Shift=    0.000
 RMSDP=2.34D-08 MaxDP=7.53D-07 DE=-3.41D-11 OVMax= 1.85D-06

 Cycle  15  Pass 1  IDiag  1:
 RMSU=  8.73D-09    CP:  7.01D-01  9.67D-01  9.11D-01  1.21D+00  1.58D+00
                    CP:  1.95D+00  1.60D+00  1.47D+00  1.22D+00  1.33D+00
                    CP:  1.48D+00  1.62D+00  1.57D+00  1.62D+00
 E= -700.831432862504     Delta-E=       -0.000000000003 Rises=F Damp=F
 DIIS: error= 2.19D-08 at cycle  15 NSaved=  15.
 NSaved=15 IEnMin=15 EnMin= -700.831432862504     IErMin=15 ErrMin= 2.19D-08
 ErrMax= 2.19D-08  0.00D+00 EMaxC= 1.00D-01 BMatC= 1.86D-13 BMatP= 1.27D-12
 IDIUse=1 WtCom= 1.00D+00 WtEn= 0.00D+00
 Coeff-Com:  0.804D-08 0.494D-06 0.157D-05-0.595D-05-0.321D-04 0.193D-04
 Coeff-Com:  0.248D-03-0.220D-03-0.195D-02-0.179D-02 0.185D-01 0.167D-01
 Coeff-Com: -0.202D+00 0.576D-01 0.111D+01
 Coeff:      0.804D-08 0.494D-06 0.157D-05-0.595D-05-0.321D-04 0.193D-04
 Coeff:      0.248D-03-0.220D-03-0.195D-02-0.179D-02 0.185D-01 0.167D-01
 Coeff:     -0.202D+00 0.576D-01 0.111D+01
 Gap=     0.368 Goal=   None    Shift=    0.000
 RMSDP=8.12D-09 MaxDP=2.80D-07 DE=-2.73D-12 OVMax= 6.16D-07

 SCF Done:  E(RHF) =  -700.831432863     A.U. after   15 cycles
            NFock= 15  Conv=0.81D-08     -V/T= 2.0007
 KE= 7.003270268111D+02 PE=-2.535367679677D+03 EE= 6.875963134111D+02
 Leave Link  502 at Sun Jul 11 16:29:46 2021, MaxMem=   262144000 cpu:             224.8 elap:              56.2
 (Enter /prod/apps/gaussian/g16b1/l801.exe)
 ExpMin= 2.97D-02 ExpMax= 1.11D+05 ExpMxC= 1.07D+03 IAcc=3 IRadAn=         5 AccDes= 0.00D+00
 HarFok:  IExCor=  205 AccDes= 0.00D+00 IRadAn=         5 IDoV=-2 UseB2=F ITyADJ=14
 ICtDFT= 12500011 ScaDFX=  1.000000  1.000000  1.000000  1.000000
 Largest valence mixing into a core orbital is  3.20D-04
 Largest core mixing into a valence orbital is  8.80D-05
 Range of M.O.s used for correlation:    13   269
 NBasis=   269 NAE=    34 NBE=    34 NFC=    12 NFV=     0
 NROrb=    257 NOA=    22 NOB=    22 NVA=   235 NVB=   235

 **** Warning!!: The largest alpha MO coefficient is  0.50490368D+02

 Leave Link  801 at Sun Jul 11 16:29:46 2021, MaxMem=   262144000 cpu:               0.5 elap:               0.1
 (Enter /prod/apps/gaussian/g16b1/l906.exe)
 FulOut=F Deriv=F AODrv=F NAtomX=    17
   MMem=          42  MDisk=          22 MDiskD=          22
  W3Min=     1473450 MinDsk=     1955505 NBas6D=         285
 NBas2D=       41124    NTT=       40755    LW2=     2000000
    MDV=   261532307 MDiskM=       12647 NBas2p=       40543
 Fully direct method using O(OVN) memory.
 IMap=   1   2   3   4   5   6   7   8   9  10  11  12  13  14  15  16  17  18  19  20
 IMap=  21  22
 JobTyp=1 Pass  1:  I=   1 to  22 NPSUse=  4 ParTrn=T ParDer=T DoDerP=F.
 Spin components of T(2) and E(2):
     alpha-alpha T2 =       0.5952659144D-01 E2=     -0.1552069458D+00
     alpha-beta  T2 =       0.3169399899D+00 E2=     -0.8828143837D+00
     beta-beta   T2 =       0.5952659144D-01 E2=     -0.1552069458D+00
 The integrals were generated   1 times.
 ANorm=    0.1198329326D+01
 E2 =    -0.1193228275D+01 EUMP2 =    -0.70202466113777D+03
 Leave Link  906 at Sun Jul 11 16:30:06 2021, MaxMem=   262144000 cpu:              79.3 elap:              19.8
 (Enter /prod/apps/gaussian/g16b1/l601.exe)
 Copying SCF densities to generalized density rwf, IOpCl= 0 IROHF=0.

 **********************************************************************

            Population analysis using the SCF Density.

 **********************************************************************

 Orbital symmetries:
       Occupied  (A) (A) (A) (A) (A) (A) (A) (A) (A) (A) (A) (A)
                 (A) (A) (A) (A) (A) (A) (A) (A) (A) (A) (A) (A)
                 (A) (A) (A) (A) (A) (A) (A) (A) (A) (A)
       Virtual   (A) (A) (A) (A) (A) (A) (A) (A) (A) (A) (A) (A)
                 (A) (A) (A) (A) (A) (A) (A) (A) (A) (A) (A) (A)
                 (A) (A) (A) (A) (A) (A) (A) (A) (A) (A) (A) (A)
                 (A) (A) (A) (A) (A) (A) (A) (A) (A) (A) (A) (A)
                 (A) (A) (A) (A) (A) (A) (A) (A) (A) (A) (A) (A)
                 (A) (A) (A) (A) (A) (A) (A) (A) (A) (A) (A) (A)
                 (A) (A) (A) (A) (A) (A) (A) (A) (A) (A) (A) (A)
                 (A) (A) (A) (A) (A) (A) (A) (A) (A) (A) (A) (A)
                 (A) (A) (A) (A) (A) (A) (A) (A) (A) (A) (A) (A)
                 (A) (A) (A) (A) (A) (A) (A) (A) (A) (A) (A) (A)
                 (A) (A) (A) (A) (A) (A) (A) (A) (A) (A) (A) (A)
                 (A) (A) (A) (A) (A) (A) (A) (A) (A) (A) (A) (A)
                 (A) (A) (A) (A) (A) (A) (A) (A) (A) (A) (A) (A)
                 (A) (A) (A) (A) (A) (A) (A) (A) (A) (A) (A) (A)
                 (A) (A) (A) (A) (A) (A) (A) (A) (A) (A) (A) (A)
                 (A) (A) (A) (A) (A) (A) (A) (A) (A) (A) (A) (A)
                 (A) (A) (A) (A) (A) (A) (A) (A) (A) (A) (A) (A)
                 (A) (A) (A) (A) (A) (A) (A) (A) (A) (A) (A) (A)
                 (A) (A) (A) (A) (A) (A) (A) (A) (A) (A) (A) (A)
                 (A) (A) (A) (A) (A) (A) (A)
 The electronic state is 1-A.
 Alpha  occ. eigenvalues --  -92.13042 -15.87392 -15.72822 -11.47939 -11.46836
 Alpha  occ. eigenvalues --  -11.42743 -11.40553 -11.40084  -9.13228  -6.81367
 Alpha  occ. eigenvalues --   -6.81278  -6.81104  -1.48986  -1.42737  -1.24139
 Alpha  occ. eigenvalues --   -1.20020  -1.13732  -1.05269  -0.95507  -0.94446
 Alpha  occ. eigenvalues --   -0.92877  -0.87852  -0.83831  -0.82009  -0.77738
 Alpha  occ. eigenvalues --   -0.74838  -0.73099  -0.70079  -0.68451  -0.67763
 Alpha  occ. eigenvalues --   -0.63360  -0.57900  -0.52586  -0.46796
 Alpha virt. eigenvalues --   -0.10025  -0.07244  -0.06866  -0.05754  -0.04010
 Alpha virt. eigenvalues --   -0.03772  -0.03586  -0.03374  -0.02584  -0.01636
 Alpha virt. eigenvalues --   -0.01327  -0.00058   0.00024   0.01164   0.01692
 Alpha virt. eigenvalues --    0.02250   0.03010   0.03250   0.03643   0.03926
 Alpha virt. eigenvalues --    0.04547   0.05038   0.05618   0.05836   0.06216
 Alpha virt. eigenvalues --    0.07042   0.07788   0.07875   0.08102   0.09434
 Alpha virt. eigenvalues --    0.09983   0.10475   0.10612   0.11195   0.11943
 Alpha virt. eigenvalues --    0.12133   0.12939   0.13889   0.14110   0.15806
 Alpha virt. eigenvalues --    0.16103   0.16383   0.18751   0.19490   0.20474
 Alpha virt. eigenvalues --    0.20650   0.21761   0.22292   0.22595   0.23688
 Alpha virt. eigenvalues --    0.23931   0.24418   0.25632   0.27667   0.28515
 Alpha virt. eigenvalues --    0.28852   0.30159   0.30984   0.31687   0.32592
 Alpha virt. eigenvalues --    0.32921   0.33563   0.33864   0.34325   0.34693
 Alpha virt. eigenvalues --    0.35301   0.36113   0.37132   0.37450   0.38789
 Alpha virt. eigenvalues --    0.40096   0.40908   0.41360   0.42110   0.42548
 Alpha virt. eigenvalues --    0.43359   0.44324   0.44982   0.46476   0.47112
 Alpha virt. eigenvalues --    0.47269   0.48249   0.50137   0.50859   0.51370
 Alpha virt. eigenvalues --    0.52231   0.53217   0.54529   0.54696   0.55361
 Alpha virt. eigenvalues --    0.56255   0.57125   0.57227   0.58226   0.59458
 Alpha virt. eigenvalues --    0.61082   0.61657   0.62209   0.63333   0.64380
 Alpha virt. eigenvalues --    0.64653   0.65205   0.66577   0.68056   0.68373
 Alpha virt. eigenvalues --    0.69062   0.69928   0.71286   0.72076   0.74384
 Alpha virt. eigenvalues --    0.74675   0.75105   0.77012   0.78346   0.79437
 Alpha virt. eigenvalues --    0.79594   0.80405   0.82419   0.83116   0.86388
 Alpha virt. eigenvalues --    0.87089   0.87422   0.88603   0.90166   0.92025
 Alpha virt. eigenvalues --    0.92548   0.96348   0.97084   0.98669   1.00799
 Alpha virt. eigenvalues --    1.01582   1.03197   1.03594   1.04501   1.08259
 Alpha virt. eigenvalues --    1.09819   1.10108   1.10743   1.13156   1.14867
 Alpha virt. eigenvalues --    1.16316   1.17087   1.19746   1.23627   1.24009
 Alpha virt. eigenvalues --    1.26344   1.28572   1.30512   1.31002   1.36979
 Alpha virt. eigenvalues --    1.40445   1.41756   1.43636   1.45107   1.46581
 Alpha virt. eigenvalues --    1.48706   1.51636   1.54116   1.55366   1.57343
 Alpha virt. eigenvalues --    1.59409   1.60240   1.62400   1.63272   1.65904
 Alpha virt. eigenvalues --    1.67270   1.68044   1.71001   1.71254   1.74686
 Alpha virt. eigenvalues --    1.76017   1.76610   1.77310   1.80978   1.83719
 Alpha virt. eigenvalues --    1.86253   1.88132   1.91055   1.92931   1.93387
 Alpha virt. eigenvalues --    1.94373   1.97562   1.98830   2.00274   2.03549
 Alpha virt. eigenvalues --    2.03991   2.04465   2.07490   2.09573   2.12622
 Alpha virt. eigenvalues --    2.13120   2.15111   2.17922   2.19021   2.20637
 Alpha virt. eigenvalues --    2.24114   2.27424   2.29349   2.30639   2.32364
 Alpha virt. eigenvalues --    2.34141   2.35406   2.36605   2.38688   2.42232
 Alpha virt. eigenvalues --    2.45093   2.46147   2.47799   2.52223   2.54580
 Alpha virt. eigenvalues --    2.56504   2.59480   2.61697   2.66604   2.69560
 Alpha virt. eigenvalues --    2.71777   2.73603   2.75253   2.79335   2.81147
 Alpha virt. eigenvalues --    2.83213   2.83816   2.88018   2.91418   2.95909
 Alpha virt. eigenvalues --    2.99355   3.03738   3.07599   3.16289   3.29261
 Alpha virt. eigenvalues --    3.34373   3.35975   3.39026   3.57000   3.70862
          Condensed to atoms (all electrons):
               1          2          3          4          5          6
     1  N    6.477206   0.439287   0.384998  -0.023735  -0.067073  -0.101927
     2  H    0.439287   0.604076  -0.070919  -0.057371  -0.037184  -0.005804
     3  H    0.384998  -0.070919   0.468569  -0.043443  -0.007066   0.018520
     4  C   -0.023735  -0.057371  -0.043443   4.611274   0.212103   0.309392
     5  H   -0.067073  -0.037184  -0.007066   0.212103   1.251154  -0.209132
     6  H   -0.101927  -0.005804   0.018520   0.309392  -0.209132   1.171303
     7  C   -0.120814   0.036758  -0.009679   0.597078  -0.106098   0.032804
     8  H    0.019491   0.000517  -0.002667   0.043491  -0.049062  -0.045747
     9  H    0.017984  -0.004425   0.004764  -0.192368   0.077030  -0.055388
    10  C    0.123206  -0.014570  -0.020789  -0.378449   0.086547   0.018230
    11  N   -0.092391   0.001273   0.063897   0.063385  -0.025705   0.003983
    12  C   -0.001199  -0.000706  -0.001813  -0.078327  -0.026530   0.001820
    13  H    0.006750   0.000755  -0.013724  -0.004324  -0.000181  -0.000313
    14  C    0.000216   0.000409  -0.000189   0.015484   0.004953   0.001120
    15  H   -0.000278  -0.000071   0.001838   0.002331  -0.000168   0.000272
    16  S   -0.024395  -0.000524   0.003502   0.026104   0.016952  -0.002942
    17  H    0.360506  -0.064785  -0.030429  -0.010140   0.022478  -0.033967
               7          8          9         10         11         12
     1  N   -0.120814   0.019491   0.017984   0.123206  -0.092391  -0.001199
     2  H    0.036758   0.000517  -0.004425  -0.014570   0.001273  -0.000706
     3  H   -0.009679  -0.002667   0.004764  -0.020789   0.063897  -0.001813
     4  C    0.597078   0.043491  -0.192368  -0.378449   0.063385  -0.078327
     5  H   -0.106098  -0.049062   0.077030   0.086547  -0.025705  -0.026530
     6  H    0.032804  -0.045747  -0.055388   0.018230   0.003983   0.001820
     7  C    5.485301   0.066200   0.260272  -0.314544   0.081444  -0.219648
     8  H    0.066200   1.096236  -0.140033  -0.013120   0.030181   0.013979
     9  H    0.260272  -0.140033   0.984609   0.041027  -0.046808  -0.034428
    10  C   -0.314544  -0.013120   0.041027   6.306958   0.382811  -0.239441
    11  N    0.081444   0.030181  -0.046808   0.382811   7.502877   0.139315
    12  C   -0.219648   0.013979  -0.034428  -0.239441   0.139315   5.629114
    13  H   -0.011096   0.000562  -0.000972   0.089880  -0.193523   0.280893
    14  C   -0.010284  -0.005377   0.009218  -0.081433  -0.115392   0.193509
    15  H    0.026378   0.001390   0.000922   0.030920   0.012274  -0.011636
    16  S    0.075417  -0.063720   0.045013   0.096456  -0.126817  -0.321586
    17  H   -0.039568   0.004820   0.005022   0.013882  -0.012770  -0.001389
              13         14         15         16         17
     1  N    0.006750   0.000216  -0.000278  -0.024395   0.360506
     2  H    0.000755   0.000409  -0.000071  -0.000524  -0.064785
     3  H   -0.013724  -0.000189   0.001838   0.003502  -0.030429
     4  C   -0.004324   0.015484   0.002331   0.026104  -0.010140
     5  H   -0.000181   0.004953  -0.000168   0.016952   0.022478
     6  H   -0.000313   0.001120   0.000272  -0.002942  -0.033967
     7  C   -0.011096  -0.010284   0.026378   0.075417  -0.039568
     8  H    0.000562  -0.005377   0.001390  -0.063720   0.004820
     9  H   -0.000972   0.009218   0.000922   0.045013   0.005022
    10  C    0.089880  -0.081433   0.030920   0.096456   0.013882
    11  N   -0.193523  -0.115392   0.012274  -0.126817  -0.012770
    12  C    0.280893   0.193509  -0.011636  -0.321586  -0.001389
    13  H    1.266751  -0.124281  -0.038986  -0.000787   0.001193
    14  C   -0.124281   5.416323   0.266547   0.287896  -0.000497
    15  H   -0.038986   0.266547   1.167206  -0.125216  -0.000165
    16  S   -0.000787   0.287896  -0.125216  15.732331  -0.000539
    17  H    0.001193  -0.000497  -0.000165  -0.000539   0.535152
 Mulliken charges:
               1
     1  N   -0.397831
     2  H    0.173286
     3  H    0.254631
     4  C    0.907518
     5  H   -0.143018
     6  H   -0.102223
     7  C    0.170078
     8  H    0.042857
     9  H    0.028559
    10  C   -0.127569
    11  N   -0.668035
    12  C    0.678071
    13  H   -0.258595
    14  C    0.141777
    15  H   -0.333557
    16  S    0.382854
    17  H    0.251197
 Sum of Mulliken charges =   1.00000
 Mulliken charges with hydrogens summed into heavy atoms:
               1
     1  N    0.281282
     4  C    0.662277
     7  C    0.241494
    10  C   -0.127569
    11  N   -0.668035
    12  C    0.419476
    14  C   -0.191780
    16  S    0.382854
 Electronic spatial extent (au):  <R**2>=           1223.5470
 Charge=              1.0000 electrons
 Dipole moment (field-independent basis, Debye):
    X=              8.7016    Y=              1.4229    Z=             -0.2252  Tot=              8.8200
 Quadrupole moment (field-independent basis, Debye-Ang):
   XX=            -11.1516   YY=            -44.5241   ZZ=            -53.2053
   XY=              3.0690   XZ=             -1.7174   YZ=             -0.0086
 Traceless Quadrupole moment (field-independent basis, Debye-Ang):
   XX=             25.1420   YY=             -8.2304   ZZ=            -16.9116
   XY=              3.0690   XZ=             -1.7174   YZ=             -0.0086
 Octapole moment (field-independent basis, Debye-Ang**2):
  XXX=             85.6740  YYY=             10.8454  ZZZ=             -2.4118  XYY=             14.8997
  XXY=             29.7486  XXZ=             -0.3359  XZZ=             19.1318  YZZ=             -0.0943
  YYZ=              0.9819  XYZ=             -1.4716
 Hexadecapole moment (field-independent basis, Debye-Ang**3):
 XXXX=           -668.8401 YYYY=           -340.6128 ZZZZ=            -84.7269 XXXY=             73.1106
 XXXZ=            -17.1912 YYYX=              2.6479 YYYZ=              0.0078 ZZZX=             -6.1797
 ZZZY=             -1.2846 XXYY=           -195.8675 XXZZ=           -185.7676 YYZZ=            -82.6630
 XXYZ=             -0.2478 YYXZ=              0.6957 ZZXY=              9.6308
 N-N= 4.466129065918D+02 E-N=-2.535367681275D+03  KE= 7.003270268111D+02
 Leave Link  601 at Sun Jul 11 16:30:06 2021, MaxMem=   262144000 cpu:               0.2 elap:               0.1
 (Enter /prod/apps/gaussian/g16b1/l9999.exe)
 1\1\GINC-PIRINEUS45\SP\RMP2-FC\Aug-CC-pVDZ\C5H9N2S1(1+)\UBATOR02\11-Ju
 l-2021\0\\#p mp2/aug-cc-pVDZ scf=tight maxdisk=180GB geom=allcheck\\SE
 T_328_BBB87_conf1.geo_285_285 geometry\\1,1\N,0,-0.9654951753,1.804024
 0936,0.9928547784\H,0,-1.8944052917,2.2279204987,1.1183666511\H,0,-0.7
 883998852,1.6508148028,-0.0224640344\C,0,-0.8612841872,0.4886626507,1.
 7031001236\H,0,-1.7029741955,-0.1157854031,1.3678418902\H,0,-0.9651697
 738,0.6819962864,2.7690429779\C,0,0.4696335224,-0.1962275689,1.4023706
 848\H,0,0.5202868906,-1.1055996546,2.0044720267\H,0,1.2983460378,0.441
 9090609,1.7326792945\C,0,0.6364461268,-0.5282798051,-0.0552835393\N,0,
 0.1840651987,0.2254654022,-1.0250732043\C,0,0.4892778641,-0.2981387753
 ,-2.2631778745\H,0,0.1699099485,0.2268134005,-3.1539621789\C,0,1.18839
 50172,-1.4672296262,-2.2479669628\H,0,1.5369593221,-2.0571841762,-3.08
 09049696\S,0,1.4803483664,-1.9538952174,-0.6103654999\H,0,-0.262939785
 9,2.4807340312,1.3404698365\\Version=ES64L-G16RevB.01\State=1-A\HF=-70
 0.8314329\MP2=-702.0246611\RMSD=8.125e-09\PG=C01 [X(C5H9N2S1)]\\@


 BE CAREFUL NOT TO BECOME TOO GOOD OF A SONGBIRD OR 
 THEY'LL THROW YOU INTO A CAGE.

                                    -- SNOOPY TO WOODSTOCK
 Job cpu time:       0 days  0 hours  5 minutes  9.7 seconds.
 Elapsed time:       0 days  0 hours  1 minutes 17.6 seconds.
 File lengths (MBytes):  RWF=     43 Int=      0 D2E=      0 Chk=      8 Scr=      1
 Normal termination of Gaussian 16 at Sun Jul 11 16:30:06 2021.
